<LesHouchesEvents version="3.0">
<header>
<!--
#*********************************************************************
#                                                                    *
#                        MadGraph5_aMC@NLO                           *
#                                                                    *
#                           Going Beyond                             *
#                                                                    *
#                   http://madgraph.hep.uiuc.edu                     *
#                   http://madgraph.phys.ucl.ac.be                   *
#                   http://amcatnlo.cern.ch                          *
#                                                                    *
#                     The MadGraph5_aMC@NLO team                     *
#                                                                    *
#....................................................................*
#                                                                    *
# This file contains all the information necessary to reproduce      *
# the events generated:                                              *
#                                                                    *
# 1. software version                                                *
# 2. proc_card          : code generation info including model       *
# 3. param_card         : model primary parameters in the LH format  *
# 4. run_card           : running parameters (collider and cuts)     *
# 5. pythia_card        : present only if pythia has been run        *
# 6. pgs_card           : present only if pgs has been run           *
# 7. delphes_cards      : present only if delphes has been run       *
#                                                                    *
#                                                                    *
#*********************************************************************
-->
<MGVersion>
#5.2.2.3
</MGVersion>
<MG5ProcCard>
#************************************************************
#*                     MadGraph5_aMC@NLO                    *
#*                                                          *
#*                *                       *                 *
#*                  *        * *        *                   *
#*                    * * * * 5 * * * *                     *
#*                  *        * *        *                   *
#*                *                       *                 *
#*                                                          *
#*                                                          *
#*         VERSION 2.2.3                 2015-02-10         *
#*                                                          *
#*    The MadGraph5_aMC@NLO Development Team - Find us at   *
#*    https://server06.fynu.ucl.ac.be/projects/madgraph     *
#*                                                          *
#************************************************************
#*                                                          *
#*               Command File for MadGraph5_aMC@NLO         *
#*                                                          *
#*     run as ./bin/mg5_aMC  filename                       *
#*                                                          *
#************************************************************
set group_subprocesses Auto
set ignore_six_quark_processes False
set loop_optimized_output True
set gauge unitary
set complex_mass_scheme False
import model sm
define p = g u c d s u~ c~ d~ s~
define j = g u c d s u~ c~ d~ s~
define l+ = e+ mu+
define l- = e- mu-
define vl = ve vm vt
define vl~ = ve~ vm~ vt~
import model Zprime_UFO
generate p p > zph, zph > j j
add process p p > zph, zph > b b~
output Dijet_signal
</MG5ProcCard>
<MGProcCard>
#*********************************************************************
#                        MadGraph/MadEvent                           *
#                   http://madgraph.hep.uiuc.edu                     *
#                                                                    *
#                          proc_card.dat                             *
#*********************************************************************
#                                                                    *
#            This Files is generated by MADGRAPH 5                   *
#                                                                    *
# WARNING: This Files is generated for MADEVENT (compatibility issue)*
#          This files is NOT a valid MG4 proc_card.dat               *
#          Running this in MG4 will NEVER reproduce the result of MG5*
#                                                                    *
#*********************************************************************
#*********************************************************************
# Process(es) requested : mg2 input                                  *
#*********************************************************************
# Begin PROCESS # This is TAG. Do not modify this line
p p > zph , zph > j j           #Process
# Be carefull the coupling are here in MG5 convention
          
end_coup           # End the couplings input

done               # this tells MG there are no more procs
# End PROCESS  # This is TAG. Do not modify this line
#*********************************************************************
# Model information                                                  *
#*********************************************************************
# Begin MODEL  # This is TAG. Do not modify this line
Zprime_UFO
# End   MODEL  # This is TAG. Do not modify this line
#*********************************************************************
# Start multiparticle definitions                                    *
#*********************************************************************
# Begin MULTIPARTICLES # This is TAG. Do not modify this line

# End  MULTIPARTICLES # This is TAG. Do not modify this line
</MGProcCard>
<MGRunCard>
#*********************************************************************
#                       MadGraph5_aMC@NLO                            *
#                                                                    *
#                     run_card.dat MadEvent                          *
#                                                                    *
#  This file is used to set the parameters of the run.               *
#                                                                    *
#  Some notation/conventions:                                        *
#                                                                    *
#   Lines starting with a '# ' are info or comments                  *
#                                                                    *
#   mind the format:   value    = variable     ! comment             *
#*********************************************************************
#
#*******************                                                 
# Running parameters
#*******************                                                 
#                                                                    
#*********************************************************************
# Tag name for the run (one word)                                    *
#*********************************************************************
  tag_1     = run_tag ! name of the run 
#*********************************************************************
# Run to generate the grid pack                                      *
#*********************************************************************
  .false.     = gridpack  !True = setting up the grid pack
#*********************************************************************
# Number of events and rnd seed                                      *
# Warning: Do not generate more than 1M events in a single run       *
# If you want to run Pythia, avoid more than 50k events in a run.    *
#*********************************************************************
  2000 = nevents ! Number of unweighted events requested 
 876 = iseed   ! rnd seed (0=assigned automatically=default))
#*********************************************************************
# Collider type and energy                                           *
# lpp: 0=No PDF, 1=proton, -1=antiproton, 2=photon from proton,      *
#                                         3=photon from electron     *
#*********************************************************************
        1     = lpp1    ! beam 1 type 
        1     = lpp2    ! beam 2 type
     4000     = ebeam1  ! beam 1 total energy in GeV
     4000     = ebeam2  ! beam 2 total energy in GeV
#*********************************************************************
# Beam polarization from -100 (left-handed) to 100 (right-handed)    *
#*********************************************************************
        0     = polbeam1 ! beam polarization for beam 1
        0     = polbeam2 ! beam polarization for beam 2
#*********************************************************************
# PDF CHOICE: this automatically fixes also alpha_s and its evol.    *
#*********************************************************************
 'nn23lo1'    = pdlabel     ! PDF set                                     
 230000    = lhaid     ! if pdlabel=lhapdf, this is the lhapdf number
#*********************************************************************
# Renormalization and factorization scales                           *
#*********************************************************************
 F        = fixed_ren_scale  ! if .true. use fixed ren scale
 F        = fixed_fac_scale  ! if .true. use fixed fac scale
 91.1880  = scale            ! fixed ren scale
 91.1880  = dsqrt_q2fact1    ! fixed fact scale for pdf1
 91.1880  = dsqrt_q2fact2    ! fixed fact scale for pdf2
 1        = scalefact        ! scale factor for event-by-event scales
#*********************************************************************
# Matching - Warning! ickkw > 1 is still beta
#*********************************************************************
 0        = ickkw            ! 0 no matching, 1 MLM, 2 CKKW matching
 1        = highestmult      ! for ickkw=2, highest mult group
 1        = ktscheme         ! for ickkw=1, 1 Durham kT, 2 Pythia pTE
 1        = alpsfact         ! scale factor for QCD emission vx
 F        = chcluster        ! cluster only according to channel diag
 T        = pdfwgt           ! for ickkw=1, perform pdf reweighting
 5        = asrwgtflavor     ! highest quark flavor for a_s reweight
 T        = clusinfo         ! include clustering tag in output
 3.0      = lhe_version       ! Change the way clustering information pass to shower.        
#*********************************************************************
#**********************************************************
#
#**********************************************************
# Automatic ptj and mjj cuts if xqcut > 0
# (turn off for VBF and single top processes)
#**********************************************************
   T  = auto_ptj_mjj  ! Automatic setting of ptj and mjj
#**********************************************************
#                                                                    
#**********************************
# BW cutoff (M+/-bwcutoff*Gamma)
#**********************************
  15  = bwcutoff      ! (M+/-bwcutoff*Gamma)
#**********************************************************
# Apply pt/E/eta/dr/mij cuts on decay products or not
# (note that etmiss/ptll/ptheavy/ht/sorted cuts always apply)
#**********************************************************
   T  = cut_decays    ! Cut decay products 
#*************************************************************
# Number of helicities to sum per event (0 = all helicities)
# 0 gives more stable result, but longer run time (needed for
# long decay chains e.g.).
# Use >=2 if most helicities contribute, e.g. pure QCD.
#*************************************************************
   0  = nhel          ! Number of helicities used per event
#*******************                                                 
# Standard Cuts
#*******************                                                 
#                                                                    
#*********************************************************************
# Minimum and maximum pt's (for max, -1 means no cut)                *
#*********************************************************************
 20  = ptj       ! minimum pt for the jets 
  0  = ptb       ! minimum pt for the b 
 10  = pta       ! minimum pt for the photons 
 10  = ptl       ! minimum pt for the charged leptons 
  0  = misset    ! minimum missing Et (sum of neutrino's momenta)
  0  = ptheavy   ! minimum pt for one heavy final state
 1.0 = ptonium   ! minimum pt for the quarkonium states
 -1  = ptjmax    ! maximum pt for the jets
 -1  = ptbmax    ! maximum pt for the b
 -1  = ptamax    ! maximum pt for the photons
 -1  = ptlmax    ! maximum pt for the charged leptons
 -1  = missetmax ! maximum missing Et (sum of neutrino's momenta)
#*********************************************************************
# Minimum and maximum E's (in the center of mass frame)              *
#*********************************************************************
  0  = ej     ! minimum E for the jets 
  0  = eb     ! minimum E for the b 
  0  = ea     ! minimum E for the photons 
  0  = el     ! minimum E for the charged leptons 
 -1   = ejmax ! maximum E for the jets
 -1   = ebmax ! maximum E for the b
 -1   = eamax ! maximum E for the photons
 -1   = elmax ! maximum E for the charged leptons
#*********************************************************************
# Maximum and minimum absolute rapidity (for max, -1 means no cut)   *
#*********************************************************************
   5  = etaj    ! max rap for the jets 
  -1  = etab    ! max rap for the b
 2.5  = etaa    ! max rap for the photons 
 2.5  = etal    ! max rap for the charged leptons 
 0.6  = etaonium ! max rap for the quarkonium states
   0  = etajmin ! min rap for the jets
   0  = etabmin ! min rap for the b
   0  = etaamin ! min rap for the photons
   0  = etalmin ! main rap for the charged leptons
#*********************************************************************
# Minimum and maximum DeltaR distance                                *
#*********************************************************************
 0.4 = drjj    ! min distance between jets 
 0   = drbb    ! min distance between b's 
 0.4 = drll    ! min distance between leptons 
 0.4 = draa    ! min distance between gammas 
 0   = drbj    ! min distance between b and jet 
 0.4 = draj    ! min distance between gamma and jet 
 0.4 = drjl    ! min distance between jet and lepton 
 0   = drab    ! min distance between gamma and b 
 0   = drbl    ! min distance between b and lepton 
 0.4 = dral    ! min distance between gamma and lepton 
 -1  = drjjmax ! max distance between jets
 -1  = drbbmax ! max distance between b's
 -1  = drllmax ! max distance between leptons
 -1  = draamax ! max distance between gammas
 -1  = drbjmax ! max distance between b and jet
 -1  = drajmax ! max distance between gamma and jet
 -1  = drjlmax ! max distance between jet and lepton
 -1  = drabmax ! max distance between gamma and b
 -1  = drblmax ! max distance between b and lepton
 -1  = dralmax ! maxdistance between gamma and lepton
#*********************************************************************
# Minimum and maximum invariant mass for pairs                       *
# WARNING: for four lepton final state mmll cut require to have      *
#          different lepton masses for each flavor!                  *           
#*********************************************************************
 0   = mmjj    ! min invariant mass of a jet pair 
 0   = mmbb    ! min invariant mass of a b pair 
 0   = mmaa    ! min invariant mass of gamma gamma pair
 0   = mmll    ! min invariant mass of l+l- (same flavour) lepton pair
 -1  = mmjjmax ! max invariant mass of a jet pair
 -1  = mmbbmax ! max invariant mass of a b pair
 -1  = mmaamax ! max invariant mass of gamma gamma pair
 -1  = mmllmax ! max invariant mass of l+l- (same flavour) lepton pair
#*********************************************************************
# Minimum and maximum invariant mass for all letpons                 *
#*********************************************************************
 0   = mmnl    ! min invariant mass for all letpons (l+- and vl) 
 -1  = mmnlmax ! max invariant mass for all letpons (l+- and vl) 
#*********************************************************************
# Minimum and maximum pt for 4-momenta sum of leptons                *
#*********************************************************************
 0   = ptllmin  ! Minimum pt for 4-momenta sum of leptons(l and vl)
 -1  = ptllmax  ! Maximum pt for 4-momenta sum of leptons(l and vl)
#*********************************************************************
# Inclusive cuts                                                     *
#*********************************************************************
 0  = xptj ! minimum pt for at least one jet  
 0  = xptb ! minimum pt for at least one b 
 0  = xpta ! minimum pt for at least one photon 
 0  = xptl ! minimum pt for at least one charged lepton 
#*********************************************************************
# Control the pt's of the jets sorted by pt                          *
#*********************************************************************
 0   = ptj1min ! minimum pt for the leading jet in pt
 0   = ptj2min ! minimum pt for the second jet in pt
 0   = ptj3min ! minimum pt for the third jet in pt
 0   = ptj4min ! minimum pt for the fourth jet in pt
 -1  = ptj1max ! maximum pt for the leading jet in pt 
 -1  = ptj2max ! maximum pt for the second jet in pt
 -1  = ptj3max ! maximum pt for the third jet in pt
 -1  = ptj4max ! maximum pt for the fourth jet in pt
 0   = cutuse  ! reject event if fails any (0) / all (1) jet pt cuts
#*********************************************************************
# Control the pt's of leptons sorted by pt                           *
#*********************************************************************
 0   = ptl1min ! minimum pt for the leading lepton in pt
 0   = ptl2min ! minimum pt for the second lepton in pt
 0   = ptl3min ! minimum pt for the third lepton in pt
 0   = ptl4min ! minimum pt for the fourth lepton in pt
 -1  = ptl1max ! maximum pt for the leading lepton in pt 
 -1  = ptl2max ! maximum pt for the second lepton in pt
 -1  = ptl3max ! maximum pt for the third lepton in pt
 -1  = ptl4max ! maximum pt for the fourth lepton in pt
#*********************************************************************
# Control the Ht(k)=Sum of k leading jets                            *
#*********************************************************************
 0   = htjmin ! minimum jet HT=Sum(jet pt)
 -1  = htjmax ! maximum jet HT=Sum(jet pt)
 0   = ihtmin  !inclusive Ht for all partons (including b)
 -1  = ihtmax  !inclusive Ht for all partons (including b)
 0   = ht2min ! minimum Ht for the two leading jets
 0   = ht3min ! minimum Ht for the three leading jets
 0   = ht4min ! minimum Ht for the four leading jets
 -1  = ht2max ! maximum Ht for the two leading jets
 -1  = ht3max ! maximum Ht for the three leading jets
 -1  = ht4max ! maximum Ht for the four leading jets
#***********************************************************************
# Photon-isolation cuts, according to hep-ph/9801442                   *
# When ptgmin=0, all the other parameters are ignored                  *
# When ptgmin>0, pta and draj are not going to be used                 *
#***********************************************************************
   0 = ptgmin ! Min photon transverse momentum
 0.4 = R0gamma ! Radius of isolation code
 1.0 = xn ! n parameter of eq.(3.4) in hep-ph/9801442
 1.0 = epsgamma ! epsilon_gamma parameter of eq.(3.4) in hep-ph/9801442
 .true. = isoEM ! isolate photons from EM energy (photons and leptons)
#*********************************************************************
# WBF cuts                                                           *
#*********************************************************************
 0   = xetamin ! minimum rapidity for two jets in the WBF case  
 0   = deltaeta ! minimum rapidity for two jets in the WBF case 
#*********************************************************************
# KT DURHAM CUT                                                      *
#*********************************************************************
 -1    =  ktdurham        
 0.4  =  dparameter 
#*********************************************************************
# maximal pdg code for quark to be considered as a light jet         *
# (otherwise b cuts are applied)                                     *
#*********************************************************************
 4 = maxjetflavor    ! Maximum jet pdg code
#*********************************************************************
# Jet measure cuts                                                   *
#*********************************************************************
 0   = xqcut   ! minimum kt jet measure between partons
#*********************************************************************
#
#*********************************************************************
# Store info for systematics studies                                 *
# WARNING: If use_syst is T, matched Pythia output is                *
#          meaningful ONLY if plotted taking matchscale              *
#          reweighting into account!                                 *
#*********************************************************************
   F  = use_syst      ! Enable systematics studies
#
#**************************************
# Parameter of the systematics study
#  will be used by SysCalc (if installed)
#**************************************                                  
#
0.5 1 2 = sys_scalefact  # factorization/renormalization scale factor
0.5 1 2 = sys_alpsfact  # \alpha_s emission scale factors
30 50 = sys_matchscale # variation of merging scale
# PDF sets and number of members (0 or none for all members).
CT10nlo.LHgrid = sys_pdf # matching scales
# MSTW2008nlo68cl.LHgrid 1  = sys_pdf
</MGRunCard>
<slha>
######################################################################
## PARAM_CARD AUTOMATICALY GENERATED BY MG5 FOLLOWING UFO MODEL   ####
######################################################################
##                                                                  ##
##  Width set on Auto will be computed following the information    ##
##        present in the decay.py files of the model.               ##
##        See  arXiv:1402.1178 for more details.                    ##
##                                                                  ##
######################################################################

###################################
## INFORMATION FOR CKMBLOCK
###################################
Block ckmblock 
    1 2.277360e-01 # cabi 

###################################
## INFORMATION FOR FRBLOCK
###################################
Block frblock 
    1 4.000000e-01 # gz 

###################################
## INFORMATION FOR MASS
###################################
Block mass 
    1 5.040000e-03 # MD 
    2 2.550000e-03 # MU 
    3 1.010000e-01 # MS 
    4 1.270000e+00 # MC 
    5 4.700000e+00 # MB 
    6 1.720000e+02 # MT 
   11 5.110000e-04 # Me 
   13 1.056600e-01 # MM 
   15 1.777000e+00 # MTA 
   23 9.118760e+01 # MZ 
   25 1.200000e+02 # MH 
  10030 1.100000e+03 # MZph 
  10031 3.000000e+02 # MZpl 
## Dependent parameters, given by model restrictions.
## Those values should be edited following the 
## analytical expression. MG5 ignores those values 
## but they are important for interfacing the output of MG5
## to external program such as Pythia.
  12 0.000000 # ve : 0.0 
  14 0.000000 # vm : 0.0 
  16 0.000000 # vt : 0.0 
  21 0.000000 # g : 0.0 
  22 0.000000 # a : 0.0 
  24 79.824360 # w+ : cmath.sqrt(MZ__exp__2/2. + cmath.sqrt(MZ__exp__4/4. - (aEW*cmath.pi*MZ__exp__2)/(Gf*sqrt__2))) 

###################################
## INFORMATION FOR SMINPUTS
###################################
Block sminputs 
    1 1.279000e+02 # aEWM1 
    2 1.166370e-05 # Gf 
    3 1.184000e-01 # aS 

###################################
## INFORMATION FOR YUKAWA
###################################
Block yukawa 
    1 5.040000e-03 # ymdo 
    2 2.550000e-03 # ymup 
    3 1.010000e-01 # yms 
    4 1.270000e+00 # ymc 
    5 4.700000e+00 # ymb 
    6 1.720000e+02 # ymt 
   11 5.110000e-04 # yme 
   13 1.056600e-01 # ymm 
   15 1.777000e+00 # ymtau 

###################################
## INFORMATION FOR DECAY
###################################
DECAY   6 1.508336e+00 # WT 
DECAY  23 2.495200e+00 # WZ 
DECAY  24 2.085000e+00 # WW 
DECAY  25 5.753088e-03 # WH 
## Dependent parameters, given by model restrictions.
## Those values should be edited following the 
## analytical expression. MG5 ignores those values 
## but they are important for interfacing the output of MG5
## to external program such as Pythia.
DECAY  1 0.000000 # d : 0.0 
DECAY  2 0.000000 # u : 0.0 
DECAY  3 0.000000 # s : 0.0 
DECAY  4 0.000000 # c : 0.0 
DECAY  5 0.000000 # b : 0.0 
DECAY  11 0.000000 # e- : 0.0 
DECAY  12 0.000000 # ve : 0.0 
DECAY  13 0.000000 # mu- : 0.0 
DECAY  14 0.000000 # vm : 0.0 
DECAY  15 0.000000 # ta- : 0.0 
DECAY  16 0.000000 # vt : 0.0 
DECAY  21 0.000000 # g : 0.0 
DECAY  22 0.000000 # a : 0.0 
DECAY  10030 0.308725 # zph : (gz__exp__2*MZph*(5 + cmath.sqrt(1 - (4*MT__exp__2)/MZph__exp__2)))/(144.*cmath.pi) 
DECAY  10031 0.132629 # zpl : (5*gz__exp__2*MZpl)/(144.*cmath.pi) 
#===========================================================
# QUANTUM NUMBERS OF NEW STATE(S) (NON SM PDG CODE)
#===========================================================

Block QNUMBERS 10030  # zph 
        1 0  # 3 times electric charge
        2 3  # number of spin states (2S+1)
        3 1  # colour rep (1: singlet, 3: triplet, 8: octet)
        4 0  # Particle/Antiparticle distinction (0=own anti)
Block QNUMBERS 10031  # zpl 
        1 0  # 3 times electric charge
        2 3  # number of spin states (2S+1)
        3 1  # colour rep (1: singlet, 3: triplet, 8: octet)
        4 0  # Particle/Antiparticle distinction (0=own anti)
</slha>
## END BANNER##
<MGGenerationInfo>
#  Number of Events        :         4060
#  Integrated weight (pb)  :  0.19231E+00
#  Max wgt                 :  0.64127E-04
#  Average wgt             :  0.47367E-04
</MGGenerationInfo>
</header>
<init>
     2212     2212  0.40000000000E+04  0.40000000000E+04 0 0  247000  247000 2   1
  0.19242269584E+00  0.36579423402E-03  0.64127120000E-04   0
</init>
<event>
 5   0  0.6109149E-04  0.1097993E+04  0.7818609E-02  0.9207151E-01
        2   -1    0    0  501    0  0.00000000000E+00  0.00000000000E+00  0.75220254540E+03  0.75220254540E+03  0.25500000920E-02 0.  1.
       -2   -1    0    0    0  501  0.00000000000E+00  0.00000000000E+00 -0.40068592232E+03  0.40068592232E+03  0.25500000920E-02 0. -1.
    10030    2    1    2    0    0  0.00000000000E+00  0.00000000000E+00  0.35151662308E+03  0.11528884677E+04  0.10979926606E+04 0.  0.
        1    1    3    3  502    0 -0.34906477033E+03  0.31648025889E+03  0.47160962441E+03  0.66664953763E+03  0.50400001928E-02 0.  1.
       -1    1    3    3    0  502  0.34906477033E+03 -0.31648025889E+03 -0.12009300133E+03  0.48623893010E+03  0.50400001928E-02 0. -1.
</event>
<event>
 5   0  0.6109149E-04  0.1101986E+04  0.7818609E-02  0.9203258E-01
       -2   -1    0    0    0  501  0.00000000000E+00  0.00000000000E+00  0.51257105658E+03  0.51257105658E+03  0.25500000920E-02 0. -1.
        2   -1    0    0  501    0  0.00000000000E+00  0.00000000000E+00 -0.59229487722E+03  0.59229487722E+03  0.25500000920E-02 0.  1.
    10030    2    1    2    0    0  0.00000000000E+00  0.00000000000E+00 -0.79723820640E+02  0.11048659338E+04  0.11019858638E+04 0.  0.
        1    1    3    3  502    0  0.31622956121E+02 -0.36678994359E+02  0.51043305383E+03  0.51272532847E+03  0.50400001928E-02 0. -1.
       -1    1    3    3    0  502 -0.31622956121E+02  0.36678994359E+02 -0.59015687447E+03  0.59214060534E+03  0.50400001928E-02 0.  1.
</event>
<event>
 5   0  0.5948818E-04  0.1100421E+04  0.7818609E-02  0.9204782E-01
       -2   -1    0    0    0  501  0.00000000000E+00  0.00000000000E+00  0.24162239666E+03  0.24162239667E+03  0.25500000920E-02 0.  1.
        2   -1    0    0  501    0  0.00000000000E+00  0.00000000000E+00 -0.12529121359E+04  0.12529121359E+04  0.25500000920E-02 0. -1.
    10030    2    1    2    0    0  0.00000000000E+00  0.00000000000E+00 -0.10112897392E+04  0.14945345326E+04  0.11004210705E+04 0.  0.
        3    1    3    3  502    0 -0.43763648007E+03 -0.11738350831E+03 -0.81722021247E+02  0.46041619831E+03  0.10100000352E+00 0.  1.
       -3    1    3    3    0  502  0.43763648007E+03  0.11738350831E+03 -0.92956771797E+03  0.10341183342E+04  0.10100000352E+00 0. -1.
</event>
<event>
 5   0  0.6109149E-04  0.1097891E+04  0.7818609E-02  0.9207250E-01
       -2   -1    0    0    0  501  0.00000000000E+00  0.00000000000E+00  0.13558907636E+04  0.13558907636E+04  0.25500000920E-02 0.  1.
        2   -1    0    0  501    0  0.00000000000E+00  0.00000000000E+00 -0.22224594841E+03  0.22224594843E+03  0.25500000920E-02 0. -1.
    10030    2    1    2    0    0  0.00000000000E+00  0.00000000000E+00  0.11336448152E+04  0.15781367120E+04  0.10978911216E+04 0.  0.
        1    1    3    3  502    0 -0.25383590870E+03  0.16174630423E+03  0.12267035754E+04  0.12630899403E+04  0.50400001928E-02 0.  1.
       -1    1    3    3    0  502  0.25383590870E+03 -0.16174630423E+03 -0.93058760200E+02  0.31504677169E+03  0.50400001928E-02 0. -1.
</event>
<event>
 5   0  0.5948818E-04  0.1098802E+04  0.7818609E-02  0.9206360E-01
        2   -1    0    0  501    0  0.00000000000E+00  0.00000000000E+00  0.90983008685E+03  0.90983008685E+03  0.25500000920E-02 0. -1.
       -2   -1    0    0    0  501  0.00000000000E+00  0.00000000000E+00 -0.33175609115E+03  0.33175609116E+03  0.25500000920E-02 0.  1.
    10030    2    1    2    0    0  0.00000000000E+00  0.00000000000E+00  0.57807399570E+03  0.12415861780E+04  0.10988023903E+04 0.  0.
        3    1    3    3  502    0  0.17356099209E+03 -0.20015682760E+03 -0.25481229930E+03  0.36758059209E+03  0.10100000352E+00 0.  1.
       -3    1    3    3    0  502 -0.17356099209E+03  0.20015682760E+03  0.83288629500E+03  0.87400558591E+03  0.10100000352E+00 0. -1.
</event>
<event>
 5   0  0.3423758E-04  0.1099780E+04  0.7818609E-02  0.9205406E-01
       -1   -1    0    0    0  501  0.00000000000E+00  0.00000000000E+00  0.33902884041E+03  0.33902884045E+03  0.50400001928E-02 0.  1.
        1   -1    0    0  501    0  0.00000000000E+00  0.00000000000E+00 -0.89189838876E+03  0.89189838877E+03  0.50400001928E-02 0. -1.
    10030    2    1    2    0    0  0.00000000000E+00  0.00000000000E+00 -0.55286954835E+03  0.12309272292E+04  0.10997804809E+04 0.  0.
        1    1    3    3  502    0  0.40242884937E+03 -0.26420023460E+03 -0.57388648180E+03  0.74906370676E+03  0.50400001928E-02 0. -1.
       -1    1    3    3    0  502 -0.40242884937E+03  0.26420023460E+03  0.21016933449E+02  0.48186352246E+03  0.50400001928E-02 0.  1.
</event>
<event>
 5   0  0.3621403E-04  0.1109596E+04  0.7818609E-02  0.9195889E-01
        1   -1    0    0  501    0  0.00000000000E+00  0.00000000000E+00  0.57794628943E+03  0.57794628945E+03  0.50400001928E-02 0.  1.
       -1   -1    0    0    0  501  0.00000000000E+00  0.00000000000E+00 -0.53257657610E+03  0.53257657612E+03  0.50400001928E-02 0. -1.
    10030    2    1    2    0    0  0.00000000000E+00  0.00000000000E+00  0.45369713334E+02  0.11105228656E+04  0.11095957030E+04 0.  0.
        3    1    3    3  502    0 -0.31138448478E+03  0.45615494237E+03 -0.29923473550E+02  0.55311215254E+03  0.10100000352E+00 0. -1.
       -3    1    3    3    0  502  0.31138448478E+03 -0.45615494237E+03  0.75293186884E+02  0.55741071304E+03  0.10100000352E+00 0.  1.
</event>
<event>
 5   0  0.6109149E-04  0.1095199E+04  0.7818609E-02  0.9209883E-01
        2   -1    0    0  501    0  0.00000000000E+00  0.00000000000E+00  0.42105082645E+03  0.42105082646E+03  0.25500000920E-02 0. -1.
       -2   -1    0    0    0  501  0.00000000000E+00  0.00000000000E+00 -0.71218356909E+03  0.71218356909E+03  0.25500000920E-02 0.  1.
    10030    2    1    2    0    0  0.00000000000E+00  0.00000000000E+00 -0.29113274263E+03  0.11332343956E+04  0.10951994893E+04 0.  0.
        1    1    3    3  502    0  0.29994063569E+03 -0.41556800901E+03  0.54016483944E+02  0.51534351224E+03  0.50400001928E-02 0.  1.
       -1    1    3    3    0  502 -0.29994063569E+03  0.41556800901E+03 -0.34514922658E+03  0.61789088331E+03  0.50400001928E-02 0. -1.
</event>
<event>
 5   0  0.2403875E-04  0.1100300E+04  0.7818609E-02  0.9204899E-01
       -4   -1    0    0    0  501  0.00000000000E+00  0.00000000000E+00  0.52721164699E+03  0.52721317663E+03  0.12699999809E+01 0.  1.
        4   -1    0    0  501    0  0.00000000000E+00  0.00000000000E+00 -0.57408344262E+03  0.57408484738E+03  0.12699999809E+01 0. -1.
    10030    2    1    2    0    0  0.00000000000E+00  0.00000000000E+00 -0.46871795633E+02  0.11012980240E+04  0.11003001284E+04 0.  0.
        5    1    3    3  502    0 -0.44635401264E+03 -0.17905451013E+03  0.24392165236E+03  0.53927014073E+03  0.46999998093E+01 0.  1.
       -5    1    3    3    0  502  0.44635401264E+03  0.17905451013E+03 -0.29079344800E+03  0.56202788328E+03  0.46999998093E+01 0. -1.
</event>
<event>
 5   0  0.6109149E-04  0.1077085E+04  0.7818609E-02  0.9227819E-01
       -2   -1    0    0    0  501  0.00000000000E+00  0.00000000000E+00  0.23284296351E+03  0.23284296352E+03  0.25500000920E-02 0. -1.
        2   -1    0    0  501    0  0.00000000000E+00  0.00000000000E+00 -0.12455945568E+04  0.12455945568E+04  0.25500000920E-02 0.  1.
    10030    2    1    2    0    0  0.00000000000E+00  0.00000000000E+00 -0.10127515933E+04  0.14784375203E+04  0.10770848211E+04 0.  0.
        1    1    3    3  502    0  0.25773562803E+03  0.46875800634E+03 -0.59172422639E+03  0.79768369833E+03  0.50400001928E-02 0.  1.
       -1    1    3    3    0  502 -0.25773562803E+03 -0.46875800634E+03 -0.42102736693E+03  0.68075382202E+03  0.50400001928E-02 0. -1.
</event>
<event>
 5   0  0.2403875E-04  0.1101352E+04  0.7818609E-02  0.9203875E-01
        4   -1    0    0  501    0  0.00000000000E+00  0.00000000000E+00  0.69530746140E+03  0.69530862125E+03  0.12699999809E+01 0.  1.
       -4   -1    0    0    0  501  0.00000000000E+00  0.00000000000E+00 -0.43612737799E+03  0.43612922710E+03  0.12699999809E+01 0. -1.
    10030    2    1    2    0    0  0.00000000000E+00  0.00000000000E+00  0.25918008342E+03  0.11314378483E+04  0.11013524817E+04 0.  0.
        4    1    3    3  502    0  0.85741922250E+02  0.33967282222E+03 -0.30688468131E+03  0.46573503616E+03  0.12699999809E+01 0. -1.
       -4    1    3    3    0  502 -0.85741922250E+02 -0.33967282222E+03  0.56606476473E+03  0.66570281219E+03  0.12699999809E+01 0.  1.
</event>
<event>
 5   0  0.6245176E-04  0.1094337E+04  0.7818609E-02  0.9210729E-01
       -2   -1    0    0    0  501  0.00000000000E+00  0.00000000000E+00  0.17338210654E+03  0.17338210656E+03  0.25500000920E-02 0. -1.
        2   -1    0    0  501    0  0.00000000000E+00  0.00000000000E+00 -0.17267848327E+04  0.17267848327E+04  0.25500000920E-02 0.  1.
    10030    2    1    2    0    0  0.00000000000E+00  0.00000000000E+00 -0.15534027262E+04  0.19001669393E+04  0.10943374102E+04 0.  0.
        5    1    3    3  502    0  0.36412221626E+03 -0.30018607614E+03 -0.12575041004E+04  0.13431438200E+04  0.46999998093E+01 0.  1.
       -5    1    3    3    0  502 -0.36412221626E+03  0.30018607614E+03 -0.29589862577E+03  0.55702311928E+03  0.46999998093E+01 0. -1.
</event>
<event>
 5   0  0.3523525E-04  0.1095761E+04  0.7818609E-02  0.9209333E-01
       -1   -1    0    0    0  501  0.00000000000E+00  0.00000000000E+00  0.31374480967E+03  0.31374480971E+03  0.50400001928E-02 0. -1.
        1   -1    0    0  501    0  0.00000000000E+00  0.00000000000E+00 -0.95674319304E+03  0.95674319305E+03  0.50400001928E-02 0.  1.
    10030    2    1    2    0    0  0.00000000000E+00  0.00000000000E+00 -0.64299838337E+03  0.12704880028E+04  0.10957613080E+04 0.  0.
        5    1    3    3  502    0  0.32034953342E+03  0.33604550439E+03 -0.65874116952E+03  0.80592333568E+03  0.46999998093E+01 0.  1.
       -5    1    3    3    0  502 -0.32034953342E+03 -0.33604550439E+03  0.15742786146E+02  0.46456466708E+03  0.46999998093E+01 0. -1.
</event>
<event>
 5   0  0.2403875E-04  0.1096629E+04  0.7818609E-02  0.9208484E-01
        3   -1    0    0  501    0  0.00000000000E+00  0.00000000000E+00  0.37997068839E+03  0.37997070181E+03  0.10100000352E+00 0. -1.
       -3   -1    0    0    0  501  0.00000000000E+00  0.00000000000E+00 -0.79124153951E+03  0.79124154596E+03  0.10100000352E+00 0.  1.
    10030    2    1    2    0    0  0.00000000000E+00  0.00000000000E+00 -0.41127085112E+03  0.11712122478E+04  0.10966286593E+04 0.  0.
        4    1    3    3  502    0 -0.18338899349E+03  0.10038159406E+03  0.33573064293E+03  0.39550558133E+03  0.12699999809E+01 0. -1.
       -4    1    3    3    0  502  0.18338899349E+03 -0.10038159406E+03 -0.74700149405E+03  0.77570666645E+03  0.12699999809E+01 0.  1.
</event>
<event>
 5   0  0.3423758E-04  0.1099484E+04  0.7818609E-02  0.9205695E-01
        1   -1    0    0  501    0  0.00000000000E+00  0.00000000000E+00  0.45115728579E+03  0.45115728582E+03  0.50400001928E-02 0. -1.
       -1   -1    0    0    0  501  0.00000000000E+00  0.00000000000E+00 -0.66986854080E+03  0.66986854082E+03  0.50400001928E-02 0.  1.
    10030    2    1    2    0    0  0.00000000000E+00  0.00000000000E+00 -0.21871125501E+03  0.11210258266E+04  0.10994836474E+04 0.  0.
        1    1    3    3  502    0 -0.41873114149E+03  0.77067854418E+02  0.24522365050E+03  0.49133477572E+03  0.50400001928E-02 0. -1.
       -1    1    3    3    0  502  0.41873114149E+03 -0.77067854418E+02 -0.46393490551E+03  0.62969105092E+03  0.50400001928E-02 0.  1.
</event>
<event>
 5   0  0.3621403E-04  0.1099887E+04  0.7818609E-02  0.9205302E-01
        1   -1    0    0  501    0  0.00000000000E+00  0.00000000000E+00  0.52222638747E+03  0.52222638750E+03  0.50400001928E-02 0.  1.
       -1   -1    0    0    0  501  0.00000000000E+00  0.00000000000E+00 -0.57913124940E+03  0.57913124942E+03  0.50400001928E-02 0. -1.
    10030    2    1    2    0    0  0.00000000000E+00  0.00000000000E+00 -0.56904861922E+02  0.11013576369E+04  0.10998865765E+04 0.  0.
        3    1    3    3  502    0  0.48623465798E+03  0.25664017955E+03 -0.16217837157E+02  0.55004668240E+03  0.10100000352E+00 0. -1.
       -3    1    3    3    0  502 -0.48623465798E+03 -0.25664017955E+03 -0.40687024765E+02  0.55131095451E+03  0.10100000352E+00 0.  1.
</event>
<event>
 5   0  0.3621403E-04  0.1099010E+04  0.7818609E-02  0.9206158E-01
        1   -1    0    0  501    0  0.00000000000E+00  0.00000000000E+00  0.10333133612E+04  0.10333133612E+04  0.50400001928E-02 0.  1.
       -1   -1    0    0    0  501  0.00000000000E+00  0.00000000000E+00 -0.29222062529E+03  0.29222062534E+03  0.50400001928E-02 0. -1.
    10030    2    1    2    0    0  0.00000000000E+00  0.00000000000E+00  0.74109273588E+03  0.13255339865E+04  0.10990095115E+04 0.  0.
        3    1    3    3  502    0 -0.53304723277E+03  0.10959663983E+03  0.27865410378E+03  0.61139095150E+03  0.10100000352E+00 0. -1.
       -3    1    3    3    0  502  0.53304723277E+03 -0.10959663983E+03  0.46243863210E+03  0.71414303503E+03  0.10100000352E+00 0.  1.
</event>
<event>
 5   0  0.6109149E-04  0.1099983E+04  0.7818609E-02  0.9205208E-01
       -2   -1    0    0    0  501  0.00000000000E+00  0.00000000000E+00  0.35509614465E+03  0.35509614466E+03  0.25500000920E-02 0. -1.
        2   -1    0    0  501    0  0.00000000000E+00  0.00000000000E+00 -0.85185586699E+03  0.85185586700E+03  0.25500000920E-02 0.  1.
    10030    2    1    2    0    0  0.00000000000E+00  0.00000000000E+00 -0.49675972234E+03  0.12069520117E+04  0.10999831529E+04 0.  0.
        1    1    3    3  502    0  0.53579048122E+03 -0.12387484085E+03 -0.25783899831E+03  0.60736921641E+03  0.50400001928E-02 0. -1.
       -1    1    3    3    0  502 -0.53579048122E+03  0.12387484085E+03 -0.23892072403E+03  0.59958279525E+03  0.50400001928E-02 0.  1.
</event>
<event>
 5   0  0.3657529E-04  0.1101003E+04  0.7818609E-02  0.9204215E-01
       -1   -1    0    0    0  501  0.00000000000E+00  0.00000000000E+00  0.54163474223E+03  0.54163474225E+03  0.50400001928E-02 0. -1.
        1   -1    0    0  501    0  0.00000000000E+00  0.00000000000E+00 -0.55951312019E+03  0.55951312021E+03  0.50400001928E-02 0.  1.
    10030    2    1    2    0    0  0.00000000000E+00  0.00000000000E+00 -0.17878377961E+02  0.11011478625E+04  0.11010027151E+04 0.  0.
        4    1    3    3  502    0  0.34490684513E+03  0.40801160815E+03  0.12380331564E+03  0.54841870689E+03  0.12699999809E+01 0.  1.
       -4    1    3    3    0  502 -0.34490684513E+03 -0.40801160815E+03 -0.14168169360E+03  0.55272915556E+03  0.12699999809E+01 0. -1.
</event>
<event>
 5   0  0.3423758E-04  0.1102345E+04  0.7818609E-02  0.9202909E-01
        1   -1    0    0  501    0  0.00000000000E+00  0.00000000000E+00  0.93128954644E+03  0.93128954646E+03  0.50400001928E-02 0. -1.
       -1   -1    0    0    0  501  0.00000000000E+00  0.00000000000E+00 -0.32620476771E+03  0.32620476775E+03  0.50400001928E-02 0.  1.
    10030    2    1    2    0    0  0.00000000000E+00  0.00000000000E+00  0.60508477873E+03  0.12574943142E+04  0.11023449373E+04 0.  0.
        1    1    3    3  502    0  0.44335093151E+03  0.20070409195E+03  0.73805073488E+01  0.48672030255E+03  0.50400001928E-02 0.  1.
       -1    1    3    3    0  502 -0.44335093151E+03 -0.20070409195E+03  0.59770427138E+03  0.77077401166E+03  0.50400001928E-02 0. -1.
</event>
<event>
 5   0  0.6412712E-04  0.1100126E+04  0.7818609E-02  0.9205069E-01
        2   -1    0    0  501    0  0.00000000000E+00  0.00000000000E+00  0.13399801626E+04  0.13399801626E+04  0.25500000920E-02 0. -1.
       -2   -1    0    0    0  501  0.00000000000E+00  0.00000000000E+00 -0.22580130592E+03  0.22580130593E+03  0.25500000920E-02 0.  1.
    10030    2    1    2    0    0  0.00000000000E+00  0.00000000000E+00  0.11141788567E+04  0.15657814686E+04  0.11001259394E+04 0.  0.
        2    1    3    3  502    0  0.38191850068E+03 -0.26891644120E+03  0.14362510815E+03  0.48867777237E+03  0.25500000920E-02 0.  1.
       -2    1    3    3    0  502 -0.38191850068E+03  0.26891644120E+03  0.97055374857E+03  0.10771036962E+04  0.25500000920E-02 0. -1.
</event>
<event>
 5   0  0.3621403E-04  0.1099703E+04  0.7818609E-02  0.9205482E-01
       -1   -1    0    0    0  501  0.00000000000E+00  0.00000000000E+00  0.52870018650E+03  0.52870018652E+03  0.50400001928E-02 0. -1.
        1   -1    0    0  501    0  0.00000000000E+00  0.00000000000E+00 -0.57184859063E+03  0.57184859066E+03  0.50400001928E-02 0.  1.
    10030    2    1    2    0    0  0.00000000000E+00  0.00000000000E+00 -0.43148404138E+02  0.11005487772E+04  0.10997026081E+04 0.  0.
        3    1    3    3  502    0 -0.13279187978E+03  0.35345699486E+03  0.37844690075E+03  0.53459105627E+03  0.10100000352E+00 0. -1.
       -3    1    3    3    0  502  0.13279187978E+03 -0.35345699486E+03 -0.42159530489E+03  0.56595772091E+03  0.10100000352E+00 0.  1.
</event>
<event>
 5   0  0.2403875E-04  0.1100015E+04  0.7818609E-02  0.9205177E-01
        3   -1    0    0  501    0  0.00000000000E+00  0.00000000000E+00  0.43828568313E+03  0.43828569476E+03  0.10100000352E+00 0.  1.
       -3   -1    0    0    0  501  0.00000000000E+00  0.00000000000E+00 -0.69020819471E+03  0.69020820210E+03  0.10100000352E+00 0. -1.
    10030    2    1    2    0    0  0.00000000000E+00  0.00000000000E+00 -0.25192251158E+03  0.11284938969E+04  0.11000152378E+04 0.  0.
        1    1    3    3  502    0  0.49943413089E+03  0.71193145809E+02  0.98812631852E+02  0.51406891692E+03  0.50400001928E-02 0.  1.
       -1    1    3    3    0  502 -0.49943413089E+03 -0.71193145809E+02 -0.35073514343E+03  0.61442497994E+03  0.50400001928E-02 0. -1.
</event>
<event>
 5   0  0.5948818E-04  0.1104040E+04  0.7818609E-02  0.9201263E-01
       -2   -1    0    0    0  501  0.00000000000E+00  0.00000000000E+00  0.22030990242E+03  0.22030990244E+03  0.25500000920E-02 0. -1.
        2   -1    0    0  501    0  0.00000000000E+00  0.00000000000E+00 -0.13831705243E+04  0.13831705243E+04  0.25500000920E-02 0.  1.
    10030    2    1    2    0    0  0.00000000000E+00  0.00000000000E+00 -0.11628606219E+04  0.16034804268E+04  0.11040401501E+04 0.  0.
        3    1    3    3  502    0 -0.46185073661E+03 -0.26395081838E+03 -0.79562494276E+03  0.95707638001E+03  0.10100000352E+00 0.  1.
       -3    1    3    3    0  502  0.46185073661E+03  0.26395081838E+03 -0.36723567915E+03  0.64640404676E+03  0.10100000352E+00 0. -1.
</event>
<event>
 5   0  0.3423758E-04  0.1097077E+04  0.7818609E-02  0.9208045E-01
       -1   -1    0    0    0  501  0.00000000000E+00  0.00000000000E+00  0.36864390918E+03  0.36864390921E+03  0.50400001928E-02 0. -1.
        1   -1    0    0  501    0  0.00000000000E+00  0.00000000000E+00 -0.81622049941E+03  0.81622049942E+03  0.50400001928E-02 0.  1.
    10030    2    1    2    0    0  0.00000000000E+00  0.00000000000E+00 -0.44757659023E+03  0.11848644086E+04  0.10970774187E+04 0.  0.
        1    1    3    3  502    0 -0.48907729140E+02 -0.58523354068E+02 -0.81046605101E+03  0.81404678539E+03  0.50400001928E-02 0.  1.
       -1    1    3    3    0  502  0.48907729140E+02  0.58523354068E+02  0.36288946078E+03  0.37081762325E+03  0.50400001928E-02 0. -1.
</event>
<event>
 5   0  0.6412712E-04  0.1065995E+04  0.7818609E-02  0.9238984E-01
       -2   -1    0    0    0  501  0.00000000000E+00  0.00000000000E+00  0.26078655248E+03  0.26078655249E+03  0.25500000920E-02 0. -1.
        2   -1    0    0  501    0  0.00000000000E+00  0.00000000000E+00 -0.10893446346E+04  0.10893446346E+04  0.25500000920E-02 0.  1.
    10030    2    1    2    0    0  0.00000000000E+00  0.00000000000E+00 -0.82855808216E+03  0.13501311871E+04  0.10659951815E+04 0.  0.
        2    1    3    3  502    0  0.11590181184E+03 -0.48253629156E+03 -0.66056244361E+03  0.82620653869E+03  0.25500000920E-02 0.  1.
       -2    1    3    3    0  502 -0.11590181184E+03  0.48253629156E+03 -0.16799563854E+03  0.52392464843E+03  0.25500000920E-02 0. -1.
</event>
<event>
 5   0  0.3642161E-04  0.1098110E+04  0.7818609E-02  0.9207036E-01
        1   -1    0    0  501    0  0.00000000000E+00  0.00000000000E+00  0.31104371850E+03  0.31104371854E+03  0.50400001928E-02 0. -1.
       -1   -1    0    0    0  501  0.00000000000E+00  0.00000000000E+00 -0.96919349117E+03  0.96919349118E+03  0.50400001928E-02 0.  1.
    10030    2    1    2    0    0  0.00000000000E+00  0.00000000000E+00 -0.65814977267E+03  0.12802372097E+04  0.10981102813E+04 0.  0.
        2    1    3    3  502    0  0.29600447579E+02  0.53327229301E+03 -0.18065820837E+03  0.56381992980E+03  0.25500000920E-02 0. -1.
       -2    1    3    3    0  502 -0.29600447579E+02 -0.53327229301E+03 -0.47749156430E+03  0.71641727992E+03  0.25500000920E-02 0.  1.
</event>
<event>
 5   0  0.5948818E-04  0.1100723E+04  0.7818609E-02  0.9204488E-01
        2   -1    0    0  501    0  0.00000000000E+00  0.00000000000E+00  0.12262558652E+04  0.12262558652E+04  0.25500000920E-02 0.  1.
       -2   -1    0    0    0  501  0.00000000000E+00  0.00000000000E+00 -0.24701005070E+03  0.24701005072E+03  0.25500000920E-02 0. -1.
    10030    2    1    2    0    0  0.00000000000E+00  0.00000000000E+00  0.97924581450E+03  0.14732659159E+04  0.11007225326E+04 0.  0.
        3    1    3    3  502    0  0.30305214852E+03  0.43858989187E+03  0.67263318867E+03  0.85827566357E+03  0.10100000352E+00 0. -1.
       -3    1    3    3    0  502 -0.30305214852E+03 -0.43858989187E+03  0.30661262583E+03  0.61499025235E+03  0.10100000352E+00 0.  1.
</event>
<event>
 5   0  0.6245176E-04  0.1098986E+04  0.7818609E-02  0.9206181E-01
        2   -1    0    0  501    0  0.00000000000E+00  0.00000000000E+00  0.11818215954E+04  0.11818215954E+04  0.25500000920E-02 0.  1.
       -2   -1    0    0    0  501  0.00000000000E+00  0.00000000000E+00 -0.25548920181E+03  0.25548920182E+03  0.25500000920E-02 0. -1.
    10030    2    1    2    0    0  0.00000000000E+00  0.00000000000E+00  0.92633239359E+03  0.14373107972E+04  0.10989861803E+04 0.  0.
        5    1    3    3  502    0 -0.27815503811E+03  0.14807751004E+03  0.10518786835E+04  0.10980746919E+04  0.46999998093E+01 0.  1.
       -5    1    3    3    0  502  0.27815503811E+03 -0.14807751004E+03 -0.12554628994E+03  0.33923610528E+03  0.46999998093E+01 0. -1.
</event>
<event>
 5   0  0.3642161E-04  0.1105784E+04  0.7818609E-02  0.9199572E-01
        1   -1    0    0  501    0  0.00000000000E+00  0.00000000000E+00  0.56055266307E+03  0.56055266309E+03  0.50400001928E-02 0.  1.
       -1   -1    0    0    0  501  0.00000000000E+00  0.00000000000E+00 -0.54533625805E+03  0.54533625807E+03  0.50400001928E-02 0. -1.
    10030    2    1    2    0    0  0.00000000000E+00  0.00000000000E+00  0.15216405021E+02  0.11058889212E+04  0.11057842316E+04 0.  0.
        2    1    3    3  502    0 -0.14618421404E+03  0.48936207671E+03  0.21939374701E+03  0.55585850969E+03  0.25500000920E-02 0. -1.
       -2    1    3    3    0  502  0.14618421404E+03 -0.48936207671E+03 -0.20417734199E+03  0.55003041147E+03  0.25500000920E-02 0.  1.
</event>
<event>
 5   0  0.5948818E-04  0.1104888E+04  0.7818609E-02  0.9200441E-01
       -2   -1    0    0    0  501  0.00000000000E+00  0.00000000000E+00  0.27383271385E+03  0.27383271386E+03  0.25500000920E-02 0. -1.
        2   -1    0    0  501    0  0.00000000000E+00  0.00000000000E+00 -0.11145278523E+04  0.11145278523E+04  0.25500000920E-02 0.  1.
    10030    2    1    2    0    0  0.00000000000E+00  0.00000000000E+00 -0.84069513844E+03  0.13883605661E+04  0.11048876621E+04 0.  0.
        3    1    3    3  502    0 -0.12338415108E+03 -0.40539959453E+03 -0.86571296764E+03  0.96386276643E+03  0.10100000352E+00 0.  1.
       -3    1    3    3    0  502  0.12338415108E+03  0.40539959453E+03  0.25017829199E+02  0.42449779971E+03  0.10100000352E+00 0. -1.
</event>
<event>
 5   0  0.6109149E-04  0.1096571E+04  0.7818609E-02  0.9208540E-01
       -2   -1    0    0    0  501  0.00000000000E+00  0.00000000000E+00  0.40664471416E+03  0.40664471417E+03  0.25500000920E-02 0. -1.
        2   -1    0    0  501    0  0.00000000000E+00  0.00000000000E+00 -0.73926201880E+03  0.73926201881E+03  0.25500000920E-02 0.  1.
    10030    2    1    2    0    0  0.00000000000E+00  0.00000000000E+00 -0.33261730464E+03  0.11459067330E+04  0.10965710052E+04 0.  0.
        1    1    3    3  502    0  0.12046965125E+03 -0.52513888765E+03 -0.60082850772E+02  0.54211967054E+03  0.50400001928E-02 0.  1.
       -1    1    3    3    0  502 -0.12046965125E+03  0.52513888765E+03 -0.27253445387E+03  0.60378706244E+03  0.50400001928E-02 0. -1.
</event>
<event>
 5   0  0.3621403E-04  0.1099367E+04  0.7818609E-02  0.9205809E-01
       -1   -1    0    0    0  501  0.00000000000E+00  0.00000000000E+00  0.24946219012E+03  0.24946219017E+03  0.50400001928E-02 0. -1.
        1   -1    0    0  501    0  0.00000000000E+00  0.00000000000E+00 -0.12112138217E+04  0.12112138217E+04  0.50400001928E-02 0.  1.
    10030    2    1    2    0    0  0.00000000000E+00  0.00000000000E+00 -0.96175163161E+03  0.14606760119E+04  0.10993671866E+04 0.  0.
        3    1    3    3  502    0 -0.14757426899E+03 -0.48885960080E+03 -0.75118432877E+03  0.90831700422E+03  0.10100000352E+00 0.  1.
       -3    1    3    3    0  502  0.14757426899E+03  0.48885960080E+03 -0.21056730284E+03  0.55235900770E+03  0.10100000352E+00 0. -1.
</event>
<event>
 5   0  0.5948818E-04  0.1099553E+04  0.7818609E-02  0.9205627E-01
        2   -1    0    0  501    0  0.00000000000E+00  0.00000000000E+00  0.73905416403E+03  0.73905416403E+03  0.25500000920E-02 0.  1.
       -2   -1    0    0    0  501  0.00000000000E+00  0.00000000000E+00 -0.40897450276E+03  0.40897450277E+03  0.25500000920E-02 0. -1.
    10030    2    1    2    0    0  0.00000000000E+00  0.00000000000E+00  0.33007966127E+03  0.11480286668E+04  0.10995531988E+04 0.  0.
        3    1    3    3  502    0  0.53930277840E+03 -0.26536150125E+02  0.27305432741E+03  0.60507051652E+03  0.10100000352E+00 0. -1.
       -3    1    3    3    0  502 -0.53930277840E+03  0.26536150125E+02  0.57025333859E+02  0.54295815028E+03  0.10100000352E+00 0.  1.
</event>
<event>
 5   0  0.3657529E-04  0.1103228E+04  0.7818609E-02  0.9202051E-01
        1   -1    0    0  501    0  0.00000000000E+00  0.00000000000E+00  0.57623296028E+03  0.57623296030E+03  0.50400001928E-02 0.  1.
       -1   -1    0    0    0  501  0.00000000000E+00  0.00000000000E+00 -0.52804694168E+03  0.52804694170E+03  0.50400001928E-02 0. -1.
    10030    2    1    2    0    0  0.00000000000E+00  0.00000000000E+00  0.48186018604E+02  0.11042799020E+04  0.11032280859E+04 0.  0.
        4    1    3    3  502    0 -0.10239866068E+03 -0.63265604077E+02 -0.51474021931E+03  0.52862758975E+03  0.12699999809E+01 0. -1.
       -4    1    3    3    0  502  0.10239866068E+03  0.63265604077E+02  0.56292623792E+03  0.57565231225E+03  0.12699999809E+01 0.  1.
</event>
<event>
 5   0  0.3423758E-04  0.1098279E+04  0.7818609E-02  0.9206871E-01
        1   -1    0    0  501    0  0.00000000000E+00  0.00000000000E+00  0.11365671494E+04  0.11365671494E+04  0.50400001928E-02 0. -1.
       -1   -1    0    0    0  501  0.00000000000E+00  0.00000000000E+00 -0.26532003620E+03  0.26532003625E+03  0.50400001928E-02 0.  1.
    10030    2    1    2    0    0  0.00000000000E+00  0.00000000000E+00  0.87124711316E+03  0.14018871856E+04  0.10982787210E+04 0.  0.
        1    1    3    3  502    0  0.48234196305E+03 -0.16090940827E+03  0.70033778936E+03  0.86545862190E+03  0.50400001928E-02 0. -1.
       -1    1    3    3    0  502 -0.48234196305E+03  0.16090940827E+03  0.17090932380E+03  0.53642856372E+03  0.50400001928E-02 0.  1.
</event>
<event>
 5   0  0.3621403E-04  0.1098956E+04  0.7818609E-02  0.9206210E-01
       -1   -1    0    0    0  501  0.00000000000E+00  0.00000000000E+00  0.40436017043E+03  0.40436017046E+03  0.50400001928E-02 0.  1.
        1   -1    0    0  501    0  0.00000000000E+00  0.00000000000E+00 -0.74667612504E+03  0.74667612506E+03  0.50400001928E-02 0. -1.
    10030    2    1    2    0    0  0.00000000000E+00  0.00000000000E+00 -0.34231595461E+03  0.11510362955E+04  0.10989560232E+04 0.  0.
        3    1    3    3  502    0 -0.51025960307E+03  0.19379027607E+03 -0.10486103159E+03  0.55580156510E+03  0.10100000352E+00 0.  1.
       -3    1    3    3    0  502  0.51025960307E+03 -0.19379027607E+03 -0.23745492302E+03  0.59523473042E+03  0.10100000352E+00 0. -1.
</event>
<event>
 5   0  0.6264830E-04  0.1098961E+04  0.7818609E-02  0.9206205E-01
        2   -1    0    0  501    0  0.00000000000E+00  0.00000000000E+00  0.26466379513E+04  0.26466379513E+04  0.25500000920E-02 0. -1.
       -2   -1    0    0    0  501  0.00000000000E+00  0.00000000000E+00 -0.11408024046E+03  0.11408024049E+03  0.25500000920E-02 0.  1.
    10030    2    1    2    0    0  0.00000000000E+00  0.00000000000E+00  0.25325577108E+04  0.27607181918E+04  0.10989614988E+04 0.  0.
        4    1    3    3  502    0  0.42672530231E+03 -0.32304763895E+03  0.15787644166E+04  0.16670191830E+04  0.12699999809E+01 0. -1.
       -4    1    3    3    0  502 -0.42672530231E+03  0.32304763895E+03  0.95379329424E+03  0.10936990087E+04  0.12699999809E+01 0.  1.
</event>
<event>
 5   0  0.6264830E-04  0.1101926E+04  0.7818609E-02  0.9203317E-01
        2   -1    0    0  501    0  0.00000000000E+00  0.00000000000E+00  0.78665646557E+03  0.78665646557E+03  0.25500000920E-02 0.  1.
       -2   -1    0    0    0  501  0.00000000000E+00  0.00000000000E+00 -0.38588664230E+03  0.38588664231E+03  0.25500000920E-02 0. -1.
    10030    2    1    2    0    0  0.00000000000E+00  0.00000000000E+00  0.40076982327E+03  0.11725431079E+04  0.11019259905E+04 0.  0.
        4    1    3    3  502    0 -0.33963349733E+03  0.81021863365E+02 -0.25312408738E+03  0.43126427091E+03  0.12699999809E+01 0. -1.
       -4    1    3    3    0  502  0.33963349733E+03 -0.81021863365E+02  0.65389391065E+03  0.74127883697E+03  0.12699999809E+01 0.  1.
</event>
<event>
 5   0  0.2403875E-04  0.1098348E+04  0.7818609E-02  0.9206803E-01
       -4   -1    0    0    0  501  0.00000000000E+00  0.00000000000E+00  0.73989333708E+03  0.73989442704E+03  0.12699999809E+01 0. -1.
        4   -1    0    0  501    0  0.00000000000E+00  0.00000000000E+00 -0.40761336324E+03  0.40761534170E+03  0.12699999809E+01 0.  1.
    10030    2    1    2    0    0  0.00000000000E+00  0.00000000000E+00  0.33227997384E+03  0.11475097687E+04  0.10983481635E+04 0.  0.
        1    1    3    3  502    0 -0.44722891171E+03 -0.31086532589E+03  0.92699840276E+02  0.55248910462E+03  0.50400001928E-02 0. -1.
       -1    1    3    3    0  502  0.44722891171E+03  0.31086532589E+03  0.23958013357E+03  0.59502066412E+03  0.50400001928E-02 0.  1.
</event>
<event>
 5   0  0.3621403E-04  0.1100089E+04  0.7818609E-02  0.9205105E-01
        1   -1    0    0  501    0  0.00000000000E+00  0.00000000000E+00  0.26944663512E+03  0.26944663517E+03  0.50400001928E-02 0.  1.
       -1   -1    0    0    0  501  0.00000000000E+00  0.00000000000E+00 -0.11228522792E+04  0.11228522792E+04  0.50400001928E-02 0. -1.
    10030    2    1    2    0    0  0.00000000000E+00  0.00000000000E+00 -0.85340564406E+03  0.13922989144E+04  0.11000886663E+04 0.  0.
        3    1    3    3  502    0  0.24604866798E+03  0.46648353740E+03 -0.22899821105E+03  0.57496698040E+03  0.10100000352E+00 0.  1.
       -3    1    3    3    0  502 -0.24604866798E+03 -0.46648353740E+03 -0.62440743300E+03  0.81733193396E+03  0.10100000352E+00 0. -1.
</event>
<event>
 5   0  0.3523525E-04  0.1094850E+04  0.7818609E-02  0.9210226E-01
       -1   -1    0    0    0  501  0.00000000000E+00  0.00000000000E+00  0.80297803206E+03  0.80297803208E+03  0.50400001928E-02 0. -1.
        1   -1    0    0  501    0  0.00000000000E+00  0.00000000000E+00 -0.37320346526E+03  0.37320346529E+03  0.50400001928E-02 0.  1.
    10030    2    1    2    0    0  0.00000000000E+00  0.00000000000E+00  0.42977456681E+03  0.11761814974E+04  0.10948500977E+04 0.  0.
        5    1    3    3  502    0 -0.32393488970E+03 -0.39736517450E+03  0.87498556460E+01  0.51276850980E+03  0.46999998093E+01 0.  1.
       -5    1    3    3    0  502  0.32393488970E+03  0.39736517450E+03  0.42102471116E+03  0.66341298757E+03  0.46999998093E+01 0. -1.
</event>
<event>
 5   0  0.6412712E-04  0.1100683E+04  0.7818609E-02  0.9204526E-01
       -2   -1    0    0    0  501  0.00000000000E+00  0.00000000000E+00  0.17693434264E+03  0.17693434266E+03  0.25500000920E-02 0.  1.
        2   -1    0    0  501    0  0.00000000000E+00  0.00000000000E+00 -0.17117987883E+04  0.17117987883E+04  0.25500000920E-02 0. -1.
    10030    2    1    2    0    0  0.00000000000E+00  0.00000000000E+00 -0.15348644456E+04  0.18887331309E+04  0.11006834120E+04 0.  0.
        2    1    3    3  502    0  0.22551703270E+03 -0.30978537960E+03 -0.89569789498E+02  0.39350687497E+03  0.25500000920E-02 0.  1.
       -2    1    3    3    0  502 -0.22551703270E+03  0.30978537960E+03 -0.14452946561E+04  0.14952262560E+04  0.25500000920E-02 0. -1.
</event>
<event>
 5   0  0.5948818E-04  0.1099030E+04  0.7818609E-02  0.9206137E-01
        2   -1    0    0  501    0  0.00000000000E+00  0.00000000000E+00  0.61360508664E+03  0.61360508665E+03  0.25500000920E-02 0.  1.
       -2   -1    0    0    0  501  0.00000000000E+00  0.00000000000E+00 -0.49211945632E+03  0.49211945633E+03  0.25500000920E-02 0. -1.
    10030    2    1    2    0    0  0.00000000000E+00  0.00000000000E+00  0.12148563032E+03  0.11057245430E+04  0.10990304848E+04 0.  0.
        3    1    3    3  502    0  0.26527912470E+03 -0.16487733644E+03  0.51561322499E+03  0.60283874963E+03  0.10100000352E+00 0.  1.
       -3    1    3    3    0  502 -0.26527912470E+03  0.16487733644E+03 -0.39412759467E+03  0.50288579335E+03  0.10100000352E+00 0. -1.
</event>
<event>
 5   0  0.6109149E-04  0.1097663E+04  0.7818609E-02  0.9207473E-01
       -2   -1    0    0    0  501  0.00000000000E+00  0.00000000000E+00  0.46835041423E+03  0.46835041423E+03  0.25500000920E-02 0.  1.
        2   -1    0    0  501    0  0.00000000000E+00  0.00000000000E+00 -0.64314221023E+03  0.64314221023E+03  0.25500000920E-02 0. -1.
    10030    2    1    2    0    0  0.00000000000E+00  0.00000000000E+00 -0.17479179600E+03  0.11114926245E+04  0.10976628272E+04 0.  0.
        1    1    3    3  502    0 -0.19329309081E+03  0.36147044052E+03  0.28215821394E+03  0.49763074266E+03  0.50400001928E-02 0.  1.
       -1    1    3    3    0  502  0.19329309081E+03 -0.36147044052E+03 -0.45695000994E+03  0.61386188181E+03  0.50400001928E-02 0. -1.
</event>
<event>
 5   0  0.6412712E-04  0.1098751E+04  0.7818609E-02  0.9206410E-01
       -2   -1    0    0    0  501  0.00000000000E+00  0.00000000000E+00  0.41989156625E+03  0.41989156626E+03  0.25500000920E-02 0. -1.
        2   -1    0    0  501    0  0.00000000000E+00  0.00000000000E+00 -0.71878927469E+03  0.71878927469E+03  0.25500000920E-02 0.  1.
    10030    2    1    2    0    0  0.00000000000E+00  0.00000000000E+00 -0.29889770844E+03  0.11386808410E+04  0.10987512082E+04 0.  0.
        2    1    3    3  502    0  0.18831827062E+03  0.18630768695E+02 -0.68394632203E+03  0.70964318359E+03  0.25500000920E-02 0.  1.
       -2    1    3    3    0  502 -0.18831827062E+03 -0.18630768695E+02  0.38504861360E+03  0.42903765736E+03  0.25500000920E-02 0. -1.
</event>
<event>
 5   0  0.5948818E-04  0.1101260E+04  0.7818609E-02  0.9203964E-01
        2   -1    0    0  501    0  0.00000000000E+00  0.00000000000E+00  0.20172663847E+04  0.20172663847E+04  0.25500000920E-02 0. -1.
       -2   -1    0    0    0  501  0.00000000000E+00  0.00000000000E+00 -0.15029920229E+03  0.15029920231E+03  0.25500000920E-02 0.  1.
    10030    2    1    2    0    0  0.00000000000E+00  0.00000000000E+00  0.18669671824E+04  0.21675655870E+04  0.11012602389E+04 0.  0.
        3    1    3    3  502    0  0.53326062637E+03  0.91447620133E+02  0.11348236671E+04  0.12572009897E+04  0.10100000352E+00 0. -1.
       -3    1    3    3    0  502 -0.53326062637E+03 -0.91447620133E+02  0.73214351536E+03  0.91036459738E+03  0.10100000352E+00 0.  1.
</event>
<event>
 5   0  0.3621403E-04  0.1099731E+04  0.7818609E-02  0.9205454E-01
        1   -1    0    0  501    0  0.00000000000E+00  0.00000000000E+00  0.60361481247E+03  0.60361481249E+03  0.50400001928E-02 0.  1.
       -1   -1    0    0    0  501  0.00000000000E+00  0.00000000000E+00 -0.50090240608E+03  0.50090240611E+03  0.50400001928E-02 0. -1.
    10030    2    1    2    0    0  0.00000000000E+00  0.00000000000E+00  0.10271240639E+03  0.11045172186E+04  0.10997310797E+04 0.  0.
        3    1    3    3  502    0 -0.15393286714E+03  0.45351737372E+02 -0.47686043263E+03  0.50313814214E+03  0.10100000352E+00 0. -1.
       -3    1    3    3    0  502  0.15393286714E+03 -0.45351737372E+02  0.57957283902E+03  0.60137907646E+03  0.10100000352E+00 0.  1.
</event>
<event>
 5   0  0.6245176E-04  0.1111104E+04  0.7818609E-02  0.9194436E-01
        2   -1    0    0  501    0  0.00000000000E+00  0.00000000000E+00  0.65828337979E+03  0.65828337980E+03  0.25500000920E-02 0. -1.
       -2   -1    0    0    0  501  0.00000000000E+00  0.00000000000E+00 -0.46885294129E+03  0.46885294129E+03  0.25500000920E-02 0.  1.
    10030    2    1    2    0    0  0.00000000000E+00  0.00000000000E+00  0.18943043851E+03  0.11271363211E+04  0.11111041334E+04 0.  0.
        5    1    3    3  502    0  0.18192503745E+03  0.19887624756E+03 -0.39805880060E+03  0.48075085006E+03  0.46999998093E+01 0.  1.
       -5    1    3    3    0  502 -0.18192503745E+03 -0.19887624756E+03  0.58748923911E+03  0.64638547103E+03  0.46999998093E+01 0. -1.
</event>
<event>
 5   0  0.3523525E-04  0.1098543E+04  0.7818609E-02  0.9206614E-01
        1   -1    0    0  501    0  0.00000000000E+00  0.00000000000E+00  0.57491879716E+03  0.57491879719E+03  0.50400001928E-02 0.  1.
       -1   -1    0    0    0  501  0.00000000000E+00  0.00000000000E+00 -0.52476791330E+03  0.52476791333E+03  0.50400001928E-02 0. -1.
    10030    2    1    2    0    0  0.00000000000E+00  0.00000000000E+00  0.50150883861E+02  0.10996867105E+04  0.10985425573E+04 0.  0.
        5    1    3    3  502    0  0.15298842595E+03 -0.52253364563E+03 -0.47318467759E+02  0.54654185264E+03  0.46999998093E+01 0. -1.
       -5    1    3    3    0  502 -0.15298842595E+03  0.52253364563E+03  0.97469351620E+02  0.55314485788E+03  0.46999998093E+01 0.  1.
</event>
<event>
 5   0  0.3621403E-04  0.1099721E+04  0.7818609E-02  0.9205464E-01
       -1   -1    0    0    0  501  0.00000000000E+00  0.00000000000E+00  0.62660978349E+03  0.62660978351E+03  0.50400001928E-02 0.  1.
        1   -1    0    0  501    0  0.00000000000E+00  0.00000000000E+00 -0.48251186072E+03  0.48251186074E+03  0.50400001928E-02 0. -1.
    10030    2    1    2    0    0  0.00000000000E+00  0.00000000000E+00  0.14409792277E+03  0.11091216442E+04  0.10997211512E+04 0.  0.
        3    1    3    3  502    0 -0.24928323935E+03 -0.40197638176E+03 -0.21073953212E+03  0.51782072720E+03  0.10100000352E+00 0. -1.
       -3    1    3    3    0  502  0.24928323935E+03  0.40197638176E+03  0.35483745489E+03  0.59130091705E+03  0.10100000352E+00 0.  1.
</event>
<event>
 5   0  0.5948818E-04  0.1100642E+04  0.7818609E-02  0.9204566E-01
        2   -1    0    0  501    0  0.00000000000E+00  0.00000000000E+00  0.11093963401E+04  0.11093963401E+04  0.25500000920E-02 0.  1.
       -2   -1    0    0    0  501  0.00000000000E+00  0.00000000000E+00 -0.27298942448E+03  0.27298942450E+03  0.25500000920E-02 0. -1.
    10030    2    1    2    0    0  0.00000000000E+00  0.00000000000E+00  0.83640691557E+03  0.13823857645E+04  0.11006424822E+04 0.  0.
        3    1    3    3  502    0  0.52235689436E+03 -0.16864924712E+03  0.36868906219E+03  0.66123439749E+03  0.10100000352E+00 0. -1.
       -3    1    3    3    0  502 -0.52235689436E+03  0.16864924712E+03  0.46771785338E+03  0.72115136706E+03  0.10100000352E+00 0.  1.
</event>
<event>
 5   0  0.3423758E-04  0.1100943E+04  0.7818609E-02  0.9204274E-01
       -1   -1    0    0    0  501  0.00000000000E+00  0.00000000000E+00  0.28177051098E+03  0.28177051102E+03  0.50400001928E-02 0.  1.
        1   -1    0    0  501    0  0.00000000000E+00  0.00000000000E+00 -0.10754095529E+04  0.10754095529E+04  0.50400001928E-02 0. -1.
    10030    2    1    2    0    0  0.00000000000E+00  0.00000000000E+00 -0.79363904194E+03  0.13571800639E+04  0.11009426857E+04 0.  0.
        1    1    3    3  502    0 -0.13095430804E+03  0.41463865464E+03  0.19301214972E+02  0.43525484678E+03  0.50400001928E-02 0. -1.
       -1    1    3    3    0  502  0.13095430804E+03 -0.41463865464E+03 -0.81294025691E+03  0.92192521717E+03  0.50400001928E-02 0.  1.
</event>
<event>
 5   0  0.3621403E-04  0.1103256E+04  0.7818609E-02  0.9202025E-01
        1   -1    0    0  501    0  0.00000000000E+00  0.00000000000E+00  0.34470386095E+03  0.34470386099E+03  0.50400001928E-02 0.  1.
       -1   -1    0    0    0  501  0.00000000000E+00  0.00000000000E+00 -0.88276700816E+03  0.88276700817E+03  0.50400001928E-02 0. -1.
    10030    2    1    2    0    0  0.00000000000E+00  0.00000000000E+00 -0.53806314720E+03  0.12274708692E+04  0.11032555390E+04 0.  0.
        3    1    3    3  502    0 -0.14645853342E+03 -0.33365206091E+03  0.19174637225E+03  0.41175293713E+03  0.10100000352E+00 0.  1.
       -3    1    3    3    0  502  0.14645853342E+03  0.33365206091E+03 -0.72980951945E+03  0.81571793203E+03  0.10100000352E+00 0. -1.
</event>
<event>
 5   0  0.3642161E-04  0.1097600E+04  0.7818609E-02  0.9207534E-01
       -1   -1    0    0    0  501  0.00000000000E+00  0.00000000000E+00  0.45895002517E+03  0.45895002520E+03  0.50400001928E-02 0.  1.
        1   -1    0    0  501    0  0.00000000000E+00  0.00000000000E+00 -0.65624049456E+03  0.65624049458E+03  0.50400001928E-02 0. -1.
    10030    2    1    2    0    0  0.00000000000E+00  0.00000000000E+00 -0.19729046939E+03  0.11151905198E+04  0.10976002761E+04 0.  0.
        2    1    3    3  502    0  0.14791267357E+03  0.39236608638E+03  0.26108007221E+03  0.49395557377E+03  0.25500000920E-02 0.  1.
       -2    1    3    3    0  502 -0.14791267357E+03 -0.39236608638E+03 -0.45837054159E+03  0.62123494602E+03  0.25500000920E-02 0. -1.
</event>
<event>
 5   0  0.3523525E-04  0.1099035E+04  0.7818609E-02  0.9206133E-01
        1   -1    0    0  501    0  0.00000000000E+00  0.00000000000E+00  0.86727386637E+03  0.86727386639E+03  0.50400001928E-02 0. -1.
       -1   -1    0    0    0  501  0.00000000000E+00  0.00000000000E+00 -0.34818257456E+03  0.34818257459E+03  0.50400001928E-02 0.  1.
    10030    2    1    2    0    0  0.00000000000E+00  0.00000000000E+00  0.51909129182E+03  0.12154564410E+04  0.10990353000E+04 0.  0.
        5    1    3    3  502    0 -0.28937032796E+03  0.15824849528E+03  0.74561400965E+03  0.81531595983E+03  0.46999998093E+01 0. -1.
       -5    1    3    3    0  502  0.28937032796E+03 -0.15824849528E+03 -0.22652271784E+03  0.40014048115E+03  0.46999998093E+01 0.  1.
</event>
<event>
 5   0  0.6264830E-04  0.1100400E+04  0.7818609E-02  0.9204802E-01
       -2   -1    0    0    0  501  0.00000000000E+00  0.00000000000E+00  0.30523036372E+03  0.30523036373E+03  0.25500000920E-02 0. -1.
        2   -1    0    0  501    0  0.00000000000E+00  0.00000000000E+00 -0.99177629217E+03  0.99177629218E+03  0.25500000920E-02 0.  1.
    10030    2    1    2    0    0  0.00000000000E+00  0.00000000000E+00 -0.68654592845E+03  0.12970066559E+04  0.11004003606E+04 0.  0.
        4    1    3    3  502    0  0.10222440545E+03  0.50559113567E+03 -0.11763761507E+03  0.52906752586E+03  0.12699999809E+01 0. -1.
       -4    1    3    3    0  502 -0.10222440545E+03 -0.50559113567E+03 -0.56890831338E+03  0.76793913005E+03  0.12699999809E+01 0.  1.
</event>
<event>
 5   0  0.6109149E-04  0.1099004E+04  0.7818609E-02  0.9206163E-01
       -2   -1    0    0    0  501  0.00000000000E+00  0.00000000000E+00  0.21901466959E+03  0.21901466960E+03  0.25500000920E-02 0. -1.
        2   -1    0    0  501    0  0.00000000000E+00  0.00000000000E+00 -0.13786866930E+04  0.13786866930E+04  0.25500000920E-02 0.  1.
    10030    2    1    2    0    0  0.00000000000E+00  0.00000000000E+00 -0.11596720235E+04  0.15977013626E+04  0.10990042958E+04 0.  0.
        1    1    3    3  502    0 -0.74831711143E+02  0.52936902184E+03 -0.39525128454E+03  0.66487211118E+03  0.50400001928E-02 0. -1.
       -1    1    3    3    0  502  0.74831711143E+02 -0.52936902184E+03 -0.76442073892E+03  0.93282925146E+03  0.50400001928E-02 0.  1.
</event>
<event>
 5   0  0.3657529E-04  0.1104612E+04  0.7818609E-02  0.9200708E-01
       -1   -1    0    0    0  501  0.00000000000E+00  0.00000000000E+00  0.31931032572E+03  0.31931032576E+03  0.50400001928E-02 0.  1.
        1   -1    0    0  501    0  0.00000000000E+00  0.00000000000E+00 -0.95531575078E+03  0.95531575079E+03  0.50400001928E-02 0. -1.
    10030    2    1    2    0    0  0.00000000000E+00  0.00000000000E+00 -0.63600542506E+03  0.12746260766E+04  0.11046124815E+04 0.  0.
        4    1    3    3  502    0  0.21194022499E+03  0.49269444771E+03 -0.47010085937E+03  0.71320607727E+03  0.12699999809E+01 0. -1.
       -4    1    3    3    0  502 -0.21194022499E+03 -0.49269444771E+03 -0.16590456569E+03  0.56141999928E+03  0.12699999809E+01 0.  1.
</event>
<event>
 5   0  0.6412712E-04  0.1099561E+04  0.7818609E-02  0.9205620E-01
       -2   -1    0    0    0  501  0.00000000000E+00  0.00000000000E+00  0.23918346039E+03  0.23918346040E+03  0.25500000920E-02 0. -1.
        2   -1    0    0  501    0  0.00000000000E+00  0.00000000000E+00 -0.12637092115E+04  0.12637092115E+04  0.25500000920E-02 0.  1.
    10030    2    1    2    0    0  0.00000000000E+00  0.00000000000E+00 -0.10245257511E+04  0.15028926719E+04  0.10995605343E+04 0.  0.
        2    1    3    3  502    0  0.39564444238E+03  0.27238822732E+03 -0.87781414284E+03  0.10006435632E+04  0.25500000920E-02 0.  1.
       -2    1    3    3    0  502 -0.39564444238E+03 -0.27238822732E+03 -0.14671160823E+03  0.50224910868E+03  0.25500000920E-02 0. -1.
</event>
<event>
 5   0  0.3523525E-04  0.1099389E+04  0.7818609E-02  0.9205788E-01
       -1   -1    0    0    0  501  0.00000000000E+00  0.00000000000E+00  0.17476735860E+03  0.17476735867E+03  0.50400001928E-02 0.  1.
        1   -1    0    0  501    0  0.00000000000E+00  0.00000000000E+00 -0.17289495401E+04  0.17289495402E+04  0.50400001928E-02 0. -1.
    10030    2    1    2    0    0  0.00000000000E+00  0.00000000000E+00 -0.15541821815E+04  0.19037168988E+04  0.10993888200E+04 0.  0.
        5    1    3    3  502    0  0.25687289070E+03  0.23291766145E+03 -0.38547057614E+02  0.34891587044E+03  0.46999998093E+01 0.  1.
       -5    1    3    3    0  502 -0.25687289070E+03 -0.23291766145E+03 -0.15156351239E+04  0.15548010284E+04  0.46999998093E+01 0. -1.
</event>
<event>
 5   0  0.6412712E-04  0.1098387E+04  0.7818609E-02  0.9206766E-01
        2   -1    0    0  501    0  0.00000000000E+00  0.00000000000E+00  0.59157127615E+03  0.59157127615E+03  0.25500000920E-02 0. -1.
       -2   -1    0    0    0  501  0.00000000000E+00  0.00000000000E+00 -0.50985107562E+03  0.50985107563E+03  0.25500000920E-02 0.  1.
    10030    2    1    2    0    0  0.00000000000E+00  0.00000000000E+00  0.81720200526E+02  0.11014223518E+04  0.10983865466E+04 0.  0.
        2    1    3    3  502    0  0.37891507248E+03 -0.39741250699E+03  0.30836544187E+02  0.54996747661E+03  0.25500000920E-02 0.  1.
       -2    1    3    3    0  502 -0.37891507248E+03  0.39741250699E+03  0.50883656339E+02  0.55145487517E+03  0.25500000920E-02 0. -1.
</event>
<event>
 5   0  0.3642161E-04  0.1100251E+04  0.7818609E-02  0.9204948E-01
        1   -1    0    0  501    0  0.00000000000E+00  0.00000000000E+00  0.10209122520E+04  0.10209122520E+04  0.50400001928E-02 0.  1.
       -1   -1    0    0    0  501  0.00000000000E+00  0.00000000000E+00 -0.29643867092E+03  0.29643867096E+03  0.50400001928E-02 0. -1.
    10030    2    1    2    0    0  0.00000000000E+00  0.00000000000E+00  0.72447358110E+03  0.13173509230E+04  0.11002506463E+04 0.  0.
        2    1    3    3  502    0  0.24031046652E+03  0.38079839560E+03 -0.16163979927E+02  0.45057498007E+03  0.25500000920E-02 0.  1.
       -2    1    3    3    0  502 -0.24031046652E+03 -0.38079839560E+03  0.74063756102E+03  0.86677594291E+03  0.25500000920E-02 0. -1.
</event>
<event>
 5   0  0.3642161E-04  0.1100041E+04  0.7818609E-02  0.9205152E-01
        1   -1    0    0  501    0  0.00000000000E+00  0.00000000000E+00  0.18682918480E+04  0.18682918480E+04  0.50400001928E-02 0.  1.
       -1   -1    0    0    0  501  0.00000000000E+00  0.00000000000E+00 -0.16192473569E+03  0.16192473577E+03  0.50400001928E-02 0. -1.
    10030    2    1    2    0    0  0.00000000000E+00  0.00000000000E+00  0.17063671123E+04  0.20302165838E+04  0.11000412061E+04 0.  0.
        2    1    3    3  502    0  0.86625635852E+02 -0.23243040271E+03 -0.52835280651E+02  0.25361281470E+03  0.25500000920E-02 0. -1.
       -2    1    3    3    0  502 -0.86625635852E+02  0.23243040271E+03  0.17592023930E+04  0.17766037691E+04  0.25500000920E-02 0.  1.
</event>
<event>
 5   0  0.3642161E-04  0.1099345E+04  0.7818609E-02  0.9205830E-01
       -1   -1    0    0    0  501  0.00000000000E+00  0.00000000000E+00  0.22928753927E+03  0.22928753932E+03  0.50400001928E-02 0.  1.
        1   -1    0    0  501    0  0.00000000000E+00  0.00000000000E+00 -0.13177335675E+04  0.13177335675E+04  0.50400001928E-02 0. -1.
    10030    2    1    2    0    0  0.00000000000E+00  0.00000000000E+00 -0.10884460282E+04  0.15470211068E+04  0.10993450544E+04 0.  0.
        2    1    3    3  502    0  0.13123441235E+02 -0.54797975528E+03 -0.48644378978E+03  0.73285851126E+03  0.25500000920E-02 0.  1.
       -2    1    3    3    0  502 -0.13123441235E+02  0.54797975528E+03 -0.60200223842E+03  0.81416259554E+03  0.25500000920E-02 0. -1.
</event>
<event>
 5   0  0.6264830E-04  0.1101952E+04  0.7818609E-02  0.9203292E-01
        2   -1    0    0  501    0  0.00000000000E+00  0.00000000000E+00  0.78292300517E+03  0.78292300517E+03  0.25500000920E-02 0.  1.
       -2   -1    0    0    0  501  0.00000000000E+00  0.00000000000E+00 -0.38774489051E+03  0.38774489051E+03  0.25500000920E-02 0. -1.
    10030    2    1    2    0    0  0.00000000000E+00  0.00000000000E+00  0.39517811466E+03  0.11706678957E+04  0.11019517139E+04 0.  0.
        4    1    3    3  502    0  0.51124390964E+03 -0.52124394952E+02  0.40868988374E+03  0.65659448799E+03  0.12699999809E+01 0. -1.
       -4    1    3    3    0  502 -0.51124390964E+03  0.52124394952E+02 -0.13511769079E+02  0.51407340769E+03  0.12699999809E+01 0.  1.
</event>
<event>
 5   0  0.3523525E-04  0.1099481E+04  0.7818609E-02  0.9205698E-01
       -1   -1    0    0    0  501  0.00000000000E+00  0.00000000000E+00  0.26007013996E+03  0.26007014001E+03  0.50400001928E-02 0.  1.
        1   -1    0    0  501    0  0.00000000000E+00  0.00000000000E+00 -0.11620495801E+04  0.11620495801E+04  0.50400001928E-02 0. -1.
    10030    2    1    2    0    0  0.00000000000E+00  0.00000000000E+00 -0.90197944017E+03  0.14221197202E+04  0.10994805992E+04 0.  0.
        5    1    3    3  502    0 -0.48892564931E+01 -0.39211168170E+03  0.47309452189E+02  0.39501360738E+03  0.46999998093E+01 0.  1.
       -5    1    3    3    0  502  0.48892564931E+01  0.39211168170E+03 -0.94928889236E+03  0.10271061128E+04  0.46999998093E+01 0. -1.
</event>
<event>
 5   0  0.6245176E-04  0.1101688E+04  0.7818609E-02  0.9203548E-01
        2   -1    0    0  501    0  0.00000000000E+00  0.00000000000E+00  0.69531998663E+03  0.69531998663E+03  0.25500000920E-02 0. -1.
       -2   -1    0    0    0  501  0.00000000000E+00  0.00000000000E+00 -0.43638753159E+03  0.43638753160E+03  0.25500000920E-02 0.  1.
    10030    2    1    2    0    0  0.00000000000E+00  0.00000000000E+00  0.25893245503E+03  0.11317075182E+04  0.11016877464E+04 0.  0.
        5    1    3    3  502    0 -0.16330750926E+02  0.89578567619E+02 -0.42858229661E+03  0.43817335402E+03  0.46999998093E+01 0.  1.
       -5    1    3    3    0  502  0.16330750926E+02 -0.89578567619E+02  0.68751475165E+03  0.69353416421E+03  0.46999998093E+01 0. -1.
</event>
<event>
 5   0  0.6245176E-04  0.1099159E+04  0.7818609E-02  0.9206012E-01
        2   -1    0    0  501    0  0.00000000000E+00  0.00000000000E+00  0.11401426125E+04  0.11401426125E+04  0.25500000920E-02 0.  1.
       -2   -1    0    0    0  501  0.00000000000E+00  0.00000000000E+00 -0.26491204361E+03  0.26491204362E+03  0.25500000920E-02 0. -1.
    10030    2    1    2    0    0  0.00000000000E+00  0.00000000000E+00  0.87523056887E+03  0.14050546561E+04  0.10991587865E+04 0.  0.
        5    1    3    3  502    0  0.51414429693E+03  0.19170850279E+03  0.47636509632E+03  0.72666519326E+03  0.46999998093E+01 0.  1.
       -5    1    3    3    0  502 -0.51414429693E+03 -0.19170850279E+03  0.39886547255E+03  0.67838946284E+03  0.46999998093E+01 0. -1.
</event>
<event>
 5   0  0.6264830E-04  0.1130104E+04  0.7818609E-02  0.9176337E-01
        2   -1    0    0  501    0  0.00000000000E+00  0.00000000000E+00  0.47247001127E+03  0.47247001128E+03  0.25500000920E-02 0. -1.
       -2   -1    0    0    0  501  0.00000000000E+00  0.00000000000E+00 -0.67577621559E+03  0.67577621559E+03  0.25500000920E-02 0.  1.
    10030    2    1    2    0    0  0.00000000000E+00  0.00000000000E+00 -0.20330620431E+03  0.11482462269E+04  0.11301044132E+04 0.  0.
        4    1    3    3  502    0 -0.50833043773E+03  0.42457072539E+02 -0.34861872376E+03  0.61785035760E+03  0.12699999809E+01 0.  1.
       -4    1    3    3    0  502  0.50833043773E+03 -0.42457072539E+02  0.14531251944E+03  0.53039586927E+03  0.12699999809E+01 0. -1.
</event>
<event>
 5   0  0.3657529E-04  0.1114933E+04  0.7818609E-02  0.9190758E-01
       -1   -1    0    0    0  501  0.00000000000E+00  0.00000000000E+00  0.22343059217E+03  0.22343059223E+03  0.50400001928E-02 0. -1.
        1   -1    0    0  501    0  0.00000000000E+00  0.00000000000E+00 -0.13908967542E+04  0.13908967542E+04  0.50400001928E-02 0.  1.
    10030    2    1    2    0    0  0.00000000000E+00  0.00000000000E+00 -0.11674661620E+04  0.16143273464E+04  0.11149329764E+04 0.  0.
        4    1    3    3  502    0  0.11773966115E+03  0.44496004154E+03 -0.12835264010E+03  0.47783687540E+03  0.12699999809E+01 0. -1.
       -4    1    3    3    0  502 -0.11773966115E+03 -0.44496004154E+03 -0.10391135219E+04  0.11364904710E+04  0.12699999809E+01 0.  1.
</event>
<event>
 5   0  0.3642161E-04  0.1102408E+04  0.7818609E-02  0.9202848E-01
       -1   -1    0    0    0  501  0.00000000000E+00  0.00000000000E+00  0.32255276478E+03  0.32255276482E+03  0.50400001928E-02 0.  1.
        1   -1    0    0  501    0  0.00000000000E+00  0.00000000000E+00 -0.94194089310E+03  0.94194089312E+03  0.50400001928E-02 0. -1.
    10030    2    1    2    0    0  0.00000000000E+00  0.00000000000E+00 -0.61938812833E+03  0.12644936579E+04  0.11024076186E+04 0.  0.
        2    1    3    3  502    0  0.31665231327E+03 -0.36837740066E+03 -0.60848368910E+03  0.77860323447E+03  0.25500000920E-02 0. -1.
       -2    1    3    3    0  502 -0.31665231327E+03  0.36837740066E+03 -0.10904439224E+02  0.48589042347E+03  0.25500000920E-02 0.  1.
</event>
<event>
 5   0  0.2403875E-04  0.1101252E+04  0.7818609E-02  0.9203972E-01
       -3   -1    0    0    0  501  0.00000000000E+00  0.00000000000E+00  0.15320071381E+04  0.15320071414E+04  0.10100000352E+00 0. -1.
        3   -1    0    0  501    0  0.00000000000E+00  0.00000000000E+00 -0.19790319008E+03  0.19790321586E+03  0.10100000352E+00 0.  1.
    10030    2    1    2    0    0  0.00000000000E+00  0.00000000000E+00  0.13341039480E+04  0.17299103573E+04  0.11012522418E+04 0.  0.
        3    1    3    3  502    0 -0.17287044657E+02  0.43807553395E+03  0.14374159514E+03  0.46137909764E+03  0.10100000352E+00 0.  1.
       -3    1    3    3    0  502  0.17287044657E+02 -0.43807553395E+03  0.11903623529E+04  0.12685312596E+04  0.10100000352E+00 0. -1.
</event>
<event>
 5   0  0.6412712E-04  0.1099073E+04  0.7818609E-02  0.9206096E-01
       -2   -1    0    0    0  501  0.00000000000E+00  0.00000000000E+00  0.20065816845E+03  0.20065816846E+03  0.25500000920E-02 0.  1.
        2   -1    0    0  501    0  0.00000000000E+00  0.00000000000E+00 -0.15049989186E+04  0.15049989186E+04  0.25500000920E-02 0. -1.
    10030    2    1    2    0    0  0.00000000000E+00  0.00000000000E+00 -0.13043407501E+04  0.17056570870E+04  0.10990729303E+04 0.  0.
        2    1    3    3  502    0  0.30041039404E+03  0.29139530397E+03 -0.99481366343E+02  0.43017923042E+03  0.25500000920E-02 0.  1.
       -2    1    3    3    0  502 -0.30041039404E+03 -0.29139530397E+03 -0.12048593838E+04  0.12754778566E+04  0.25500000920E-02 0. -1.
</event>
<event>
 5   0  0.3642161E-04  0.1106083E+04  0.7818609E-02  0.9199283E-01
        1   -1    0    0  501    0  0.00000000000E+00  0.00000000000E+00  0.31617499616E+03  0.31617499620E+03  0.50400001928E-02 0.  1.
       -1   -1    0    0    0  501  0.00000000000E+00  0.00000000000E+00 -0.96735900133E+03  0.96735900134E+03  0.50400001928E-02 0. -1.
    10030    2    1    2    0    0  0.00000000000E+00  0.00000000000E+00 -0.65118400517E+03  0.12835339975E+04  0.11060826887E+04 0.  0.
        2    1    3    3  502    0  0.23581665002E+03 -0.11964226298E+03 -0.88924556130E+03  0.92772918022E+03  0.25500000920E-02 0. -1.
       -2    1    3    3    0  502 -0.23581665002E+03  0.11964226298E+03  0.23806155613E+03  0.35580481733E+03  0.25500000920E-02 0.  1.
</event>
<event>
 5   0  0.5948818E-04  0.1104327E+04  0.7818609E-02  0.9200985E-01
        2   -1    0    0  501    0  0.00000000000E+00  0.00000000000E+00  0.86876229563E+03  0.86876229564E+03  0.25500000920E-02 0. -1.
       -2   -1    0    0    0  501  0.00000000000E+00  0.00000000000E+00 -0.35094115763E+03  0.35094115764E+03  0.25500000920E-02 0.  1.
    10030    2    1    2    0    0  0.00000000000E+00  0.00000000000E+00  0.51782113800E+03  0.12197034533E+04  0.11043268461E+04 0.  0.
        3    1    3    3  502    0  0.22207509049E+03  0.12610866906E+03  0.79961228428E+03  0.83940488300E+03  0.10100000352E+00 0. -1.
       -3    1    3    3    0  502 -0.22207509049E+03 -0.12610866906E+03 -0.28179114628E+03  0.38029857027E+03  0.10100000352E+00 0.  1.
</event>
<event>
 5   0  0.6245176E-04  0.1102917E+04  0.7818609E-02  0.9202353E-01
       -2   -1    0    0    0  501  0.00000000000E+00  0.00000000000E+00  0.20188929153E+03  0.20188929155E+03  0.25500000920E-02 0. -1.
        2   -1    0    0  501    0  0.00000000000E+00  0.00000000000E+00 -0.15063030929E+04  0.15063030929E+04  0.25500000920E-02 0.  1.
    10030    2    1    2    0    0  0.00000000000E+00  0.00000000000E+00 -0.13044138014E+04  0.17081923845E+04  0.11029169765E+04 0.  0.
        5    1    3    3  502    0  0.73193527026E+02 -0.50619850695E+03 -0.97146219604E+03  0.10978866559E+04  0.46999998093E+01 0.  1.
       -5    1    3    3    0  502 -0.73193527026E+02  0.50619850695E+03 -0.33295160535E+03  0.61030572858E+03  0.46999998093E+01 0. -1.
</event>
<event>
 5   0  0.3523525E-04  0.1101421E+04  0.7818609E-02  0.9203808E-01
       -1   -1    0    0    0  501  0.00000000000E+00  0.00000000000E+00  0.46407151148E+03  0.46407151151E+03  0.50400001928E-02 0.  1.
        1   -1    0    0  501    0  0.00000000000E+00  0.00000000000E+00 -0.65352470050E+03  0.65352470052E+03  0.50400001928E-02 0. -1.
    10030    2    1    2    0    0  0.00000000000E+00  0.00000000000E+00 -0.18945318902E+03  0.11175962120E+04  0.11014212556E+04 0.  0.
        5    1    3    3  502    0  0.32277866242E+03 -0.43574727186E+03  0.25899250282E+01  0.54230115947E+03  0.46999998093E+01 0. -1.
       -5    1    3    3    0  502 -0.32277866242E+03  0.43574727186E+03 -0.19204311405E+03  0.57529505256E+03  0.46999998093E+01 0.  1.
</event>
<event>
 5   0  0.3621403E-04  0.1111204E+04  0.7818609E-02  0.9194340E-01
        1   -1    0    0  501    0  0.00000000000E+00  0.00000000000E+00  0.49857274158E+03  0.49857274161E+03  0.50400001928E-02 0. -1.
       -1   -1    0    0    0  501  0.00000000000E+00  0.00000000000E+00 -0.61915504784E+03  0.61915504786E+03  0.50400001928E-02 0.  1.
    10030    2    1    2    0    0  0.00000000000E+00  0.00000000000E+00 -0.12058230626E+03  0.11177277895E+04  0.11112044451E+04 0.  0.
        3    1    3    3  502    0 -0.21962522842E+03  0.28059811804E+03  0.36850151996E+03  0.51260503823E+03  0.10100000352E+00 0. -1.
       -3    1    3    3    0  502  0.21962522842E+03 -0.28059811804E+03 -0.48908382621E+03  0.60512275124E+03  0.10100000352E+00 0.  1.
</event>
<event>
 5   0  0.5948818E-04  0.1100085E+04  0.7818609E-02  0.9205109E-01
        2   -1    0    0  501    0  0.00000000000E+00  0.00000000000E+00  0.19700594316E+04  0.19700594316E+04  0.25500000920E-02 0. -1.
       -2   -1    0    0    0  501  0.00000000000E+00  0.00000000000E+00 -0.15357245362E+03  0.15357245365E+03  0.25500000920E-02 0.  1.
    10030    2    1    2    0    0  0.00000000000E+00  0.00000000000E+00  0.18164869780E+04  0.21236318853E+04  0.11000851980E+04 0.  0.
        3    1    3    3  502    0 -0.25177887351E+03  0.31940464407E+03  0.16231132871E+04  0.16732927660E+04  0.10100000352E+00 0. -1.
       -3    1    3    3    0  502  0.25177887351E+03 -0.31940464407E+03  0.19337369087E+03  0.45033911924E+03  0.10100000352E+00 0.  1.
</event>
<event>
 5   0  0.6109149E-04  0.1102282E+04  0.7818609E-02  0.9202970E-01
       -2   -1    0    0    0  501  0.00000000000E+00  0.00000000000E+00  0.36314436804E+03  0.36314436804E+03  0.25500000920E-02 0.  1.
        2   -1    0    0  501    0  0.00000000000E+00  0.00000000000E+00 -0.83646197659E+03  0.83646197660E+03  0.25500000920E-02 0. -1.
    10030    2    1    2    0    0  0.00000000000E+00  0.00000000000E+00 -0.47331760856E+03  0.11996063446E+04  0.11022820980E+04 0.  0.
        1    1    3    3  502    0  0.24520843661E+03  0.13869145595E+03 -0.75218599909E+03  0.80320998163E+03  0.50400001928E-02 0. -1.
       -1    1    3    3    0  502 -0.24520843661E+03 -0.13869145595E+03  0.27886839054E+03  0.39639636301E+03  0.50400001928E-02 0.  1.
</event>
<event>
 5   0  0.6109149E-04  0.1102175E+04  0.7818609E-02  0.9203075E-01
        2   -1    0    0  501    0  0.00000000000E+00  0.00000000000E+00  0.93148584329E+03  0.93148584330E+03  0.25500000920E-02 0. -1.
       -2   -1    0    0    0  501  0.00000000000E+00  0.00000000000E+00 -0.32603541877E+03  0.32603541878E+03  0.25500000920E-02 0.  1.
    10030    2    1    2    0    0  0.00000000000E+00  0.00000000000E+00  0.60545042452E+03  0.12575212621E+04  0.11021748990E+04 0.  0.
        1    1    3    3  502    0  0.11931185811E+03 -0.37151196204E+03 -0.14127833484E+03  0.41498918702E+03  0.50400001928E-02 0.  1.
       -1    1    3    3    0  502 -0.11931185811E+03  0.37151196204E+03  0.74672875936E+03  0.84253207506E+03  0.50400001928E-02 0. -1.
</event>
<event>
 5   0  0.6412712E-04  0.1099984E+04  0.7818609E-02  0.9205208E-01
        2   -1    0    0  501    0  0.00000000000E+00  0.00000000000E+00  0.69655492896E+03  0.69655492896E+03  0.25500000920E-02 0.  1.
       -2   -1    0    0    0  501  0.00000000000E+00  0.00000000000E+00 -0.43426717553E+03  0.43426717554E+03  0.25500000920E-02 0. -1.
    10030    2    1    2    0    0  0.00000000000E+00  0.00000000000E+00  0.26228775343E+03  0.11308221045E+04  0.10999835301E+04 0.  0.
        2    1    3    3  502    0 -0.40700606411E+03  0.26983183434E+03 -0.12898726727E+03  0.50507511339E+03  0.25500000920E-02 0. -1.
       -2    1    3    3    0  502  0.40700606411E+03 -0.26983183434E+03  0.39127502070E+03  0.62574699110E+03  0.25500000920E-02 0.  1.
</event>
<event>
 5   0  0.3423758E-04  0.1097998E+04  0.7818609E-02  0.9207145E-01
       -1   -1    0    0    0  501  0.00000000000E+00  0.00000000000E+00  0.15665757535E+03  0.15665757543E+03  0.50400001928E-02 0.  1.
        1   -1    0    0  501    0  0.00000000000E+00  0.00000000000E+00 -0.19239416009E+04  0.19239416009E+04  0.50400001928E-02 0. -1.
    10030    2    1    2    0    0  0.00000000000E+00  0.00000000000E+00 -0.17672840256E+04  0.20805991764E+04  0.10979982266E+04 0.  0.
        1    1    3    3  502    0  0.92567825219E+02  0.53417371159E+03 -0.10476322989E+04  0.11795947567E+04  0.50400001928E-02 0. -1.
       -1    1    3    3    0  502 -0.92567825219E+02 -0.53417371159E+03 -0.71965172670E+03  0.90100441963E+03  0.50400001928E-02 0.  1.
</event>
<event>
 5   0  0.6109149E-04  0.1097917E+04  0.7818609E-02  0.9207225E-01
        2   -1    0    0  501    0  0.00000000000E+00  0.00000000000E+00  0.13265949674E+04  0.13265949674E+04  0.25500000920E-02 0. -1.
       -2   -1    0    0    0  501  0.00000000000E+00  0.00000000000E+00 -0.22716452507E+03  0.22716452509E+03  0.25500000920E-02 0.  1.
    10030    2    1    2    0    0  0.00000000000E+00  0.00000000000E+00  0.10994304423E+04  0.15537594925E+04  0.10979167833E+04 0.  0.
        1    1    3    3  502    0 -0.18155074671E+03 -0.37365108406E+03  0.10575679077E+04  0.11362331124E+04  0.50400001928E-02 0. -1.
       -1    1    3    3    0  502  0.18155074671E+03  0.37365108406E+03  0.41862534631E+02  0.41752638011E+03  0.50400001928E-02 0.  1.
</event>
<event>
 5   0  0.6264830E-04  0.1100376E+04  0.7818609E-02  0.9204825E-01
        2   -1    0    0  501    0  0.00000000000E+00  0.00000000000E+00  0.68814135723E+03  0.68814135724E+03  0.25500000920E-02 0.  1.
       -2   -1    0    0    0  501  0.00000000000E+00  0.00000000000E+00 -0.43989053102E+03  0.43989053103E+03  0.25500000920E-02 0. -1.
    10030    2    1    2    0    0  0.00000000000E+00  0.00000000000E+00  0.24825082621E+03  0.11280318883E+04  0.11003760576E+04 0.  0.
        4    1    3    3  502    0 -0.28322882805E+03  0.47168352361E+03  0.12531150130E+03  0.56427697166E+03  0.12699999809E+01 0. -1.
       -4    1    3    3    0  502  0.28322882805E+03 -0.47168352361E+03  0.12293932491E+03  0.56375491661E+03  0.12699999809E+01 0.  1.
</event>
<event>
 5   0  0.5948818E-04  0.1099699E+04  0.7818609E-02  0.9205486E-01
        2   -1    0    0  501    0  0.00000000000E+00  0.00000000000E+00  0.16475033758E+04  0.16475033758E+04  0.25500000920E-02 0.  1.
       -2   -1    0    0    0  501  0.00000000000E+00  0.00000000000E+00 -0.18351052299E+03  0.18351052301E+03  0.25500000920E-02 0. -1.
    10030    2    1    2    0    0  0.00000000000E+00  0.00000000000E+00  0.14639928528E+04  0.18310138988E+04  0.10996985153E+04 0.  0.
        3    1    3    3  502    0 -0.32492234012E+03  0.37194837363E+03  0.32957901917E+03  0.59375286090E+03  0.10100000352E+00 0. -1.
       -3    1    3    3    0  502  0.32492234012E+03 -0.37194837363E+03  0.11344138337E+04  0.12372610379E+04  0.10100000352E+00 0.  1.
</event>
<event>
 5   0  0.3621403E-04  0.1099598E+04  0.7818609E-02  0.9205584E-01
        1   -1    0    0  501    0  0.00000000000E+00  0.00000000000E+00  0.69215884490E+03  0.69215884492E+03  0.50400001928E-02 0.  1.
       -1   -1    0    0    0  501  0.00000000000E+00  0.00000000000E+00 -0.43671915914E+03  0.43671915917E+03  0.50400001928E-02 0. -1.
    10030    2    1    2    0    0  0.00000000000E+00  0.00000000000E+00  0.25543968576E+03  0.11288780041E+04  0.10995981607E+04 0.  0.
        3    1    3    3  502    0 -0.19955716195E+03  0.97479003751E+02  0.64405727617E+03  0.68127454249E+03  0.10100000352E+00 0.  1.
       -3    1    3    3    0  502  0.19955716195E+03 -0.97479003751E+02 -0.38861759041E+03  0.44760346159E+03  0.10100000352E+00 0. -1.
</event>
<event>
 5   0  0.2403875E-04  0.1100231E+04  0.7818609E-02  0.9204966E-01
       -4   -1    0    0    0  501  0.00000000000E+00  0.00000000000E+00  0.88417507357E+03  0.88417598566E+03  0.12699999809E+01 0. -1.
        4   -1    0    0  501    0  0.00000000000E+00  0.00000000000E+00 -0.34226853166E+03  0.34227088784E+03  0.12699999809E+01 0.  1.
    10030    2    1    2    0    0  0.00000000000E+00  0.00000000000E+00  0.54190654191E+03  0.12264468735E+04  0.11002314454E+04 0.  0.
        3    1    3    3  502    0 -0.28426945716E+03  0.30263319724E+03 -0.13132114359E+03  0.43547816168E+03  0.10100000352E+00 0.  1.
       -3    1    3    3    0  502  0.28426945716E+03 -0.30263319724E+03  0.67322768550E+03  0.79096871182E+03  0.10100000352E+00 0. -1.
</event>
<event>
 5   0  0.6109149E-04  0.1099263E+04  0.7818609E-02  0.9205911E-01
        2   -1    0    0  501    0  0.00000000000E+00  0.00000000000E+00  0.60683904346E+03  0.60683904346E+03  0.25500000920E-02 0.  1.
       -2   -1    0    0    0  501  0.00000000000E+00  0.00000000000E+00 -0.49781674204E+03  0.49781674204E+03  0.25500000920E-02 0. -1.
    10030    2    1    2    0    0  0.00000000000E+00  0.00000000000E+00  0.10902230142E+03  0.11046557855E+04  0.10992627267E+04 0.  0.
        1    1    3    3  502    0  0.10793293450E+03  0.90500625726E+02 -0.47937186109E+03  0.49963713116E+03  0.50400001928E-02 0. -1.
       -1    1    3    3    0  502 -0.10793293450E+03 -0.90500625726E+02  0.58839416251E+03  0.60501865435E+03  0.50400001928E-02 0.  1.
</event>
<event>
 5   0  0.6264830E-04  0.1097610E+04  0.7818609E-02  0.9207525E-01
       -2   -1    0    0    0  501  0.00000000000E+00  0.00000000000E+00  0.24097238816E+03  0.24097238817E+03  0.25500000920E-02 0. -1.
        2   -1    0    0  501    0  0.00000000000E+00  0.00000000000E+00 -0.12498805287E+04  0.12498805287E+04  0.25500000920E-02 0.  1.
    10030    2    1    2    0    0  0.00000000000E+00  0.00000000000E+00 -0.10089081406E+04  0.14908529169E+04  0.10976095771E+04 0.  0.
        4    1    3    3  502    0  0.42220022843E+02 -0.24596855646E+03 -0.11683451361E+04  0.11947029050E+04  0.12699999809E+01 0.  1.
       -4    1    3    3    0  502 -0.42220022843E+02  0.24596855646E+03  0.15943699559E+03  0.29615001191E+03  0.12699999809E+01 0. -1.
</event>
<event>
 5   0  0.5948818E-04  0.1100808E+04  0.7818609E-02  0.9204405E-01
        2   -1    0    0  501    0  0.00000000000E+00  0.00000000000E+00  0.12369975383E+04  0.12369975383E+04  0.25500000920E-02 0. -1.
       -2   -1    0    0    0  501  0.00000000000E+00  0.00000000000E+00 -0.24490313675E+03  0.24490313677E+03  0.25500000920E-02 0.  1.
    10030    2    1    2    0    0  0.00000000000E+00  0.00000000000E+00  0.99209440154E+03  0.14819006751E+04  0.11008080256E+04 0.  0.
        3    1    3    3  502    0 -0.59900800921E+02  0.96384890275E+02 -0.22898322445E+03  0.25556110875E+03  0.10100000352E+00 0.  1.
       -3    1    3    3    0  502  0.59900800921E+02 -0.96384890275E+02  0.12210776260E+04  0.12263395663E+04  0.10100000352E+00 0. -1.
</event>
<event>
 5   0  0.3423758E-04  0.1099743E+04  0.7818609E-02  0.9205443E-01
        1   -1    0    0  501    0  0.00000000000E+00  0.00000000000E+00  0.13209357030E+04  0.13209357031E+04  0.50400001928E-02 0. -1.
       -1   -1    0    0    0  501  0.00000000000E+00  0.00000000000E+00 -0.22889726266E+03  0.22889726272E+03  0.50400001928E-02 0.  1.
    10030    2    1    2    0    0  0.00000000000E+00  0.00000000000E+00  0.10920384404E+04  0.15498329658E+04  0.10997428184E+04 0.  0.
        1    1    3    3  502    0 -0.43153167031E+03  0.33937137102E+03  0.50221710743E+03  0.74405277566E+03  0.50400001928E-02 0. -1.
       -1    1    3    3    0  502  0.43153167031E+03 -0.33937137102E+03  0.58982133295E+03  0.80578019011E+03  0.50400001928E-02 0.  1.
</event>
<event>
 5   0  0.6412712E-04  0.1101128E+04  0.7818609E-02  0.9204093E-01
        2   -1    0    0  501    0  0.00000000000E+00  0.00000000000E+00  0.15268790549E+04  0.15268790549E+04  0.25500000920E-02 0.  1.
       -2   -1    0    0    0  501  0.00000000000E+00  0.00000000000E+00 -0.19852310941E+03  0.19852310943E+03  0.25500000920E-02 0. -1.
    10030    2    1    2    0    0  0.00000000000E+00  0.00000000000E+00  0.13283559455E+04  0.17254021643E+04  0.11011281082E+04 0.  0.
        2    1    3    3  502    0 -0.26473197851E+03 -0.44372389267E+03  0.96208984022E+03  0.10920580452E+04  0.25500000920E-02 0.  1.
       -2    1    3    3    0  502  0.26473197851E+03  0.44372389267E+03  0.36626610523E+03  0.63334411912E+03  0.25500000920E-02 0. -1.
</event>
<event>
 5   0  0.3423758E-04  0.1100928E+04  0.7818609E-02  0.9204287E-01
       -1   -1    0    0    0  501  0.00000000000E+00  0.00000000000E+00  0.29162063547E+03  0.29162063551E+03  0.50400001928E-02 0.  1.
        1   -1    0    0  501    0  0.00000000000E+00  0.00000000000E+00 -0.10390584555E+04  0.10390584555E+04  0.50400001928E-02 0. -1.
    10030    2    1    2    0    0  0.00000000000E+00  0.00000000000E+00 -0.74743781999E+03  0.13306790910E+04  0.11009284938E+04 0.  0.
        1    1    3    3  502    0  0.90913224077E+02 -0.32303244570E+03  0.15368434049E+03  0.36909897293E+03  0.50400001928E-02 0.  1.
       -1    1    3    3    0  502 -0.90913224077E+02  0.32303244570E+03 -0.90112216048E+03  0.96158011805E+03  0.50400001928E-02 0. -1.
</event>
<event>
 5   0  0.3642161E-04  0.1099308E+04  0.7818609E-02  0.9205867E-01
        1   -1    0    0  501    0  0.00000000000E+00  0.00000000000E+00  0.15420151332E+04  0.15420151332E+04  0.50400001928E-02 0.  1.
       -1   -1    0    0    0  501  0.00000000000E+00  0.00000000000E+00 -0.19592500203E+03  0.19592500209E+03  0.50400001928E-02 0. -1.
    10030    2    1    2    0    0  0.00000000000E+00  0.00000000000E+00  0.13460901312E+04  0.17379401353E+04  0.10993076333E+04 0.  0.
        2    1    3    3  502    0  0.22343803380E+03  0.31164080302E+03  0.50477994265E+02  0.38677199093E+03  0.25500000920E-02 0. -1.
       -2    1    3    3    0  502 -0.22343803380E+03 -0.31164080302E+03  0.12956121369E+04  0.13511681444E+04  0.25500000920E-02 0.  1.
</event>
<event>
 5   0  0.6245176E-04  0.1100413E+04  0.7818609E-02  0.9204789E-01
       -2   -1    0    0    0  501  0.00000000000E+00  0.00000000000E+00  0.54425689904E+03  0.54425689905E+03  0.25500000920E-02 0. -1.
        2   -1    0    0  501    0  0.00000000000E+00  0.00000000000E+00 -0.55622117817E+03  0.55622117817E+03  0.25500000920E-02 0.  1.
    10030    2    1    2    0    0  0.00000000000E+00  0.00000000000E+00 -0.11964279125E+02  0.11004780772E+04  0.11004130381E+04 0.  0.
        5    1    3    3  502    0 -0.31665777968E+03 -0.43146692920E+03 -0.13354070030E+03  0.55162584155E+03  0.46999998093E+01 0.  1.
       -5    1    3    3    0  502  0.31665777968E+03  0.43146692920E+03  0.12157642118E+03  0.54885223568E+03  0.46999998093E+01 0. -1.
</event>
<event>
 5   0  0.3423758E-04  0.1098987E+04  0.7818609E-02  0.9206180E-01
        1   -1    0    0  501    0  0.00000000000E+00  0.00000000000E+00  0.20618995066E+03  0.20618995072E+03  0.50400001928E-02 0. -1.
       -1   -1    0    0    0  501  0.00000000000E+00  0.00000000000E+00 -0.14643933574E+04  0.14643933574E+04  0.50400001928E-02 0.  1.
    10030    2    1    2    0    0  0.00000000000E+00  0.00000000000E+00 -0.12582034068E+04  0.16705833082E+04  0.10989871595E+04 0.  0.
        1    1    3    3  502    0  0.29885102694E+03  0.10898490058E+03  0.51992424117E+02  0.32232414903E+03  0.50400001928E-02 0. -1.
       -1    1    3    3    0  502 -0.29885102694E+03 -0.10898490058E+03 -0.13101958309E+04  0.13482591591E+04  0.50400001928E-02 0.  1.
</event>
<event>
 5   0  0.6264830E-04  0.1100133E+04  0.7818609E-02  0.9205063E-01
       -2   -1    0    0    0  501  0.00000000000E+00  0.00000000000E+00  0.52624361351E+03  0.52624361352E+03  0.25500000920E-02 0.  1.
        2   -1    0    0  501    0  0.00000000000E+00  0.00000000000E+00 -0.57496736004E+03  0.57496736005E+03  0.25500000920E-02 0. -1.
    10030    2    1    2    0    0  0.00000000000E+00  0.00000000000E+00 -0.48723746530E+02  0.11012109736E+04  0.11001325397E+04 0.  0.
        4    1    3    3  502    0 -0.31313264928E+03 -0.30775086199E+03 -0.35606057744E+03  0.56528169686E+03  0.12699999809E+01 0. -1.
       -4    1    3    3    0  502  0.31313264928E+03  0.30775086199E+03  0.30733683091E+03  0.53592927671E+03  0.12699999809E+01 0.  1.
</event>
<event>
 5   0  0.3523525E-04  0.1101551E+04  0.7818609E-02  0.9203681E-01
       -1   -1    0    0    0  501  0.00000000000E+00  0.00000000000E+00  0.33128258277E+03  0.33128258281E+03  0.50400001928E-02 0. -1.
        1   -1    0    0  501    0  0.00000000000E+00  0.00000000000E+00 -0.91569465257E+03  0.91569465259E+03  0.50400001928E-02 0.  1.
    10030    2    1    2    0    0  0.00000000000E+00  0.00000000000E+00 -0.58441206980E+03  0.12469772354E+04  0.11015510693E+04 0.  0.
        5    1    3    3  502    0 -0.21085920061E+03  0.33699239471E+03  0.13930891486E+03  0.42125353451E+03  0.46999998093E+01 0. -1.
       -5    1    3    3    0  502  0.21085920061E+03 -0.33699239471E+03 -0.72372098466E+03  0.82572370089E+03  0.46999998093E+01 0.  1.
</event>
<event>
 5   0  0.5948818E-04  0.1101405E+04  0.7818609E-02  0.9203824E-01
        2   -1    0    0  501    0  0.00000000000E+00  0.00000000000E+00  0.35363702334E+03  0.35363702334E+03  0.25500000920E-02 0. -1.
       -2   -1    0    0    0  501  0.00000000000E+00  0.00000000000E+00 -0.85758336012E+03  0.85758336012E+03  0.25500000920E-02 0.  1.
    10030    2    1    2    0    0  0.00000000000E+00  0.00000000000E+00 -0.50394633678E+03  0.12112203835E+04  0.11014049696E+04 0.  0.
        3    1    3    3  502    0  0.28938299378E+02 -0.29961867908E+03 -0.75910815861E+03  0.81661128126E+03  0.10100000352E+00 0.  1.
       -3    1    3    3    0  502 -0.28938299378E+02  0.29961867908E+03  0.25516182182E+03  0.39460910220E+03  0.10100000352E+00 0. -1.
</event>
<event>
 5   0  0.5948818E-04  0.1105806E+04  0.7818609E-02  0.9199551E-01
       -2   -1    0    0    0  501  0.00000000000E+00  0.00000000000E+00  0.28016888862E+03  0.28016888863E+03  0.25500000920E-02 0.  1.
        2   -1    0    0  501    0  0.00000000000E+00  0.00000000000E+00 -0.10911338404E+04  0.10911338404E+04  0.25500000920E-02 0. -1.
    10030    2    1    2    0    0  0.00000000000E+00  0.00000000000E+00 -0.81096495182E+03  0.13713027291E+04  0.11058060507E+04 0.  0.
        3    1    3    3  502    0  0.24354413634E+03 -0.23047959892E+03  0.13968934953E+03  0.36324608248E+03  0.10100000352E+00 0.  1.
       -3    1    3    3    0  502 -0.24354413634E+03  0.23047959892E+03 -0.95065430135E+03  0.10080566466E+04  0.10100000352E+00 0. -1.
</event>
<event>
 5   0  0.3621403E-04  0.1098221E+04  0.7818609E-02  0.9206928E-01
       -1   -1    0    0    0  501  0.00000000000E+00  0.00000000000E+00  0.23231978263E+03  0.23231978269E+03  0.50400001928E-02 0.  1.
        1   -1    0    0  501    0  0.00000000000E+00  0.00000000000E+00 -0.12978757030E+04  0.12978757030E+04  0.50400001928E-02 0. -1.
    10030    2    1    2    0    0  0.00000000000E+00  0.00000000000E+00 -0.10655559204E+04  0.15301954857E+04  0.10982207451E+04 0.  0.
        3    1    3    3  502    0 -0.49330666230E+03  0.94957436776E+02 -0.22386517684E+03  0.54998545932E+03  0.10100000352E+00 0.  1.
       -3    1    3    3    0  502  0.49330666230E+03 -0.94957436776E+02 -0.84169074351E+03  0.98021002636E+03  0.10100000352E+00 0. -1.
</event>
<event>
 5   0  0.6412712E-04  0.1099381E+04  0.7818609E-02  0.9205795E-01
        2   -1    0    0  501    0  0.00000000000E+00  0.00000000000E+00  0.11938523626E+04  0.11938523626E+04  0.25500000920E-02 0. -1.
       -2   -1    0    0    0  501  0.00000000000E+00  0.00000000000E+00 -0.25309643373E+03  0.25309643374E+03  0.25500000920E-02 0.  1.
    10030    2    1    2    0    0  0.00000000000E+00  0.00000000000E+00  0.94075592883E+03  0.14469487963E+04  0.10993812357E+04 0.  0.
        2    1    3    3  502    0 -0.30151330875E+03 -0.21705718522E+03 -0.62841924299E+02  0.37679331797E+03  0.25500000920E-02 0.  1.
       -2    1    3    3    0  502  0.30151330875E+03  0.21705718522E+03  0.10035978531E+04  0.10701554783E+04  0.25500000920E-02 0. -1.
</event>
<event>
 5   0  0.6264830E-04  0.1094144E+04  0.7818609E-02  0.9210918E-01
       -2   -1    0    0    0  501  0.00000000000E+00  0.00000000000E+00  0.76930265745E+03  0.76930265746E+03  0.25500000920E-02 0. -1.
        2   -1    0    0  501    0  0.00000000000E+00  0.00000000000E+00 -0.38903792210E+03  0.38903792211E+03  0.25500000920E-02 0.  1.
    10030    2    1    2    0    0  0.00000000000E+00  0.00000000000E+00  0.38026473536E+03  0.11583405796E+04  0.10941442452E+04 0.  0.
        4    1    3    3  502    0  0.61520879161E+02  0.76999226540E+01 -0.38530484725E+03  0.39026343103E+03  0.12699999809E+01 0.  1.
       -4    1    3    3    0  502 -0.61520879161E+02 -0.76999226540E+01  0.76556958261E+03  0.76807714853E+03  0.12699999809E+01 0. -1.
</event>
<event>
 5   0  0.6264830E-04  0.1097707E+04  0.7818609E-02  0.9207429E-01
       -2   -1    0    0    0  501  0.00000000000E+00  0.00000000000E+00  0.20408067854E+03  0.20408067856E+03  0.25500000920E-02 0.  1.
        2   -1    0    0  501    0  0.00000000000E+00  0.00000000000E+00 -0.14760843483E+04  0.14760843483E+04  0.25500000920E-02 0. -1.
    10030    2    1    2    0    0  0.00000000000E+00  0.00000000000E+00 -0.12720036697E+04  0.16801650268E+04  0.10977072386E+04 0.  0.
        4    1    3    3  502    0  0.11959368195E+03  0.43934184680E+03 -0.11050661284E+04  0.11951973344E+04  0.12699999809E+01 0. -1.
       -4    1    3    3    0  502 -0.11959368195E+03 -0.43934184680E+03 -0.16693754134E+03  0.48496769245E+03  0.12699999809E+01 0.  1.
</event>
<event>
 5   0  0.3657529E-04  0.1100245E+04  0.7818609E-02  0.9204953E-01
       -1   -1    0    0    0  501  0.00000000000E+00  0.00000000000E+00  0.31773080344E+03  0.31773080348E+03  0.50400001928E-02 0. -1.
        1   -1    0    0  501    0  0.00000000000E+00  0.00000000000E+00 -0.95248752556E+03  0.95248752557E+03  0.50400001928E-02 0.  1.
    10030    2    1    2    0    0  0.00000000000E+00  0.00000000000E+00 -0.63475672212E+03  0.12702183290E+04  0.11002447488E+04 0.  0.
        4    1    3    3  502    0  0.24895579017E+03  0.47276449029E+02  0.24633648253E+03  0.35340815443E+03  0.12699999809E+01 0. -1.
       -4    1    3    3    0  502 -0.24895579017E+03 -0.47276449029E+02 -0.88109320465E+03  0.91681017461E+03  0.12699999809E+01 0.  1.
</event>
<event>
 5   0  0.3621403E-04  0.1098860E+04  0.7818609E-02  0.9206304E-01
       -1   -1    0    0    0  501  0.00000000000E+00  0.00000000000E+00  0.29437286631E+03  0.29437286636E+03  0.50400001928E-02 0. -1.
        1   -1    0    0  501    0  0.00000000000E+00  0.00000000000E+00 -0.10254789430E+04  0.10254789430E+04  0.50400001928E-02 0.  1.
    10030    2    1    2    0    0  0.00000000000E+00  0.00000000000E+00 -0.73110607671E+03  0.13198518094E+04  0.10988597287E+04 0.  0.
        3    1    3    3  502    0  0.13115531992E+03  0.33019701780E+03 -0.86893347296E+03  0.93876364392E+03  0.10100000352E+00 0.  1.
       -3    1    3    3    0  502 -0.13115531992E+03 -0.33019701780E+03  0.13782739625E+03  0.38108816547E+03  0.10100000352E+00 0. -1.
</event>
<event>
 5   0  0.3423758E-04  0.1109708E+04  0.7818609E-02  0.9195781E-01
        1   -1    0    0  501    0  0.00000000000E+00  0.00000000000E+00  0.17223876454E+04  0.17223876454E+04  0.50400001928E-02 0.  1.
       -1   -1    0    0    0  501  0.00000000000E+00  0.00000000000E+00 -0.17874207724E+03  0.17874207731E+03  0.50400001928E-02 0. -1.
    10030    2    1    2    0    0  0.00000000000E+00  0.00000000000E+00  0.15436455681E+04  0.19011297227E+04  0.11097083322E+04 0.  0.
        1    1    3    3  502    0 -0.19483533170E+03 -0.13147727047E+03 -0.89237164786E+02  0.25141668746E+03  0.50400001928E-02 0. -1.
       -1    1    3    3    0  502  0.19483533170E+03  0.13147727047E+03  0.16328827329E+04  0.16497130352E+04  0.50400001928E-02 0.  1.
</event>
<event>
 5   0  0.3642161E-04  0.1096289E+04  0.7818609E-02  0.9208816E-01
        1   -1    0    0  501    0  0.00000000000E+00  0.00000000000E+00  0.11578571258E+04  0.11578571258E+04  0.50400001928E-02 0.  1.
       -1   -1    0    0    0  501  0.00000000000E+00  0.00000000000E+00 -0.25949881962E+03  0.25949881967E+03  0.50400001928E-02 0. -1.
    10030    2    1    2    0    0  0.00000000000E+00  0.00000000000E+00  0.89835830616E+03  0.14173559455E+04  0.10962893003E+04 0.  0.
        2    1    3    3  502    0  0.13117718447E+03  0.33672663178E+03 -0.83680030030E+02  0.37093749569E+03  0.25500000920E-02 0. -1.
       -2    1    3    3    0  502 -0.13117718447E+03 -0.33672663178E+03  0.98203833619E+03  0.10464184498E+04  0.25500000920E-02 0.  1.
</event>
<event>
 5   0  0.3423758E-04  0.1098227E+04  0.7818609E-02  0.9206921E-01
        1   -1    0    0  501    0  0.00000000000E+00  0.00000000000E+00  0.41675576876E+03  0.41675576879E+03  0.50400001928E-02 0.  1.
       -1   -1    0    0    0  501  0.00000000000E+00  0.00000000000E+00 -0.72350732131E+03  0.72350732133E+03  0.50400001928E-02 0. -1.
    10030    2    1    2    0    0  0.00000000000E+00  0.00000000000E+00 -0.30675155255E+03  0.11402630901E+04  0.10982273898E+04 0.  0.
        1    1    3    3  502    0  0.25717636923E+03  0.17882678880E+03 -0.62164530413E+03  0.69610458227E+03  0.50400001928E-02 0. -1.
       -1    1    3    3    0  502 -0.25717636923E+03 -0.17882678880E+03  0.31489375159E+03  0.44415850785E+03  0.50400001928E-02 0.  1.
</event>
<event>
 5   0  0.6412712E-04  0.1099896E+04  0.7818609E-02  0.9205294E-01
        2   -1    0    0  501    0  0.00000000000E+00  0.00000000000E+00  0.12147368912E+04  0.12147368912E+04  0.25500000920E-02 0.  1.
       -2   -1    0    0    0  501  0.00000000000E+00  0.00000000000E+00 -0.24897790446E+03  0.24897790448E+03  0.25500000920E-02 0. -1.
    10030    2    1    2    0    0  0.00000000000E+00  0.00000000000E+00  0.96575898678E+03  0.14637147957E+04  0.10998957145E+04 0.  0.
        2    1    3    3  502    0  0.26567394203E+03  0.34135515405E+03  0.30931315135E+02  0.43366200079E+03  0.25500000920E-02 0. -1.
       -2    1    3    3    0  502 -0.26567394203E+03 -0.34135515405E+03  0.93482767164E+03  0.10300527949E+04  0.25500000920E-02 0.  1.
</event>
<event>
 5   0  0.3657529E-04  0.1100757E+04  0.7818609E-02  0.9204454E-01
        1   -1    0    0  501    0  0.00000000000E+00  0.00000000000E+00  0.62920533515E+03  0.62920533517E+03  0.50400001928E-02 0.  1.
       -1   -1    0    0    0  501  0.00000000000E+00  0.00000000000E+00 -0.48142728791E+03  0.48142728794E+03  0.50400001928E-02 0. -1.
    10030    2    1    2    0    0  0.00000000000E+00  0.00000000000E+00  0.14777804723E+03  0.11106326231E+04  0.11007572268E+04 0.  0.
        4    1    3    3  502    0 -0.62867538237E+02 -0.37329033161E+03  0.47699427973E+03  0.60895250622E+03  0.12699999809E+01 0.  1.
       -4    1    3    3    0  502  0.62867538237E+02  0.37329033161E+03 -0.32921623250E+03  0.50168011689E+03  0.12699999809E+01 0. -1.
</event>
<event>
 5   0  0.6264830E-04  0.1099198E+04  0.7818609E-02  0.9205974E-01
       -2   -1    0    0    0  501  0.00000000000E+00  0.00000000000E+00  0.31462169876E+03  0.31462169877E+03  0.25500000920E-02 0.  1.
        2   -1    0    0  501    0  0.00000000000E+00  0.00000000000E+00 -0.96007082030E+03  0.96007082030E+03  0.25500000920E-02 0. -1.
    10030    2    1    2    0    0  0.00000000000E+00  0.00000000000E+00 -0.64544912154E+03  0.12746925191E+04  0.10991980939E+04 0.  0.
        4    1    3    3  502    0  0.52761392351E+03 -0.24694138539E+02 -0.14658171745E+03  0.54815514734E+03  0.12699999809E+01 0. -1.
       -4    1    3    3    0  502 -0.52761392351E+03  0.24694138539E+02 -0.49886740409E+03  0.72653737173E+03  0.12699999809E+01 0.  1.
</event>
<event>
 5   0  0.3423758E-04  0.1101704E+04  0.7818609E-02  0.9203533E-01
        1   -1    0    0  501    0  0.00000000000E+00  0.00000000000E+00  0.34468667173E+03  0.34468667176E+03  0.50400001928E-02 0.  1.
       -1   -1    0    0    0  501  0.00000000000E+00  0.00000000000E+00 -0.88032985468E+03  0.88032985470E+03  0.50400001928E-02 0. -1.
    10030    2    1    2    0    0  0.00000000000E+00  0.00000000000E+00 -0.53564318296E+03  0.12250165265E+04  0.11017040758E+04 0.  0.
        1    1    3    3  502    0  0.21604552537E+03  0.15902839298E+03  0.26714477157E+03  0.37859216554E+03  0.50400001928E-02 0. -1.
       -1    1    3    3    0  502 -0.21604552537E+03 -0.15902839298E+03 -0.80278795452E+03  0.84642436092E+03  0.50400001928E-02 0.  1.
</event>
<event>
 5   0  0.3621403E-04  0.1099795E+04  0.7818609E-02  0.9205391E-01
        1   -1    0    0  501    0  0.00000000000E+00  0.00000000000E+00  0.67111412537E+03  0.67111412539E+03  0.50400001928E-02 0. -1.
       -1   -1    0    0    0  501  0.00000000000E+00  0.00000000000E+00 -0.45057540356E+03  0.45057540358E+03  0.50400001928E-02 0.  1.
    10030    2    1    2    0    0  0.00000000000E+00  0.00000000000E+00  0.22053872181E+03  0.11216895290E+04  0.10997954681E+04 0.  0.
        3    1    3    3  502    0  0.22297026000E+03  0.22647261274E+03  0.56795889921E+03  0.65083246889E+03  0.10100000352E+00 0. -1.
       -3    1    3    3    0  502 -0.22297026000E+03 -0.22647261274E+03 -0.34742017740E+03  0.47085706008E+03  0.10100000352E+00 0.  1.
</event>
<event>
 5   0  0.6412712E-04  0.1100649E+04  0.7818609E-02  0.9204559E-01
        2   -1    0    0  501    0  0.00000000000E+00  0.00000000000E+00  0.12287923630E+04  0.12287923630E+04  0.25500000920E-02 0.  1.
       -2   -1    0    0    0  501  0.00000000000E+00  0.00000000000E+00 -0.24646738737E+03  0.24646738738E+03  0.25500000920E-02 0. -1.
    10030    2    1    2    0    0  0.00000000000E+00  0.00000000000E+00  0.98232497565E+03  0.14752597504E+04  0.11006493417E+04 0.  0.
        2    1    3    3  502    0 -0.25176830614E+03  0.29101459117E+03  0.10184865605E+04  0.10887569270E+04  0.25500000920E-02 0.  1.
       -2    1    3    3    0  502  0.25176830614E+03 -0.29101459117E+03 -0.36161584835E+02  0.38650282337E+03  0.25500000920E-02 0. -1.
</event>
<event>
 5   0  0.5948818E-04  0.1102173E+04  0.7818609E-02  0.9203077E-01
       -2   -1    0    0    0  501  0.00000000000E+00  0.00000000000E+00  0.37973976027E+03  0.37973976027E+03  0.25500000920E-02 0.  1.
        2   -1    0    0  501    0  0.00000000000E+00  0.00000000000E+00 -0.79974825645E+03  0.79974825646E+03  0.25500000920E-02 0. -1.
    10030    2    1    2    0    0  0.00000000000E+00  0.00000000000E+00 -0.42000849619E+03  0.11794880167E+04  0.11021727835E+04 0.  0.
        3    1    3    3  502    0  0.23744175868E+03  0.49247617348E+03 -0.28402903085E+03  0.61610378247E+03  0.10100000352E+00 0. -1.
       -3    1    3    3    0  502 -0.23744175868E+03 -0.49247617348E+03 -0.13597946534E+03  0.56338423426E+03  0.10100000352E+00 0.  1.
</event>
<event>
 5   0  0.6245176E-04  0.1102185E+04  0.7818609E-02  0.9203065E-01
       -2   -1    0    0    0  501  0.00000000000E+00  0.00000000000E+00  0.11072825544E+04  0.11072825544E+04  0.25500000920E-02 0. -1.
        2   -1    0    0  501    0  0.00000000000E+00  0.00000000000E+00 -0.27427753284E+03  0.27427753285E+03  0.25500000920E-02 0.  1.
    10030    2    1    2    0    0  0.00000000000E+00  0.00000000000E+00  0.83300502159E+03  0.13815600873E+04  0.11021846074E+04 0.  0.
        5    1    3    3  502    0 -0.48405586721E+03 -0.79865004141E+02  0.10190259418E+03  0.50109353435E+03  0.46999998093E+01 0. -1.
       -5    1    3    3    0  502  0.48405586721E+03  0.79865004141E+02  0.73110242742E+03  0.88046655294E+03  0.46999998093E+01 0.  1.
</event>
<event>
 5   0  0.3657529E-04  0.1098727E+04  0.7818609E-02  0.9206434E-01
        1   -1    0    0  501    0  0.00000000000E+00  0.00000000000E+00  0.32230114958E+03  0.32230114962E+03  0.50400001928E-02 0.  1.
       -1   -1    0    0    0  501  0.00000000000E+00  0.00000000000E+00 -0.93639151382E+03  0.93639151383E+03  0.50400001928E-02 0. -1.
    10030    2    1    2    0    0  0.00000000000E+00  0.00000000000E+00 -0.61409036423E+03  0.12586926635E+04  0.10987266473E+04 0.  0.
        4    1    3    3  502    0 -0.31222722003E+03  0.20708864443E+03  0.15323047136E+03  0.40478726985E+03  0.12699999809E+01 0.  1.
       -4    1    3    3    0  502  0.31222722003E+03 -0.20708864443E+03 -0.76732083560E+03  0.85390539360E+03  0.12699999809E+01 0. -1.
</event>
<event>
 5   0  0.3423758E-04  0.1106615E+04  0.7818609E-02  0.9198769E-01
       -1   -1    0    0    0  501  0.00000000000E+00  0.00000000000E+00  0.43938009314E+03  0.43938009317E+03  0.50400001928E-02 0. -1.
        1   -1    0    0  501    0  0.00000000000E+00  0.00000000000E+00 -0.69677496872E+03  0.69677496874E+03  0.50400001928E-02 0.  1.
    10030    2    1    2    0    0  0.00000000000E+00  0.00000000000E+00 -0.25739487558E+03  0.11361550619E+04  0.11066147490E+04 0.  0.
        1    1    3    3  502    0 -0.54986874878E+03 -0.60969178853E+02 -0.11973697852E+03  0.56604754721E+03  0.50400001928E-02 0.  1.
       -1    1    3    3    0  502  0.54986874878E+03  0.60969178853E+02 -0.13765789706E+03  0.57010751469E+03  0.50400001928E-02 0. -1.
</event>
<event>
 5   0  0.3621403E-04  0.1100006E+04  0.7818609E-02  0.9205186E-01
        1   -1    0    0  501    0  0.00000000000E+00  0.00000000000E+00  0.11103435816E+04  0.11103435816E+04  0.50400001928E-02 0.  1.
       -1   -1    0    0    0  501  0.00000000000E+00  0.00000000000E+00 -0.27244138509E+03  0.27244138514E+03  0.50400001928E-02 0. -1.
    10030    2    1    2    0    0  0.00000000000E+00  0.00000000000E+00  0.83790219648E+03  0.13827849667E+04  0.11000064424E+04 0.  0.
        3    1    3    3  502    0  0.13602156433E+03  0.19792872769E+03  0.10409478089E+04  0.10682930302E+04  0.10100000352E+00 0.  1.
       -3    1    3    3    0  502 -0.13602156433E+03 -0.19792872769E+03 -0.20304561246E+03  0.31449193654E+03  0.10100000352E+00 0. -1.
</event>
<event>
 5   0  0.5948818E-04  0.1096954E+04  0.7818609E-02  0.9208166E-01
        2   -1    0    0  501    0  0.00000000000E+00  0.00000000000E+00  0.14668136067E+04  0.14668136067E+04  0.25500000920E-02 0. -1.
       -2   -1    0    0    0  501  0.00000000000E+00  0.00000000000E+00 -0.20508874505E+03  0.20508874507E+03  0.25500000920E-02 0.  1.
    10030    2    1    2    0    0  0.00000000000E+00  0.00000000000E+00  0.12617248617E+04  0.16719023518E+04  0.10969538948E+04 0.  0.
        3    1    3    3  502    0 -0.17303653511E+03 -0.45647214670E+03  0.24977311880E+03  0.54835671262E+03  0.10100000352E+00 0.  1.
       -3    1    3    3    0  502  0.17303653511E+03  0.45647214670E+03  0.10119517429E+04  0.11235456392E+04  0.10100000352E+00 0. -1.
</event>
<event>
 5   0  0.6412712E-04  0.1098983E+04  0.7818609E-02  0.9206184E-01
        2   -1    0    0  501    0  0.00000000000E+00  0.00000000000E+00  0.15366042624E+04  0.15366042624E+04  0.25500000920E-02 0. -1.
       -2   -1    0    0    0  501  0.00000000000E+00  0.00000000000E+00 -0.19649884246E+03  0.19649884247E+03  0.25500000920E-02 0.  1.
    10030    2    1    2    0    0  0.00000000000E+00  0.00000000000E+00  0.13401054199E+04  0.17331031049E+04  0.10989830916E+04 0.  0.
        2    1    3    3  502    0 -0.37735231078E+03 -0.27561259535E+03  0.21412637476E+03  0.51401086909E+03  0.25500000920E-02 0.  1.
       -2    1    3    3    0  502  0.37735231078E+03  0.27561259535E+03  0.11259790452E+04  0.12190922358E+04  0.25500000920E-02 0. -1.
</event>
<event>
 5   0  0.2403875E-04  0.1100199E+04  0.7818609E-02  0.9204998E-01
        4   -1    0    0  501    0  0.00000000000E+00  0.00000000000E+00  0.24982567437E+03  0.24982890240E+03  0.12699999809E+01 0. -1.
       -4   -1    0    0    0  501  0.00000000000E+00  0.00000000000E+00 -0.12112711538E+04  0.12112718196E+04  0.12699999809E+01 0.  1.
    10030    2    1    2    0    0  0.00000000000E+00  0.00000000000E+00 -0.96144547940E+03  0.14611007220E+04  0.11001990319E+04 0.  0.
        3    1    3    3  502    0 -0.23751066880E+03  0.36103115041E+03 -0.93275106162E+03  0.10279977444E+04  0.10100000352E+00 0.  1.
       -3    1    3    3    0  502  0.23751066880E+03 -0.36103115041E+03 -0.28694417783E+02  0.43310297756E+03  0.10100000352E+00 0. -1.
</event>
<event>
 5   0  0.3642161E-04  0.1099074E+04  0.7818609E-02  0.9206095E-01
        1   -1    0    0  501    0  0.00000000000E+00  0.00000000000E+00  0.55562848980E+03  0.55562848982E+03  0.50400001928E-02 0.  1.
       -1   -1    0    0    0  501  0.00000000000E+00  0.00000000000E+00 -0.54351181080E+03  0.54351181082E+03  0.50400001928E-02 0. -1.
    10030    2    1    2    0    0  0.00000000000E+00  0.00000000000E+00  0.12116679002E+02  0.10991403006E+04  0.10990735128E+04 0.  0.
        2    1    3    3  502    0 -0.16474692677E+03  0.23372536155E+03 -0.46324786918E+03  0.54439662272E+03  0.25500000920E-02 0. -1.
       -2    1    3    3    0  502  0.16474692677E+03 -0.23372536155E+03  0.47536454819E+03  0.55474367792E+03  0.25500000920E-02 0.  1.
</event>
<event>
 5   0  0.6109149E-04  0.1102101E+04  0.7818609E-02  0.9203146E-01
       -2   -1    0    0    0  501  0.00000000000E+00  0.00000000000E+00  0.15923680033E+03  0.15923680035E+03  0.25500000920E-02 0. -1.
        2   -1    0    0  501    0  0.00000000000E+00  0.00000000000E+00 -0.19069515108E+04  0.19069515108E+04  0.25500000920E-02 0.  1.
    10030    2    1    2    0    0  0.00000000000E+00  0.00000000000E+00 -0.17477147104E+04  0.20661883111E+04  0.11021013692E+04 0.  0.
        1    1    3    3  502    0 -0.40913776367E+03  0.74123821663E+02 -0.19590302628E+03  0.45963686355E+03  0.50400001928E-02 0. -1.
       -1    1    3    3    0  502  0.40913776367E+03 -0.74123821663E+02 -0.15518116842E+04  0.16065514476E+04  0.50400001928E-02 0.  1.
</event>
<event>
 5   0  0.3621403E-04  0.1099799E+04  0.7818609E-02  0.9205388E-01
        1   -1    0    0  501    0  0.00000000000E+00  0.00000000000E+00  0.43246762782E+03  0.43246762785E+03  0.50400001928E-02 0. -1.
       -1   -1    0    0    0  501  0.00000000000E+00  0.00000000000E+00 -0.69921822977E+03  0.69921822979E+03  0.50400001928E-02 0.  1.
    10030    2    1    2    0    0  0.00000000000E+00  0.00000000000E+00 -0.26675060196E+03  0.11316858576E+04  0.10997986164E+04 0.  0.
        3    1    3    3  502    0  0.22636582083E+03 -0.49578694772E+03 -0.20859084615E+03  0.58357204668E+03  0.10100000352E+00 0. -1.
       -3    1    3    3    0  502 -0.22636582083E+03  0.49578694772E+03 -0.58159755811E+02  0.54811381096E+03  0.10100000352E+00 0.  1.
</event>
<event>
 5   0  0.6109149E-04  0.1101771E+04  0.7818609E-02  0.9203468E-01
       -2   -1    0    0    0  501  0.00000000000E+00  0.00000000000E+00  0.80414158119E+03  0.80414158120E+03  0.25500000920E-02 0.  1.
        2   -1    0    0  501    0  0.00000000000E+00  0.00000000000E+00 -0.37738952632E+03  0.37738952632E+03  0.25500000920E-02 0. -1.
    10030    2    1    2    0    0  0.00000000000E+00  0.00000000000E+00  0.42675205488E+03  0.11815311075E+04  0.11017705940E+04 0.  0.
        1    1    3    3  502    0  0.13540346221E+03  0.26894131918E+03  0.70808649633E+03  0.76944786506E+03  0.50400001928E-02 0.  1.
       -1    1    3    3    0  502 -0.13540346221E+03 -0.26894131918E+03 -0.28133444145E+03  0.41208324246E+03  0.50400001928E-02 0. -1.
</event>
<event>
 5   0  0.2403875E-04  0.1099280E+04  0.7818609E-02  0.9205894E-01
        4   -1    0    0  501    0  0.00000000000E+00  0.00000000000E+00  0.62569066369E+03  0.62569195258E+03  0.12699999809E+01 0. -1.
       -4   -1    0    0    0  501  0.00000000000E+00  0.00000000000E+00 -0.48283013093E+03  0.48283180118E+03  0.12699999809E+01 0.  1.
    10030    2    1    2    0    0  0.00000000000E+00  0.00000000000E+00  0.14286053276E+03  0.11085237538E+04  0.10992796645E+04 0.  0.
        5    1    3    3  502    0  0.41074548906E+03 -0.23368721587E+02 -0.29608461206E+03  0.50689855142E+03  0.46999998093E+01 0.  1.
       -5    1    3    3    0  502 -0.41074548906E+03  0.23368721587E+02  0.43894514483E+03  0.60162520235E+03  0.46999998093E+01 0. -1.
</event>
<event>
 5   0  0.3657529E-04  0.1100441E+04  0.7818609E-02  0.9204762E-01
        1   -1    0    0  501    0  0.00000000000E+00  0.00000000000E+00  0.13228067361E+04  0.13228067361E+04  0.50400001928E-02 0. -1.
       -1   -1    0    0    0  501  0.00000000000E+00  0.00000000000E+00 -0.22886394319E+03  0.22886394325E+03  0.50400001928E-02 0.  1.
    10030    2    1    2    0    0  0.00000000000E+00  0.00000000000E+00  0.10939427929E+04  0.15516706794E+04  0.11004413038E+04 0.  0.
        4    1    3    3  502    0  0.13987850250E+03 -0.85373442671E+02 -0.19365284259E+03  0.25368810874E+03  0.12699999809E+01 0.  1.
       -4    1    3    3    0  502 -0.13987850250E+03  0.85373442671E+02  0.12875956355E+04  0.12979825706E+04  0.12699999809E+01 0. -1.
</event>
<event>
 5   0  0.6264830E-04  0.1101462E+04  0.7818609E-02  0.9203768E-01
        2   -1    0    0  501    0  0.00000000000E+00  0.00000000000E+00  0.10302478468E+04  0.10302478468E+04  0.25500000920E-02 0. -1.
       -2   -1    0    0    0  501  0.00000000000E+00  0.00000000000E+00 -0.29439954752E+03  0.29439954753E+03  0.25500000920E-02 0.  1.
    10030    2    1    2    0    0  0.00000000000E+00  0.00000000000E+00  0.73584829923E+03  0.13246473943E+04  0.11014617559E+04 0.  0.
        4    1    3    3  502    0 -0.11811833030E+03 -0.21348063575E+03 -0.22585808546E+03  0.33247467492E+03  0.12699999809E+01 0.  1.
       -4    1    3    3    0  502  0.11811833030E+03  0.21348063575E+03  0.96170638470E+03  0.99217271937E+03  0.12699999809E+01 0. -1.
</event>
<event>
 5   0  0.6412712E-04  0.1098320E+04  0.7818609E-02  0.9206831E-01
       -2   -1    0    0    0  501  0.00000000000E+00  0.00000000000E+00  0.63040108478E+03  0.63040108478E+03  0.25500000920E-02 0. -1.
        2   -1    0    0  501    0  0.00000000000E+00  0.00000000000E+00 -0.47838888394E+03  0.47838888394E+03  0.25500000920E-02 0.  1.
    10030    2    1    2    0    0  0.00000000000E+00  0.00000000000E+00  0.15201220084E+03  0.11087899687E+04  0.10983203019E+04 0.  0.
        2    1    3    3  502    0 -0.23831515136E+01 -0.91055222066E+02  0.62272187280E+03  0.62934828493E+03  0.25500000920E-02 0. -1.
       -2    1    3    3    0  502  0.23831515136E+01  0.91055222066E+02 -0.47070967196E+03  0.47944168379E+03  0.25500000920E-02 0.  1.
</event>
<event>
 5   0  0.3523525E-04  0.1100074E+04  0.7818609E-02  0.9205119E-01
        1   -1    0    0  501    0  0.00000000000E+00  0.00000000000E+00  0.15509079198E+04  0.15509079198E+04  0.50400001928E-02 0. -1.
       -1   -1    0    0    0  501  0.00000000000E+00  0.00000000000E+00 -0.19507338975E+03  0.19507338982E+03  0.50400001928E-02 0.  1.
    10030    2    1    2    0    0  0.00000000000E+00  0.00000000000E+00  0.13558345301E+04  0.17459813097E+04  0.11000742978E+04 0.  0.
        5    1    3    3  502    0  0.49973216073E+03  0.16469126920E+03  0.93217493607E+03  0.10704333926E+04  0.46999998093E+01 0.  1.
       -5    1    3    3    0  502 -0.49973216073E+03 -0.16469126920E+03  0.42365959401E+03  0.67554791704E+03  0.46999998093E+01 0. -1.
</event>
<event>
 5   0  0.6245176E-04  0.1099732E+04  0.7818609E-02  0.9205453E-01
        2   -1    0    0  501    0  0.00000000000E+00  0.00000000000E+00  0.61160988205E+03  0.61160988205E+03  0.25500000920E-02 0.  1.
       -2   -1    0    0    0  501  0.00000000000E+00  0.00000000000E+00 -0.49435517436E+03  0.49435517437E+03  0.25500000920E-02 0. -1.
    10030    2    1    2    0    0  0.00000000000E+00  0.00000000000E+00  0.11725470768E+03  0.11059650564E+04  0.10997318035E+04 0.  0.
        5    1    3    3  502    0 -0.16985797046E+02  0.20728453267E+03 -0.45325174316E+03  0.49871297102E+03  0.46999998093E+01 0. -1.
       -5    1    3    3    0  502  0.16985797046E+02 -0.20728453267E+03  0.57050645084E+03  0.60725208541E+03  0.46999998093E+01 0.  1.
</event>
<event>
 5   0  0.6412712E-04  0.1100553E+04  0.7818609E-02  0.9204653E-01
       -2   -1    0    0    0  501  0.00000000000E+00  0.00000000000E+00  0.51696577169E+03  0.51696577170E+03  0.25500000920E-02 0. -1.
        2   -1    0    0  501    0  0.00000000000E+00  0.00000000000E+00 -0.58573330049E+03  0.58573330049E+03  0.25500000920E-02 0.  1.
    10030    2    1    2    0    0  0.00000000000E+00  0.00000000000E+00 -0.68767528793E+02  0.11026990722E+04  0.11005527115E+04 0.  0.
        2    1    3    3  502    0 -0.22970527383E+03 -0.17883717213E+03 -0.50226001280E+03  0.58052766293E+03  0.25500000920E-02 0.  1.
       -2    1    3    3    0  502  0.22970527383E+03  0.17883717213E+03  0.43349248401E+03  0.52217140927E+03  0.25500000920E-02 0. -1.
</event>
<event>
 5   0  0.2403875E-04  0.1104771E+04  0.7818609E-02  0.9200554E-01
        4   -1    0    0  501    0  0.00000000000E+00  0.00000000000E+00  0.11885817976E+04  0.11885824761E+04  0.12699999809E+01 0. -1.
       -4   -1    0    0    0  501  0.00000000000E+00  0.00000000000E+00 -0.25671532058E+03  0.25671846198E+03  0.12699999809E+01 0.  1.
    10030    2    1    2    0    0  0.00000000000E+00  0.00000000000E+00  0.93186647704E+03  0.14453009381E+04  0.11047713205E+04 0.  0.
        2    1    3    3  502    0  0.11391598470E+03  0.18953163948E+03  0.11281521504E+04  0.11496200975E+04  0.25500000920E-02 0. -1.
       -2    1    3    3    0  502 -0.11391598470E+03 -0.18953163948E+03 -0.19628567340E+03  0.29568084064E+03  0.25500000920E-02 0.  1.
</event>
<event>
 5   0  0.3621403E-04  0.1098171E+04  0.7818609E-02  0.9206976E-01
        1   -1    0    0  501    0  0.00000000000E+00  0.00000000000E+00  0.19517950782E+04  0.19517950782E+04  0.50400001928E-02 0.  1.
       -1   -1    0    0    0  501  0.00000000000E+00  0.00000000000E+00 -0.15447053362E+03  0.15447053370E+03  0.50400001928E-02 0. -1.
    10030    2    1    2    0    0  0.00000000000E+00  0.00000000000E+00  0.17973245446E+04  0.21062656119E+04  0.10981708926E+04 0.  0.
        3    1    3    3  502    0 -0.39804078740E+03 -0.33597787603E+03  0.56547930533E+03  0.76882017180E+03  0.10100000352E+00 0.  1.
       -3    1    3    3    0  502  0.39804078740E+03  0.33597787603E+03  0.12318452393E+04  0.13374454401E+04  0.10100000352E+00 0. -1.
</event>
<event>
 5   0  0.6109149E-04  0.1105956E+04  0.7818609E-02  0.9199406E-01
        2   -1    0    0  501    0  0.00000000000E+00  0.00000000000E+00  0.11205592051E+04  0.11205592051E+04  0.25500000920E-02 0.  1.
       -2   -1    0    0    0  501  0.00000000000E+00  0.00000000000E+00 -0.27288576356E+03  0.27288576357E+03  0.25500000920E-02 0. -1.
    10030    2    1    2    0    0  0.00000000000E+00  0.00000000000E+00  0.84767344157E+03  0.13934449687E+04  0.11059559744E+04 0.  0.
        1    1    3    3  502    0  0.33158191134E+03 -0.14967463668E+03  0.94854884364E+03  0.10159202575E+04  0.50400001928E-02 0.  1.
       -1    1    3    3    0  502 -0.33158191134E+03  0.14967463668E+03 -0.10087540207E+03  0.37752471120E+03  0.50400001928E-02 0. -1.
</event>
<event>
 5   0  0.3621403E-04  0.1098890E+04  0.7818609E-02  0.9206274E-01
       -1   -1    0    0    0  501  0.00000000000E+00  0.00000000000E+00  0.35435262003E+03  0.35435262007E+03  0.50400001928E-02 0. -1.
        1   -1    0    0  501    0  0.00000000000E+00  0.00000000000E+00 -0.85194777638E+03  0.85194777639E+03  0.50400001928E-02 0.  1.
    10030    2    1    2    0    0  0.00000000000E+00  0.00000000000E+00 -0.49759515634E+03  0.12063003965E+04  0.10988902160E+04 0.  0.
        3    1    3    3  502    0  0.91865170314E+02 -0.85543678838E+02  0.33840117863E+03  0.36093253997E+03  0.10100000352E+00 0. -1.
       -3    1    3    3    0  502 -0.91865170314E+02  0.85543678838E+02 -0.83599633498E+03  0.84536785650E+03  0.10100000352E+00 0.  1.
</event>
<event>
 5   0  0.6412712E-04  0.1100473E+04  0.7818609E-02  0.9204731E-01
        2   -1    0    0  501    0  0.00000000000E+00  0.00000000000E+00  0.11325728860E+04  0.11325728860E+04  0.25500000920E-02 0. -1.
       -2   -1    0    0    0  501  0.00000000000E+00  0.00000000000E+00 -0.26732089340E+03  0.26732089342E+03  0.25500000920E-02 0.  1.
    10030    2    1    2    0    0  0.00000000000E+00  0.00000000000E+00  0.86525199258E+03  0.13998937794E+04  0.11004733450E+04 0.  0.
        2    1    3    3  502    0 -0.38059745479E+03 -0.28536097248E+03  0.80842427764E+02  0.48251508302E+03  0.25500000920E-02 0.  1.
       -2    1    3    3    0  502  0.38059745479E+03  0.28536097248E+03  0.78440956481E+03  0.91737869638E+03  0.25500000920E-02 0. -1.
</event>
<event>
 5   0  0.5948818E-04  0.1100099E+04  0.7818609E-02  0.9205095E-01
       -2   -1    0    0    0  501  0.00000000000E+00  0.00000000000E+00  0.13598553029E+03  0.13598553031E+03  0.25500000920E-02 0.  1.
        2   -1    0    0  501    0  0.00000000000E+00  0.00000000000E+00 -0.22249021550E+04  0.22249021550E+04  0.25500000920E-02 0. -1.
    10030    2    1    2    0    0  0.00000000000E+00  0.00000000000E+00 -0.20889166248E+04  0.23608876854E+04  0.11000990854E+04 0.  0.
        3    1    3    3  502    0 -0.69899868007E+02 -0.28090128480E+03 -0.40697065240E+02  0.29231453037E+03  0.10100000352E+00 0.  1.
       -3    1    3    3    0  502  0.69899868007E+02  0.28090128480E+03 -0.20482195595E+04  0.20685731550E+04  0.10100000352E+00 0. -1.
</event>
<event>
 5   0  0.6109149E-04  0.1099581E+04  0.7818609E-02  0.9205601E-01
        2   -1    0    0  501    0  0.00000000000E+00  0.00000000000E+00  0.51843460382E+03  0.51843460383E+03  0.25500000920E-02 0. -1.
       -2   -1    0    0    0  501  0.00000000000E+00  0.00000000000E+00 -0.58304234081E+03  0.58304234081E+03  0.25500000920E-02 0.  1.
    10030    2    1    2    0    0  0.00000000000E+00  0.00000000000E+00 -0.64607736984E+02  0.11014769446E+04  0.10995805109E+04 0.  0.
        1    1    3    3  502    0 -0.36225408074E+03  0.38955243552E+03  0.10682485782E+03  0.54257780023E+03  0.50400001928E-02 0.  1.
       -1    1    3    3    0  502  0.36225408074E+03 -0.38955243552E+03 -0.17143259480E+03  0.55889914441E+03  0.50400001928E-02 0. -1.
</event>
<event>
 5   0  0.6245176E-04  0.1101079E+04  0.7818609E-02  0.9204140E-01
       -2   -1    0    0    0  501  0.00000000000E+00  0.00000000000E+00  0.18119308746E+03  0.18119308748E+03  0.25500000920E-02 0. -1.
        2   -1    0    0  501    0  0.00000000000E+00  0.00000000000E+00 -0.16727678622E+04  0.16727678622E+04  0.25500000920E-02 0.  1.
    10030    2    1    2    0    0  0.00000000000E+00  0.00000000000E+00 -0.14915747748E+04  0.18539609497E+04  0.11010794224E+04 0.  0.
        5    1    3    3  502    0  0.36389105530E+03 -0.38040156311E+03 -0.10170245733E+04  0.11452000358E+04  0.46999998093E+01 0.  1.
       -5    1    3    3    0  502 -0.36389105530E+03  0.38040156311E+03 -0.47455020145E+03  0.70876091388E+03  0.46999998093E+01 0. -1.
</event>
<event>
 5   0  0.3657529E-04  0.1100182E+04  0.7818609E-02  0.9205015E-01
       -1   -1    0    0    0  501  0.00000000000E+00  0.00000000000E+00  0.27142679724E+03  0.27142679728E+03  0.50400001928E-02 0. -1.
        1   -1    0    0  501    0  0.00000000000E+00  0.00000000000E+00 -0.11148497764E+04  0.11148497764E+04  0.50400001928E-02 0.  1.
    10030    2    1    2    0    0  0.00000000000E+00  0.00000000000E+00 -0.84342297912E+03  0.13862765736E+04  0.11001819926E+04 0.  0.
        4    1    3    3  502    0 -0.60361024621E+02  0.51009161456E+03 -0.17363471688E+03  0.54220617512E+03  0.12699999809E+01 0. -1.
       -4    1    3    3    0  502  0.60361024621E+02 -0.51009161456E+03 -0.66978826224E+03  0.84407039852E+03  0.12699999809E+01 0.  1.
</event>
<event>
 5   0  0.3523525E-04  0.1099479E+04  0.7818609E-02  0.9205700E-01
       -1   -1    0    0    0  501  0.00000000000E+00  0.00000000000E+00  0.46252701813E+03  0.46252701816E+03  0.50400001928E-02 0.  1.
        1   -1    0    0  501    0  0.00000000000E+00  0.00000000000E+00 -0.65339642450E+03  0.65339642452E+03  0.50400001928E-02 0. -1.
    10030    2    1    2    0    0  0.00000000000E+00  0.00000000000E+00 -0.19086940637E+03  0.11159234427E+04  0.10994789673E+04 0.  0.
        5    1    3    3  502    0 -0.36829377204E+02  0.15835963431E+03 -0.62841472665E+03  0.64912351326E+03  0.46999998093E+01 0. -1.
       -5    1    3    3    0  502  0.36829377204E+02 -0.15835963431E+03  0.43754532028E+03  0.46679992941E+03  0.46999998093E+01 0.  1.
</event>
<event>
 5   0  0.2403875E-04  0.1101507E+04  0.7818609E-02  0.9203724E-01
       -3   -1    0    0    0  501  0.00000000000E+00  0.00000000000E+00  0.10758313653E+04  0.10758313700E+04  0.10100000352E+00 0.  1.
        3   -1    0    0  501    0  0.00000000000E+00  0.00000000000E+00 -0.28194895302E+03  0.28194897111E+03  0.10100000352E+00 0. -1.
    10030    2    1    2    0    0  0.00000000000E+00  0.00000000000E+00  0.79388241227E+03  0.13577803411E+04  0.11015072266E+04 0.  0.
        1    1    3    3  502    0  0.54236082312E+03 -0.25257634117E+02  0.51082916637E+03  0.74547947508E+03  0.50400001928E-02 0. -1.
       -1    1    3    3    0  502 -0.54236082312E+03  0.25257634117E+02  0.28305324590E+03  0.61230086606E+03  0.50400001928E-02 0.  1.
</event>
<event>
 5   0  0.6264830E-04  0.1098835E+04  0.7818609E-02  0.9206328E-01
        2   -1    0    0  501    0  0.00000000000E+00  0.00000000000E+00  0.10643765166E+04  0.10643765166E+04  0.25500000920E-02 0.  1.
       -2   -1    0    0    0  501  0.00000000000E+00  0.00000000000E+00 -0.28360247011E+03  0.28360247012E+03  0.25500000920E-02 0. -1.
    10030    2    1    2    0    0  0.00000000000E+00  0.00000000000E+00  0.78077404653E+03  0.13479789868E+04  0.10988354003E+04 0.  0.
        4    1    3    3  502    0  0.49745643438E+03  0.10241133372E+03  0.64743749514E+03  0.82287782106E+03  0.12699999809E+01 0.  1.
       -4    1    3    3    0  502 -0.49745643438E+03 -0.10241133372E+03  0.13333655138E+03  0.52510116570E+03  0.12699999809E+01 0. -1.
</event>
<event>
 5   0  0.3657529E-04  0.1098795E+04  0.7818609E-02  0.9206367E-01
       -1   -1    0    0    0  501  0.00000000000E+00  0.00000000000E+00  0.11068219607E+04  0.11068219607E+04  0.50400001928E-02 0. -1.
        1   -1    0    0  501    0  0.00000000000E+00  0.00000000000E+00 -0.27270660125E+03  0.27270660129E+03  0.50400001928E-02 0.  1.
    10030    2    1    2    0    0  0.00000000000E+00  0.00000000000E+00  0.83411535944E+03  0.13795285620E+04  0.10987950767E+04 0.  0.
        4    1    3    3  502    0  0.32872580745E+03 -0.24130366265E+03  0.87929013266E+03  0.96924757642E+03  0.12699999809E+01 0. -1.
       -4    1    3    3    0  502 -0.32872580745E+03  0.24130366265E+03 -0.45174773219E+02  0.41028098558E+03  0.12699999809E+01 0.  1.
</event>
<event>
 5   0  0.2403875E-04  0.1100845E+04  0.7818609E-02  0.9204369E-01
        3   -1    0    0  501    0  0.00000000000E+00  0.00000000000E+00  0.38241532455E+03  0.38241533789E+03  0.10100000352E+00 0.  1.
       -3   -1    0    0    0  501  0.00000000000E+00  0.00000000000E+00 -0.79223987079E+03  0.79223987723E+03  0.10100000352E+00 0. -1.
    10030    2    1    2    0    0  0.00000000000E+00  0.00000000000E+00 -0.40982454624E+03  0.11746552151E+04  0.11008445466E+04 0.  0.
        3    1    3    3  502    0  0.11384328735E+03  0.34641795842E+03  0.23504202447E+03  0.43383229416E+03  0.10100000352E+00 0.  1.
       -3    1    3    3    0  502 -0.11384328735E+03 -0.34641795842E+03 -0.64486657071E+03  0.74082292096E+03  0.10100000352E+00 0. -1.
</event>
<event>
 5   0  0.3423758E-04  0.1100633E+04  0.7818609E-02  0.9204575E-01
        1   -1    0    0  501    0  0.00000000000E+00  0.00000000000E+00  0.13159645490E+04  0.13159645490E+04  0.50400001928E-02 0. -1.
       -1   -1    0    0    0  501  0.00000000000E+00  0.00000000000E+00 -0.23013405348E+03  0.23013405353E+03  0.50400001928E-02 0.  1.
    10030    2    1    2    0    0  0.00000000000E+00  0.00000000000E+00  0.10858304955E+04  0.15460986026E+04  0.11006330105E+04 0.  0.
        1    1    3    3  502    0 -0.24549473881E+03  0.46418838131E+03  0.77420548207E+03  0.93548524767E+03  0.50400001928E-02 0. -1.
       -1    1    3    3    0  502  0.24549473881E+03 -0.46418838131E+03  0.31162501348E+03  0.61061335490E+03  0.50400001928E-02 0.  1.
</event>
<event>
 5   0  0.6109149E-04  0.1101456E+04  0.7818609E-02  0.9203774E-01
       -2   -1    0    0    0  501  0.00000000000E+00  0.00000000000E+00  0.41626869802E+03  0.41626869802E+03  0.25500000920E-02 0. -1.
        2   -1    0    0  501    0  0.00000000000E+00  0.00000000000E+00 -0.72861932869E+03  0.72861932869E+03  0.25500000920E-02 0.  1.
    10030    2    1    2    0    0  0.00000000000E+00  0.00000000000E+00 -0.31235063067E+03  0.11448880267E+04  0.11014561622E+04 0.  0.
        1    1    3    3  502    0 -0.32846479995E+03  0.51738985959E+02 -0.61250267640E+03  0.69694015245E+03  0.50400001928E-02 0.  1.
       -1    1    3    3    0  502  0.32846479995E+03 -0.51738985959E+02  0.30015204573E+03  0.44794787426E+03  0.50400001928E-02 0. -1.
</event>
<event>
 5   0  0.3523525E-04  0.1099680E+04  0.7818609E-02  0.9205504E-01
        1   -1    0    0  501    0  0.00000000000E+00  0.00000000000E+00  0.17466278026E+04  0.17466278026E+04  0.50400001928E-02 0.  1.
       -1   -1    0    0    0  501  0.00000000000E+00  0.00000000000E+00 -0.17309021889E+03  0.17309021896E+03  0.50400001928E-02 0. -1.
    10030    2    1    2    0    0  0.00000000000E+00  0.00000000000E+00  0.15735375837E+04  0.19197180216E+04  0.10996802967E+04 0.  0.
        5    1    3    3  502    0  0.34483822127E+03 -0.40604255236E+03  0.10243268383E+04  0.11545785009E+04  0.46999998093E+01 0. -1.
       -5    1    3    3    0  502 -0.34483822127E+03  0.40604255236E+03  0.54921074546E+03  0.76513952068E+03  0.46999998093E+01 0.  1.
</event>
<event>
 5   0  0.6264830E-04  0.1100025E+04  0.7818609E-02  0.9205168E-01
       -2   -1    0    0    0  501  0.00000000000E+00  0.00000000000E+00  0.49299082797E+03  0.49299082797E+03  0.25500000920E-02 0.  1.
        2   -1    0    0  501    0  0.00000000000E+00  0.00000000000E+00 -0.61362955600E+03  0.61362955601E+03  0.25500000920E-02 0. -1.
    10030    2    1    2    0    0  0.00000000000E+00  0.00000000000E+00 -0.12063872804E+03  0.11066203840E+04  0.11000249868E+04 0.  0.
        4    1    3    3  502    0 -0.54949331028E+03  0.23729948072E+02 -0.57830360651E+02  0.55303885215E+03  0.12699999809E+01 0. -1.
       -4    1    3    3    0  502  0.54949331028E+03 -0.23729948072E+02 -0.62808367387E+02  0.55358153183E+03  0.12699999809E+01 0.  1.
</event>
<event>
 5   0  0.6109149E-04  0.1098281E+04  0.7818609E-02  0.9206868E-01
       -2   -1    0    0    0  501  0.00000000000E+00  0.00000000000E+00  0.72798458659E+03  0.72798458659E+03  0.25500000920E-02 0. -1.
        2   -1    0    0  501    0  0.00000000000E+00  0.00000000000E+00 -0.41423340823E+03  0.41423340823E+03  0.25500000920E-02 0.  1.
    10030    2    1    2    0    0  0.00000000000E+00  0.00000000000E+00  0.31375117836E+03  0.11422179948E+04  0.10982814511E+04 0.  0.
        1    1    3    3  502    0 -0.28662209190E+03 -0.98028427743E+02  0.63323155853E+03  0.70195726576E+03  0.50400001928E-02 0. -1.
       -1    1    3    3    0  502  0.28662209190E+03  0.98028427743E+02 -0.31948038017E+03  0.44026072906E+03  0.50400001928E-02 0.  1.
</event>
<event>
 5   0  0.5948818E-04  0.1104133E+04  0.7818609E-02  0.9201173E-01
        2   -1    0    0  501    0  0.00000000000E+00  0.00000000000E+00  0.52857436489E+03  0.52857436490E+03  0.25500000920E-02 0. -1.
       -2   -1    0    0    0  501  0.00000000000E+00  0.00000000000E+00 -0.57660285042E+03  0.57660285042E+03  0.25500000920E-02 0.  1.
    10030    2    1    2    0    0  0.00000000000E+00  0.00000000000E+00 -0.48028485526E+02  0.11051772153E+04  0.11041331178E+04 0.  0.
        3    1    3    3  502    0 -0.22910980073E+03 -0.14860325689E+03  0.45623446877E+03  0.53171809208E+03  0.10100000352E+00 0. -1.
       -3    1    3    3    0  502  0.22910980073E+03  0.14860325689E+03 -0.50426295430E+03  0.57345912324E+03  0.10100000352E+00 0.  1.
</event>
<event>
 5   0  0.6412712E-04  0.1100224E+04  0.7818609E-02  0.9204973E-01
       -2   -1    0    0    0  501  0.00000000000E+00  0.00000000000E+00  0.22421182762E+03  0.22421182764E+03  0.25500000920E-02 0.  1.
        2   -1    0    0  501    0  0.00000000000E+00  0.00000000000E+00 -0.13497211262E+04  0.13497211262E+04  0.25500000920E-02 0. -1.
    10030    2    1    2    0    0  0.00000000000E+00  0.00000000000E+00 -0.11255092986E+04  0.15739329538E+04  0.11002244144E+04 0.  0.
        2    1    3    3  502    0  0.50402021770E+03  0.20482228924E+03 -0.67928037851E+03  0.87029327393E+03  0.25500000920E-02 0. -1.
       -2    1    3    3    0  502 -0.50402021770E+03 -0.20482228924E+03 -0.44622892004E+03  0.70363967988E+03  0.25500000920E-02 0.  1.
</event>
<event>
 5   0  0.6109149E-04  0.1097298E+04  0.7818609E-02  0.9207829E-01
       -2   -1    0    0    0  501  0.00000000000E+00  0.00000000000E+00  0.43867329986E+03  0.43867329987E+03  0.25500000920E-02 0.  1.
        2   -1    0    0  501    0  0.00000000000E+00  0.00000000000E+00 -0.68619584017E+03  0.68619584017E+03  0.25500000920E-02 0. -1.
    10030    2    1    2    0    0  0.00000000000E+00  0.00000000000E+00 -0.24752254031E+03  0.11248691400E+04  0.10972981246E+04 0.  0.
        1    1    3    3  502    0 -0.42360440244E+03  0.34583732031E+03 -0.16928024349E+03  0.57245082125E+03  0.50400001928E-02 0. -1.
       -1    1    3    3    0  502  0.42360440244E+03 -0.34583732031E+03 -0.78242296811E+02  0.55241831878E+03  0.50400001928E-02 0.  1.
</event>
<event>
 5   0  0.6245176E-04  0.1101659E+04  0.7818609E-02  0.9203577E-01
       -2   -1    0    0    0  501  0.00000000000E+00  0.00000000000E+00  0.41046471207E+03  0.41046471208E+03  0.25500000920E-02 0.  1.
        2   -1    0    0  501    0  0.00000000000E+00  0.00000000000E+00 -0.73919399855E+03  0.73919399856E+03  0.25500000920E-02 0. -1.
    10030    2    1    2    0    0  0.00000000000E+00  0.00000000000E+00 -0.32872928648E+03  0.11496587106E+04  0.11016588434E+04 0.  0.
        5    1    3    3  502    0 -0.10069535903E+03 -0.16022059493E+03 -0.70418499847E+03  0.72918365069E+03  0.46999998093E+01 0. -1.
       -5    1    3    3    0  502  0.10069535903E+03  0.16022059493E+03  0.37545571199E+03  0.42047505994E+03  0.46999998093E+01 0.  1.
</event>
<event>
 5   0  0.6412712E-04  0.1099689E+04  0.7818609E-02  0.9205495E-01
        2   -1    0    0  501    0  0.00000000000E+00  0.00000000000E+00  0.23060722648E+04  0.23060722648E+04  0.25500000920E-02 0.  1.
       -2   -1    0    0    0  501  0.00000000000E+00  0.00000000000E+00 -0.13110133539E+03  0.13110133542E+03  0.25500000920E-02 0. -1.
    10030    2    1    2    0    0  0.00000000000E+00  0.00000000000E+00  0.21749709294E+04  0.24371736002E+04  0.10996893261E+04 0.  0.
        2    1    3    3  502    0  0.46766743975E+03 -0.26550127299E+03  0.13413912627E+04  0.14451762107E+04  0.25500000920E-02 0.  1.
       -2    1    3    3    0  502 -0.46766743975E+03  0.26550127299E+03  0.83357966668E+03  0.99199738954E+03  0.25500000920E-02 0. -1.
</event>
<event>
 5   0  0.3621403E-04  0.1098929E+04  0.7818609E-02  0.9206236E-01
        1   -1    0    0  501    0  0.00000000000E+00  0.00000000000E+00  0.72359464726E+03  0.72359464727E+03  0.50400001928E-02 0. -1.
       -1   -1    0    0    0  501  0.00000000000E+00  0.00000000000E+00 -0.41723813140E+03  0.41723813143E+03  0.50400001928E-02 0.  1.
    10030    2    1    2    0    0  0.00000000000E+00  0.00000000000E+00  0.30635651585E+03  0.11408327787E+04  0.10989290760E+04 0.  0.
        3    1    3    3  502    0 -0.35128006552E+03  0.14491778989E+03 -0.25883360999E+03  0.45977570414E+03  0.10100000352E+00 0.  1.
       -3    1    3    3    0  502  0.35128006552E+03 -0.14491778989E+03  0.56519012585E+03  0.68105707456E+03  0.10100000352E+00 0. -1.
</event>
<event>
 5   0  0.3423758E-04  0.1090227E+04  0.7818609E-02  0.9214770E-01
        1   -1    0    0  501    0  0.00000000000E+00  0.00000000000E+00  0.67494118436E+03  0.67494118438E+03  0.50400001928E-02 0. -1.
       -1   -1    0    0    0  501  0.00000000000E+00  0.00000000000E+00 -0.44025899013E+03  0.44025899016E+03  0.50400001928E-02 0.  1.
    10030    2    1    2    0    0  0.00000000000E+00  0.00000000000E+00  0.23468219423E+03  0.11152001745E+04  0.10902273602E+04 0.  0.
        1    1    3    3  502    0  0.15519525326E+03  0.38751656402E+03  0.47593390041E+03  0.63306218621E+03  0.50400001928E-02 0. -1.
       -1    1    3    3    0  502 -0.15519525326E+03 -0.38751656402E+03 -0.24125170617E+03  0.48213798832E+03  0.50400001928E-02 0.  1.
</event>
<event>
 5   0  0.6264830E-04  0.1098042E+04  0.7818609E-02  0.9207103E-01
        2   -1    0    0  501    0  0.00000000000E+00  0.00000000000E+00  0.17428565813E+04  0.17428565813E+04  0.25500000920E-02 0.  1.
       -2   -1    0    0    0  501  0.00000000000E+00  0.00000000000E+00 -0.17294816577E+03  0.17294816578E+03  0.25500000920E-02 0. -1.
    10030    2    1    2    0    0  0.00000000000E+00  0.00000000000E+00  0.15699084155E+04  0.19158047471E+04  0.10980416184E+04 0.  0.
        4    1    3    3  502    0 -0.27452357783E+03  0.42955532863E+03  0.11405628288E+04  0.12493062693E+04  0.12699999809E+01 0.  1.
       -4    1    3    3    0  502  0.27452357783E+03 -0.42955532863E+03  0.42934558670E+03  0.66649847776E+03  0.12699999809E+01 0. -1.
</event>
<event>
 5   0  0.6245176E-04  0.1100063E+04  0.7818609E-02  0.9205130E-01
        2   -1    0    0  501    0  0.00000000000E+00  0.00000000000E+00  0.17227549368E+03  0.17227549370E+03  0.25500000920E-02 0. -1.
       -2   -1    0    0    0  501  0.00000000000E+00  0.00000000000E+00 -0.17561106189E+04  0.17561106189E+04  0.25500000920E-02 0.  1.
    10030    2    1    2    0    0  0.00000000000E+00  0.00000000000E+00 -0.15838351252E+04  0.19283861126E+04  0.11000633143E+04 0.  0.
        5    1    3    3  502    0  0.16841338184E+03  0.49980254597E+03 -0.10654442904E+04  0.11888478784E+04  0.46999998093E+01 0.  1.
       -5    1    3    3    0  502 -0.16841338184E+03 -0.49980254597E+03 -0.51839083482E+03  0.73953823415E+03  0.46999998093E+01 0. -1.
</event>
<event>
 5   0  0.6245176E-04  0.1100420E+04  0.7818609E-02  0.9204782E-01
       -2   -1    0    0    0  501  0.00000000000E+00  0.00000000000E+00  0.23931147907E+03  0.23931147909E+03  0.25500000920E-02 0.  1.
        2   -1    0    0  501    0  0.00000000000E+00  0.00000000000E+00 -0.12650092641E+04  0.12650092641E+04  0.25500000920E-02 0. -1.
    10030    2    1    2    0    0  0.00000000000E+00  0.00000000000E+00 -0.10256977850E+04  0.15043207431E+04  0.11004203525E+04 0.  0.
        5    1    3    3  502    0 -0.17155040495E+03  0.14463881570E+01  0.20178527992E+03  0.26489813640E+03  0.46999998093E+01 0.  1.
       -5    1    3    3    0  502  0.17155040495E+03 -0.14463881570E+01 -0.12274830649E+04  0.12394226067E+04  0.46999998093E+01 0. -1.
</event>
<event>
 5   0  0.3657529E-04  0.1108537E+04  0.7818609E-02  0.9196911E-01
       -1   -1    0    0    0  501  0.00000000000E+00  0.00000000000E+00  0.28689506859E+03  0.28689506863E+03  0.50400001928E-02 0.  1.
        1   -1    0    0  501    0  0.00000000000E+00  0.00000000000E+00 -0.10708215657E+04  0.10708215657E+04  0.50400001928E-02 0. -1.
    10030    2    1    2    0    0  0.00000000000E+00  0.00000000000E+00 -0.78392649710E+03  0.13577166343E+04  0.11085367411E+04 0.  0.
        4    1    3    3  502    0  0.35911615913E+03  0.17107795803E+03 -0.86470356193E+03  0.95181192805E+03  0.12699999809E+01 0. -1.
       -4    1    3    3    0  502 -0.35911615913E+03 -0.17107795803E+03  0.80777064829E+02  0.40590470627E+03  0.12699999809E+01 0.  1.
</event>
<event>
 5   0  0.3523525E-04  0.1099880E+04  0.7818609E-02  0.9205309E-01
       -1   -1    0    0    0  501  0.00000000000E+00  0.00000000000E+00  0.55029345510E+03  0.55029345512E+03  0.50400001928E-02 0. -1.
        1   -1    0    0  501    0  0.00000000000E+00  0.00000000000E+00 -0.54958690895E+03  0.54958690897E+03  0.50400001928E-02 0.  1.
    10030    2    1    2    0    0  0.00000000000E+00  0.00000000000E+00  0.70654615369E+00  0.10998803641E+04  0.10998801372E+04 0.  0.
        5    1    3    3  502    0  0.64768824388E+02  0.61148978318E+01  0.54641162114E+03  0.55029096149E+03  0.46999998093E+01 0. -1.
       -5    1    3    3    0  502 -0.64768824388E+02 -0.61148978318E+01 -0.54570507499E+03  0.54958940260E+03  0.46999998093E+01 0.  1.
</event>
<event>
 5   0  0.6109149E-04  0.1100112E+04  0.7818609E-02  0.9205083E-01
       -2   -1    0    0    0  501  0.00000000000E+00  0.00000000000E+00  0.61816245642E+03  0.61816245642E+03  0.25500000920E-02 0. -1.
        2   -1    0    0  501    0  0.00000000000E+00  0.00000000000E+00 -0.48945317498E+03  0.48945317499E+03  0.25500000920E-02 0.  1.
    10030    2    1    2    0    0  0.00000000000E+00  0.00000000000E+00  0.12870928143E+03  0.11076156314E+04  0.11001119524E+04 0.  0.
        1    1    3    3  502    0  0.23297502236E+02 -0.22680244019E+03 -0.43963884652E+03  0.49524179537E+03  0.50400001928E-02 0.  1.
       -1    1    3    3    0  502 -0.23297502236E+02  0.22680244019E+03  0.56834812796E+03  0.61237383604E+03  0.50400001928E-02 0. -1.
</event>
<event>
 5   0  0.6264830E-04  0.1121804E+04  0.7818609E-02  0.9184197E-01
       -2   -1    0    0    0  501  0.00000000000E+00  0.00000000000E+00  0.19498484379E+03  0.19498484381E+03  0.25500000920E-02 0.  1.
        2   -1    0    0  501    0  0.00000000000E+00  0.00000000000E+00 -0.16135145341E+04  0.16135145342E+04  0.25500000920E-02 0. -1.
    10030    2    1    2    0    0  0.00000000000E+00  0.00000000000E+00 -0.14185296904E+04  0.18084993780E+04  0.11218036894E+04 0.  0.
        4    1    3    3  502    0  0.28731927604E+03  0.40487097260E+03 -0.28844997510E+03  0.57417581966E+03  0.12699999809E+01 0.  1.
       -4    1    3    3    0  502 -0.28731927604E+03 -0.40487097260E+03 -0.11300797153E+04  0.12343235583E+04  0.12699999809E+01 0. -1.
</event>
<event>
 5   0  0.6412712E-04  0.1099578E+04  0.7818609E-02  0.9205603E-01
        2   -1    0    0  501    0  0.00000000000E+00  0.00000000000E+00  0.17739447165E+04  0.17739447165E+04  0.25500000920E-02 0.  1.
       -2   -1    0    0    0  501  0.00000000000E+00  0.00000000000E+00 -0.17039303418E+03  0.17039303420E+03  0.25500000920E-02 0. -1.
    10030    2    1    2    0    0  0.00000000000E+00  0.00000000000E+00  0.16035516823E+04  0.19443377507E+04  0.10995777785E+04 0.  0.
        2    1    3    3  502    0 -0.46048036071E+03 -0.24527576595E+03  0.11083811507E+04  0.12250351583E+04  0.25500000920E-02 0.  1.
       -2    1    3    3    0  502  0.46048036071E+03  0.24527576595E+03  0.49517053161E+03  0.71930259234E+03  0.25500000920E-02 0. -1.
</event>
<event>
 5   0  0.6412712E-04  0.1100715E+04  0.7818609E-02  0.9204495E-01
       -2   -1    0    0    0  501  0.00000000000E+00  0.00000000000E+00  0.36237815553E+03  0.36237815554E+03  0.25500000920E-02 0. -1.
        2   -1    0    0  501    0  0.00000000000E+00  0.00000000000E+00 -0.83584951142E+03  0.83584951143E+03  0.25500000920E-02 0.  1.
    10030    2    1    2    0    0  0.00000000000E+00  0.00000000000E+00 -0.47347135590E+03  0.11982276670E+04  0.11007154115E+04 0.  0.
        2    1    3    3  502    0 -0.51774384035E+03 -0.17549913983E+03 -0.30588446329E+03  0.62643749664E+03  0.25500000920E-02 0.  1.
       -2    1    3    3    0  502  0.51774384035E+03  0.17549913983E+03 -0.16758689261E+03  0.57179017033E+03  0.25500000920E-02 0. -1.
</event>
<event>
 5   0  0.2403875E-04  0.1087072E+04  0.7818609E-02  0.9217885E-01
       -4   -1    0    0    0  501  0.00000000000E+00  0.00000000000E+00  0.23039083555E+03  0.23039433588E+03  0.12699999809E+01 0.  1.
        4   -1    0    0  501    0  0.00000000000E+00  0.00000000000E+00 -0.12822910668E+04  0.12822916957E+04  0.12699999809E+01 0. -1.
    10030    2    1    2    0    0  0.00000000000E+00  0.00000000000E+00 -0.10519002312E+04  0.15126860316E+04  0.10870717242E+04 0.  0.
        1    1    3    3  502    0 -0.84274620015E+02 -0.84808815237E+02  0.21186781217E+03  0.24327498141E+03  0.50400001928E-02 0.  1.
       -1    1    3    3    0  502  0.84274620015E+02  0.84808815237E+02 -0.12637680434E+04  0.12694110502E+04  0.50400001928E-02 0. -1.
</event>
<event>
 5   0  0.3423758E-04  0.1101597E+04  0.7818609E-02  0.9203636E-01
       -1   -1    0    0    0  501  0.00000000000E+00  0.00000000000E+00  0.44226238573E+03  0.44226238576E+03  0.50400001928E-02 0.  1.
        1   -1    0    0  501    0  0.00000000000E+00  0.00000000000E+00 -0.68597105796E+03  0.68597105798E+03  0.50400001928E-02 0. -1.
    10030    2    1    2    0    0  0.00000000000E+00  0.00000000000E+00 -0.24370867223E+03  0.11282334437E+04  0.11015973796E+04 0.  0.
        1    1    3    3  502    0 -0.23000972620E+03 -0.38837111166E+03  0.20144037896E+03  0.49428212674E+03  0.50400001928E-02 0.  1.
       -1    1    3    3    0  502  0.23000972620E+03  0.38837111166E+03 -0.44514905119E+03  0.63395131700E+03  0.50400001928E-02 0. -1.
</event>
<event>
 5   0  0.6245176E-04  0.1095804E+04  0.7818609E-02  0.9209291E-01
       -2   -1    0    0    0  501  0.00000000000E+00  0.00000000000E+00  0.42042091434E+03  0.42042091435E+03  0.25500000920E-02 0.  1.
        2   -1    0    0  501    0  0.00000000000E+00  0.00000000000E+00 -0.71403865793E+03  0.71403865793E+03  0.25500000920E-02 0. -1.
    10030    2    1    2    0    0  0.00000000000E+00  0.00000000000E+00 -0.29361774359E+03  0.11344595723E+04  0.10958043355E+04 0.  0.
        5    1    3    3  502    0  0.14525465209E+03 -0.33436527633E+03 -0.57022984318E+03  0.67681845130E+03  0.46999998093E+01 0. -1.
       -5    1    3    3    0  502 -0.14525465209E+03  0.33436527633E+03  0.27661209960E+03  0.45764112098E+03  0.46999998093E+01 0.  1.
</event>
<event>
 5   0  0.6109149E-04  0.1099441E+04  0.7818609E-02  0.9205737E-01
        2   -1    0    0  501    0  0.00000000000E+00  0.00000000000E+00  0.38631031785E+03  0.38631031786E+03  0.25500000920E-02 0.  1.
       -2   -1    0    0    0  501  0.00000000000E+00  0.00000000000E+00 -0.78225349554E+03  0.78225349554E+03  0.25500000920E-02 0. -1.
    10030    2    1    2    0    0  0.00000000000E+00  0.00000000000E+00 -0.39594317769E+03  0.11685638134E+04  0.10994409425E+04 0.  0.
        1    1    3    3  502    0 -0.60717092779E+02  0.89976412957E+02 -0.77074983811E+03  0.77835572408E+03  0.50400001928E-02 0. -1.
       -1    1    3    3    0  502  0.60717092779E+02 -0.89976412957E+02  0.37480666042E+03  0.39020808931E+03  0.50400001928E-02 0.  1.
</event>
<event>
 5   0  0.3657529E-04  0.1104143E+04  0.7818609E-02  0.9201164E-01
        1   -1    0    0  501    0  0.00000000000E+00  0.00000000000E+00  0.70682876014E+03  0.70682876016E+03  0.50400001928E-02 0.  1.
       -1   -1    0    0    0  501  0.00000000000E+00  0.00000000000E+00 -0.43119740584E+03  0.43119740587E+03  0.50400001928E-02 0. -1.
    10030    2    1    2    0    0  0.00000000000E+00  0.00000000000E+00  0.27563135430E+03  0.11380261660E+04  0.11041426136E+04 0.  0.
        4    1    3    3  502    0 -0.52809254509E+03  0.56509987105E+02 -0.17493598229E+02  0.53139698315E+03  0.12699999809E+01 0. -1.
       -4    1    3    3    0  502  0.52809254509E+03 -0.56509987105E+02  0.29312495253E+03  0.60662918288E+03  0.12699999809E+01 0.  1.
</event>
<event>
 5   0  0.3621403E-04  0.1099735E+04  0.7818609E-02  0.9205450E-01
        1   -1    0    0  501    0  0.00000000000E+00  0.00000000000E+00  0.38071517585E+03  0.38071517588E+03  0.50400001928E-02 0.  1.
       -1   -1    0    0    0  501  0.00000000000E+00  0.00000000000E+00 -0.79417506126E+03  0.79417506127E+03  0.50400001928E-02 0. -1.
    10030    2    1    2    0    0  0.00000000000E+00  0.00000000000E+00 -0.41345988541E+03  0.11748902372E+04  0.10997354193E+04 0.  0.
        3    1    3    3  502    0 -0.25737057853E+02 -0.25004476140E+02  0.37946297173E+03  0.38115584357E+03  0.10100000352E+00 0.  1.
       -3    1    3    3    0  502  0.25737057853E+02  0.25004476140E+02 -0.79292285714E+03  0.79373439358E+03  0.10100000352E+00 0. -1.
</event>
<event>
 5   0  0.6245176E-04  0.1100485E+04  0.7818609E-02  0.9204720E-01
       -2   -1    0    0    0  501  0.00000000000E+00  0.00000000000E+00  0.35332659685E+03  0.35332659686E+03  0.25500000920E-02 0.  1.
        2   -1    0    0  501    0  0.00000000000E+00  0.00000000000E+00 -0.85690292457E+03  0.85690292457E+03  0.25500000920E-02 0. -1.
    10030    2    1    2    0    0  0.00000000000E+00  0.00000000000E+00 -0.50357632772E+03  0.12102295214E+04  0.11004846099E+04 0.  0.
        5    1    3    3  502    0 -0.24479735557E+03 -0.40413600120E+03  0.58273309866E+02  0.47609822663E+03  0.46999998093E+01 0.  1.
       -5    1    3    3    0  502  0.24479735557E+03  0.40413600120E+03 -0.56184963758E+03  0.73413129481E+03  0.46999998093E+01 0. -1.
</event>
<event>
 5   0  0.6245176E-04  0.1103009E+04  0.7818609E-02  0.9202264E-01
       -2   -1    0    0    0  501  0.00000000000E+00  0.00000000000E+00  0.74228768162E+03  0.74228768162E+03  0.25500000920E-02 0. -1.
        2   -1    0    0  501    0  0.00000000000E+00  0.00000000000E+00 -0.40975656944E+03  0.40975656944E+03  0.25500000920E-02 0.  1.
    10030    2    1    2    0    0  0.00000000000E+00  0.00000000000E+00  0.33253111218E+03  0.11520442511E+04  0.11030090733E+04 0.  0.
        5    1    3    3  502    0  0.53863703332E+03  0.15579046871E+02  0.28879497577E+03  0.61138955536E+03  0.46999998093E+01 0.  1.
       -5    1    3    3    0  502 -0.53863703332E+03 -0.15579046871E+02  0.43736136409E+02  0.54065469571E+03  0.46999998093E+01 0. -1.
</event>
<event>
 5   0  0.6412712E-04  0.1101817E+04  0.7818609E-02  0.9203423E-01
       -2   -1    0    0    0  501  0.00000000000E+00  0.00000000000E+00  0.36047362500E+03  0.36047362500E+03  0.25500000920E-02 0. -1.
        2   -1    0    0  501    0  0.00000000000E+00  0.00000000000E+00 -0.84194821035E+03  0.84194821035E+03  0.25500000920E-02 0.  1.
    10030    2    1    2    0    0  0.00000000000E+00  0.00000000000E+00 -0.48147458535E+03  0.12024218354E+04  0.11018169058E+04 0.  0.
        2    1    3    3  502    0  0.24927732178E+03 -0.39004720491E+03 -0.56671549083E+03  0.73173933389E+03  0.25500000920E-02 0.  1.
       -2    1    3    3    0  502 -0.24927732178E+03  0.39004720491E+03  0.85240905480E+02  0.47068250146E+03  0.25500000920E-02 0. -1.
</event>
<event>
 5   0  0.6264830E-04  0.1099481E+04  0.7818609E-02  0.9205698E-01
        2   -1    0    0  501    0  0.00000000000E+00  0.00000000000E+00  0.16140882546E+04  0.16140882546E+04  0.25500000920E-02 0. -1.
       -2   -1    0    0    0  501  0.00000000000E+00  0.00000000000E+00 -0.18723544335E+03  0.18723544337E+03  0.25500000920E-02 0.  1.
    10030    2    1    2    0    0  0.00000000000E+00  0.00000000000E+00  0.14268528112E+04  0.18013236980E+04  0.10994808411E+04 0.  0.
        4    1    3    3  502    0 -0.24518319663E+03  0.31679727805E+03  0.96623179370E+02  0.41208368929E+03  0.12699999809E+01 0.  1.
       -4    1    3    3    0  502  0.24518319663E+03 -0.31679727805E+03  0.13302296319E+04  0.13892400087E+04  0.12699999809E+01 0. -1.
</event>
<event>
 5   0  0.3423758E-04  0.1096940E+04  0.7818609E-02  0.9208179E-01
       -1   -1    0    0    0  501  0.00000000000E+00  0.00000000000E+00  0.35663194267E+03  0.35663194270E+03  0.50400001928E-02 0. -1.
        1   -1    0    0  501    0  0.00000000000E+00  0.00000000000E+00 -0.84350137830E+03  0.84350137832E+03  0.50400001928E-02 0.  1.
    10030    2    1    2    0    0  0.00000000000E+00  0.00000000000E+00 -0.48686943564E+03  0.12001333210E+04  0.10969403543E+04 0.  0.
        1    1    3    3  502    0 -0.27621953357E+03  0.13472233395E+03  0.25358323277E+03  0.39843668752E+03  0.50400001928E-02 0. -1.
       -1    1    3    3    0  502  0.27621953357E+03 -0.13472233395E+03 -0.74045266841E+03  0.80169663350E+03  0.50400001928E-02 0.  1.
</event>
<event>
 5   0  0.3423758E-04  0.1108130E+04  0.7818609E-02  0.9197304E-01
       -1   -1    0    0    0  501  0.00000000000E+00  0.00000000000E+00  0.74717725674E+03  0.74717725675E+03  0.50400001928E-02 0. -1.
        1   -1    0    0  501    0  0.00000000000E+00  0.00000000000E+00 -0.41086370282E+03  0.41086370285E+03  0.50400001928E-02 0.  1.
    10030    2    1    2    0    0  0.00000000000E+00  0.00000000000E+00  0.33631355392E+03  0.11580409596E+04  0.11081299823E+04 0.  0.
        1    1    3    3  502    0 -0.21763283142E+03 -0.31951082615E+03  0.58294290219E+03  0.69948098229E+03  0.50400001928E-02 0. -1.
       -1    1    3    3    0  502  0.21763283142E+03  0.31951082615E+03 -0.24662934827E+03  0.45855997731E+03  0.50400001928E-02 0.  1.
</event>
<event>
 5   0  0.3621403E-04  0.1094376E+04  0.7818609E-02  0.9210691E-01
        1   -1    0    0  501    0  0.00000000000E+00  0.00000000000E+00  0.10261631450E+04  0.10261631450E+04  0.50400001928E-02 0.  1.
       -1   -1    0    0    0  501  0.00000000000E+00  0.00000000000E+00 -0.29178077436E+03  0.29178077440E+03  0.50400001928E-02 0. -1.
    10030    2    1    2    0    0  0.00000000000E+00  0.00000000000E+00  0.73438237064E+03  0.13179439194E+04  0.10943759447E+04 0.  0.
        3    1    3    3  502    0 -0.15262877438E+03  0.39025436951E+03  0.79095799056E+03  0.89510254649E+03  0.10100000352E+00 0.  1.
       -3    1    3    3    0  502  0.15262877438E+03 -0.39025436951E+03 -0.56575619918E+02  0.42284137293E+03  0.10100000352E+00 0. -1.
</event>
<event>
 5   0  0.6109149E-04  0.1100680E+04  0.7818609E-02  0.9204530E-01
       -2   -1    0    0    0  501  0.00000000000E+00  0.00000000000E+00  0.22106138869E+03  0.22106138870E+03  0.25500000920E-02 0.  1.
        2   -1    0    0  501    0  0.00000000000E+00  0.00000000000E+00 -0.13700896290E+04  0.13700896290E+04  0.25500000920E-02 0. -1.
    10030    2    1    2    0    0  0.00000000000E+00  0.00000000000E+00 -0.11490282403E+04  0.15911510177E+04  0.11006796374E+04 0.  0.
        1    1    3    3  502    0 -0.37737959524E+03 -0.29942456535E+03 -0.18985344325E+03  0.51779799071E+03  0.50400001928E-02 0.  1.
       -1    1    3    3    0  502  0.37737959524E+03  0.29942456535E+03 -0.95917479704E+03  0.10733530270E+04  0.50400001928E-02 0. -1.
</event>
<event>
 5   0  0.2403875E-04  0.1106660E+04  0.7818609E-02  0.9198725E-01
        3   -1    0    0  501    0  0.00000000000E+00  0.00000000000E+00  0.86935410129E+03  0.86935410715E+03  0.10100000352E+00 0. -1.
       -3   -1    0    0    0  501  0.00000000000E+00  0.00000000000E+00 -0.35218579960E+03  0.35218581409E+03  0.10100000352E+00 0.  1.
    10030    2    1    2    0    0  0.00000000000E+00  0.00000000000E+00  0.51716830169E+03  0.12215399212E+04  0.11066601678E+04 0.  0.
        2    1    3    3  502    0 -0.31456805579E+03 -0.36951189924E+03  0.55204355776E+03  0.73501305776E+03  0.25500000920E-02 0. -1.
       -2    1    3    3    0  502  0.31456805579E+03  0.36951189924E+03 -0.34875256077E+02  0.48652686348E+03  0.25500000920E-02 0.  1.
</event>
<event>
 5   0  0.6264830E-04  0.1095293E+04  0.7818609E-02  0.9209792E-01
        2   -1    0    0  501    0  0.00000000000E+00  0.00000000000E+00  0.16793091427E+04  0.16793091427E+04  0.25500000920E-02 0. -1.
       -2   -1    0    0    0  501  0.00000000000E+00  0.00000000000E+00 -0.17859532684E+03  0.17859532686E+03  0.25500000920E-02 0.  1.
    10030    2    1    2    0    0  0.00000000000E+00  0.00000000000E+00  0.15007138159E+04  0.18579044696E+04  0.10952931393E+04 0.  0.
        4    1    3    3  502    0  0.14617505141E+03 -0.61499400766E+02 -0.13879174289E+03  0.21074648928E+03  0.12699999809E+01 0.  1.
       -4    1    3    3    0  502 -0.14617505141E+03  0.61499400766E+02  0.16395055588E+04  0.16471579803E+04  0.12699999809E+01 0. -1.
</event>
<event>
 5   0  0.3657529E-04  0.1100871E+04  0.7818609E-02  0.9204343E-01
        1   -1    0    0  501    0  0.00000000000E+00  0.00000000000E+00  0.58104174557E+03  0.58104174559E+03  0.50400001928E-02 0. -1.
       -1   -1    0    0    0  501  0.00000000000E+00  0.00000000000E+00 -0.52144181104E+03  0.52144181106E+03  0.50400001928E-02 0.  1.
    10030    2    1    2    0    0  0.00000000000E+00  0.00000000000E+00  0.59599934532E+02  0.11024835567E+04  0.11008714005E+04 0.  0.
        4    1    3    3  502    0  0.20133491608E+02  0.27965763878E+03  0.50416449994E+03  0.57688578446E+03  0.12699999809E+01 0. -1.
       -4    1    3    3    0  502 -0.20133491608E+02 -0.27965763878E+03 -0.44456456541E+03  0.52559777219E+03  0.12699999809E+01 0.  1.
</event>
<event>
 5   0  0.3523525E-04  0.1102115E+04  0.7818609E-02  0.9203133E-01
        1   -1    0    0  501    0  0.00000000000E+00  0.00000000000E+00  0.21658320800E+04  0.21658320800E+04  0.50400001928E-02 0.  1.
       -1   -1    0    0    0  501  0.00000000000E+00  0.00000000000E+00 -0.14020684466E+03  0.14020684475E+03  0.50400001928E-02 0. -1.
    10030    2    1    2    0    0  0.00000000000E+00  0.00000000000E+00  0.20256252353E+04  0.23060389247E+04  0.11021152065E+04 0.  0.
        5    1    3    3  502    0  0.18404782230E+03  0.73592371998E+02  0.20886130709E+04  0.20980028809E+04  0.46999998093E+01 0.  1.
       -5    1    3    3    0  502 -0.18404782230E+03 -0.73592371998E+02 -0.62987835607E+02  0.20803604386E+03  0.46999998093E+01 0. -1.
</event>
<event>
 5   0  0.6109149E-04  0.1097745E+04  0.7818609E-02  0.9207393E-01
       -2   -1    0    0    0  501  0.00000000000E+00  0.00000000000E+00  0.23093150097E+04  0.23093150097E+04  0.25500000920E-02 0.  1.
        2   -1    0    0  501    0  0.00000000000E+00  0.00000000000E+00 -0.13045466944E+03  0.13045466946E+03  0.25500000920E-02 0. -1.
    10030    2    1    2    0    0  0.00000000000E+00  0.00000000000E+00  0.21788603403E+04  0.24397696792E+04  0.10977448269E+04 0.  0.
        1    1    3    3  502    0 -0.39040228882E+03 -0.34799285893E+03  0.71920761290E+03  0.88925393868E+03  0.50400001928E-02 0. -1.
       -1    1    3    3    0  502  0.39040228882E+03  0.34799285893E+03  0.14596527274E+04  0.15505157405E+04  0.50400001928E-02 0.  1.
</event>
<event>
 5   0  0.3621403E-04  0.1101081E+04  0.7818609E-02  0.9204139E-01
        1   -1    0    0  501    0  0.00000000000E+00  0.00000000000E+00  0.78586639104E+03  0.78586639106E+03  0.50400001928E-02 0. -1.
       -1   -1    0    0    0  501  0.00000000000E+00  0.00000000000E+00 -0.38568237035E+03  0.38568237038E+03  0.50400001928E-02 0.  1.
    10030    2    1    2    0    0  0.00000000000E+00  0.00000000000E+00  0.40018402069E+03  0.11715487614E+04  0.11010809462E+04 0.  0.
        3    1    3    3  502    0  0.38479439183E+03  0.19873772966E+03 -0.16156020268E+03  0.46223924376E+03  0.10100000352E+00 0.  1.
       -3    1    3    3    0  502 -0.38479439183E+03 -0.19873772966E+03  0.56174422337E+03  0.70930951768E+03  0.10100000352E+00 0. -1.
</event>
<event>
 5   0  0.6412712E-04  0.1100408E+04  0.7818609E-02  0.9204795E-01
        2   -1    0    0  501    0  0.00000000000E+00  0.00000000000E+00  0.81893839036E+03  0.81893839036E+03  0.25500000920E-02 0.  1.
       -2   -1    0    0    0  501  0.00000000000E+00  0.00000000000E+00 -0.36965453593E+03  0.36965453594E+03  0.25500000920E-02 0. -1.
    10030    2    1    2    0    0  0.00000000000E+00  0.00000000000E+00  0.44928385443E+03  0.11885929263E+04  0.11004077256E+04 0.  0.
        2    1    3    3  502    0  0.33325654856E+03 -0.10012933238E+03 -0.23570308326E+03  0.42028770364E+03  0.25500000920E-02 0. -1.
       -2    1    3    3    0  502 -0.33325654856E+03  0.10012933238E+03  0.68498693768E+03  0.76830522266E+03  0.25500000920E-02 0.  1.
</event>
<event>
 5   0  0.6412712E-04  0.1097932E+04  0.7818609E-02  0.9207210E-01
       -2   -1    0    0    0  501  0.00000000000E+00  0.00000000000E+00  0.40867825207E+03  0.40867825208E+03  0.25500000920E-02 0.  1.
        2   -1    0    0  501    0  0.00000000000E+00  0.00000000000E+00 -0.73741032483E+03  0.73741032483E+03  0.25500000920E-02 0. -1.
    10030    2    1    2    0    0  0.00000000000E+00  0.00000000000E+00 -0.32873207276E+03  0.11460885769E+04  0.10979318059E+04 0.  0.
        2    1    3    3  502    0 -0.45641931283E+03 -0.20928889230E+03 -0.39600715631E+03  0.63948580705E+03  0.25500000920E-02 0. -1.
       -2    1    3    3    0  502  0.45641931283E+03  0.20928889230E+03  0.67275083553E+02  0.50660276987E+03  0.25500000920E-02 0.  1.
</event>
<event>
 5   0  0.6264830E-04  0.1100356E+04  0.7818609E-02  0.9204845E-01
        2   -1    0    0  501    0  0.00000000000E+00  0.00000000000E+00  0.20925560262E+04  0.20925560262E+04  0.25500000920E-02 0.  1.
       -2   -1    0    0    0  501  0.00000000000E+00  0.00000000000E+00 -0.14465362342E+03  0.14465362344E+03  0.25500000920E-02 0. -1.
    10030    2    1    2    0    0  0.00000000000E+00  0.00000000000E+00  0.19479024028E+04  0.22372096496E+04  0.11003559632E+04 0.  0.
        4    1    3    3  502    0 -0.34433556741E+03 -0.85813547995E+01  0.10169189394E+03  0.35914269703E+03  0.12699999809E+01 0. -1.
       -4    1    3    3    0  502  0.34433556741E+03  0.85813547995E+01  0.18462105088E+04  0.18780669526E+04  0.12699999809E+01 0.  1.
</event>
<event>
 5   0  0.5948818E-04  0.1094713E+04  0.7818609E-02  0.9210360E-01
        2   -1    0    0  501    0  0.00000000000E+00  0.00000000000E+00  0.48750468450E+03  0.48750468451E+03  0.25500000920E-02 0. -1.
       -2   -1    0    0    0  501  0.00000000000E+00  0.00000000000E+00 -0.61455646501E+03  0.61455646502E+03  0.25500000920E-02 0.  1.
    10030    2    1    2    0    0  0.00000000000E+00  0.00000000000E+00 -0.12705178051E+03  0.11020611495E+04  0.10947130320E+04 0.  0.
        3    1    3    3  502    0 -0.36872266260E+03 -0.40236294725E+03 -0.10560119434E+03  0.55588125143E+03  0.10100000352E+00 0. -1.
       -3    1    3    3    0  502  0.36872266260E+03  0.40236294725E+03 -0.21450586173E+02  0.54617989810E+03  0.10100000352E+00 0.  1.
</event>
<event>
 5   0  0.6109149E-04  0.1108898E+04  0.7818609E-02  0.9196563E-01
       -2   -1    0    0    0  501  0.00000000000E+00  0.00000000000E+00  0.13740701100E+03  0.13740701103E+03  0.25500000920E-02 0.  1.
        2   -1    0    0  501    0  0.00000000000E+00  0.00000000000E+00 -0.22372484181E+04  0.22372484181E+04  0.25500000920E-02 0. -1.
    10030    2    1    2    0    0  0.00000000000E+00  0.00000000000E+00 -0.20998414071E+04  0.23746554292E+04  0.11088978637E+04 0.  0.
        1    1    3    3  502    0  0.73126988151E+02  0.28276421944E+03 -0.20591586186E+04  0.20797685873E+04  0.50400001928E-02 0. -1.
       -1    1    3    3    0  502 -0.73126988151E+02 -0.28276421944E+03 -0.40682788545E+02  0.29488684186E+03  0.50400001928E-02 0.  1.
</event>
<event>
 5   0  0.6245176E-04  0.1102362E+04  0.7818609E-02  0.9202893E-01
        2   -1    0    0  501    0  0.00000000000E+00  0.00000000000E+00  0.49230582511E+03  0.49230582511E+03  0.25500000920E-02 0. -1.
       -2   -1    0    0    0  501  0.00000000000E+00  0.00000000000E+00 -0.61709739200E+03  0.61709739201E+03  0.25500000920E-02 0.  1.
    10030    2    1    2    0    0  0.00000000000E+00  0.00000000000E+00 -0.12479156690E+03  0.11094032171E+04  0.11023622649E+04 0.  0.
        5    1    3    3  502    0 -0.39541832650E+03  0.69423253638E+02  0.31764472031E+03  0.51195263396E+03  0.46999998093E+01 0. -1.
       -5    1    3    3    0  502  0.39541832650E+03 -0.69423253638E+02 -0.44243628721E+03  0.59745058316E+03  0.46999998093E+01 0.  1.
</event>
<event>
 5   0  0.3657529E-04  0.1099649E+04  0.7818609E-02  0.9205534E-01
       -1   -1    0    0    0  501  0.00000000000E+00  0.00000000000E+00  0.32255068212E+03  0.32255068216E+03  0.50400001928E-02 0. -1.
        1   -1    0    0  501    0  0.00000000000E+00  0.00000000000E+00 -0.93723947136E+03  0.93723947138E+03  0.50400001928E-02 0.  1.
    10030    2    1    2    0    0  0.00000000000E+00  0.00000000000E+00 -0.61468878924E+03  0.12597901535E+04  0.10996494548E+04 0.  0.
        4    1    3    3  502    0 -0.44258758215E+03 -0.23359548102E+03 -0.46465304456E+02  0.50260447077E+03  0.12699999809E+01 0. -1.
       -4    1    3    3    0  502  0.44258758215E+03  0.23359548102E+03 -0.56822348479E+03  0.75718568277E+03  0.12699999809E+01 0.  1.
</event>
<event>
 5   0  0.3523525E-04  0.1100050E+04  0.7818609E-02  0.9205143E-01
        1   -1    0    0  501    0  0.00000000000E+00  0.00000000000E+00  0.11344881273E+04  0.11344881273E+04  0.50400001928E-02 0. -1.
       -1   -1    0    0    0  501  0.00000000000E+00  0.00000000000E+00 -0.26666428329E+03  0.26666428333E+03  0.50400001928E-02 0.  1.
    10030    2    1    2    0    0  0.00000000000E+00  0.00000000000E+00  0.86782384402E+03  0.14011524106E+04  0.11000499323E+04 0.  0.
        5    1    3    3  502    0  0.53532776560E+03 -0.14617444097E+01  0.27316387800E+03  0.60101459846E+03  0.46999998093E+01 0. -1.
       -5    1    3    3    0  502 -0.53532776560E+03  0.14617444097E+01  0.59465996602E+03  0.80013781219E+03  0.46999998093E+01 0.  1.
</event>
<event>
 5   0  0.6264830E-04  0.1098689E+04  0.7818609E-02  0.9206471E-01
       -2   -1    0    0    0  501  0.00000000000E+00  0.00000000000E+00  0.16266756863E+03  0.16266756865E+03  0.25500000920E-02 0.  1.
        2   -1    0    0  501    0  0.00000000000E+00  0.00000000000E+00 -0.18551895833E+04  0.18551895833E+04  0.25500000920E-02 0. -1.
    10030    2    1    2    0    0  0.00000000000E+00  0.00000000000E+00 -0.16925220147E+04  0.20178571519E+04  0.10986886345E+04 0.  0.
        4    1    3    3  502    0 -0.12639709977E+03  0.39920380759E+03 -0.19319961501E+03  0.46115898665E+03  0.12699999809E+01 0.  1.
       -4    1    3    3    0  502  0.12639709977E+03 -0.39920380759E+03 -0.14993223997E+04  0.15566981653E+04  0.12699999809E+01 0. -1.
</event>
<event>
 5   0  0.6412712E-04  0.1115166E+04  0.7818609E-02  0.9190535E-01
       -2   -1    0    0    0  501  0.00000000000E+00  0.00000000000E+00  0.93159120937E+03  0.93159120938E+03  0.25500000920E-02 0. -1.
        2   -1    0    0  501    0  0.00000000000E+00  0.00000000000E+00 -0.33372863587E+03  0.33372863588E+03  0.25500000920E-02 0.  1.
    10030    2    1    2    0    0  0.00000000000E+00  0.00000000000E+00  0.59786257350E+03  0.12653198453E+04  0.11151657518E+04 0.  0.
        2    1    3    3  502    0  0.29828731989E+02 -0.49246475132E+03  0.59369374997E+03  0.77193494111E+03  0.25500000920E-02 0. -1.
       -2    1    3    3    0  502 -0.29828731989E+02  0.49246475132E+03  0.41688235269E+01  0.49338490415E+03  0.25500000920E-02 0.  1.
</event>
<event>
 5   0  0.3523525E-04  0.1099033E+04  0.7818609E-02  0.9206134E-01
       -1   -1    0    0    0  501  0.00000000000E+00  0.00000000000E+00  0.34714708437E+03  0.34714708440E+03  0.50400001928E-02 0.  1.
        1   -1    0    0  501    0  0.00000000000E+00  0.00000000000E+00 -0.86985779318E+03  0.86985779319E+03  0.50400001928E-02 0. -1.
    10030    2    1    2    0    0  0.00000000000E+00  0.00000000000E+00 -0.52271070881E+03  0.12170048776E+04  0.10990333876E+04 0.  0.
        5    1    3    3  502    0  0.90949888218E+02  0.18179781305E+03  0.30395740198E+03  0.36569730545E+03  0.46999998093E+01 0.  1.
       -5    1    3    3    0  502 -0.90949888218E+02 -0.18179781305E+03 -0.82666811079E+03  0.85130757215E+03  0.46999998093E+01 0. -1.
</event>
<event>
 5   0  0.3642161E-04  0.1102527E+04  0.7818609E-02  0.9202732E-01
        1   -1    0    0  501    0  0.00000000000E+00  0.00000000000E+00  0.14579649769E+04  0.14579649769E+04  0.50400001928E-02 0. -1.
       -1   -1    0    0    0  501  0.00000000000E+00  0.00000000000E+00 -0.20843549182E+03  0.20843549188E+03  0.50400001928E-02 0.  1.
    10030    2    1    2    0    0  0.00000000000E+00  0.00000000000E+00  0.12495294851E+04  0.16664004688E+04  0.11025273640E+04 0.  0.
        2    1    3    3  502    0 -0.21987221040E+03 -0.83258675156E+02  0.13783882025E+04  0.13982953310E+04  0.25500000920E-02 0. -1.
       -2    1    3    3    0  502  0.21987221040E+03  0.83258675156E+02 -0.12885871736E+03  0.26810513785E+03  0.25500000920E-02 0.  1.
</event>
<event>
 5   0  0.6245176E-04  0.1098716E+04  0.7818609E-02  0.9206444E-01
        2   -1    0    0  501    0  0.00000000000E+00  0.00000000000E+00  0.12254791329E+04  0.12254791329E+04  0.25500000920E-02 0. -1.
       -2   -1    0    0    0  501  0.00000000000E+00  0.00000000000E+00 -0.24626635722E+03  0.24626635723E+03  0.25500000920E-02 0.  1.
    10030    2    1    2    0    0  0.00000000000E+00  0.00000000000E+00  0.97921277568E+03  0.14717454901E+04  0.10987161270E+04 0.  0.
        5    1    3    3  502    0  0.11677003911E+03  0.29474598129E+03  0.10905418646E+04  0.11356998213E+04  0.46999998093E+01 0. -1.
       -5    1    3    3    0  502 -0.11677003911E+03 -0.29474598129E+03 -0.11132908895E+03  0.33604566887E+03  0.46999998093E+01 0.  1.
</event>
<event>
 5   0  0.3642161E-04  0.1099195E+04  0.7818609E-02  0.9205977E-01
       -1   -1    0    0    0  501  0.00000000000E+00  0.00000000000E+00  0.19582632648E+03  0.19582632655E+03  0.50400001928E-02 0. -1.
        1   -1    0    0  501    0  0.00000000000E+00  0.00000000000E+00 -0.15424764829E+04  0.15424764830E+04  0.50400001928E-02 0.  1.
    10030    2    1    2    0    0  0.00000000000E+00  0.00000000000E+00 -0.13466501565E+04  0.17383028095E+04  0.10991951663E+04 0.  0.
        2    1    3    3  502    0 -0.21086923463E+03 -0.49276926321E+03 -0.48112981891E+03  0.72025917803E+03  0.25500000920E-02 0. -1.
       -2    1    3    3    0  502  0.21086923463E+03  0.49276926321E+03 -0.86552033755E+03  0.10180436315E+04  0.25500000920E-02 0.  1.
</event>
<event>
 5   0  0.3621403E-04  0.1099857E+04  0.7818609E-02  0.9205332E-01
        1   -1    0    0  501    0  0.00000000000E+00  0.00000000000E+00  0.82177612854E+03  0.82177612856E+03  0.50400001928E-02 0.  1.
       -1   -1    0    0    0  501  0.00000000000E+00  0.00000000000E+00 -0.36800916579E+03  0.36800916582E+03  0.50400001928E-02 0. -1.
    10030    2    1    2    0    0  0.00000000000E+00  0.00000000000E+00  0.45376696276E+03  0.11897852944E+04  0.10998566226E+04 0.  0.
        3    1    3    3  502    0 -0.41310946801E+03 -0.12818304381E+03  0.59425475815E+03  0.73500275719E+03  0.10100000352E+00 0.  1.
       -3    1    3    3    0  502  0.41310946801E+03  0.12818304381E+03 -0.14048779540E+03  0.45478253720E+03  0.10100000352E+00 0. -1.
</event>
<event>
 5   0  0.3423758E-04  0.1095951E+04  0.7818609E-02  0.9209147E-01
        1   -1    0    0  501    0  0.00000000000E+00  0.00000000000E+00  0.17046264089E+04  0.17046264089E+04  0.50400001928E-02 0. -1.
       -1   -1    0    0    0  501  0.00000000000E+00  0.00000000000E+00 -0.17615427868E+03  0.17615427876E+03  0.50400001928E-02 0.  1.
    10030    2    1    2    0    0  0.00000000000E+00  0.00000000000E+00  0.15284721302E+04  0.18807806876E+04  0.10959511587E+04 0.  0.
        1    1    3    3  502    0  0.50556777031E+03  0.15644080691E+02  0.11259817273E+04  0.12343736703E+04  0.50400001928E-02 0. -1.
       -1    1    3    3    0  502 -0.50556777031E+03 -0.15644080691E+02  0.40249040286E+03  0.64640701733E+03  0.50400001928E-02 0.  1.
</event>
<event>
 5   0  0.6109149E-04  0.1097936E+04  0.7818609E-02  0.9207206E-01
       -2   -1    0    0    0  501  0.00000000000E+00  0.00000000000E+00  0.23106407684E+03  0.23106407685E+03  0.25500000920E-02 0.  1.
        2   -1    0    0  501    0  0.00000000000E+00  0.00000000000E+00 -0.13042511953E+04  0.13042511953E+04  0.25500000920E-02 0. -1.
    10030    2    1    2    0    0  0.00000000000E+00  0.00000000000E+00 -0.10731871184E+04  0.15353152721E+04  0.10979355143E+04 0.  0.
        1    1    3    3  502    0  0.31220090080E+03  0.10189043376E+03  0.78551489332E+02  0.33767054869E+03  0.50400001928E-02 0. -1.
       -1    1    3    3    0  502 -0.31220090080E+03 -0.10189043376E+03 -0.11517386078E+04  0.11976447234E+04  0.50400001928E-02 0.  1.
</event>
<event>
 5   0  0.2403875E-04  0.1100025E+04  0.7818609E-02  0.9205167E-01
       -3   -1    0    0    0  501  0.00000000000E+00  0.00000000000E+00  0.93432463662E+03  0.93432464208E+03  0.10100000352E+00 0. -1.
        3   -1    0    0  501    0  0.00000000000E+00  0.00000000000E+00 -0.32377811353E+03  0.32377812929E+03  0.10100000352E+00 0.  1.
    10030    2    1    2    0    0  0.00000000000E+00  0.00000000000E+00  0.61054652309E+03  0.12581027714E+04  0.11000252390E+04 0.  0.
        4    1    3    3  502    0  0.49488844129E+03 -0.18093428751E+02  0.57897546994E+03  0.76187672834E+03  0.12699999809E+01 0. -1.
       -4    1    3    3    0  502 -0.49488844129E+03  0.18093428751E+02  0.31571053146E+02  0.49622604303E+03  0.12699999809E+01 0.  1.
</event>
<event>
 5   0  0.5948818E-04  0.1100562E+04  0.7818609E-02  0.9204644E-01
        2   -1    0    0  501    0  0.00000000000E+00  0.00000000000E+00  0.22293814526E+03  0.22293814527E+03  0.25500000920E-02 0. -1.
       -2   -1    0    0    0  501  0.00000000000E+00  0.00000000000E+00 -0.13582661679E+04  0.13582661679E+04  0.25500000920E-02 0.  1.
    10030    2    1    2    0    0  0.00000000000E+00  0.00000000000E+00 -0.11353280227E+04  0.15812043132E+04  0.11005622931E+04 0.  0.
        3    1    3    3  502    0 -0.15300162627E+03 -0.31332729084E+03  0.43958446091E+02  0.35144820957E+03  0.10100000352E+00 0. -1.
       -3    1    3    3    0  502  0.15300162627E+03  0.31332729084E+03 -0.11792864688E+04  0.12297561036E+04  0.10100000352E+00 0.  1.
</event>
<event>
 5   0  0.6245176E-04  0.1100275E+04  0.7818609E-02  0.9204923E-01
       -2   -1    0    0    0  501  0.00000000000E+00  0.00000000000E+00  0.78252784359E+03  0.78252784359E+03  0.25500000920E-02 0.  1.
        2   -1    0    0  501    0  0.00000000000E+00  0.00000000000E+00 -0.38676129812E+03  0.38676129813E+03  0.25500000920E-02 0. -1.
    10030    2    1    2    0    0  0.00000000000E+00  0.00000000000E+00  0.39576654547E+03  0.11692891417E+04  0.11002753921E+04 0.  0.
        5    1    3    3  502    0  0.26958516483E+03  0.16580809299E+03  0.67606294370E+03  0.74649291935E+03  0.46999998093E+01 0.  1.
       -5    1    3    3    0  502 -0.26958516483E+03 -0.16580809299E+03 -0.28029639823E+03  0.42279622238E+03  0.46999998093E+01 0. -1.
</event>
<event>
 5   0  0.6264830E-04  0.1098833E+04  0.7818609E-02  0.9206330E-01
        2   -1    0    0  501    0  0.00000000000E+00  0.00000000000E+00  0.15473351259E+04  0.15473351259E+04  0.25500000920E-02 0.  1.
       -2   -1    0    0    0  501  0.00000000000E+00  0.00000000000E+00 -0.19508290005E+03  0.19508290007E+03  0.25500000920E-02 0. -1.
    10030    2    1    2    0    0  0.00000000000E+00  0.00000000000E+00  0.13522522258E+04  0.17424180260E+04  0.10988332425E+04 0.  0.
        4    1    3    3  502    0  0.18616214168E+03  0.86181994983E+02 -0.13207202964E+03  0.24398424779E+03  0.12699999809E+01 0. -1.
       -4    1    3    3    0  502 -0.18616214168E+03 -0.86181994983E+02  0.14843242555E+04  0.14984337782E+04  0.12699999809E+01 0.  1.
</event>
<event>
 5   0  0.6109149E-04  0.1097311E+04  0.7818609E-02  0.9207816E-01
       -2   -1    0    0    0  501  0.00000000000E+00  0.00000000000E+00  0.45161618468E+03  0.45161618468E+03  0.25500000920E-02 0.  1.
        2   -1    0    0  501    0  0.00000000000E+00  0.00000000000E+00 -0.66654620484E+03  0.66654620484E+03  0.25500000920E-02 0. -1.
    10030    2    1    2    0    0  0.00000000000E+00  0.00000000000E+00 -0.21493002016E+03  0.11181623895E+04  0.10973113577E+04 0.  0.
        1    1    3    3  502    0 -0.73392352881E+02 -0.51878116553E+03 -0.27335501492E+03  0.59096810352E+03  0.50400001928E-02 0.  1.
       -1    1    3    3    0  502  0.73392352881E+02  0.51878116553E+03  0.58424994756E+02  0.52719428601E+03  0.50400001928E-02 0. -1.
</event>
<event>
 5   0  0.3642161E-04  0.1100215E+04  0.7818609E-02  0.9204982E-01
        1   -1    0    0  501    0  0.00000000000E+00  0.00000000000E+00  0.62844636856E+03  0.62844636858E+03  0.50400001928E-02 0. -1.
       -1   -1    0    0    0  501  0.00000000000E+00  0.00000000000E+00 -0.48153380388E+03  0.48153380391E+03  0.50400001928E-02 0.  1.
    10030    2    1    2    0    0  0.00000000000E+00  0.00000000000E+00  0.14691256468E+03  0.11099801725E+04  0.11002148343E+04 0.  0.
        2    1    3    3  502    0 -0.17738812124E+03 -0.24708364916E+03 -0.38898020070E+03  0.49378383103E+03  0.25500000920E-02 0.  1.
       -2    1    3    3    0  502  0.17738812124E+03  0.24708364916E+03  0.53589276538E+03  0.61619634146E+03  0.25500000920E-02 0. -1.
</event>
<event>
 5   0  0.3621403E-04  0.1100059E+04  0.7818609E-02  0.9205135E-01
        1   -1    0    0  501    0  0.00000000000E+00  0.00000000000E+00  0.54604302225E+03  0.54604302227E+03  0.50400001928E-02 0. -1.
       -1   -1    0    0    0  501  0.00000000000E+00  0.00000000000E+00 -0.55404493170E+03  0.55404493172E+03  0.50400001928E-02 0.  1.
    10030    2    1    2    0    0  0.00000000000E+00  0.00000000000E+00 -0.80019094517E+01  0.11000879540E+04  0.11000588511E+04 0.  0.
        3    1    3    3  502    0  0.26205815042E+03  0.41115341486E+03 -0.25858725309E+03  0.55189580757E+03  0.10100000352E+00 0.  1.
       -3    1    3    3    0  502 -0.26205815042E+03 -0.41115341486E+03  0.25058534364E+03  0.54819214642E+03  0.10100000352E+00 0. -1.
</event>
<event>
 5   0  0.2403875E-04  0.1097482E+04  0.7818609E-02  0.9207650E-01
        3   -1    0    0  501    0  0.00000000000E+00  0.00000000000E+00  0.87914909328E+03  0.87914909908E+03  0.10100000352E+00 0.  1.
       -3   -1    0    0    0  501  0.00000000000E+00  0.00000000000E+00 -0.34250922305E+03  0.34250923794E+03  0.10100000352E+00 0. -1.
    10030    2    1    2    0    0  0.00000000000E+00  0.00000000000E+00  0.53663987023E+03  0.12216583370E+04  0.10974820008E+04 0.  0.
        3    1    3    3  502    0 -0.22063651152E+02 -0.51218698189E+03  0.50488877643E+02  0.51514216104E+03  0.10100000352E+00 0. -1.
       -3    1    3    3    0  502  0.22063651152E+02  0.51218698189E+03  0.48615099259E+03  0.70651617598E+03  0.10100000352E+00 0.  1.
</event>
<event>
 5   0  0.5948818E-04  0.1099772E+04  0.7818609E-02  0.9205414E-01
       -2   -1    0    0    0  501  0.00000000000E+00  0.00000000000E+00  0.13139299139E+03  0.13139299142E+03  0.25500000920E-02 0. -1.
        2   -1    0    0  501    0  0.00000000000E+00  0.00000000000E+00 -0.23013009165E+04  0.23013009165E+04  0.25500000920E-02 0.  1.
    10030    2    1    2    0    0  0.00000000000E+00  0.00000000000E+00 -0.21699079251E+04  0.24326939080E+04  0.10997723611E+04 0.  0.
        3    1    3    3  502    0  0.12395143110E+03 -0.33899760133E+03 -0.16733085974E+03  0.39784790787E+03  0.10100000352E+00 0. -1.
       -3    1    3    3    0  502 -0.12395143110E+03  0.33899760133E+03 -0.20025770654E+04  0.20348460001E+04  0.10100000352E+00 0.  1.
</event>
<event>
 5   0  0.5948818E-04  0.1094331E+04  0.7818609E-02  0.9210735E-01
        2   -1    0    0  501    0  0.00000000000E+00  0.00000000000E+00  0.31131162747E+03  0.31131162748E+03  0.25500000920E-02 0.  1.
       -2   -1    0    0    0  501  0.00000000000E+00  0.00000000000E+00 -0.96170517501E+03  0.96170517501E+03  0.25500000920E-02 0. -1.
    10030    2    1    2    0    0  0.00000000000E+00  0.00000000000E+00 -0.65039354754E+03  0.12730168025E+04  0.10943308516E+04 0.  0.
        3    1    3    3  502    0 -0.16116000792E+03 -0.27889488100E+03  0.18933105649E+03  0.37363238879E+03  0.10100000352E+00 0.  1.
       -3    1    3    3    0  502  0.16116000792E+03  0.27889488100E+03 -0.83972460403E+03  0.89938441370E+03  0.10100000352E+00 0. -1.
</event>
<event>
 5   0  0.3642161E-04  0.1102742E+04  0.7818609E-02  0.9202523E-01
        1   -1    0    0  501    0  0.00000000000E+00  0.00000000000E+00  0.40318461661E+03  0.40318461664E+03  0.50400001928E-02 0. -1.
       -1   -1    0    0    0  501  0.00000000000E+00  0.00000000000E+00 -0.75402201430E+03  0.75402201431E+03  0.50400001928E-02 0.  1.
    10030    2    1    2    0    0  0.00000000000E+00  0.00000000000E+00 -0.35083739769E+03  0.11572066310E+04  0.11027421762E+04 0.  0.
        2    1    3    3  502    0  0.24000255065E+03  0.48478963136E+03 -0.63434151671E+02  0.54465227678E+03  0.25500000920E-02 0. -1.
       -2    1    3    3    0  502 -0.24000255065E+03 -0.48478963136E+03 -0.28740324602E+03  0.61255435418E+03  0.25500000920E-02 0.  1.
</event>
<event>
 5   0  0.3423758E-04  0.1103747E+04  0.7818609E-02  0.9201547E-01
       -1   -1    0    0    0  501  0.00000000000E+00  0.00000000000E+00  0.48574349206E+03  0.48574349209E+03  0.50400001928E-02 0.  1.
        1   -1    0    0  501    0  0.00000000000E+00  0.00000000000E+00 -0.62700707130E+03  0.62700707132E+03  0.50400001928E-02 0. -1.
    10030    2    1    2    0    0  0.00000000000E+00  0.00000000000E+00 -0.14126357923E+03  0.11127505634E+04  0.11037474428E+04 0.  0.
        1    1    3    3  502    0 -0.54276630772E+03 -0.61953347925E+02 -0.14957196737E+03  0.56639672984E+03  0.50400001928E-02 0. -1.
       -1    1    3    3    0  502  0.54276630772E+03  0.61953347925E+02  0.83083881368E+01  0.54635383357E+03  0.50400001928E-02 0.  1.
</event>
<event>
 5   0  0.6245176E-04  0.1097913E+04  0.7818609E-02  0.9207229E-01
        2   -1    0    0  501    0  0.00000000000E+00  0.00000000000E+00  0.18749194602E+04  0.18749194602E+04  0.25500000920E-02 0.  1.
       -2   -1    0    0    0  501  0.00000000000E+00  0.00000000000E+00 -0.16072852811E+03  0.16072852813E+03  0.25500000920E-02 0. -1.
    10030    2    1    2    0    0  0.00000000000E+00  0.00000000000E+00  0.17141909321E+04  0.20356479883E+04  0.10979126471E+04 0.  0.
        5    1    3    3  502    0 -0.31695964293E+03 -0.28424398293E+03  0.14995721761E+04  0.15588447191E+04  0.46999998093E+01 0.  1.
       -5    1    3    3    0  502  0.31695964293E+03  0.28424398293E+03  0.21461875597E+03  0.47680326917E+03  0.46999998093E+01 0. -1.
</event>
<event>
 5   0  0.3657529E-04  0.1095938E+04  0.7818609E-02  0.9209160E-01
        1   -1    0    0  501    0  0.00000000000E+00  0.00000000000E+00  0.11916450604E+04  0.11916450604E+04  0.50400001928E-02 0. -1.
       -1   -1    0    0    0  501  0.00000000000E+00  0.00000000000E+00 -0.25197958996E+03  0.25197959001E+03  0.50400001928E-02 0.  1.
    10030    2    1    2    0    0  0.00000000000E+00  0.00000000000E+00  0.93966547043E+03  0.14436246504E+04  0.10959383810E+04 0.  0.
        4    1    3    3  502    0 -0.23250260388E+03 -0.86057708157E+02 -0.17387698961E+03  0.30281712362E+03  0.12699999809E+01 0.  1.
       -4    1    3    3    0  502  0.23250260388E+03  0.86057708157E+02  0.11135424600E+04  0.11408075268E+04  0.12699999809E+01 0. -1.
</event>
<event>
 5   0  0.3423758E-04  0.1101462E+04  0.7818609E-02  0.9203768E-01
        1   -1    0    0  501    0  0.00000000000E+00  0.00000000000E+00  0.71796491063E+03  0.71796491065E+03  0.50400001928E-02 0.  1.
       -1   -1    0    0    0  501  0.00000000000E+00  0.00000000000E+00 -0.42245055616E+03  0.42245055619E+03  0.50400001928E-02 0. -1.
    10030    2    1    2    0    0  0.00000000000E+00  0.00000000000E+00  0.29551435448E+03  0.11404154668E+04  0.11014620753E+04 0.  0.
        1    1    3    3  502    0  0.24108546825E+03  0.47056783073E+03  0.30731225565E+03  0.61155303026E+03  0.50400001928E-02 0.  1.
       -1    1    3    3    0  502 -0.24108546825E+03 -0.47056783073E+03 -0.11797901172E+02  0.52886243658E+03  0.50400001928E-02 0. -1.
</event>
<event>
 5   0  0.6264830E-04  0.1089166E+04  0.7818609E-02  0.9215816E-01
       -2   -1    0    0    0  501  0.00000000000E+00  0.00000000000E+00  0.20122470006E+03  0.20122470007E+03  0.25500000920E-02 0.  1.
        2   -1    0    0  501    0  0.00000000000E+00  0.00000000000E+00 -0.14738276459E+04  0.14738276459E+04  0.25500000920E-02 0. -1.
    10030    2    1    2    0    0  0.00000000000E+00  0.00000000000E+00 -0.12726029459E+04  0.16750523460E+04  0.10891657835E+04 0.  0.
        4    1    3    3  502    0 -0.50394551508E+03 -0.85886969512E+02 -0.34763358276E+03  0.61821385820E+03  0.12699999809E+01 0.  1.
       -4    1    3    3    0  502  0.50394551508E+03  0.85886969512E+02 -0.92496936311E+03  0.10568384878E+04  0.12699999809E+01 0. -1.
</event>
<event>
 5   0  0.3423758E-04  0.1100594E+04  0.7818609E-02  0.9204613E-01
       -1   -1    0    0    0  501  0.00000000000E+00  0.00000000000E+00  0.69889307161E+03  0.69889307163E+03  0.50400001928E-02 0. -1.
        1   -1    0    0  501    0  0.00000000000E+00  0.00000000000E+00 -0.43329481652E+03  0.43329481655E+03  0.50400001928E-02 0.  1.
    10030    2    1    2    0    0  0.00000000000E+00  0.00000000000E+00  0.26559825510E+03  0.11321878882E+04  0.11005939219E+04 0.  0.
        1    1    3    3  502    0  0.91806341036E+02  0.23906964133E+03 -0.36826009124E+03  0.44855121501E+03  0.50400001928E-02 0.  1.
       -1    1    3    3    0  502 -0.91806341036E+02 -0.23906964133E+03  0.63385834633E+03  0.68363667317E+03  0.50400001928E-02 0. -1.
</event>
<event>
 5   0  0.3423758E-04  0.1099393E+04  0.7818609E-02  0.9205783E-01
        1   -1    0    0  501    0  0.00000000000E+00  0.00000000000E+00  0.68125617469E+03  0.68125617471E+03  0.50400001928E-02 0. -1.
       -1   -1    0    0    0  501  0.00000000000E+00  0.00000000000E+00 -0.44354292882E+03  0.44354292884E+03  0.50400001928E-02 0.  1.
    10030    2    1    2    0    0  0.00000000000E+00  0.00000000000E+00  0.23771324588E+03  0.11247991036E+04  0.10993932127E+04 0.  0.
        1    1    3    3  502    0  0.38769604197E+03  0.46293145234E+02 -0.27701528794E+03  0.47873661447E+03  0.50400001928E-02 0.  1.
       -1    1    3    3    0  502 -0.38769604197E+03 -0.46293145234E+02  0.51472853381E+03  0.64606248909E+03  0.50400001928E-02 0. -1.
</event>
<event>
 5   0  0.3423758E-04  0.1098787E+04  0.7818609E-02  0.9206374E-01
       -1   -1    0    0    0  501  0.00000000000E+00  0.00000000000E+00  0.69290612838E+03  0.69290612840E+03  0.50400001928E-02 0. -1.
        1   -1    0    0  501    0  0.00000000000E+00  0.00000000000E+00 -0.43560515892E+03  0.43560515895E+03  0.50400001928E-02 0.  1.
    10030    2    1    2    0    0  0.00000000000E+00  0.00000000000E+00  0.25730096946E+03  0.11285112873E+04  0.10987874848E+04 0.  0.
        1    1    3    3  502    0 -0.16267882007E+03  0.36362786865E+03  0.51722880211E+03  0.65285163637E+03  0.50400001928E-02 0. -1.
       -1    1    3    3    0  502  0.16267882007E+03 -0.36362786865E+03 -0.25992783264E+03  0.47565965097E+03  0.50400001928E-02 0.  1.
</event>
<event>
 5   0  0.3523525E-04  0.1100747E+04  0.7818609E-02  0.9204464E-01
       -1   -1    0    0    0  501  0.00000000000E+00  0.00000000000E+00  0.48359698035E+03  0.48359698038E+03  0.50400001928E-02 0.  1.
        1   -1    0    0  501    0  0.00000000000E+00  0.00000000000E+00 -0.62637106476E+03  0.62637106478E+03  0.50400001928E-02 0. -1.
    10030    2    1    2    0    0  0.00000000000E+00  0.00000000000E+00 -0.14277408441E+03  0.11099680452E+04  0.11007473017E+04 0.  0.
        5    1    3    3  502    0  0.18416540364E+03 -0.40162131549E+03 -0.40227062678E+03  0.59754524859E+03  0.46999998093E+01 0. -1.
       -5    1    3    3    0  502 -0.18416540364E+03  0.40162131549E+03  0.25949654236E+03  0.51242279657E+03  0.46999998093E+01 0.  1.
</event>
<event>
 5   0  0.3523525E-04  0.1100032E+04  0.7818609E-02  0.9205161E-01
       -1   -1    0    0    0  501  0.00000000000E+00  0.00000000000E+00  0.58114939361E+03  0.58114939363E+03  0.50400001928E-02 0. -1.
        1   -1    0    0  501    0  0.00000000000E+00  0.00000000000E+00 -0.52055058468E+03  0.52055058470E+03  0.50400001928E-02 0.  1.
    10030    2    1    2    0    0  0.00000000000E+00  0.00000000000E+00  0.60598808929E+02  0.11016999783E+04  0.11000321025E+04 0.  0.
        5    1    3    3  502    0  0.27072666041E+03 -0.39865705846E+03  0.29579602721E+03  0.56545358309E+03  0.46999998093E+01 0.  1.
       -5    1    3    3    0  502 -0.27072666041E+03  0.39865705846E+03 -0.23519721828E+03  0.53624639524E+03  0.46999998093E+01 0. -1.
</event>
<event>
 5   0  0.3642161E-04  0.1100206E+04  0.7818609E-02  0.9204991E-01
       -1   -1    0    0    0  501  0.00000000000E+00  0.00000000000E+00  0.20867126676E+03  0.20867126682E+03  0.50400001928E-02 0. -1.
        1   -1    0    0  501    0  0.00000000000E+00  0.00000000000E+00 -0.14501910522E+04  0.14501910522E+04  0.50400001928E-02 0.  1.
    10030    2    1    2    0    0  0.00000000000E+00  0.00000000000E+00 -0.12415197854E+04  0.16588623190E+04  0.11002058061E+04 0.  0.
        2    1    3    3  502    0 -0.17583848776E+03  0.24878225813E+03 -0.13113822278E+04  0.13463042499E+04  0.25500000920E-02 0.  1.
       -2    1    3    3    0  502  0.17583848776E+03 -0.24878225813E+03  0.69862442394E+02  0.31255806917E+03  0.25500000920E-02 0. -1.
</event>
<event>
 5   0  0.3642161E-04  0.1100512E+04  0.7818609E-02  0.9204693E-01
       -1   -1    0    0    0  501  0.00000000000E+00  0.00000000000E+00  0.37817471265E+03  0.37817471268E+03  0.50400001928E-02 0. -1.
        1   -1    0    0  501    0  0.00000000000E+00  0.00000000000E+00 -0.80063933489E+03  0.80063933491E+03  0.50400001928E-02 0.  1.
    10030    2    1    2    0    0  0.00000000000E+00  0.00000000000E+00 -0.42246462225E+03  0.11788140476E+04  0.11005117908E+04 0.  0.
        2    1    3    3  502    0  0.12570617040E+03  0.30178449837E+03 -0.68533678813E+03  0.75931708653E+03  0.25500000920E-02 0.  1.
       -2    1    3    3    0  502 -0.12570617040E+03 -0.30178449837E+03  0.26287216588E+03  0.41949696105E+03  0.25500000920E-02 0. -1.
</event>
<event>
 5   0  0.3642161E-04  0.1100577E+04  0.7818609E-02  0.9204630E-01
        1   -1    0    0  501    0  0.00000000000E+00  0.00000000000E+00  0.21720174995E+03  0.21720175001E+03  0.50400001928E-02 0.  1.
       -1   -1    0    0    0  501  0.00000000000E+00  0.00000000000E+00 -0.13941748911E+04  0.13941748911E+04  0.50400001928E-02 0. -1.
    10030    2    1    2    0    0  0.00000000000E+00  0.00000000000E+00 -0.11769731412E+04  0.16113766411E+04  0.11005766237E+04 0.  0.
        2    1    3    3  502    0  0.14815986796E+02 -0.32367235711E+02 -0.13924874056E+04  0.13929423270E+04  0.25500000920E-02 0. -1.
       -2    1    3    3    0  502 -0.14815986796E+02  0.32367235711E+02  0.21551426446E+03  0.21843431417E+03  0.25500000920E-02 0.  1.
</event>
<event>
 5   0  0.6245176E-04  0.1098700E+04  0.7818609E-02  0.9206460E-01
       -2   -1    0    0    0  501  0.00000000000E+00  0.00000000000E+00  0.61566966898E+03  0.61566966899E+03  0.25500000920E-02 0.  1.
        2   -1    0    0  501    0  0.00000000000E+00  0.00000000000E+00 -0.49017407394E+03  0.49017407395E+03  0.25500000920E-02 0. -1.
    10030    2    1    2    0    0  0.00000000000E+00  0.00000000000E+00  0.12549559504E+03  0.11058437429E+04  0.10986997949E+04 0.  0.
        5    1    3    3  502    0 -0.14582421819E+03 -0.69866563833E+02 -0.46565835335E+03  0.49295621651E+03  0.46999998093E+01 0. -1.
       -5    1    3    3    0  502  0.14582421819E+03  0.69866563833E+02  0.59115394839E+03  0.61288752643E+03  0.46999998093E+01 0.  1.
</event>
<event>
 5   0  0.3423758E-04  0.1099009E+04  0.7818609E-02  0.9206158E-01
       -1   -1    0    0    0  501  0.00000000000E+00  0.00000000000E+00  0.74576825367E+03  0.74576825368E+03  0.50400001928E-02 0. -1.
        1   -1    0    0  501    0  0.00000000000E+00  0.00000000000E+00 -0.40489138740E+03  0.40489138743E+03  0.50400001928E-02 0.  1.
    10030    2    1    2    0    0  0.00000000000E+00  0.00000000000E+00  0.34087686627E+03  0.11506596411E+04  0.10990089043E+04 0.  0.
        1    1    3    3  502    0 -0.56106308189E+02 -0.11596377093E+03 -0.38885785275E+03  0.40964123774E+03  0.50400001928E-02 0.  1.
       -1    1    3    3    0  502  0.56106308189E+02  0.11596377093E+03  0.72973471901E+03  0.74101840338E+03  0.50400001928E-02 0. -1.
</event>
<event>
 5   0  0.3523525E-04  0.1102166E+04  0.7818609E-02  0.9203084E-01
        1   -1    0    0  501    0  0.00000000000E+00  0.00000000000E+00  0.29350664492E+03  0.29350664496E+03  0.50400001928E-02 0. -1.
       -1   -1    0    0    0  501  0.00000000000E+00  0.00000000000E+00 -0.10347030233E+04  0.10347030233E+04  0.50400001928E-02 0.  1.
    10030    2    1    2    0    0  0.00000000000E+00  0.00000000000E+00 -0.74119637841E+03  0.13282096683E+04  0.11021655282E+04 0.  0.
        5    1    3    3  502    0 -0.51600089349E+01  0.39311655445E+03 -0.83593008046E+03  0.92377943281E+03  0.46999998093E+01 0.  1.
       -5    1    3    3    0  502  0.51600089349E+01 -0.39311655445E+03  0.94733702042E+02  0.40443023549E+03  0.46999998093E+01 0. -1.
</event>
<event>
 5   0  0.5948818E-04  0.1100238E+04  0.7818609E-02  0.9204960E-01
       -2   -1    0    0    0  501  0.00000000000E+00  0.00000000000E+00  0.29546485450E+03  0.29546485452E+03  0.25500000920E-02 0.  1.
        2   -1    0    0  501    0  0.00000000000E+00  0.00000000000E+00 -0.10242528562E+04  0.10242528562E+04  0.25500000920E-02 0. -1.
    10030    2    1    2    0    0  0.00000000000E+00  0.00000000000E+00 -0.72878800166E+03  0.13197177107E+04  0.11002376491E+04 0.  0.
        3    1    3    3  502    0  0.15903987135E+03 -0.47580619408E+03 -0.93657108170E+02  0.51034976156E+03  0.10100000352E+00 0.  1.
       -3    1    3    3    0  502 -0.15903987135E+03  0.47580619408E+03 -0.63513089349E+03  0.80936794913E+03  0.10100000352E+00 0. -1.
</event>
<event>
 5   0  0.3657529E-04  0.1100705E+04  0.7818609E-02  0.9204505E-01
        1   -1    0    0  501    0  0.00000000000E+00  0.00000000000E+00  0.35485644335E+03  0.35485644338E+03  0.50400001928E-02 0. -1.
       -1   -1    0    0    0  501  0.00000000000E+00  0.00000000000E+00 -0.85355096045E+03  0.85355096047E+03  0.50400001928E-02 0.  1.
    10030    2    1    2    0    0  0.00000000000E+00  0.00000000000E+00 -0.49869451711E+03  0.12084074039E+04  0.11007053340E+04 0.  0.
        4    1    3    3  502    0 -0.77186346059E+00 -0.53600294915E+03 -0.11228457639E+03  0.54763965914E+03  0.12699999809E+01 0. -1.
       -4    1    3    3    0  502  0.77186346059E+00  0.53600294915E+03 -0.38640994072E+03  0.66076774471E+03  0.12699999809E+01 0.  1.
</event>
<event>
 5   0  0.6264830E-04  0.1101642E+04  0.7818609E-02  0.9203593E-01
       -2   -1    0    0    0  501  0.00000000000E+00  0.00000000000E+00  0.12267162495E+04  0.12267162495E+04  0.25500000920E-02 0. -1.
        2   -1    0    0  501    0  0.00000000000E+00  0.00000000000E+00 -0.24733015021E+03  0.24733015022E+03  0.25500000920E-02 0.  1.
    10030    2    1    2    0    0  0.00000000000E+00  0.00000000000E+00  0.97938609933E+03  0.14740463998E+04  0.11016422546E+04 0.  0.
        4    1    3    3  502    0 -0.38814569585E+03  0.15087536322E+03  0.97209817962E+03  0.10575428786E+04  0.12699999809E+01 0. -1.
       -4    1    3    3    0  502  0.38814569585E+03 -0.15087536322E+03  0.72879197186E+01  0.41650352113E+03  0.12699999809E+01 0.  1.
</event>
<event>
 5   0  0.6109149E-04  0.1098797E+04  0.7818609E-02  0.9206365E-01
       -2   -1    0    0    0  501  0.00000000000E+00  0.00000000000E+00  0.21724724555E+03  0.21724724556E+03  0.25500000920E-02 0. -1.
        2   -1    0    0  501    0  0.00000000000E+00  0.00000000000E+00 -0.13893791052E+04  0.13893791052E+04  0.25500000920E-02 0.  1.
    10030    2    1    2    0    0  0.00000000000E+00  0.00000000000E+00 -0.11721318597E+04  0.16066263508E+04  0.10987971308E+04 0.  0.
        1    1    3    3  502    0  0.36872198495E+03 -0.31955476098E+03 -0.21683546409E+03  0.53393704307E+03  0.50400001928E-02 0. -1.
       -1    1    3    3    0  502 -0.36872198495E+03  0.31955476098E+03 -0.95529639558E+03  0.10726893077E+04  0.50400001928E-02 0.  1.
</event>
<event>
 5   0  0.3621403E-04  0.1095916E+04  0.7818609E-02  0.9209182E-01
       -1   -1    0    0    0  501  0.00000000000E+00  0.00000000000E+00  0.30716127892E+03  0.30716127896E+03  0.50400001928E-02 0.  1.
        1   -1    0    0  501    0  0.00000000000E+00  0.00000000000E+00 -0.97752501463E+03  0.97752501465E+03  0.50400001928E-02 0. -1.
    10030    2    1    2    0    0  0.00000000000E+00  0.00000000000E+00 -0.67036373572E+03  0.12846862936E+04  0.10959157517E+04 0.  0.
        3    1    3    3  502    0  0.28699639884E+03  0.42674410593E+03 -0.55692096047E+03  0.75804909558E+03  0.10100000352E+00 0. -1.
       -3    1    3    3    0  502 -0.28699639884E+03 -0.42674410593E+03 -0.11344277525E+03  0.52663719803E+03  0.10100000352E+00 0.  1.
</event>
<event>
 5   0  0.5948818E-04  0.1102456E+04  0.7818609E-02  0.9202802E-01
       -2   -1    0    0    0  501  0.00000000000E+00  0.00000000000E+00  0.23197590910E+03  0.23197590911E+03  0.25500000920E-02 0. -1.
        2   -1    0    0  501    0  0.00000000000E+00  0.00000000000E+00 -0.13098437658E+04  0.13098437658E+04  0.25500000920E-02 0.  1.
    10030    2    1    2    0    0  0.00000000000E+00  0.00000000000E+00 -0.10778678567E+04  0.15418196749E+04  0.11024558011E+04 0.  0.
        3    1    3    3  502    0  0.14741177134E+03 -0.46158467840E+03 -0.90646201475E+03  0.10278443657E+04  0.10100000352E+00 0.  1.
       -3    1    3    3    0  502 -0.14741177134E+03  0.46158467840E+03 -0.17140584198E+03  0.51397530926E+03  0.10100000352E+00 0. -1.
</event>
<event>
 5   0  0.3657529E-04  0.1099911E+04  0.7818609E-02  0.9205279E-01
        1   -1    0    0  501    0  0.00000000000E+00  0.00000000000E+00  0.13732517044E+04  0.13732517044E+04  0.50400001928E-02 0. -1.
       -1   -1    0    0    0  501  0.00000000000E+00  0.00000000000E+00 -0.22024425440E+03  0.22024425445E+03  0.50400001928E-02 0.  1.
    10030    2    1    2    0    0  0.00000000000E+00  0.00000000000E+00  0.11530074500E+04  0.15934959589E+04  0.10999105378E+04 0.  0.
        4    1    3    3  502    0 -0.33999911646E+03  0.24841526074E+03  0.64007039488E+02  0.42592024484E+03  0.12699999809E+01 0.  1.
       -4    1    3    3    0  502  0.33999911646E+03 -0.24841526074E+03  0.10890004105E+04  0.11675757140E+04  0.12699999809E+01 0. -1.
</event>
<event>
 5   0  0.6412712E-04  0.1091785E+04  0.7818609E-02  0.9213236E-01
       -2   -1    0    0    0  501  0.00000000000E+00  0.00000000000E+00  0.39423252489E+03  0.39423252490E+03  0.25500000920E-02 0.  1.
        2   -1    0    0  501    0  0.00000000000E+00  0.00000000000E+00 -0.75589606630E+03  0.75589606630E+03  0.25500000920E-02 0. -1.
    10030    2    1    2    0    0  0.00000000000E+00  0.00000000000E+00 -0.36166354141E+03  0.11501285912E+04  0.10917853540E+04 0.  0.
        2    1    3    3  502    0 -0.32612133980E+03 -0.34012259934E+03  0.10950529450E+03  0.48376639030E+03  0.25500000920E-02 0.  1.
       -2    1    3    3    0  502  0.32612133980E+03  0.34012259934E+03 -0.47116883591E+03  0.66636220090E+03  0.25500000920E-02 0. -1.
</event>
<event>
 5   0  0.3657529E-04  0.1093256E+04  0.7818609E-02  0.9211790E-01
        1   -1    0    0  501    0  0.00000000000E+00  0.00000000000E+00  0.36237965826E+03  0.36237965830E+03  0.50400001928E-02 0. -1.
       -1   -1    0    0    0  501  0.00000000000E+00  0.00000000000E+00 -0.82455503109E+03  0.82455503111E+03  0.50400001928E-02 0.  1.
    10030    2    1    2    0    0  0.00000000000E+00  0.00000000000E+00 -0.46217537283E+03  0.11869346894E+04  0.10932556342E+04 0.  0.
        4    1    3    3  502    0 -0.17003893672E+03  0.43135508303E+03  0.83237146423E+02  0.47107375548E+03  0.12699999809E+01 0. -1.
       -4    1    3    3    0  502  0.17003893672E+03 -0.43135508303E+03 -0.54541251926E+03  0.71586093393E+03  0.12699999809E+01 0.  1.
</event>
<event>
 5   0  0.3657529E-04  0.1098593E+04  0.7818609E-02  0.9206564E-01
        1   -1    0    0  501    0  0.00000000000E+00  0.00000000000E+00  0.10284051144E+04  0.10284051144E+04  0.50400001928E-02 0. -1.
       -1   -1    0    0    0  501  0.00000000000E+00  0.00000000000E+00 -0.29339269674E+03  0.29339269678E+03  0.50400001928E-02 0.  1.
    10030    2    1    2    0    0  0.00000000000E+00  0.00000000000E+00  0.73501241763E+03  0.13217978112E+04  0.10985928270E+04 0.  0.
        4    1    3    3  502    0 -0.36344594671E+03 -0.28045545194E+03  0.46008280579E+01  0.45909802572E+03  0.12699999809E+01 0.  1.
       -4    1    3    3    0  502  0.36344594671E+03  0.28045545194E+03  0.73041158957E+03  0.86269978543E+03  0.12699999809E+01 0. -1.
</event>
<event>
 5   0  0.3642161E-04  0.1100817E+04  0.7818609E-02  0.9204396E-01
       -1   -1    0    0    0  501  0.00000000000E+00  0.00000000000E+00  0.70424737655E+03  0.70424737657E+03  0.50400001928E-02 0. -1.
        1   -1    0    0  501    0  0.00000000000E+00  0.00000000000E+00 -0.43017455957E+03  0.43017455960E+03  0.50400001928E-02 0.  1.
    10030    2    1    2    0    0  0.00000000000E+00  0.00000000000E+00  0.27407281699E+03  0.11344219362E+04  0.11008166152E+04 0.  0.
        2    1    3    3  502    0  0.54613695455E+03 -0.34685896892E+02  0.19783422407E+03  0.58189953153E+03  0.25500000920E-02 0. -1.
       -2    1    3    3    0  502 -0.54613695455E+03  0.34685896892E+02  0.76238592912E+02  0.55252240464E+03  0.25500000920E-02 0.  1.
</event>
<event>
 5   0  0.6412712E-04  0.1099621E+04  0.7818609E-02  0.9205562E-01
        2   -1    0    0  501    0  0.00000000000E+00  0.00000000000E+00  0.47054560408E+03  0.47054560409E+03  0.25500000920E-02 0. -1.
       -2   -1    0    0    0  501  0.00000000000E+00  0.00000000000E+00 -0.64242737451E+03  0.64242737452E+03  0.25500000920E-02 0.  1.
    10030    2    1    2    0    0  0.00000000000E+00  0.00000000000E+00 -0.17188177043E+03  0.11129729786E+04  0.10996206201E+04 0.  0.
        2    1    3    3  502    0 -0.21906530791E+03  0.39979889213E+03  0.22513885268E+03  0.50844494910E+03  0.25500000920E-02 0. -1.
       -2    1    3    3    0  502  0.21906530791E+03 -0.39979889213E+03 -0.39702062311E+03  0.60452802951E+03  0.25500000920E-02 0.  1.
</event>
<event>
 5   0  0.6109149E-04  0.1101048E+04  0.7818609E-02  0.9204171E-01
        2   -1    0    0  501    0  0.00000000000E+00  0.00000000000E+00  0.53495428642E+03  0.53495428643E+03  0.25500000920E-02 0.  1.
       -2   -1    0    0    0  501  0.00000000000E+00  0.00000000000E+00 -0.56654664556E+03  0.56654664556E+03  0.25500000920E-02 0. -1.
    10030    2    1    2    0    0  0.00000000000E+00  0.00000000000E+00 -0.31592359136E+02  0.11015009320E+04  0.11010477855E+04 0.  0.
        1    1    3    3  502    0 -0.42201937061E+03 -0.32555645295E+03  0.12206185188E+03  0.54679653340E+03  0.50400001928E-02 0.  1.
       -1    1    3    3    0  502  0.42201937061E+03  0.32555645295E+03 -0.15365421102E+03  0.55470439859E+03  0.50400001928E-02 0. -1.
</event>
<event>
 5   0  0.6245176E-04  0.1098629E+04  0.7818609E-02  0.9206530E-01
        2   -1    0    0  501    0  0.00000000000E+00  0.00000000000E+00  0.19706156014E+04  0.19706156014E+04  0.25500000920E-02 0.  1.
       -2   -1    0    0    0  501  0.00000000000E+00  0.00000000000E+00 -0.15312279879E+03  0.15312279881E+03  0.25500000920E-02 0. -1.
    10030    2    1    2    0    0  0.00000000000E+00  0.00000000000E+00  0.18174928026E+04  0.21237384002E+04  0.10986285564E+04 0.  0.
        5    1    3    3  502    0  0.21961570387E+03  0.26223587196E+03  0.17395787861E+04  0.17728945690E+04  0.46999998093E+01 0.  1.
       -5    1    3    3    0  502 -0.21961570387E+03 -0.26223587196E+03  0.77914016577E+02  0.35084383122E+03  0.46999998093E+01 0. -1.
</event>
<event>
 5   0  0.6109149E-04  0.1096869E+04  0.7818609E-02  0.9208249E-01
       -2   -1    0    0    0  501  0.00000000000E+00  0.00000000000E+00  0.98324907835E+03  0.98324907835E+03  0.25500000920E-02 0. -1.
        2   -1    0    0  501    0  0.00000000000E+00  0.00000000000E+00 -0.30590435525E+03  0.30590435527E+03  0.25500000920E-02 0.  1.
    10030    2    1    2    0    0  0.00000000000E+00  0.00000000000E+00  0.67734472309E+03  0.12891534336E+04  0.10968685890E+04 0.  0.
        1    1    3    3  502    0  0.20668250072E+03  0.38043381212E+03  0.73433723945E+03  0.85246625902E+03  0.50400001928E-02 0. -1.
       -1    1    3    3    0  502 -0.20668250072E+03 -0.38043381212E+03 -0.56992516353E+02  0.43668717459E+03  0.50400001928E-02 0.  1.
</event>
<event>
 5   0  0.3423758E-04  0.1099758E+04  0.7818609E-02  0.9205428E-01
       -1   -1    0    0    0  501  0.00000000000E+00  0.00000000000E+00  0.14890306434E+03  0.14890306442E+03  0.50400001928E-02 0.  1.
        1   -1    0    0  501    0  0.00000000000E+00  0.00000000000E+00 -0.20306300398E+04  0.20306300398E+04  0.50400001928E-02 0. -1.
    10030    2    1    2    0    0  0.00000000000E+00  0.00000000000E+00 -0.18817269754E+04  0.21795331042E+04  0.10997582199E+04 0.  0.
        1    1    3    3  502    0 -0.74965292881E+02 -0.29997368406E+03 -0.39701848706E+02  0.31173745858E+03  0.50400001928E-02 0.  1.
       -1    1    3    3    0  502  0.74965292881E+02  0.29997368406E+03 -0.18420251267E+04  0.18677956456E+04  0.50400001928E-02 0. -1.
</event>
<event>
 5   0  0.6245176E-04  0.1105577E+04  0.7818609E-02  0.9199773E-01
       -2   -1    0    0    0  501  0.00000000000E+00  0.00000000000E+00  0.27463897710E+03  0.27463897712E+03  0.25500000920E-02 0.  1.
        2   -1    0    0  501    0  0.00000000000E+00  0.00000000000E+00 -0.11126426789E+04  0.11126426789E+04  0.25500000920E-02 0. -1.
    10030    2    1    2    0    0  0.00000000000E+00  0.00000000000E+00 -0.83800370176E+03  0.13872816560E+04  0.11055768580E+04 0.  0.
        5    1    3    3  502    0 -0.47220607494E+03  0.20995737317E+03 -0.66518738523E+03  0.84235207795E+03  0.46999998093E+01 0. -1.
       -5    1    3    3    0  502  0.47220607494E+03 -0.20995737317E+03 -0.17281631653E+03  0.54492957803E+03  0.46999998093E+01 0.  1.
</event>
<event>
 5   0  0.2403875E-04  0.1110517E+04  0.7818609E-02  0.9195002E-01
        3   -1    0    0  501    0  0.00000000000E+00  0.00000000000E+00  0.25850420963E+03  0.25850422936E+03  0.10100000352E+00 0. -1.
       -3   -1    0    0    0  501  0.00000000000E+00  0.00000000000E+00 -0.11926760532E+04  0.11926760575E+04  0.10100000352E+00 0.  1.
    10030    2    1    2    0    0  0.00000000000E+00  0.00000000000E+00 -0.93417184355E+03  0.14511802868E+04  0.11105166327E+04 0.  0.
        2    1    3    3  502    0 -0.14482208691E+03 -0.40459071181E+03 -0.92658440799E+03  0.10213842304E+04  0.25500000920E-02 0.  1.
       -2    1    3    3    0  502  0.14482208691E+03  0.40459071181E+03 -0.75874355596E+01  0.42979605643E+03  0.25500000920E-02 0. -1.
</event>
<event>
 5   0  0.6264830E-04  0.1098631E+04  0.7818609E-02  0.9206527E-01
       -2   -1    0    0    0  501  0.00000000000E+00  0.00000000000E+00  0.51615566568E+03  0.51615566568E+03  0.25500000920E-02 0. -1.
        2   -1    0    0  501    0  0.00000000000E+00  0.00000000000E+00 -0.58460574629E+03  0.58460574630E+03  0.25500000920E-02 0.  1.
    10030    2    1    2    0    0  0.00000000000E+00  0.00000000000E+00 -0.68450080618E+02  0.11007614120E+04  0.10986310903E+04 0.  0.
        4    1    3    3  502    0 -0.52135771064E+03 -0.17272370727E+03 -0.24275339124E+02  0.54976199076E+03  0.12699999809E+01 0. -1.
       -4    1    3    3    0  502  0.52135771064E+03  0.17272370727E+03 -0.44174741494E+02  0.55099942122E+03  0.12699999809E+01 0.  1.
</event>
<event>
 5   0  0.6264830E-04  0.1099031E+04  0.7818609E-02  0.9206137E-01
       -2   -1    0    0    0  501  0.00000000000E+00  0.00000000000E+00  0.64405938902E+03  0.64405938903E+03  0.25500000920E-02 0.  1.
        2   -1    0    0  501    0  0.00000000000E+00  0.00000000000E+00 -0.46884973946E+03  0.46884973947E+03  0.25500000920E-02 0. -1.
    10030    2    1    2    0    0  0.00000000000E+00  0.00000000000E+00  0.17520964956E+03  0.11129091285E+04  0.10990306215E+04 0.  0.
        4    1    3    3  502    0 -0.16277381018E+03 -0.13800201434E+03 -0.42517460759E+03  0.47572568680E+03  0.12699999809E+01 0. -1.
       -4    1    3    3    0  502  0.16277381018E+03  0.13800201434E+03  0.60038425715E+03  0.63718344170E+03  0.12699999809E+01 0.  1.
</event>
<event>
 5   0  0.3642161E-04  0.1099726E+04  0.7818609E-02  0.9205459E-01
       -1   -1    0    0    0  501  0.00000000000E+00  0.00000000000E+00  0.53863392879E+03  0.53863392882E+03  0.50400001928E-02 0. -1.
        1   -1    0    0  501    0  0.00000000000E+00  0.00000000000E+00 -0.56132644116E+03  0.56132644119E+03  0.50400001928E-02 0.  1.
    10030    2    1    2    0    0  0.00000000000E+00  0.00000000000E+00 -0.22692512370E+02  0.10999603700E+04  0.10997262684E+04 0.  0.
        2    1    3    3  502    0  0.51802075151E+02 -0.42261597530E+03 -0.35935961187E+03  0.55715980492E+03  0.25500000920E-02 0.  1.
       -2    1    3    3    0  502 -0.51802075151E+02  0.42261597530E+03  0.33666709950E+03  0.54280056509E+03  0.25500000920E-02 0. -1.
</event>
<event>
 5   0  0.3423758E-04  0.1097130E+04  0.7818609E-02  0.9207994E-01
        1   -1    0    0  501    0  0.00000000000E+00  0.00000000000E+00  0.14439664018E+04  0.14439664018E+04  0.50400001928E-02 0. -1.
       -1   -1    0    0    0  501  0.00000000000E+00  0.00000000000E+00 -0.20840061988E+03  0.20840061994E+03  0.50400001928E-02 0.  1.
    10030    2    1    2    0    0  0.00000000000E+00  0.00000000000E+00  0.12355657819E+04  0.16523670217E+04  0.10971298798E+04 0.  0.
        1    1    3    3  502    0 -0.20028745887E+02  0.11033686787E+03 -0.19095359450E+03  0.22144672125E+03  0.50400001928E-02 0.  1.
       -1    1    3    3    0  502  0.20028745887E+02 -0.11033686787E+03  0.14265193764E+04  0.14309203005E+04  0.50400001928E-02 0. -1.
</event>
<event>
 5   0  0.3523525E-04  0.1096816E+04  0.7818609E-02  0.9208301E-01
        1   -1    0    0  501    0  0.00000000000E+00  0.00000000000E+00  0.48781677073E+03  0.48781677076E+03  0.50400001928E-02 0. -1.
       -1   -1    0    0    0  501  0.00000000000E+00  0.00000000000E+00 -0.61652472644E+03  0.61652472646E+03  0.50400001928E-02 0.  1.
    10030    2    1    2    0    0  0.00000000000E+00  0.00000000000E+00 -0.12870795571E+03  0.11043414972E+04  0.10968155746E+04 0.  0.
        5    1    3    3  502    0 -0.40652158866E+03 -0.35730238936E+03  0.24593636172E+02  0.54180414951E+03  0.46999998093E+01 0.  1.
       -5    1    3    3    0  502  0.40652158866E+03  0.35730238936E+03 -0.15330159188E+03  0.56253734770E+03  0.46999998093E+01 0. -1.
</event>
<event>
 5   0  0.6264830E-04  0.1100833E+04  0.7818609E-02  0.9204380E-01
        2   -1    0    0  501    0  0.00000000000E+00  0.00000000000E+00  0.19601701962E+03  0.19601701964E+03  0.25500000920E-02 0. -1.
       -2   -1    0    0    0  501  0.00000000000E+00  0.00000000000E+00 -0.15455720477E+04  0.15455720477E+04  0.25500000920E-02 0.  1.
    10030    2    1    2    0    0  0.00000000000E+00  0.00000000000E+00 -0.13495550281E+04  0.17415890673E+04  0.11008331870E+04 0.  0.
        4    1    3    3  502    0  0.40171072512E+03 -0.13426963727E+03 -0.11867122947E+03  0.43986852101E+03  0.12699999809E+01 0. -1.
       -4    1    3    3    0  502 -0.40171072512E+03  0.13426963727E+03 -0.12308837986E+04  0.13017205463E+04  0.12699999809E+01 0.  1.
</event>
<event>
 5   0  0.6245176E-04  0.1097516E+04  0.7818609E-02  0.9207616E-01
        2   -1    0    0  501    0  0.00000000000E+00  0.00000000000E+00  0.49895204843E+03  0.49895204844E+03  0.25500000920E-02 0. -1.
       -2   -1    0    0    0  501  0.00000000000E+00  0.00000000000E+00 -0.60353606991E+03  0.60353606991E+03  0.25500000920E-02 0.  1.
    10030    2    1    2    0    0  0.00000000000E+00  0.00000000000E+00 -0.10458402147E+03  0.11024881183E+04  0.10975163933E+04 0.  0.
        5    1    3    3  502    0 -0.23678456585E+03 -0.43189560133E+03 -0.29528182692E+03  0.57429451362E+03  0.46999998093E+01 0.  1.
       -5    1    3    3    0  502  0.23678456585E+03  0.43189560133E+03  0.19069780544E+03  0.52819360472E+03  0.46999998093E+01 0. -1.
</event>
<event>
 5   0  0.6109149E-04  0.1103192E+04  0.7818609E-02  0.9202086E-01
        2   -1    0    0  501    0  0.00000000000E+00  0.00000000000E+00  0.16617300494E+04  0.16617300494E+04  0.25500000920E-02 0. -1.
       -2   -1    0    0    0  501  0.00000000000E+00  0.00000000000E+00 -0.18309737866E+03  0.18309737868E+03  0.25500000920E-02 0.  1.
    10030    2    1    2    0    0  0.00000000000E+00  0.00000000000E+00  0.14786326708E+04  0.18448274281E+04  0.11031924875E+04 0.  0.
        1    1    3    3  502    0 -0.80933175401E+00  0.51439993297E+03  0.10723043647E+04  0.11893042489E+04  0.50400001928E-02 0.  1.
       -1    1    3    3    0  502  0.80933175401E+00 -0.51439993297E+03  0.40632830611E+03  0.65552317917E+03  0.50400001928E-02 0. -1.
</event>
<event>
 5   0  0.6109149E-04  0.1099285E+04  0.7818609E-02  0.9205889E-01
        2   -1    0    0  501    0  0.00000000000E+00  0.00000000000E+00  0.63014048231E+03  0.63014048231E+03  0.25500000920E-02 0.  1.
       -2   -1    0    0    0  501  0.00000000000E+00  0.00000000000E+00 -0.47942744092E+03  0.47942744093E+03  0.25500000920E-02 0. -1.
    10030    2    1    2    0    0  0.00000000000E+00  0.00000000000E+00  0.15071304139E+03  0.11095679232E+04  0.10992845653E+04 0.  0.
        1    1    3    3  502    0 -0.44701993085E+03 -0.62293304196E+02  0.39197766178E+03  0.59779073402E+03  0.50400001928E-02 0. -1.
       -1    1    3    3    0  502  0.44701993085E+03  0.62293304196E+02 -0.24126462039E+03  0.51177718922E+03  0.50400001928E-02 0.  1.
</event>
<event>
 5   0  0.3523525E-04  0.1101054E+04  0.7818609E-02  0.9204165E-01
       -1   -1    0    0    0  501  0.00000000000E+00  0.00000000000E+00  0.43293938757E+03  0.43293938760E+03  0.50400001928E-02 0.  1.
        1   -1    0    0  501    0  0.00000000000E+00  0.00000000000E+00 -0.70005178319E+03  0.70005178320E+03  0.50400001928E-02 0. -1.
    10030    2    1    2    0    0  0.00000000000E+00  0.00000000000E+00 -0.26711239561E+03  0.11329911708E+04  0.11010540228E+04 0.  0.
        5    1    3    3  502    0 -0.42054217690E+03  0.34999121559E+03 -0.19621857922E+03  0.58126877980E+03  0.46999998093E+01 0.  1.
       -5    1    3    3    0  502  0.42054217690E+03 -0.34999121559E+03 -0.70893816394E+02  0.55172239101E+03  0.46999998093E+01 0. -1.
</event>
<event>
 5   0  0.3523525E-04  0.1100522E+04  0.7818609E-02  0.9204683E-01
        1   -1    0    0  501    0  0.00000000000E+00  0.00000000000E+00  0.72187071289E+03  0.72187071291E+03  0.50400001928E-02 0.  1.
       -1   -1    0    0    0  501  0.00000000000E+00  0.00000000000E+00 -0.41944825257E+03  0.41944825260E+03  0.50400001928E-02 0. -1.
    10030    2    1    2    0    0  0.00000000000E+00  0.00000000000E+00  0.30242246033E+03  0.11413189655E+04  0.11005224380E+04 0.  0.
        5    1    3    3  502    0 -0.16135210652E+03 -0.40651471336E+03 -0.19504691542E+03  0.47890928543E+03  0.46999998093E+01 0. -1.
       -5    1    3    3    0  502  0.16135210652E+03  0.40651471336E+03  0.49746937574E+03  0.66240968008E+03  0.46999998093E+01 0.  1.
</event>
<event>
 5   0  0.6264830E-04  0.1097094E+04  0.7818609E-02  0.9208029E-01
        2   -1    0    0  501    0  0.00000000000E+00  0.00000000000E+00  0.13162184414E+04  0.13162184414E+04  0.25500000920E-02 0. -1.
       -2   -1    0    0    0  501  0.00000000000E+00  0.00000000000E+00 -0.22861216448E+03  0.22861216450E+03  0.25500000920E-02 0.  1.
    10030    2    1    2    0    0  0.00000000000E+00  0.00000000000E+00  0.10876062769E+04  0.15448306059E+04  0.10970935180E+04 0.  0.
        4    1    3    3  502    0  0.52143956147E+03  0.11951758720E+03  0.71463367714E+03  0.89268503702E+03  0.12699999809E+01 0.  1.
       -4    1    3    3    0  502 -0.52143956147E+03 -0.11951758720E+03  0.37297259975E+03  0.65214556886E+03  0.12699999809E+01 0. -1.
</event>
<event>
 5   0  0.3657529E-04  0.1097623E+04  0.7818609E-02  0.9207512E-01
       -1   -1    0    0    0  501  0.00000000000E+00  0.00000000000E+00  0.52825065918E+03  0.52825065921E+03  0.50400001928E-02 0.  1.
        1   -1    0    0  501    0  0.00000000000E+00  0.00000000000E+00 -0.57017216147E+03  0.57017216149E+03  0.50400001928E-02 0. -1.
    10030    2    1    2    0    0  0.00000000000E+00  0.00000000000E+00 -0.41921502290E+02  0.10984228207E+04  0.10976225584E+04 0.  0.
        4    1    3    3  502    0 -0.30766920093E+03 -0.36586717273E+03  0.24881524966E+03  0.53891536130E+03  0.12699999809E+01 0.  1.
       -4    1    3    3    0  502  0.30766920093E+03  0.36586717273E+03 -0.29073675195E+03  0.55950745940E+03  0.12699999809E+01 0. -1.
</event>
<event>
 5   0  0.6264830E-04  0.1101838E+04  0.7818609E-02  0.9203402E-01
       -2   -1    0    0    0  501  0.00000000000E+00  0.00000000000E+00  0.74212419971E+03  0.74212419972E+03  0.25500000920E-02 0.  1.
        2   -1    0    0  501    0  0.00000000000E+00  0.00000000000E+00 -0.40897695261E+03  0.40897695262E+03  0.25500000920E-02 0. -1.
    10030    2    1    2    0    0  0.00000000000E+00  0.00000000000E+00  0.33314724710E+03  0.11511011523E+04  0.11018379076E+04 0.  0.
        4    1    3    3  502    0 -0.27796994001E+03 -0.47005003542E+03  0.90548029782E+02  0.55354754262E+03  0.12699999809E+01 0. -1.
       -4    1    3    3    0  502  0.27796994001E+03  0.47005003542E+03  0.24259921732E+03  0.59755360972E+03  0.12699999809E+01 0.  1.
</event>
<event>
 5   0  0.3621403E-04  0.1100416E+04  0.7818609E-02  0.9204786E-01
        1   -1    0    0  501    0  0.00000000000E+00  0.00000000000E+00  0.71678347649E+03  0.71678347651E+03  0.50400001928E-02 0. -1.
       -1   -1    0    0    0  501  0.00000000000E+00  0.00000000000E+00 -0.42234383735E+03  0.42234383738E+03  0.50400001928E-02 0.  1.
    10030    2    1    2    0    0  0.00000000000E+00  0.00000000000E+00  0.29443963915E+03  0.11391273139E+04  0.11004164376E+04 0.  0.
        3    1    3    3  502    0 -0.24225577207E+03 -0.21149672254E+03  0.60936680390E+03  0.68901860253E+03  0.10100000352E+00 0. -1.
       -3    1    3    3    0  502  0.24225577207E+03  0.21149672254E+03 -0.31492716475E+03  0.45010871136E+03  0.10100000352E+00 0.  1.
</event>
<event>
 5   0  0.3657529E-04  0.1099592E+04  0.7818609E-02  0.9205590E-01
        1   -1    0    0  501    0  0.00000000000E+00  0.00000000000E+00  0.11356030552E+04  0.11356030552E+04  0.50400001928E-02 0.  1.
       -1   -1    0    0    0  501  0.00000000000E+00  0.00000000000E+00 -0.26618048612E+03  0.26618048616E+03  0.50400001928E-02 0. -1.
    10030    2    1    2    0    0  0.00000000000E+00  0.00000000000E+00  0.86942256911E+03  0.14017835414E+04  0.10995915120E+04 0.  0.
        4    1    3    3  502    0  0.35216492094E+03 -0.37754135647E+03  0.19378625809E+03  0.55146381033E+03  0.12699999809E+01 0. -1.
       -4    1    3    3    0  502 -0.35216492094E+03  0.37754135647E+03  0.67563631102E+03  0.85031973107E+03  0.12699999809E+01 0.  1.
</event>
<event>
 5   0  0.3642161E-04  0.1099143E+04  0.7818609E-02  0.9206027E-01
        1   -1    0    0  501    0  0.00000000000E+00  0.00000000000E+00  0.80027587977E+03  0.80027587979E+03  0.50400001928E-02 0.  1.
       -1   -1    0    0    0  501  0.00000000000E+00  0.00000000000E+00 -0.37740602237E+03  0.37740602241E+03  0.50400001928E-02 0. -1.
    10030    2    1    2    0    0  0.00000000000E+00  0.00000000000E+00  0.42286985739E+03  0.11776819022E+04  0.10991431874E+04 0.  0.
        2    1    3    3  502    0  0.37194810683E+03  0.11098180081E+03  0.62829349574E+03  0.73852222112E+03  0.25500000920E-02 0.  1.
       -2    1    3    3    0  502 -0.37194810683E+03 -0.11098180081E+03 -0.20542363835E+03  0.43915968108E+03  0.25500000920E-02 0. -1.
</event>
<event>
 5   0  0.6109149E-04  0.1104094E+04  0.7818609E-02  0.9201210E-01
        2   -1    0    0  501    0  0.00000000000E+00  0.00000000000E+00  0.12831135292E+04  0.12831135292E+04  0.25500000920E-02 0. -1.
       -2   -1    0    0    0  501  0.00000000000E+00  0.00000000000E+00 -0.23751295096E+03  0.23751295097E+03  0.25500000920E-02 0.  1.
    10030    2    1    2    0    0  0.00000000000E+00  0.00000000000E+00  0.10456005783E+04  0.15206264802E+04  0.11040943452E+04 0.  0.
        1    1    3    3  502    0  0.53114176435E+03  0.13078576740E+03  0.42029289997E+03  0.68982795869E+03  0.50400001928E-02 0. -1.
       -1    1    3    3    0  502 -0.53114176435E+03 -0.13078576740E+03  0.62530767830E+03  0.83079852152E+03  0.50400001928E-02 0.  1.
</event>
<event>
 5   0  0.3423758E-04  0.1098049E+04  0.7818609E-02  0.9207095E-01
       -1   -1    0    0    0  501  0.00000000000E+00  0.00000000000E+00  0.53962846113E+03  0.53962846115E+03  0.50400001928E-02 0. -1.
        1   -1    0    0  501    0  0.00000000000E+00  0.00000000000E+00 -0.55858439626E+03  0.55858439628E+03  0.50400001928E-02 0.  1.
    10030    2    1    2    0    0  0.00000000000E+00  0.00000000000E+00 -0.18955935131E+02  0.10982128574E+04  0.10980492488E+04 0.  0.
        1    1    3    3  502    0 -0.51786344336E+03  0.15461720222E+03 -0.10613093540E+03  0.55077472769E+03  0.50400001928E-02 0.  1.
       -1    1    3    3    0  502  0.51786344336E+03 -0.15461720222E+03  0.87175000273E+02  0.54743812974E+03  0.50400001928E-02 0. -1.
</event>
<event>
 5   0  0.6109149E-04  0.1099255E+04  0.7818609E-02  0.9205919E-01
       -2   -1    0    0    0  501  0.00000000000E+00  0.00000000000E+00  0.13366976354E+03  0.13366976356E+03  0.25500000920E-02 0. -1.
        2   -1    0    0  501    0  0.00000000000E+00  0.00000000000E+00 -0.22599742214E+04  0.22599742214E+04  0.25500000920E-02 0.  1.
    10030    2    1    2    0    0  0.00000000000E+00  0.00000000000E+00 -0.21263044579E+04  0.23936439850E+04  0.10992546926E+04 0.  0.
        1    1    3    3  502    0  0.33568059979E+03 -0.37877863115E+03 -0.59645473590E+03  0.78224866155E+03  0.50400001928E-02 0. -1.
       -1    1    3    3    0  502 -0.33568059979E+03  0.37877863115E+03 -0.15298497220E+04  0.16113953234E+04  0.50400001928E-02 0.  1.
</event>
<event>
 5   0  0.6412712E-04  0.1102328E+04  0.7818609E-02  0.9202925E-01
       -2   -1    0    0    0  501  0.00000000000E+00  0.00000000000E+00  0.67862335855E+03  0.67862335856E+03  0.25500000920E-02 0. -1.
        2   -1    0    0  501    0  0.00000000000E+00  0.00000000000E+00 -0.44764441001E+03  0.44764441002E+03  0.25500000920E-02 0.  1.
    10030    2    1    2    0    0  0.00000000000E+00  0.00000000000E+00  0.23097894854E+03  0.11262677686E+04  0.11023283594E+04 0.  0.
        2    1    3    3  502    0 -0.14312645085E+03 -0.33799958584E+03  0.53557931898E+03  0.64928738467E+03  0.25500000920E-02 0. -1.
       -2    1    3    3    0  502  0.14312645085E+03  0.33799958584E+03 -0.30460037044E+03  0.47698038391E+03  0.25500000920E-02 0.  1.
</event>
<event>
 5   0  0.6264830E-04  0.1102928E+04  0.7818609E-02  0.9202343E-01
       -2   -1    0    0    0  501  0.00000000000E+00  0.00000000000E+00  0.20903640231E+03  0.20903640233E+03  0.25500000920E-02 0. -1.
        2   -1    0    0  501    0  0.00000000000E+00  0.00000000000E+00 -0.14548304270E+04  0.14548304270E+04  0.25500000920E-02 0.  1.
    10030    2    1    2    0    0  0.00000000000E+00  0.00000000000E+00 -0.12457940247E+04  0.16638668293E+04  0.11029279549E+04 0.  0.
        4    1    3    3  502    0  0.43357784013E+03 -0.10849413676E+03 -0.11102212697E+04  0.11968097601E+04  0.12699999809E+01 0.  1.
       -4    1    3    3    0  502 -0.43357784013E+03  0.10849413676E+03 -0.13557275499E+03  0.46705706928E+03  0.12699999809E+01 0. -1.
</event>
<event>
 5   0  0.3642161E-04  0.1101652E+04  0.7818609E-02  0.9203583E-01
       -1   -1    0    0    0  501  0.00000000000E+00  0.00000000000E+00  0.31694923190E+03  0.31694923194E+03  0.50400001928E-02 0. -1.
        1   -1    0    0  501    0  0.00000000000E+00  0.00000000000E+00 -0.95728098006E+03  0.95728098007E+03  0.50400001928E-02 0.  1.
    10030    2    1    2    0    0  0.00000000000E+00  0.00000000000E+00 -0.64033174816E+03  0.12742302120E+04  0.11016523433E+04 0.  0.
        2    1    3    3  502    0 -0.27182653634E+03 -0.28426702736E+03  0.12587682396E+03  0.41296777541E+03  0.25500000920E-02 0. -1.
       -2    1    3    3    0  502  0.27182653634E+03  0.28426702736E+03 -0.76620857212E+03  0.86126243660E+03  0.25500000920E-02 0.  1.
</event>
<event>
 5   0  0.3423758E-04  0.1099848E+04  0.7818609E-02  0.9205340E-01
        1   -1    0    0  501    0  0.00000000000E+00  0.00000000000E+00  0.11537050652E+04  0.11537050652E+04  0.50400001928E-02 0.  1.
       -1   -1    0    0    0  501  0.00000000000E+00  0.00000000000E+00 -0.26212644409E+03  0.26212644414E+03  0.50400001928E-02 0. -1.
    10030    2    1    2    0    0  0.00000000000E+00  0.00000000000E+00  0.89157862111E+03  0.14158315093E+04  0.10998483647E+04 0.  0.
        1    1    3    3  502    0  0.76749646211E+00 -0.32567504995E+03  0.10162111966E+04  0.10671223094E+04  0.50400001928E-02 0.  1.
       -1    1    3    3    0  502 -0.76749646211E+00  0.32567504995E+03 -0.12463257547E+03  0.34870919992E+03  0.50400001928E-02 0. -1.
</event>
<event>
 5   0  0.6264830E-04  0.1099410E+04  0.7818609E-02  0.9205767E-01
        2   -1    0    0  501    0  0.00000000000E+00  0.00000000000E+00  0.75811222078E+03  0.75811222079E+03  0.25500000920E-02 0.  1.
       -2   -1    0    0    0  501  0.00000000000E+00  0.00000000000E+00 -0.39858951011E+03  0.39858951012E+03  0.25500000920E-02 0. -1.
    10030    2    1    2    0    0  0.00000000000E+00  0.00000000000E+00  0.35952271067E+03  0.11567017309E+04  0.10994099849E+04 0.  0.
        4    1    3    3  502    0  0.12477397704E+03  0.47101130899E+03 -0.87966912722E+02  0.49513633393E+03  0.12699999809E+01 0. -1.
       -4    1    3    3    0  502 -0.12477397704E+03 -0.47101130899E+03  0.44748962339E+03  0.66156539698E+03  0.12699999809E+01 0.  1.
</event>
<event>
 5   0  0.6245176E-04  0.1100146E+04  0.7818609E-02  0.9205050E-01
       -2   -1    0    0    0  501  0.00000000000E+00  0.00000000000E+00  0.53871764560E+03  0.53871764560E+03  0.25500000920E-02 0. -1.
        2   -1    0    0  501    0  0.00000000000E+00  0.00000000000E+00 -0.56166736369E+03  0.56166736369E+03  0.25500000920E-02 0.  1.
    10030    2    1    2    0    0  0.00000000000E+00  0.00000000000E+00 -0.22949718091E+02  0.11003850093E+04  0.11001456627E+04 0.  0.
        5    1    3    3  502    0 -0.34840680645E+03 -0.37595366719E+02 -0.43554506498E+03  0.55903694691E+03  0.46999998093E+01 0.  1.
       -5    1    3    3    0  502  0.34840680645E+03  0.37595366719E+02  0.41259534689E+03  0.54134806239E+03  0.46999998093E+01 0. -1.
</event>
<event>
 5   0  0.3642161E-04  0.1101283E+04  0.7818609E-02  0.9203942E-01
        1   -1    0    0  501    0  0.00000000000E+00  0.00000000000E+00  0.50313533962E+03  0.50313533964E+03  0.50400001928E-02 0. -1.
       -1   -1    0    0    0  501  0.00000000000E+00  0.00000000000E+00 -0.60263364119E+03  0.60263364121E+03  0.50400001928E-02 0.  1.
    10030    2    1    2    0    0  0.00000000000E+00  0.00000000000E+00 -0.99498301569E+02  0.11057689809E+04  0.11012833999E+04 0.  0.
        2    1    3    3  502    0  0.13422045793E+03 -0.37827714198E+03 -0.42824281275E+03  0.58694176385E+03  0.25500000920E-02 0.  1.
       -2    1    3    3    0  502 -0.13422045793E+03  0.37827714198E+03  0.32874451118E+03  0.51882721701E+03  0.25500000920E-02 0. -1.
</event>
<event>
 5   0  0.2403875E-04  0.1107257E+04  0.7818609E-02  0.9198147E-01
       -3   -1    0    0    0  501  0.00000000000E+00  0.00000000000E+00  0.62902805491E+03  0.62902806302E+03  0.10100000352E+00 0. -1.
        3   -1    0    0  501    0  0.00000000000E+00  0.00000000000E+00 -0.48726692519E+03  0.48726693566E+03  0.10100000352E+00 0.  1.
    10030    2    1    2    0    0  0.00000000000E+00  0.00000000000E+00  0.14176112972E+03  0.11162949987E+04  0.11072571093E+04 0.  0.
        4    1    3    3  502    0  0.35085442321E+03  0.40065587126E+03 -0.81612157376E+02  0.53878206224E+03  0.12699999809E+01 0.  1.
       -4    1    3    3    0  502 -0.35085442321E+03 -0.40065587126E+03  0.22337328709E+03  0.57751293643E+03  0.12699999809E+01 0. -1.
</event>
<event>
 5   0  0.3621403E-04  0.1099738E+04  0.7818609E-02  0.9205447E-01
       -1   -1    0    0    0  501  0.00000000000E+00  0.00000000000E+00  0.44097013861E+03  0.44097013864E+03  0.50400001928E-02 0.  1.
        1   -1    0    0  501    0  0.00000000000E+00  0.00000000000E+00 -0.68566075793E+03  0.68566075795E+03  0.50400001928E-02 0. -1.
    10030    2    1    2    0    0  0.00000000000E+00  0.00000000000E+00 -0.24469061932E+03  0.11266308966E+04  0.10997380042E+04 0.  0.
        3    1    3    3  502    0 -0.56636993706E+02 -0.34746962735E+03  0.31037342040E+03  0.46933416803E+03  0.10100000352E+00 0.  1.
       -3    1    3    3    0  502  0.56636993706E+02  0.34746962735E+03 -0.55506403972E+03  0.65729672856E+03  0.10100000352E+00 0. -1.
</event>
<event>
 5   0  0.6412712E-04  0.1097644E+04  0.7818609E-02  0.9207492E-01
       -2   -1    0    0    0  501  0.00000000000E+00  0.00000000000E+00  0.38234523912E+03  0.38234523913E+03  0.25500000920E-02 0.  1.
        2   -1    0    0  501    0  0.00000000000E+00  0.00000000000E+00 -0.78778371834E+03  0.78778371834E+03  0.25500000920E-02 0. -1.
    10030    2    1    2    0    0  0.00000000000E+00  0.00000000000E+00 -0.40543847922E+03  0.11701289575E+04  0.10976435745E+04 0.  0.
        2    1    3    3  502    0 -0.26623114461E+03  0.40328314047E+03 -0.48007140847E+03  0.68116434946E+03  0.25500000920E-02 0. -1.
       -2    1    3    3    0  502  0.26623114461E+03 -0.40328314047E+03  0.74632929255E+02  0.48896460800E+03  0.25500000920E-02 0.  1.
</event>
<event>
 5   0  0.6264830E-04  0.1100524E+04  0.7818609E-02  0.9204681E-01
        2   -1    0    0  501    0  0.00000000000E+00  0.00000000000E+00  0.11222988517E+04  0.11222988517E+04  0.25500000920E-02 0.  1.
       -2   -1    0    0    0  501  0.00000000000E+00  0.00000000000E+00 -0.26979314208E+03  0.26979314210E+03  0.25500000920E-02 0. -1.
    10030    2    1    2    0    0  0.00000000000E+00  0.00000000000E+00  0.85250570964E+03  0.13920919938E+04  0.11005244815E+04 0.  0.
        4    1    3    3  502    0 -0.40049499785E+03  0.31933475435E+03  0.68055197022E+03  0.85177668770E+03  0.12699999809E+01 0.  1.
       -4    1    3    3    0  502  0.40049499785E+03 -0.31933475435E+03  0.17195373942E+03  0.54031530613E+03  0.12699999809E+01 0. -1.
</event>
<event>
 5   0  0.3423758E-04  0.1099925E+04  0.7818609E-02  0.9205265E-01
        1   -1    0    0  501    0  0.00000000000E+00  0.00000000000E+00  0.87805645951E+03  0.87805645953E+03  0.50400001928E-02 0. -1.
       -1   -1    0    0    0  501  0.00000000000E+00  0.00000000000E+00 -0.34446392988E+03  0.34446392992E+03  0.50400001928E-02 0.  1.
    10030    2    1    2    0    0  0.00000000000E+00  0.00000000000E+00  0.53359252963E+03  0.12225203894E+04  0.10999250497E+04 0.  0.
        1    1    3    3  502    0 -0.63210477671E+02  0.45138437792E+02 -0.33833692237E+03  0.34713818015E+03  0.50400001928E-02 0.  1.
       -1    1    3    3    0  502  0.63210477671E+02 -0.45138437792E+02  0.87192945200E+03  0.87538220930E+03  0.50400001928E-02 0. -1.
</event>
<event>
 5   0  0.3423758E-04  0.1108607E+04  0.7818609E-02  0.9196843E-01
        1   -1    0    0  501    0  0.00000000000E+00  0.00000000000E+00  0.13916578651E+04  0.13916578651E+04  0.50400001928E-02 0.  1.
       -1   -1    0    0    0  501  0.00000000000E+00  0.00000000000E+00 -0.22078155791E+03  0.22078155796E+03  0.50400001928E-02 0. -1.
    10030    2    1    2    0    0  0.00000000000E+00  0.00000000000E+00  0.11708763072E+04  0.16124394231E+04  0.11086070387E+04 0.  0.
        1    1    3    3  502    0  0.45087937843E+03  0.30691415999E+03  0.72915805324E+03  0.91058222151E+03  0.50400001928E-02 0. -1.
       -1    1    3    3    0  502 -0.45087937843E+03 -0.30691415999E+03  0.44171825397E+03  0.70185720158E+03  0.50400001928E-02 0.  1.
</event>
<event>
 5   0  0.5948818E-04  0.1101419E+04  0.7818609E-02  0.9203810E-01
        2   -1    0    0  501    0  0.00000000000E+00  0.00000000000E+00  0.72673518632E+03  0.72673518632E+03  0.25500000920E-02 0.  1.
       -2   -1    0    0    0  501  0.00000000000E+00  0.00000000000E+00 -0.41731965805E+03  0.41731965806E+03  0.25500000920E-02 0. -1.
    10030    2    1    2    0    0  0.00000000000E+00  0.00000000000E+00  0.30941552827E+03  0.11440548444E+04  0.11014188657E+04 0.  0.
        3    1    3    3  502    0  0.12473055325E+03  0.50563264190E+03  0.34068847153E+03  0.62232686291E+03  0.10100000352E+00 0.  1.
       -3    1    3    3    0  502 -0.12473055325E+03 -0.50563264190E+03 -0.31272943263E+02  0.52172798147E+03  0.10100000352E+00 0. -1.
</event>
<event>
 5   0  0.3657529E-04  0.1100648E+04  0.7818609E-02  0.9204561E-01
        1   -1    0    0  501    0  0.00000000000E+00  0.00000000000E+00  0.17976369394E+04  0.17976369394E+04  0.50400001928E-02 0.  1.
       -1   -1    0    0    0  501  0.00000000000E+00  0.00000000000E+00 -0.16847469756E+03  0.16847469764E+03  0.50400001928E-02 0. -1.
    10030    2    1    2    0    0  0.00000000000E+00  0.00000000000E+00  0.16291622418E+04  0.19661116370E+04  0.11006476998E+04 0.  0.
        4    1    3    3  502    0 -0.34735876531E+03  0.32465784596E+03  0.31956060330E+03  0.57287120792E+03  0.12699999809E+01 0. -1.
       -4    1    3    3    0  502  0.34735876531E+03 -0.32465784596E+03  0.13096016385E+04  0.13932404291E+04  0.12699999809E+01 0.  1.
</event>
<event>
 5   0  0.3423758E-04  0.1100337E+04  0.7818609E-02  0.9204863E-01
        1   -1    0    0  501    0  0.00000000000E+00  0.00000000000E+00  0.20622291010E+03  0.20622291017E+03  0.50400001928E-02 0.  1.
       -1   -1    0    0    0  501  0.00000000000E+00  0.00000000000E+00 -0.14677592607E+04  0.14677592607E+04  0.50400001928E-02 0. -1.
    10030    2    1    2    0    0  0.00000000000E+00  0.00000000000E+00 -0.12615363506E+04  0.16739821709E+04  0.11003373776E+04 0.  0.
        1    1    3    3  502    0 -0.44710125795E+03 -0.25591808726E+03 -0.33698108627E+03  0.61558903075E+03  0.50400001928E-02 0.  1.
       -1    1    3    3    0  502  0.44710125795E+03  0.25591808726E+03 -0.92455526435E+03  0.10583931402E+04  0.50400001928E-02 0. -1.
</event>
<event>
 5   0  0.2403875E-04  0.1099857E+04  0.7818609E-02  0.9205331E-01
       -3   -1    0    0    0  501  0.00000000000E+00  0.00000000000E+00  0.46749170376E+03  0.46749171467E+03  0.10100000352E+00 0.  1.
        3   -1    0    0  501    0  0.00000000000E+00  0.00000000000E+00 -0.64690207977E+03  0.64690208765E+03  0.10100000352E+00 0. -1.
    10030    2    1    2    0    0  0.00000000000E+00  0.00000000000E+00 -0.17941037600E+03  0.11143938023E+04  0.10998570196E+04 0.  0.
        1    1    3    3  502    0  0.18872314166E+02 -0.51626970826E+03  0.10128228783E+03  0.52644912172E+03  0.50400001928E-02 0.  1.
       -1    1    3    3    0  502 -0.18872314166E+02  0.51626970826E+03 -0.28069266383E+03  0.58794468061E+03  0.50400001928E-02 0. -1.
</event>
<event>
 5   0  0.3423758E-04  0.1100594E+04  0.7818609E-02  0.9204613E-01
        1   -1    0    0  501    0  0.00000000000E+00  0.00000000000E+00  0.94782519404E+03  0.94782519406E+03  0.50400001928E-02 0. -1.
       -1   -1    0    0    0  501  0.00000000000E+00  0.00000000000E+00 -0.31949654915E+03  0.31949654919E+03  0.50400001928E-02 0.  1.
    10030    2    1    2    0    0  0.00000000000E+00  0.00000000000E+00  0.62832864489E+03  0.12673217432E+04  0.11005941645E+04 0.  0.
        1    1    3    3  502    0 -0.30853334084E+03  0.14897171986E+03  0.81002894664E+03  0.87950684486E+03  0.50400001928E-02 0. -1.
       -1    1    3    3    0  502  0.30853334084E+03 -0.14897171986E+03 -0.18170030175E+03  0.38781489838E+03  0.50400001928E-02 0.  1.
</event>
<event>
 5   0  0.3621403E-04  0.1101583E+04  0.7818609E-02  0.9203650E-01
        1   -1    0    0  501    0  0.00000000000E+00  0.00000000000E+00  0.11480485443E+04  0.11480485443E+04  0.50400001928E-02 0. -1.
       -1   -1    0    0    0  501  0.00000000000E+00  0.00000000000E+00 -0.26424963040E+03  0.26424963045E+03  0.50400001928E-02 0.  1.
    10030    2    1    2    0    0  0.00000000000E+00  0.00000000000E+00  0.88379891391E+03  0.14122981748E+04  0.11015832307E+04 0.  0.
        3    1    3    3  502    0  0.15804848414E+03  0.37344689368E+03 -0.35966726842E+02  0.40710627775E+03  0.10100000352E+00 0.  1.
       -3    1    3    3    0  502 -0.15804848414E+03 -0.37344689368E+03  0.91976564075E+03  0.10051918970E+04  0.10100000352E+00 0. -1.
</event>
<event>
 5   0  0.6245176E-04  0.1100364E+04  0.7818609E-02  0.9204837E-01
        2   -1    0    0  501    0  0.00000000000E+00  0.00000000000E+00  0.16516342428E+04  0.16516342428E+04  0.25500000920E-02 0.  1.
       -2   -1    0    0    0  501  0.00000000000E+00  0.00000000000E+00 -0.18327315564E+03  0.18327315566E+03  0.25500000920E-02 0. -1.
    10030    2    1    2    0    0  0.00000000000E+00  0.00000000000E+00  0.14683610871E+04  0.18349073984E+04  0.11003639755E+04 0.  0.
        5    1    3    3  502    0 -0.72649635325E+02  0.31593930218E+03  0.14754089342E+04  0.15106122021E+04  0.46999998093E+01 0.  1.
       -5    1    3    3    0  502  0.72649635325E+02 -0.31593930218E+03 -0.70478470724E+01  0.32429519627E+03  0.46999998093E+01 0. -1.
</event>
<event>
 5   0  0.3657529E-04  0.1101164E+04  0.7818609E-02  0.9204058E-01
        1   -1    0    0  501    0  0.00000000000E+00  0.00000000000E+00  0.28770776026E+03  0.28770776030E+03  0.50400001928E-02 0. -1.
       -1   -1    0    0    0  501  0.00000000000E+00  0.00000000000E+00 -0.10536407558E+04  0.10536407558E+04  0.50400001928E-02 0.  1.
    10030    2    1    2    0    0  0.00000000000E+00  0.00000000000E+00 -0.76593299555E+03  0.13413485161E+04  0.11011641513E+04 0.  0.
        4    1    3    3  502    0  0.22433630197E+03  0.40553407104E+03 -0.20887331343E+02  0.46392084742E+03  0.12699999809E+01 0. -1.
       -4    1    3    3    0  502 -0.22433630197E+03 -0.40553407104E+03 -0.74504566421E+03  0.87742766871E+03  0.12699999809E+01 0.  1.
</event>
<event>
 5   0  0.3423758E-04  0.1098035E+04  0.7818609E-02  0.9207109E-01
       -1   -1    0    0    0  501  0.00000000000E+00  0.00000000000E+00  0.10238268694E+04  0.10238268695E+04  0.50400001928E-02 0.  1.
        1   -1    0    0  501    0  0.00000000000E+00  0.00000000000E+00 -0.29440554982E+03  0.29440554986E+03  0.50400001928E-02 0. -1.
    10030    2    1    2    0    0  0.00000000000E+00  0.00000000000E+00  0.72942131963E+03  0.13182324193E+04  0.10980351770E+04 0.  0.
        1    1    3    3  502    0 -0.14056031645E+03 -0.52034457776E+03  0.23934424477E+03  0.58974685221E+03  0.50400001928E-02 0. -1.
       -1    1    3    3    0  502  0.14056031645E+03  0.52034457776E+03  0.49007707485E+03  0.72848556711E+03  0.50400001928E-02 0.  1.
</event>
<event>
 5   0  0.3423758E-04  0.1101814E+04  0.7818609E-02  0.9203425E-01
       -1   -1    0    0    0  501  0.00000000000E+00  0.00000000000E+00  0.30027616053E+03  0.30027616058E+03  0.50400001928E-02 0. -1.
        1   -1    0    0  501    0  0.00000000000E+00  0.00000000000E+00 -0.10107321484E+04  0.10107321484E+04  0.50400001928E-02 0.  1.
    10030    2    1    2    0    0  0.00000000000E+00  0.00000000000E+00 -0.71045598783E+03  0.13110083089E+04  0.11018144469E+04 0.  0.
        1    1    3    3  502    0 -0.47906737720E+03  0.23900209369E+03 -0.50977840929E+03  0.73925745129E+03  0.50400001928E-02 0.  1.
       -1    1    3    3    0  502  0.47906737720E+03 -0.23900209369E+03 -0.20067757853E+03  0.57175085766E+03  0.50400001928E-02 0. -1.
</event>
<event>
 5   0  0.6245176E-04  0.1101291E+04  0.7818609E-02  0.9203934E-01
        2   -1    0    0  501    0  0.00000000000E+00  0.00000000000E+00  0.40115501454E+03  0.40115501455E+03  0.25500000920E-02 0. -1.
       -2   -1    0    0    0  501  0.00000000000E+00  0.00000000000E+00 -0.75584363444E+03  0.75584363445E+03  0.25500000920E-02 0.  1.
    10030    2    1    2    0    0  0.00000000000E+00  0.00000000000E+00 -0.35468861990E+03  0.11569986490E+04  0.11012909955E+04 0.  0.
        5    1    3    3  502    0 -0.89974640449E+01  0.49208284732E+03 -0.43673834160E+03  0.65801896022E+03  0.46999998093E+01 0.  1.
       -5    1    3    3    0  502  0.89974640449E+01 -0.49208284732E+03  0.82049721696E+02  0.49897968878E+03  0.46999998093E+01 0. -1.
</event>
<event>
 5   0  0.6264830E-04  0.1099524E+04  0.7818609E-02  0.9205656E-01
       -2   -1    0    0    0  501  0.00000000000E+00  0.00000000000E+00  0.44470808160E+03  0.44470808161E+03  0.25500000920E-02 0. -1.
        2   -1    0    0  501    0  0.00000000000E+00  0.00000000000E+00 -0.67963309496E+03  0.67963309497E+03  0.25500000920E-02 0.  1.
    10030    2    1    2    0    0  0.00000000000E+00  0.00000000000E+00 -0.23492501336E+03  0.11243411766E+04  0.10995241332E+04 0.  0.
        4    1    3    3  502    0 -0.24850846373E+03 -0.46397355473E+03 -0.27981891842E+03  0.59609408321E+03  0.12699999809E+01 0.  1.
       -4    1    3    3    0  502  0.24850846373E+03  0.46397355473E+03  0.44893905059E+02  0.52824709336E+03  0.12699999809E+01 0. -1.
</event>
<event>
 5   0  0.3523525E-04  0.1100585E+04  0.7818609E-02  0.9204622E-01
       -1   -1    0    0    0  501  0.00000000000E+00  0.00000000000E+00  0.68521009914E+03  0.68521009916E+03  0.50400001928E-02 0. -1.
        1   -1    0    0  501    0  0.00000000000E+00  0.00000000000E+00 -0.44193992679E+03  0.44193992682E+03  0.50400001928E-02 0.  1.
    10030    2    1    2    0    0  0.00000000000E+00  0.00000000000E+00  0.24327017235E+03  0.11271500260E+04  0.11005847556E+04 0.  0.
        5    1    3    3  502    0  0.50701031947E+03 -0.15907445909E+03 -0.24768083180E+02  0.53197715696E+03  0.46999998093E+01 0.  1.
       -5    1    3    3    0  502 -0.50701031947E+03  0.15907445909E+03  0.26803825553E+03  0.59517286901E+03  0.46999998093E+01 0. -1.
</event>
<event>
 5   0  0.6264830E-04  0.1100225E+04  0.7818609E-02  0.9204973E-01
       -2   -1    0    0    0  501  0.00000000000E+00  0.00000000000E+00  0.12566654313E+03  0.12566654315E+03  0.25500000920E-02 0.  1.
        2   -1    0    0  501    0  0.00000000000E+00  0.00000000000E+00 -0.24081486694E+04  0.24081486694E+04  0.25500000920E-02 0. -1.
    10030    2    1    2    0    0  0.00000000000E+00  0.00000000000E+00 -0.22824821263E+04  0.25338152126E+04  0.11002249200E+04 0.  0.
        4    1    3    3  502    0 -0.38317781873E+03 -0.39074302000E+03 -0.12698126354E+04  0.13827259636E+04  0.12699999809E+01 0. -1.
       -4    1    3    3    0  502  0.38317781873E+03  0.39074302000E+03 -0.10126694909E+04  0.11510892490E+04  0.12699999809E+01 0.  1.
</event>
<event>
 5   0  0.3621403E-04  0.1102541E+04  0.7818609E-02  0.9202719E-01
        1   -1    0    0  501    0  0.00000000000E+00  0.00000000000E+00  0.85188698559E+03  0.85188698561E+03  0.50400001928E-02 0. -1.
       -1   -1    0    0    0  501  0.00000000000E+00  0.00000000000E+00 -0.35673617175E+03  0.35673617179E+03  0.50400001928E-02 0.  1.
    10030    2    1    2    0    0  0.00000000000E+00  0.00000000000E+00  0.49515081384E+03  0.12086231574E+04  0.11025405245E+04 0.  0.
        3    1    3    3  502    0  0.49803736969E+03 -0.93070340705E+02  0.48572345297E+03  0.70187647979E+03  0.10100000352E+00 0. -1.
       -3    1    3    3    0  502 -0.49803736969E+03  0.93070340705E+02  0.94273608733E+01  0.50674667760E+03  0.10100000352E+00 0.  1.
</event>
<event>
 5   0  0.6412712E-04  0.1101839E+04  0.7818609E-02  0.9203402E-01
       -2   -1    0    0    0  501  0.00000000000E+00  0.00000000000E+00  0.13990509016E+03  0.13990509018E+03  0.25500000920E-02 0.  1.
        2   -1    0    0  501    0  0.00000000000E+00  0.00000000000E+00 -0.21694141355E+04  0.21694141355E+04  0.25500000920E-02 0. -1.
    10030    2    1    2    0    0  0.00000000000E+00  0.00000000000E+00 -0.20295090454E+04  0.23093192257E+04  0.11018386093E+04 0.  0.
        2    1    3    3  502    0 -0.26935487887E+03 -0.45275729275E+03 -0.67699377423E+03  0.85782386728E+03  0.25500000920E-02 0.  1.
       -2    1    3    3    0  502  0.26935487887E+03  0.45275729275E+03 -0.13525152711E+04  0.14514953584E+04  0.25500000920E-02 0. -1.
</event>
<event>
 5   0  0.6109149E-04  0.1100726E+04  0.7818609E-02  0.9204484E-01
        2   -1    0    0  501    0  0.00000000000E+00  0.00000000000E+00  0.13115790090E+04  0.13115790090E+04  0.25500000920E-02 0.  1.
       -2   -1    0    0    0  501  0.00000000000E+00  0.00000000000E+00 -0.23094275254E+03  0.23094275255E+03  0.25500000920E-02 0. -1.
    10030    2    1    2    0    0  0.00000000000E+00  0.00000000000E+00  0.10806362564E+04  0.15425217615E+04  0.11007264265E+04 0.  0.
        1    1    3    3  502    0  0.39259353369E+03 -0.21442048993E+03  0.91019134725E+02  0.45649787744E+03  0.50400001928E-02 0. -1.
       -1    1    3    3    0  502 -0.39259353369E+03  0.21442048993E+03  0.98961712171E+03  0.10860238841E+04  0.50400001928E-02 0.  1.
</event>
<event>
 5   0  0.3657529E-04  0.1100765E+04  0.7818609E-02  0.9204447E-01
        1   -1    0    0  501    0  0.00000000000E+00  0.00000000000E+00  0.23233437373E+03  0.23233437379E+03  0.50400001928E-02 0.  1.
       -1   -1    0    0    0  501  0.00000000000E+00  0.00000000000E+00 -0.13038134294E+04  0.13038134294E+04  0.50400001928E-02 0. -1.
    10030    2    1    2    0    0  0.00000000000E+00  0.00000000000E+00 -0.10714790557E+04  0.15361478032E+04  0.11007646009E+04 0.  0.
        4    1    3    3  502    0 -0.52465934729E+03  0.36619364666E+02 -0.30937708049E+03  0.61018374232E+03  0.12699999809E+01 0.  1.
       -4    1    3    3    0  502  0.52465934729E+03 -0.36619364666E+02 -0.76210197518E+03  0.92596406088E+03  0.12699999809E+01 0. -1.
</event>
<event>
 5   0  0.6109149E-04  0.1093251E+04  0.7818609E-02  0.9211795E-01
        2   -1    0    0  501    0  0.00000000000E+00  0.00000000000E+00  0.52796340169E+03  0.52796340170E+03  0.25500000920E-02 0.  1.
       -2   -1    0    0    0  501  0.00000000000E+00  0.00000000000E+00 -0.56594682786E+03  0.56594682787E+03  0.25500000920E-02 0. -1.
    10030    2    1    2    0    0  0.00000000000E+00  0.00000000000E+00 -0.37983426171E+02  0.10939102296E+04  0.10932505887E+04 0.  0.
        1    1    3    3  502    0  0.40332240940E+03 -0.15044043584E+03  0.31810608703E+03  0.53525019691E+03  0.50400001928E-02 0.  1.
       -1    1    3    3    0  502 -0.40332240940E+03  0.15044043584E+03 -0.35608951320E+03  0.55866003266E+03  0.50400001928E-02 0. -1.
</event>
<event>
 5   0  0.2403875E-04  0.1101428E+04  0.7818609E-02  0.9203801E-01
        4   -1    0    0  501    0  0.00000000000E+00  0.00000000000E+00  0.59119474477E+03  0.59119610887E+03  0.12699999809E+01 0. -1.
       -4   -1    0    0    0  501  0.00000000000E+00  0.00000000000E+00 -0.51300231800E+03  0.51300389001E+03  0.12699999809E+01 0.  1.
    10030    2    1    2    0    0  0.00000000000E+00  0.00000000000E+00  0.78192426779E+02  0.11041999989E+04  0.11014279740E+04 0.  0.
        3    1    3    3  502    0 -0.15162966750E+03 -0.46136545818E+03  0.29943466893E+03  0.57053551443E+03  0.10100000352E+00 0. -1.
       -3    1    3    3    0  502  0.15162966750E+03  0.46136545818E+03 -0.22124224215E+03  0.53366448446E+03  0.10100000352E+00 0.  1.
</event>
<event>
 5   0  0.6264830E-04  0.1099445E+04  0.7818609E-02  0.9205733E-01
        2   -1    0    0  501    0  0.00000000000E+00  0.00000000000E+00  0.42041883830E+03  0.42041883831E+03  0.25500000920E-02 0. -1.
       -2   -1    0    0    0  501  0.00000000000E+00  0.00000000000E+00 -0.71879431034E+03  0.71879431035E+03  0.25500000920E-02 0.  1.
    10030    2    1    2    0    0  0.00000000000E+00  0.00000000000E+00 -0.29837547204E+03  0.11392131487E+04  0.10994447125E+04 0.  0.
        4    1    3    3  502    0 -0.51721819593E+03  0.17626969074E+03 -0.86953675090E+02  0.55330662438E+03  0.12699999809E+01 0. -1.
       -4    1    3    3    0  502  0.51721819593E+03 -0.17626969074E+03 -0.21142179695E+03  0.58590652428E+03  0.12699999809E+01 0.  1.
</event>
<event>
 5   0  0.5948818E-04  0.1099250E+04  0.7818609E-02  0.9205924E-01
       -2   -1    0    0    0  501  0.00000000000E+00  0.00000000000E+00  0.42725904921E+03  0.42725904922E+03  0.25500000920E-02 0.  1.
        2   -1    0    0  501    0  0.00000000000E+00  0.00000000000E+00 -0.70703581234E+03  0.70703581234E+03  0.25500000920E-02 0. -1.
    10030    2    1    2    0    0  0.00000000000E+00  0.00000000000E+00 -0.27977676313E+03  0.11342948616E+04  0.10992496513E+04 0.  0.
        3    1    3    3  502    0 -0.15074168675E+03 -0.41566933706E+01 -0.68527153069E+03  0.70166759595E+03  0.10100000352E+00 0. -1.
       -3    1    3    3    0  502  0.15074168675E+03  0.41566933706E+01  0.40549476757E+03  0.43262726561E+03  0.10100000352E+00 0.  1.
</event>
<event>
 5   0  0.3642161E-04  0.1100419E+04  0.7818609E-02  0.9204784E-01
       -1   -1    0    0    0  501  0.00000000000E+00  0.00000000000E+00  0.27949201078E+03  0.27949201083E+03  0.50400001928E-02 0. -1.
        1   -1    0    0  501    0  0.00000000000E+00  0.00000000000E+00 -0.10831449655E+04  0.10831449655E+04  0.50400001928E-02 0.  1.
    10030    2    1    2    0    0  0.00000000000E+00  0.00000000000E+00 -0.80365295472E+03  0.13626369763E+04  0.11004187647E+04 0.  0.
        2    1    3    3  502    0 -0.47054536143E+03 -0.22480006438E+03 -0.61908315140E+03  0.80945163813E+03  0.25500000920E-02 0.  1.
       -2    1    3    3    0  502  0.47054536143E+03  0.22480006438E+03 -0.18456980332E+03  0.55318533821E+03  0.25500000920E-02 0. -1.
</event>
<event>
 5   0  0.3657529E-04  0.1100353E+04  0.7818609E-02  0.9204848E-01
       -1   -1    0    0    0  501  0.00000000000E+00  0.00000000000E+00  0.31233148093E+03  0.31233148097E+03  0.50400001928E-02 0. -1.
        1   -1    0    0  501    0  0.00000000000E+00  0.00000000000E+00 -0.96914467421E+03  0.96914467422E+03  0.50400001928E-02 0.  1.
    10030    2    1    2    0    0  0.00000000000E+00  0.00000000000E+00 -0.65681319328E+03  0.12814761552E+04  0.11003533821E+04 0.  0.
        4    1    3    3  502    0  0.14983000019E+03 -0.52433353563E+03 -0.41333565476E+03  0.68426797524E+03  0.12699999809E+01 0.  1.
       -4    1    3    3    0  502 -0.14983000019E+03  0.52433353563E+03 -0.24347753852E+03  0.59720817996E+03  0.12699999809E+01 0. -1.
</event>
<event>
 5   0  0.3621403E-04  0.1101759E+04  0.7818609E-02  0.9203479E-01
        1   -1    0    0  501    0  0.00000000000E+00  0.00000000000E+00  0.11310862587E+04  0.11310862587E+04  0.50400001928E-02 0. -1.
       -1   -1    0    0    0  501  0.00000000000E+00  0.00000000000E+00 -0.26829785326E+03  0.26829785331E+03  0.50400001928E-02 0.  1.
    10030    2    1    2    0    0  0.00000000000E+00  0.00000000000E+00  0.86278840542E+03  0.13993841120E+04  0.11017586217E+04 0.  0.
        3    1    3    3  502    0  0.28947857222E+03 -0.26283295656E+03  0.92428090683E+03  0.10035806952E+04  0.10100000352E+00 0. -1.
       -3    1    3    3    0  502 -0.28947857222E+03  0.26283295656E+03 -0.61492501408E+02  0.39580341681E+03  0.10100000352E+00 0.  1.
</event>
<event>
 5   0  0.3621403E-04  0.1096083E+04  0.7818609E-02  0.9209018E-01
       -1   -1    0    0    0  501  0.00000000000E+00  0.00000000000E+00  0.69008539739E+03  0.69008539741E+03  0.50400001928E-02 0.  1.
        1   -1    0    0  501    0  0.00000000000E+00  0.00000000000E+00 -0.43523499680E+03  0.43523499683E+03  0.50400001928E-02 0. -1.
    10030    2    1    2    0    0  0.00000000000E+00  0.00000000000E+00  0.25485040059E+03  0.11253203942E+04  0.10960826899E+04 0.  0.
        3    1    3    3  502    0 -0.62024951195E+02  0.42130736362E+03  0.48159422702E+03  0.64286857048E+03  0.10100000352E+00 0. -1.
       -3    1    3    3    0  502  0.62024951195E+02 -0.42130736362E+03 -0.22674382643E+03  0.48245182375E+03  0.10100000352E+00 0.  1.
</event>
<event>
 5   0  0.5948818E-04  0.1099146E+04  0.7818609E-02  0.9206025E-01
        2   -1    0    0  501    0  0.00000000000E+00  0.00000000000E+00  0.15240981607E+04  0.15240981607E+04  0.25500000920E-02 0.  1.
       -2   -1    0    0    0  501  0.00000000000E+00  0.00000000000E+00 -0.19816993003E+03  0.19816993005E+03  0.25500000920E-02 0. -1.
    10030    2    1    2    0    0  0.00000000000E+00  0.00000000000E+00  0.13259282307E+04  0.17222680908E+04  0.10991458973E+04 0.  0.
        3    1    3    3  502    0 -0.46242182214E+03 -0.29697887530E+03  0.66319507498E+03  0.86131185505E+03  0.10100000352E+00 0. -1.
       -3    1    3    3    0  502  0.46242182214E+03  0.29697887530E+03  0.66273315571E+03  0.86095623573E+03  0.10100000352E+00 0.  1.
</event>
<event>
 5   0  0.6245176E-04  0.1098208E+04  0.7818609E-02  0.9206940E-01
       -2   -1    0    0    0  501  0.00000000000E+00  0.00000000000E+00  0.22283593198E+03  0.22283593199E+03  0.25500000920E-02 0.  1.
        2   -1    0    0  501    0  0.00000000000E+00  0.00000000000E+00 -0.13530812884E+04  0.13530812884E+04  0.25500000920E-02 0. -1.
    10030    2    1    2    0    0  0.00000000000E+00  0.00000000000E+00 -0.11302453564E+04  0.15759172204E+04  0.10982078673E+04 0.  0.
        5    1    3    3  502    0 -0.93855192268E+02 -0.50621534730E+03 -0.29123025660E+03  0.59152339541E+03  0.46999998093E+01 0.  1.
       -5    1    3    3    0  502  0.93855192268E+02  0.50621534730E+03 -0.83901509983E+03  0.98439382500E+03  0.46999998093E+01 0. -1.
</event>
<event>
 5   0  0.6412712E-04  0.1098298E+04  0.7818609E-02  0.9206852E-01
        2   -1    0    0  501    0  0.00000000000E+00  0.00000000000E+00  0.49066133178E+03  0.49066133179E+03  0.25500000920E-02 0.  1.
       -2   -1    0    0    0  501  0.00000000000E+00  0.00000000000E+00 -0.61460853753E+03  0.61460853754E+03  0.25500000920E-02 0. -1.
    10030    2    1    2    0    0  0.00000000000E+00  0.00000000000E+00 -0.12394720575E+03  0.11052698693E+04  0.10982980352E+04 0.  0.
        2    1    3    3  502    0  0.53095943770E+03 -0.13983009993E+03 -0.52203098888E+02  0.55153925052E+03  0.25500000920E-02 0. -1.
       -2    1    3    3    0  502 -0.53095943770E+03  0.13983009993E+03 -0.71744106862E+02  0.55373061881E+03  0.25500000920E-02 0.  1.
</event>
<event>
 5   0  0.3423758E-04  0.1100241E+04  0.7818609E-02  0.9204957E-01
       -1   -1    0    0    0  501  0.00000000000E+00  0.00000000000E+00  0.20493486216E+03  0.20493486222E+03  0.50400001928E-02 0. -1.
        1   -1    0    0  501    0  0.00000000000E+00  0.00000000000E+00 -0.14767260589E+04  0.14767260589E+04  0.50400001928E-02 0.  1.
    10030    2    1    2    0    0  0.00000000000E+00  0.00000000000E+00 -0.12717911968E+04  0.16816609212E+04  0.11002411579E+04 0.  0.
        1    1    3    3  502    0 -0.41882422395E+03  0.35556108204E+03 -0.59279343864E+03  0.80823355198E+03  0.50400001928E-02 0.  1.
       -1    1    3    3    0  502  0.41882422395E+03 -0.35556108204E+03 -0.67899775813E+03  0.87342736917E+03  0.50400001928E-02 0. -1.
</event>
<event>
 5   0  0.6412712E-04  0.1098664E+04  0.7818609E-02  0.9206495E-01
       -2   -1    0    0    0  501  0.00000000000E+00  0.00000000000E+00  0.17151264731E+03  0.17151264733E+03  0.25500000920E-02 0. -1.
        2   -1    0    0  501    0  0.00000000000E+00  0.00000000000E+00 -0.17594369209E+04  0.17594369209E+04  0.25500000920E-02 0.  1.
    10030    2    1    2    0    0  0.00000000000E+00  0.00000000000E+00 -0.15879242736E+04  0.19309495682E+04  0.10986640690E+04 0.  0.
        2    1    3    3  502    0  0.20817229396E+03  0.25393432805E+02  0.98387314062E+02  0.23164756415E+03  0.25500000920E-02 0. -1.
       -2    1    3    3    0  502 -0.20817229396E+03 -0.25393432805E+02 -0.16863115877E+04  0.16993020041E+04  0.25500000920E-02 0.  1.
</event>
<event>
 5   0  0.3423758E-04  0.1102128E+04  0.7818609E-02  0.9203121E-01
        1   -1    0    0  501    0  0.00000000000E+00  0.00000000000E+00  0.79502805326E+03  0.79502805327E+03  0.50400001928E-02 0.  1.
       -1   -1    0    0    0  501  0.00000000000E+00  0.00000000000E+00 -0.38196307847E+03  0.38196307851E+03  0.50400001928E-02 0. -1.
    10030    2    1    2    0    0  0.00000000000E+00  0.00000000000E+00  0.41306497478E+03  0.11769911318E+04  0.11021276926E+04 0.  0.
        1    1    3    3  502    0  0.21988848946E+02  0.19060662800E+03  0.75820398725E+03  0.78210464928E+03  0.50400001928E-02 0.  1.
       -1    1    3    3    0  502 -0.21988848946E+02 -0.19060662800E+03 -0.34513901246E+03  0.39488648250E+03  0.50400001928E-02 0. -1.
</event>
<event>
 5   0  0.3523525E-04  0.1105808E+04  0.7818609E-02  0.9199550E-01
        1   -1    0    0  501    0  0.00000000000E+00  0.00000000000E+00  0.86038410445E+03  0.86038410446E+03  0.50400001928E-02 0. -1.
       -1   -1    0    0    0  501  0.00000000000E+00  0.00000000000E+00 -0.35530958623E+03  0.35530958627E+03  0.50400001928E-02 0.  1.
    10030    2    1    2    0    0  0.00000000000E+00  0.00000000000E+00  0.50507451822E+03  0.12156936907E+04  0.11058077956E+04 0.  0.
        5    1    3    3  502    0 -0.12937147288E+03  0.16032633708E+03 -0.31151550122E+03  0.37350436391E+03  0.46999998093E+01 0.  1.
       -5    1    3    3    0  502  0.12937147288E+03 -0.16032633708E+03  0.81659001944E+03  0.84218932682E+03  0.46999998093E+01 0. -1.
</event>
<event>
 5   0  0.6264830E-04  0.1099243E+04  0.7818609E-02  0.9205930E-01
        2   -1    0    0  501    0  0.00000000000E+00  0.00000000000E+00  0.20653741175E+04  0.20653741175E+04  0.25500000920E-02 0.  1.
       -2   -1    0    0    0  501  0.00000000000E+00  0.00000000000E+00 -0.14626115865E+03  0.14626115867E+03  0.25500000920E-02 0. -1.
    10030    2    1    2    0    0  0.00000000000E+00  0.00000000000E+00  0.19191129589E+04  0.22116352762E+04  0.10992433971E+04 0.  0.
        4    1    3    3  502    0  0.29018892143E+02  0.53809907178E+02  0.20585088662E+04  0.20594168998E+04  0.12699999809E+01 0.  1.
       -4    1    3    3    0  502 -0.29018892143E+02 -0.53809907178E+02 -0.13939590734E+03  0.15221837634E+03  0.12699999809E+01 0. -1.
</event>
<event>
 5   0  0.3423758E-04  0.1096861E+04  0.7818609E-02  0.9208257E-01
        1   -1    0    0  501    0  0.00000000000E+00  0.00000000000E+00  0.97261211868E+03  0.97261211869E+03  0.50400001928E-02 0.  1.
       -1   -1    0    0    0  501  0.00000000000E+00  0.00000000000E+00 -0.30924534565E+03  0.30924534569E+03  0.50400001928E-02 0. -1.
    10030    2    1    2    0    0  0.00000000000E+00  0.00000000000E+00  0.66336677304E+03  0.12818574644E+04  0.10968605579E+04 0.  0.
        1    1    3    3  502    0 -0.37314188782E+03 -0.21523218071E+03 -0.65000659157E+02  0.43564302562E+03  0.50400001928E-02 0. -1.
       -1    1    3    3    0  502  0.37314188782E+03  0.21523218071E+03  0.72836743219E+03  0.84621443876E+03  0.50400001928E-02 0.  1.
</event>
<event>
 5   0  0.3523525E-04  0.1100593E+04  0.7818609E-02  0.9204614E-01
        1   -1    0    0  501    0  0.00000000000E+00  0.00000000000E+00  0.14070262667E+04  0.14070262667E+04  0.50400001928E-02 0. -1.
       -1   -1    0    0    0  501  0.00000000000E+00  0.00000000000E+00 -0.21522425981E+03  0.21522425987E+03  0.50400001928E-02 0.  1.
    10030    2    1    2    0    0  0.00000000000E+00  0.00000000000E+00  0.11918020069E+04  0.16222505265E+04  0.11005929072E+04 0.  0.
        5    1    3    3  502    0  0.22641056547E+03 -0.32290741396E+03  0.30244207728E+02  0.39556003874E+03  0.46999998093E+01 0.  1.
       -5    1    3    3    0  502 -0.22641056547E+03  0.32290741396E+03  0.11615577991E+04  0.12266904878E+04  0.46999998093E+01 0. -1.
</event>
<event>
 5   0  0.3423758E-04  0.1099512E+04  0.7818609E-02  0.9205668E-01
        1   -1    0    0  501    0  0.00000000000E+00  0.00000000000E+00  0.32587004912E+03  0.32587004916E+03  0.50400001928E-02 0.  1.
       -1   -1    0    0    0  501  0.00000000000E+00  0.00000000000E+00 -0.92746063405E+03  0.92746063407E+03  0.50400001928E-02 0. -1.
    10030    2    1    2    0    0  0.00000000000E+00  0.00000000000E+00 -0.60159058493E+03  0.12533306832E+04  0.10995119688E+04 0.  0.
        1    1    3    3  502    0 -0.42370363174E+03 -0.13034297339E+03  0.69833645906E+02  0.44876585921E+03  0.50400001928E-02 0.  1.
       -1    1    3    3    0  502  0.42370363174E+03  0.13034297339E+03 -0.67142423084E+03  0.80456482402E+03  0.50400001928E-02 0. -1.
</event>
<event>
 5   0  0.3642161E-04  0.1100479E+04  0.7818609E-02  0.9204726E-01
       -1   -1    0    0    0  501  0.00000000000E+00  0.00000000000E+00  0.22541575994E+03  0.22541575999E+03  0.50400001928E-02 0. -1.
        1   -1    0    0  501    0  0.00000000000E+00  0.00000000000E+00 -0.13431326261E+04  0.13431326261E+04  0.50400001928E-02 0.  1.
    10030    2    1    2    0    0  0.00000000000E+00  0.00000000000E+00 -0.11177168662E+04  0.15685483861E+04  0.11004785535E+04 0.  0.
        2    1    3    3  502    0 -0.51343178555E+03  0.10232658604E+03 -0.31747445965E+03  0.61226870013E+03  0.25500000920E-02 0. -1.
       -2    1    3    3    0  502  0.51343178555E+03 -0.10232658604E+03 -0.80024240653E+03  0.95627968599E+03  0.25500000920E-02 0.  1.
</event>
<event>
 5   0  0.3642161E-04  0.1100623E+04  0.7818609E-02  0.9204585E-01
       -1   -1    0    0    0  501  0.00000000000E+00  0.00000000000E+00  0.19353536195E+03  0.19353536202E+03  0.50400001928E-02 0.  1.
        1   -1    0    0  501    0  0.00000000000E+00  0.00000000000E+00 -0.15647938582E+04  0.15647938582E+04  0.50400001928E-02 0. -1.
    10030    2    1    2    0    0  0.00000000000E+00  0.00000000000E+00 -0.13712584963E+04  0.17583292203E+04  0.11006233612E+04 0.  0.
        2    1    3    3  502    0 -0.17889804833E+03 -0.15372342337E+03 -0.14799434471E+04  0.14986220368E+04  0.25500000920E-02 0. -1.
       -2    1    3    3    0  502  0.17889804833E+03  0.15372342337E+03  0.10868495082E+03  0.25970718344E+03  0.25500000920E-02 0.  1.
</event>
<event>
 5   0  0.3523525E-04  0.1099574E+04  0.7818609E-02  0.9205607E-01
        1   -1    0    0  501    0  0.00000000000E+00  0.00000000000E+00  0.45908577867E+03  0.45908577870E+03  0.50400001928E-02 0. -1.
       -1   -1    0    0    0  501  0.00000000000E+00  0.00000000000E+00 -0.65840789405E+03  0.65840789407E+03  0.50400001928E-02 0.  1.
    10030    2    1    2    0    0  0.00000000000E+00  0.00000000000E+00 -0.19932211538E+03  0.11174936728E+04  0.10995739188E+04 0.  0.
        5    1    3    3  502    0  0.25317698928E+03  0.29535612265E+02  0.39538374096E+03  0.47044801297E+03  0.46999998093E+01 0. -1.
       -5    1    3    3    0  502 -0.25317698928E+03 -0.29535612265E+02 -0.59470585635E+03  0.64704565980E+03  0.46999998093E+01 0.  1.
</event>
<event>
 5   0  0.6109149E-04  0.1099363E+04  0.7818609E-02  0.9205813E-01
       -2   -1    0    0    0  501  0.00000000000E+00  0.00000000000E+00  0.15418633123E+03  0.15418633125E+03  0.25500000920E-02 0.  1.
        2   -1    0    0  501    0  0.00000000000E+00  0.00000000000E+00 -0.19596395573E+04  0.19596395573E+04  0.25500000920E-02 0. -1.
    10030    2    1    2    0    0  0.00000000000E+00  0.00000000000E+00 -0.18054532261E+04  0.21138258885E+04  0.10993627861E+04 0.  0.
        1    1    3    3  502    0  0.45841477772E+03  0.43867609425E+02 -0.14798187561E+04  0.15498167719E+04  0.50400001928E-02 0. -1.
       -1    1    3    3    0  502 -0.45841477772E+03 -0.43867609425E+02 -0.32563446998E+03  0.56400911664E+03  0.50400001928E-02 0.  1.
</event>
<event>
 5   0  0.3642161E-04  0.1101014E+04  0.7818609E-02  0.9204204E-01
       -1   -1    0    0    0  501  0.00000000000E+00  0.00000000000E+00  0.29779159629E+03  0.29779159633E+03  0.50400001928E-02 0. -1.
        1   -1    0    0  501    0  0.00000000000E+00  0.00000000000E+00 -0.10176843610E+04  0.10176843610E+04  0.50400001928E-02 0.  1.
    10030    2    1    2    0    0  0.00000000000E+00  0.00000000000E+00 -0.71989276471E+03  0.13154759573E+04  0.11010138063E+04 0.  0.
        2    1    3    3  502    0  0.19741995980E+03 -0.51366181967E+03 -0.34164060263E+03  0.64772016094E+03  0.25500000920E-02 0. -1.
       -2    1    3    3    0  502 -0.19741995980E+03  0.51366181967E+03 -0.37825216208E+03  0.66775579641E+03  0.25500000920E-02 0.  1.
</event>
<event>
 5   0  0.5948818E-04  0.1099159E+04  0.7818609E-02  0.9206012E-01
        2   -1    0    0  501    0  0.00000000000E+00  0.00000000000E+00  0.43024660213E+03  0.43024660214E+03  0.25500000920E-02 0.  1.
       -2   -1    0    0    0  501  0.00000000000E+00  0.00000000000E+00 -0.70201054473E+03  0.70201054473E+03  0.25500000920E-02 0. -1.
    10030    2    1    2    0    0  0.00000000000E+00  0.00000000000E+00 -0.27176394260E+03  0.11322571469E+04  0.10991590450E+04 0.  0.
        3    1    3    3  502    0  0.26374829140E+03  0.19810048686E+03 -0.58869881227E+03  0.67481350452E+03  0.10100000352E+00 0. -1.
       -3    1    3    3    0  502 -0.26374829140E+03 -0.19810048686E+03  0.31693486968E+03  0.45744364235E+03  0.10100000352E+00 0.  1.
</event>
<event>
 5   0  0.3657529E-04  0.1099647E+04  0.7818609E-02  0.9205536E-01
       -1   -1    0    0    0  501  0.00000000000E+00  0.00000000000E+00  0.31085214843E+03  0.31085214847E+03  0.50400001928E-02 0.  1.
        1   -1    0    0  501    0  0.00000000000E+00  0.00000000000E+00 -0.97250747137E+03  0.97250747138E+03  0.50400001928E-02 0. -1.
    10030    2    1    2    0    0  0.00000000000E+00  0.00000000000E+00 -0.66165532295E+03  0.12833596199E+04  0.10996472832E+04 0.  0.
        4    1    3    3  502    0  0.19633864333E+03 -0.50977074911E+03 -0.25804412250E+03  0.60415516349E+03  0.12699999809E+01 0.  1.
       -4    1    3    3    0  502 -0.19633864333E+03  0.50977074911E+03 -0.40361120044E+03  0.67920445636E+03  0.12699999809E+01 0. -1.
</event>
<event>
 5   0  0.6109149E-04  0.1101048E+04  0.7818609E-02  0.9204171E-01
       -2   -1    0    0    0  501  0.00000000000E+00  0.00000000000E+00  0.79407710281E+03  0.79407710281E+03  0.25500000920E-02 0.  1.
        2   -1    0    0  501    0  0.00000000000E+00  0.00000000000E+00 -0.38167134913E+03  0.38167134914E+03  0.25500000920E-02 0. -1.
    10030    2    1    2    0    0  0.00000000000E+00  0.00000000000E+00  0.41240575368E+03  0.11757484520E+04  0.11010476450E+04 0.  0.
        1    1    3    3  502    0 -0.26093725975E+03 -0.20864526150E+03 -0.26103935652E+03  0.42398425012E+03  0.50400001928E-02 0. -1.
       -1    1    3    3    0  502  0.26093725975E+03  0.20864526150E+03  0.67344511020E+03  0.75176420183E+03  0.50400001928E-02 0.  1.
</event>
<event>
 5   0  0.3621403E-04  0.1101271E+04  0.7818609E-02  0.9203954E-01
        1   -1    0    0  501    0  0.00000000000E+00  0.00000000000E+00  0.13892166347E+04  0.13892166347E+04  0.50400001928E-02 0. -1.
       -1   -1    0    0    0  501  0.00000000000E+00  0.00000000000E+00 -0.21825203245E+03  0.21825203251E+03  0.50400001928E-02 0.  1.
    10030    2    1    2    0    0  0.00000000000E+00  0.00000000000E+00  0.11709646022E+04  0.16074686672E+04  0.11012708188E+04 0.  0.
        3    1    3    3  502    0 -0.23851057275E+03 -0.47311967463E+03  0.80428275602E+03  0.96312007646E+03  0.10100000352E+00 0. -1.
       -3    1    3    3    0  502  0.23851057275E+03  0.47311967463E+03  0.36668184618E+03  0.64434859072E+03  0.10100000352E+00 0.  1.
</event>
<event>
 5   0  0.6264830E-04  0.1100056E+04  0.7818609E-02  0.9205137E-01
        2   -1    0    0  501    0  0.00000000000E+00  0.00000000000E+00  0.14412452840E+04  0.14412452841E+04  0.25500000920E-02 0.  1.
       -2   -1    0    0    0  501  0.00000000000E+00  0.00000000000E+00 -0.20990926527E+03  0.20990926528E+03  0.25500000920E-02 0. -1.
    10030    2    1    2    0    0  0.00000000000E+00  0.00000000000E+00  0.12313360188E+04  0.16511545493E+04  0.11000558871E+04 0.  0.
        4    1    3    3  502    0 -0.21584459443E+03 -0.27521350031E+03 -0.21490778277E+02  0.35042092709E+03  0.12699999809E+01 0. -1.
       -4    1    3    3    0  502  0.21584459443E+03  0.27521350031E+03  0.12528267971E+04  0.13007336222E+04  0.12699999809E+01 0.  1.
</event>
<event>
 5   0  0.2403875E-04  0.1099863E+04  0.7818609E-02  0.9205326E-01
       -3   -1    0    0    0  501  0.00000000000E+00  0.00000000000E+00  0.38785411453E+03  0.38785412768E+03  0.10100000352E+00 0.  1.
        3   -1    0    0  501    0  0.00000000000E+00  0.00000000000E+00 -0.77973766731E+03  0.77973767385E+03  0.10100000352E+00 0. -1.
    10030    2    1    2    0    0  0.00000000000E+00  0.00000000000E+00 -0.39188355278E+03  0.11675918015E+04  0.10998626715E+04 0.  0.
        4    1    3    3  502    0 -0.50001355759E+03  0.17078407707E+03 -0.34100133290E+02  0.52947633634E+03  0.12699999809E+01 0.  1.
       -4    1    3    3    0  502  0.50001355759E+03 -0.17078407707E+03 -0.35778341949E+03  0.63811546519E+03  0.12699999809E+01 0. -1.
</event>
<event>
 5   0  0.6264830E-04  0.1106417E+04  0.7818609E-02  0.9198960E-01
       -2   -1    0    0    0  501  0.00000000000E+00  0.00000000000E+00  0.25995870657E+03  0.25995870658E+03  0.25500000920E-02 0. -1.
        2   -1    0    0  501    0  0.00000000000E+00  0.00000000000E+00 -0.11772616531E+04  0.11772616531E+04  0.25500000920E-02 0.  1.
    10030    2    1    2    0    0  0.00000000000E+00  0.00000000000E+00 -0.91730294648E+03  0.14372203596E+04  0.11064165881E+04 0.  0.
        4    1    3    3  502    0 -0.35535217780E+03 -0.29054580156E+02  0.90803696538E+02  0.36792154476E+03  0.12699999809E+01 0.  1.
       -4    1    3    3    0  502  0.35535217780E+03  0.29054580156E+02 -0.10081066430E+04  0.10692988149E+04  0.12699999809E+01 0. -1.
</event>
<event>
 5   0  0.6245176E-04  0.1093640E+04  0.7818609E-02  0.9211413E-01
        2   -1    0    0  501    0  0.00000000000E+00  0.00000000000E+00  0.14201413060E+04  0.14201413060E+04  0.25500000920E-02 0.  1.
       -2   -1    0    0    0  501  0.00000000000E+00  0.00000000000E+00 -0.21055100783E+03  0.21055100785E+03  0.25500000920E-02 0. -1.
    10030    2    1    2    0    0  0.00000000000E+00  0.00000000000E+00  0.12095902982E+04  0.16306923139E+04  0.10936401296E+04 0.  0.
        5    1    3    3  502    0  0.13938128168E+03  0.48075449341E+03  0.93295919366E+03  0.10587667220E+04  0.46999998093E+01 0.  1.
       -5    1    3    3    0  502 -0.13938128168E+03 -0.48075449341E+03  0.27663110451E+03  0.57192559184E+03  0.46999998093E+01 0. -1.
</event>
<event>
 5   0  0.6412712E-04  0.1099810E+04  0.7818609E-02  0.9205377E-01
        2   -1    0    0  501    0  0.00000000000E+00  0.00000000000E+00  0.12402727598E+04  0.12402727598E+04  0.25500000920E-02 0.  1.
       -2   -1    0    0    0  501  0.00000000000E+00  0.00000000000E+00 -0.24381391673E+03  0.24381391675E+03  0.25500000920E-02 0. -1.
    10030    2    1    2    0    0  0.00000000000E+00  0.00000000000E+00  0.99645884307E+03  0.14840866766E+04  0.10998104553E+04 0.  0.
        2    1    3    3  502    0  0.34248539471E+03 -0.79776886739E+02 -0.72258457516E+02  0.35900122832E+03  0.25500000920E-02 0. -1.
       -2    1    3    3    0  502 -0.34248539471E+03  0.79776886739E+02  0.10687173006E+04  0.11250854482E+04  0.25500000920E-02 0.  1.
</event>
<event>
 5   0  0.5948818E-04  0.1100451E+04  0.7818609E-02  0.9204752E-01
       -2   -1    0    0    0  501  0.00000000000E+00  0.00000000000E+00  0.62384919356E+03  0.62384919356E+03  0.25500000920E-02 0. -1.
        2   -1    0    0  501    0  0.00000000000E+00  0.00000000000E+00 -0.48529084460E+03  0.48529084461E+03  0.25500000920E-02 0.  1.
    10030    2    1    2    0    0  0.00000000000E+00  0.00000000000E+00  0.13855834895E+03  0.11091400382E+04  0.11004513657E+04 0.  0.
        3    1    3    3  502    0  0.22857419441E+03  0.20599792465E+03  0.52902428142E+03  0.61200327437E+03  0.10100000352E+00 0. -1.
       -3    1    3    3    0  502 -0.22857419441E+03 -0.20599792465E+03 -0.39046593246E+03  0.49713676380E+03  0.10100000352E+00 0.  1.
</event>
<event>
 5   0  0.5948818E-04  0.1104902E+04  0.7818609E-02  0.9200427E-01
        2   -1    0    0  501    0  0.00000000000E+00  0.00000000000E+00  0.12931269357E+04  0.12931269357E+04  0.25500000920E-02 0. -1.
       -2   -1    0    0    0  501  0.00000000000E+00  0.00000000000E+00 -0.23601856792E+03  0.23601856793E+03  0.25500000920E-02 0.  1.
    10030    2    1    2    0    0  0.00000000000E+00  0.00000000000E+00  0.10571083678E+04  0.15291455036E+04  0.11049017468E+04 0.  0.
        3    1    3    3  502    0  0.52043940478E+03 -0.18070697704E+03  0.58544460767E+03  0.80390147683E+03  0.10100000352E+00 0.  1.
       -3    1    3    3    0  502 -0.52043940478E+03  0.18070697704E+03  0.47166376010E+03  0.72524402679E+03  0.10100000352E+00 0. -1.
</event>
<event>
 5   0  0.6412712E-04  0.1101779E+04  0.7818609E-02  0.9203459E-01
        2   -1    0    0  501    0  0.00000000000E+00  0.00000000000E+00  0.73576591164E+03  0.73576591164E+03  0.25500000920E-02 0.  1.
       -2   -1    0    0    0  501  0.00000000000E+00  0.00000000000E+00 -0.41246740266E+03  0.41246740267E+03  0.25500000920E-02 0. -1.
    10030    2    1    2    0    0  0.00000000000E+00  0.00000000000E+00  0.32329850898E+03  0.11482333143E+04  0.11017793873E+04 0.  0.
        2    1    3    3  502    0  0.32174266033E+03 -0.16035311787E+03  0.59667943945E+03  0.69660448990E+03  0.25500000920E-02 0.  1.
       -2    1    3    3    0  502 -0.32174266033E+03  0.16035311787E+03 -0.27338093047E+03  0.45162882441E+03  0.25500000920E-02 0. -1.
</event>
<event>
 5   0  0.2403875E-04  0.1101204E+04  0.7818609E-02  0.9204019E-01
        3   -1    0    0  501    0  0.00000000000E+00  0.00000000000E+00  0.27141457191E+03  0.27141459070E+03  0.10100000352E+00 0. -1.
       -3   -1    0    0    0  501  0.00000000000E+00  0.00000000000E+00 -0.11169716498E+04  0.11169716544E+04  0.10100000352E+00 0.  1.
    10030    2    1    2    0    0  0.00000000000E+00  0.00000000000E+00 -0.84555707788E+03  0.13883862451E+04  0.11012037021E+04 0.  0.
        2    1    3    3  502    0 -0.28172554051E+01 -0.54617695026E+03 -0.51053892274E+03  0.74764108339E+03  0.25500000920E-02 0. -1.
       -2    1    3    3    0  502  0.28172554051E+01  0.54617695026E+03 -0.33501815515E+03  0.64074516168E+03  0.25500000920E-02 0.  1.
</event>
<event>
 5   0  0.6245176E-04  0.1100464E+04  0.7818609E-02  0.9204740E-01
        2   -1    0    0  501    0  0.00000000000E+00  0.00000000000E+00  0.17356845876E+04  0.17356845876E+04  0.25500000920E-02 0.  1.
       -2   -1    0    0    0  501  0.00000000000E+00  0.00000000000E+00 -0.17442975180E+03  0.17442975182E+03  0.25500000920E-02 0. -1.
    10030    2    1    2    0    0  0.00000000000E+00  0.00000000000E+00  0.15612548358E+04  0.19101143394E+04  0.11004635966E+04 0.  0.
        5    1    3    3  502    0  0.22529209121E+03 -0.46293300170E+03  0.44374501041E+03  0.67970229857E+03  0.46999998093E+01 0. -1.
       -5    1    3    3    0  502 -0.22529209121E+03  0.46293300170E+03  0.11175098254E+04  0.12304120408E+04  0.46999998093E+01 0.  1.
</event>
<event>
 5   0  0.5948818E-04  0.1099311E+04  0.7818609E-02  0.9205863E-01
        2   -1    0    0  501    0  0.00000000000E+00  0.00000000000E+00  0.11819606124E+04  0.11819606124E+04  0.25500000920E-02 0.  1.
       -2   -1    0    0    0  501  0.00000000000E+00  0.00000000000E+00 -0.25561031446E+03  0.25561031447E+03  0.25500000920E-02 0. -1.
    10030    2    1    2    0    0  0.00000000000E+00  0.00000000000E+00  0.92635029793E+03  0.14375709269E+04  0.10993112822E+04 0.  0.
        3    1    3    3  502    0  0.30194617209E+03  0.84345581143E+01  0.10636916344E+04  0.11057497619E+04  0.10100000352E+00 0.  1.
       -3    1    3    3    0  502 -0.30194617209E+03 -0.84345581143E+01 -0.13734133648E+03  0.33182116497E+03  0.10100000352E+00 0. -1.
</event>
<event>
 5   0  0.3657529E-04  0.1096626E+04  0.7818609E-02  0.9208487E-01
        1   -1    0    0  501    0  0.00000000000E+00  0.00000000000E+00  0.51360587548E+03  0.51360587550E+03  0.50400001928E-02 0.  1.
       -1   -1    0    0    0  501  0.00000000000E+00  0.00000000000E+00 -0.58536554257E+03  0.58536554259E+03  0.50400001928E-02 0. -1.
    10030    2    1    2    0    0  0.00000000000E+00  0.00000000000E+00 -0.71759667091E+02  0.10989714181E+04  0.10966260657E+04 0.  0.
        4    1    3    3  502    0 -0.30937736166E+03 -0.66176737454E+02  0.41290810502E+03  0.52018114977E+03  0.12699999809E+01 0.  1.
       -4    1    3    3    0  502  0.30937736166E+03  0.66176737454E+02 -0.48466777211E+03  0.57879026832E+03  0.12699999809E+01 0. -1.
</event>
<event>
 5   0  0.6109149E-04  0.1100947E+04  0.7818609E-02  0.9204269E-01
        2   -1    0    0  501    0  0.00000000000E+00  0.00000000000E+00  0.69672347669E+03  0.69672347669E+03  0.25500000920E-02 0. -1.
       -2   -1    0    0    0  501  0.00000000000E+00  0.00000000000E+00 -0.43492330151E+03  0.43492330152E+03  0.25500000920E-02 0.  1.
    10030    2    1    2    0    0  0.00000000000E+00  0.00000000000E+00  0.26180017518E+03  0.11316467782E+04  0.11009473643E+04 0.  0.
        1    1    3    3  502    0 -0.19008695764E+03 -0.18055748768E+03 -0.36662917812E+03  0.45072276634E+03  0.50400001928E-02 0.  1.
       -1    1    3    3    0  502  0.19008695764E+03  0.18055748768E+03  0.62842935330E+03  0.68092401187E+03  0.50400001928E-02 0. -1.
</event>
<event>
 5   0  0.6412712E-04  0.1102194E+04  0.7818609E-02  0.9203056E-01
       -2   -1    0    0    0  501  0.00000000000E+00  0.00000000000E+00  0.35762541224E+03  0.35762541225E+03  0.25500000920E-02 0. -1.
        2   -1    0    0  501    0  0.00000000000E+00  0.00000000000E+00 -0.84923475854E+03  0.84923475854E+03  0.25500000920E-02 0.  1.
    10030    2    1    2    0    0  0.00000000000E+00  0.00000000000E+00 -0.49160934629E+03  0.12068601708E+04  0.11021940494E+04 0.  0.
        2    1    3    3  502    0  0.11009128323E+03  0.16803612766E+03 -0.80771492499E+03  0.83232183133E+03  0.25500000920E-02 0.  1.
       -2    1    3    3    0  502 -0.11009128323E+03 -0.16803612766E+03  0.31610557870E+03  0.37453833947E+03  0.25500000920E-02 0. -1.
</event>
<event>
 5   0  0.3642161E-04  0.1102304E+04  0.7818609E-02  0.9202949E-01
        1   -1    0    0  501    0  0.00000000000E+00  0.00000000000E+00  0.18132651629E+04  0.18132651629E+04  0.50400001928E-02 0.  1.
       -1   -1    0    0    0  501  0.00000000000E+00  0.00000000000E+00 -0.16752578366E+03  0.16752578373E+03  0.50400001928E-02 0. -1.
    10030    2    1    2    0    0  0.00000000000E+00  0.00000000000E+00  0.16457393792E+04  0.19807909466E+04  0.11023042547E+04 0.  0.
        2    1    3    3  502    0 -0.38126349750E+03  0.39327985752E+03  0.93273061386E+03  0.10816733790E+04  0.25500000920E-02 0.  1.
       -2    1    3    3    0  502  0.38126349750E+03 -0.39327985752E+03  0.71300876535E+03  0.89911756758E+03  0.25500000920E-02 0. -1.
</event>
<event>
 5   0  0.6245176E-04  0.1100341E+04  0.7818609E-02  0.9204860E-01
        2   -1    0    0  501    0  0.00000000000E+00  0.00000000000E+00  0.53297833704E+03  0.53297833705E+03  0.25500000920E-02 0. -1.
       -2   -1    0    0    0  501  0.00000000000E+00  0.00000000000E+00 -0.56791716692E+03  0.56791716693E+03  0.25500000920E-02 0.  1.
    10030    2    1    2    0    0  0.00000000000E+00  0.00000000000E+00 -0.34938829882E+02  0.11008955040E+04  0.11003409421E+04 0.  0.
        5    1    3    3  502    0  0.15500462795E+03  0.39898052906E+03 -0.36326414788E+03  0.56142214811E+03  0.46999998093E+01 0.  1.
       -5    1    3    3    0  502 -0.15500462795E+03 -0.39898052906E+03  0.32832531800E+03  0.53947335587E+03  0.46999998093E+01 0. -1.
</event>
<event>
 5   0  0.3621403E-04  0.1116269E+04  0.7818609E-02  0.9189478E-01
        1   -1    0    0  501    0  0.00000000000E+00  0.00000000000E+00  0.10619816099E+04  0.10619816099E+04  0.50400001928E-02 0.  1.
       -1   -1    0    0    0  501  0.00000000000E+00  0.00000000000E+00 -0.29333307167E+03  0.29333307171E+03  0.50400001928E-02 0. -1.
    10030    2    1    2    0    0  0.00000000000E+00  0.00000000000E+00  0.76864853818E+03  0.13553146816E+04  0.11162693720E+04 0.  0.
        3    1    3    3  502    0  0.31250837733E+03  0.62542332729E+02  0.94063836335E+03  0.99316341560E+03  0.10100000352E+00 0.  1.
       -3    1    3    3    0  502 -0.31250837733E+03 -0.62542332729E+02 -0.17198982516E+03  0.36215126597E+03  0.10100000352E+00 0. -1.
</event>
<event>
 5   0  0.3621403E-04  0.1097939E+04  0.7818609E-02  0.9207203E-01
        1   -1    0    0  501    0  0.00000000000E+00  0.00000000000E+00  0.83199526434E+03  0.83199526435E+03  0.50400001928E-02 0. -1.
       -1   -1    0    0    0  501  0.00000000000E+00  0.00000000000E+00 -0.36222240548E+03  0.36222240552E+03  0.50400001928E-02 0.  1.
    10030    2    1    2    0    0  0.00000000000E+00  0.00000000000E+00  0.46977285885E+03  0.11942176699E+04  0.10979386614E+04 0.  0.
        3    1    3    3  502    0  0.49889727759E+03 -0.16995302140E+03  0.67846058001E+02  0.53139968089E+03  0.10100000352E+00 0.  1.
       -3    1    3    3    0  502 -0.49889727759E+03  0.16995302140E+03  0.40192680085E+03  0.66281798898E+03  0.10100000352E+00 0. -1.
</event>
<event>
 5   0  0.3657529E-04  0.1100526E+04  0.7818609E-02  0.9204679E-01
        1   -1    0    0  501    0  0.00000000000E+00  0.00000000000E+00  0.54260501234E+03  0.54260501236E+03  0.50400001928E-02 0.  1.
       -1   -1    0    0    0  501  0.00000000000E+00  0.00000000000E+00 -0.55802913035E+03  0.55802913038E+03  0.50400001928E-02 0. -1.
    10030    2    1    2    0    0  0.00000000000E+00  0.00000000000E+00 -0.15424118014E+02  0.11006341427E+04  0.11005260618E+04 0.  0.
        4    1    3    3  502    0  0.40352660640E+03  0.32879971958E+03 -0.18618073353E+03  0.55281810399E+03  0.12699999809E+01 0. -1.
       -4    1    3    3    0  502 -0.40352660640E+03 -0.32879971958E+03  0.17075661552E+03  0.54781603875E+03  0.12699999809E+01 0.  1.
</event>
<event>
 5   0  0.6264830E-04  0.1100601E+04  0.7818609E-02  0.9204607E-01
       -2   -1    0    0    0  501  0.00000000000E+00  0.00000000000E+00  0.19050491830E+03  0.19050491832E+03  0.25500000920E-02 0. -1.
        2   -1    0    0  501    0  0.00000000000E+00  0.00000000000E+00 -0.15896196824E+04  0.15896196824E+04  0.25500000920E-02 0.  1.
    10030    2    1    2    0    0  0.00000000000E+00  0.00000000000E+00 -0.13991147641E+04  0.17801246008E+04  0.11006005047E+04 0.  0.
        4    1    3    3  502    0 -0.99581380917E+02 -0.44279823738E+03 -0.19622760497E+03  0.49446295746E+03  0.12699999809E+01 0. -1.
       -4    1    3    3    0  502  0.99581380917E+02  0.44279823738E+03 -0.12028871592E+04  0.12856616433E+04  0.12699999809E+01 0.  1.
</event>
<event>
 5   0  0.6412712E-04  0.1100291E+04  0.7818609E-02  0.9204908E-01
       -2   -1    0    0    0  501  0.00000000000E+00  0.00000000000E+00  0.20647254019E+03  0.20647254021E+03  0.25500000920E-02 0. -1.
        2   -1    0    0  501    0  0.00000000000E+00  0.00000000000E+00 -0.14658606259E+04  0.14658606259E+04  0.25500000920E-02 0.  1.
    10030    2    1    2    0    0  0.00000000000E+00  0.00000000000E+00 -0.12593880857E+04  0.16723331661E+04  0.11002908107E+04 0.  0.
        2    1    3    3  502    0  0.46531261989E+03  0.17918542081E+02 -0.18443032206E+03  0.50085072834E+03  0.25500000920E-02 0. -1.
       -2    1    3    3    0  502 -0.46531261989E+03 -0.17918542081E+02 -0.10749577637E+04  0.11714824378E+04  0.25500000920E-02 0.  1.
</event>
<event>
 5   0  0.6264830E-04  0.1101044E+04  0.7818609E-02  0.9204174E-01
       -2   -1    0    0    0  501  0.00000000000E+00  0.00000000000E+00  0.57410813959E+03  0.57410813959E+03  0.25500000920E-02 0.  1.
        2   -1    0    0  501    0  0.00000000000E+00  0.00000000000E+00 -0.52790532828E+03  0.52790532829E+03  0.25500000920E-02 0. -1.
    10030    2    1    2    0    0  0.00000000000E+00  0.00000000000E+00  0.46202811304E+02  0.11020134679E+04  0.11010444967E+04 0.  0.
        4    1    3    3  502    0 -0.31052824756E+03 -0.49535855045E+02  0.47537465724E+03  0.56996865801E+03  0.12699999809E+01 0.  1.
       -4    1    3    3    0  502  0.31052824756E+03  0.49535855045E+02 -0.42917184593E+03  0.53204480987E+03  0.12699999809E+01 0. -1.
</event>
<event>
 5   0  0.6109149E-04  0.1100189E+04  0.7818609E-02  0.9205008E-01
        2   -1    0    0  501    0  0.00000000000E+00  0.00000000000E+00  0.50784751729E+03  0.50784751729E+03  0.25500000920E-02 0. -1.
       -2   -1    0    0    0  501  0.00000000000E+00  0.00000000000E+00 -0.59585548753E+03  0.59585548754E+03  0.25500000920E-02 0.  1.
    10030    2    1    2    0    0  0.00000000000E+00  0.00000000000E+00 -0.88007970244E+02  0.11037030048E+04  0.11001885839E+04 0.  0.
        1    1    3    3  502    0  0.37952136906E+03 -0.55829773331E+02  0.35152732571E+03  0.52031230421E+03  0.50400001928E-02 0. -1.
       -1    1    3    3    0  502 -0.37952136906E+03  0.55829773331E+02 -0.43953529595E+03  0.58339070063E+03  0.50400001928E-02 0.  1.
</event>
<event>
 5   0  0.5948818E-04  0.1101068E+04  0.7818609E-02  0.9204152E-01
        2   -1    0    0  501    0  0.00000000000E+00  0.00000000000E+00  0.31252342378E+03  0.31252342379E+03  0.25500000920E-02 0. -1.
       -2   -1    0    0    0  501  0.00000000000E+00  0.00000000000E+00 -0.96980770042E+03  0.96980770042E+03  0.25500000920E-02 0.  1.
    10030    2    1    2    0    0  0.00000000000E+00  0.00000000000E+00 -0.65728427664E+03  0.12823311242E+04  0.11010678870E+04 0.  0.
        3    1    3    3  502    0 -0.24076156551E+02  0.49542068345E+03 -0.50430088336E+02  0.49856245237E+03  0.10100000352E+00 0. -1.
       -3    1    3    3    0  502  0.24076156551E+02 -0.49542068345E+03 -0.60685418830E+03  0.78376867184E+03  0.10100000352E+00 0.  1.
</event>
<event>
 5   0  0.3423758E-04  0.1097726E+04  0.7818609E-02  0.9207411E-01
        1   -1    0    0  501    0  0.00000000000E+00  0.00000000000E+00  0.76014312122E+03  0.76014312124E+03  0.50400001928E-02 0. -1.
       -1   -1    0    0    0  501  0.00000000000E+00  0.00000000000E+00 -0.39630781459E+03  0.39630781463E+03  0.50400001928E-02 0.  1.
    10030    2    1    2    0    0  0.00000000000E+00  0.00000000000E+00  0.36383530663E+03  0.11564509359E+04  0.10977261210E+04 0.  0.
        1    1    3    3  502    0 -0.34977278972E+03  0.40538357578E+03  0.54737371523E+02  0.53821280904E+03  0.50400001928E-02 0. -1.
       -1    1    3    3    0  502  0.34977278972E+03 -0.40538357578E+03  0.30909793511E+03  0.61823812682E+03  0.50400001928E-02 0.  1.
</event>
<event>
 5   0  0.6412712E-04  0.1108983E+04  0.7818609E-02  0.9196481E-01
        2   -1    0    0  501    0  0.00000000000E+00  0.00000000000E+00  0.67778391705E+03  0.67778391705E+03  0.25500000920E-02 0. -1.
       -2   -1    0    0    0  501  0.00000000000E+00  0.00000000000E+00 -0.45362632929E+03  0.45362632930E+03  0.25500000920E-02 0.  1.
    10030    2    1    2    0    0  0.00000000000E+00  0.00000000000E+00  0.22415758776E+03  0.11314102464E+04  0.11089826515E+04 0.  0.
        2    1    3    3  502    0 -0.35324051530E+03  0.16875456259E+03  0.51270809088E+03  0.64507871652E+03  0.25500000920E-02 0. -1.
       -2    1    3    3    0  502  0.35324051530E+03 -0.16875456259E+03 -0.28855050312E+03  0.48633152983E+03  0.25500000920E-02 0.  1.
</event>
<event>
 5   0  0.3642161E-04  0.1101348E+04  0.7818609E-02  0.9203879E-01
        1   -1    0    0  501    0  0.00000000000E+00  0.00000000000E+00  0.12754786161E+04  0.12754786161E+04  0.50400001928E-02 0.  1.
       -1   -1    0    0    0  501  0.00000000000E+00  0.00000000000E+00 -0.23774740377E+03  0.23774740382E+03  0.50400001928E-02 0. -1.
    10030    2    1    2    0    0  0.00000000000E+00  0.00000000000E+00  0.10377312123E+04  0.15132260199E+04  0.11013477736E+04 0.  0.
        2    1    3    3  502    0  0.48513421809E+03  0.40195058188E+02  0.87257018520E+03  0.99917444942E+03  0.25500000920E-02 0. -1.
       -2    1    3    3    0  502 -0.48513421809E+03 -0.40195058188E+02  0.16516102714E+03  0.51405157052E+03  0.25500000920E-02 0.  1.
</event>
<event>
 5   0  0.6264830E-04  0.1097139E+04  0.7818609E-02  0.9207985E-01
       -2   -1    0    0    0  501  0.00000000000E+00  0.00000000000E+00  0.18529693539E+03  0.18529693541E+03  0.25500000920E-02 0.  1.
        2   -1    0    0  501    0  0.00000000000E+00  0.00000000000E+00 -0.16240327313E+04  0.16240327313E+04  0.25500000920E-02 0. -1.
    10030    2    1    2    0    0  0.00000000000E+00  0.00000000000E+00 -0.14387357959E+04  0.18093296667E+04  0.10971386204E+04 0.  0.
        4    1    3    3  502    0  0.64286678130E+02  0.21119725959E+03  0.10880268715E+03  0.24612333711E+03  0.12699999809E+01 0.  1.
       -4    1    3    3    0  502 -0.64286678130E+02 -0.21119725959E+03 -0.15475384830E+04  0.15632063296E+04  0.12699999809E+01 0. -1.
</event>
<event>
 5   0  0.6264830E-04  0.1100926E+04  0.7818609E-02  0.9204290E-01
       -2   -1    0    0    0  501  0.00000000000E+00  0.00000000000E+00  0.41057209480E+03  0.41057209481E+03  0.25500000920E-02 0.  1.
        2   -1    0    0  501    0  0.00000000000E+00  0.00000000000E+00 -0.73801799561E+03  0.73801799562E+03  0.25500000920E-02 0. -1.
    10030    2    1    2    0    0  0.00000000000E+00  0.00000000000E+00 -0.32744590081E+03  0.11485900904E+04  0.11009261455E+04 0.  0.
        4    1    3    3  502    0 -0.44809062351E+03  0.31972089520E+03 -0.16252254367E+03  0.57395282716E+03  0.12699999809E+01 0.  1.
       -4    1    3    3    0  502  0.44809062351E+03 -0.31972089520E+03 -0.16492335714E+03  0.57463726327E+03  0.12699999809E+01 0. -1.
</event>
<event>
 5   0  0.3423758E-04  0.1101056E+04  0.7818609E-02  0.9204163E-01
       -1   -1    0    0    0  501  0.00000000000E+00  0.00000000000E+00  0.70987990637E+03  0.70987990639E+03  0.50400001928E-02 0.  1.
        1   -1    0    0  501    0  0.00000000000E+00  0.00000000000E+00 -0.42694732414E+03  0.42694732417E+03  0.50400001928E-02 0. -1.
    10030    2    1    2    0    0  0.00000000000E+00  0.00000000000E+00  0.28293258223E+03  0.11368272306E+04  0.11010564500E+04 0.  0.
        1    1    3    3  502    0 -0.37318275194E+03  0.14024672949E+03 -0.25053491913E+03  0.47085269162E+03  0.50400001928E-02 0. -1.
       -1    1    3    3    0  502  0.37318275194E+03 -0.14024672949E+03  0.53346750137E+03  0.66597453894E+03  0.50400001928E-02 0.  1.
</event>
<event>
 5   0  0.3621403E-04  0.1101736E+04  0.7818609E-02  0.9203502E-01
        1   -1    0    0  501    0  0.00000000000E+00  0.00000000000E+00  0.16454537209E+04  0.16454537209E+04  0.50400001928E-02 0.  1.
       -1   -1    0    0    0  501  0.00000000000E+00  0.00000000000E+00 -0.18442057978E+03  0.18442057985E+03  0.50400001928E-02 0. -1.
    10030    2    1    2    0    0  0.00000000000E+00  0.00000000000E+00  0.14610331411E+04  0.18298743007E+04  0.11017359562E+04 0.  0.
        3    1    3    3  502    0  0.14048886714E+02  0.61088681037E+02  0.16395110185E+04  0.16407088676E+04  0.10100000352E+00 0.  1.
       -3    1    3    3    0  502 -0.14048886714E+02 -0.61088681037E+02 -0.17847787742E+03  0.18916543315E+03  0.10100000352E+00 0. -1.
</event>
<event>
 5   0  0.5948818E-04  0.1098832E+04  0.7818609E-02  0.9206331E-01
       -2   -1    0    0    0  501  0.00000000000E+00  0.00000000000E+00  0.22331953103E+03  0.22331953105E+03  0.25500000920E-02 0.  1.
        2   -1    0    0  501    0  0.00000000000E+00  0.00000000000E+00 -0.13516857348E+04  0.13516857348E+04  0.25500000920E-02 0. -1.
    10030    2    1    2    0    0  0.00000000000E+00  0.00000000000E+00 -0.11283662037E+04  0.15750052658E+04  0.10988317877E+04 0.  0.
        3    1    3    3  502    0  0.87879552916E+02  0.10610077113E+03 -0.13265255351E+04  0.13336604497E+04  0.10100000352E+00 0. -1.
       -3    1    3    3    0  502 -0.87879552916E+02 -0.10610077113E+03  0.19815933140E+03  0.24134481614E+03  0.10100000352E+00 0.  1.
</event>
<event>
 5   0  0.3523525E-04  0.1100850E+04  0.7818609E-02  0.9204364E-01
       -1   -1    0    0    0  501  0.00000000000E+00  0.00000000000E+00  0.19893315576E+03  0.19893315583E+03  0.50400001928E-02 0.  1.
        1   -1    0    0  501    0  0.00000000000E+00  0.00000000000E+00 -0.15229609813E+04  0.15229609813E+04  0.50400001928E-02 0. -1.
    10030    2    1    2    0    0  0.00000000000E+00  0.00000000000E+00 -0.13240278255E+04  0.17218941371E+04  0.11008495523E+04 0.  0.
        5    1    3    3  502    0 -0.12786670072E+03  0.56672659850E+01 -0.14993287504E+04  0.15047892885E+04  0.46999998093E+01 0. -1.
       -5    1    3    3    0  502  0.12786670072E+03 -0.56672659850E+01  0.17530092484E+03  0.21710484864E+03  0.46999998093E+01 0.  1.
</event>
<event>
 5   0  0.3657529E-04  0.1099830E+04  0.7818609E-02  0.9205358E-01
        1   -1    0    0  501    0  0.00000000000E+00  0.00000000000E+00  0.30815808537E+03  0.30815808541E+03  0.50400001928E-02 0. -1.
       -1   -1    0    0    0  501  0.00000000000E+00  0.00000000000E+00 -0.98133552099E+03  0.98133552100E+03  0.50400001928E-02 0.  1.
    10030    2    1    2    0    0  0.00000000000E+00  0.00000000000E+00 -0.67317743561E+03  0.12894936064E+04  0.10998299419E+04 0.  0.
        4    1    3    3  502    0  0.47049948716E+03 -0.14604757670E+03 -0.50105138409E+02  0.49518865079E+03  0.12699999809E+01 0. -1.
       -4    1    3    3    0  502 -0.47049948716E+03  0.14604757670E+03 -0.62307229720E+03  0.79430495562E+03  0.12699999809E+01 0.  1.
</event>
<event>
 5   0  0.6264830E-04  0.1100424E+04  0.7818609E-02  0.9204779E-01
        2   -1    0    0  501    0  0.00000000000E+00  0.00000000000E+00  0.71663914106E+03  0.71663914107E+03  0.25500000920E-02 0. -1.
       -2   -1    0    0    0  501  0.00000000000E+00  0.00000000000E+00 -0.42243455630E+03  0.42243455630E+03  0.25500000920E-02 0.  1.
    10030    2    1    2    0    0  0.00000000000E+00  0.00000000000E+00  0.29420458477E+03  0.11390736974E+04  0.11004238049E+04 0.  0.
        4    1    3    3  502    0 -0.39073365956E+03 -0.29239269304E+03 -0.11591920670E+03  0.50160258675E+03  0.12699999809E+01 0. -1.
       -4    1    3    3    0  502  0.39073365956E+03  0.29239269304E+03  0.41012379146E+03  0.63747111062E+03  0.12699999809E+01 0.  1.
</event>
<event>
 5   0  0.6109149E-04  0.1100181E+04  0.7818609E-02  0.9205015E-01
        2   -1    0    0  501    0  0.00000000000E+00  0.00000000000E+00  0.10017653636E+04  0.10017653636E+04  0.25500000920E-02 0. -1.
       -2   -1    0    0    0  501  0.00000000000E+00  0.00000000000E+00 -0.30206633769E+03  0.30206633770E+03  0.25500000920E-02 0.  1.
    10030    2    1    2    0    0  0.00000000000E+00  0.00000000000E+00  0.69969902596E+03  0.13038317013E+04  0.11001810662E+04 0.  0.
        1    1    3    3  502    0  0.20252326171E+03 -0.36284023807E+03 -0.77333099569E+02  0.42266904099E+03  0.50400001928E-02 0.  1.
       -1    1    3    3    0  502 -0.20252326171E+03  0.36284023807E+03  0.77703212553E+03  0.88116266036E+03  0.50400001928E-02 0. -1.
</event>
<event>
 5   0  0.3642161E-04  0.1101327E+04  0.7818609E-02  0.9203900E-01
        1   -1    0    0  501    0  0.00000000000E+00  0.00000000000E+00  0.43107518229E+03  0.43107518232E+03  0.50400001928E-02 0. -1.
       -1   -1    0    0    0  501  0.00000000000E+00  0.00000000000E+00 -0.70342750500E+03  0.70342750502E+03  0.50400001928E-02 0.  1.
    10030    2    1    2    0    0  0.00000000000E+00  0.00000000000E+00 -0.27235232272E+03  0.11345026873E+04  0.11013267271E+04 0.  0.
        2    1    3    3  502    0 -0.33602604108E+03 -0.18666534947E+03 -0.54235416647E+03  0.66475972718E+03  0.25500000920E-02 0.  1.
       -2    1    3    3    0  502  0.33602604108E+03  0.18666534947E+03  0.27000184376E+03  0.46974296016E+03  0.25500000920E-02 0. -1.
</event>
<event>
 5   0  0.6412712E-04  0.1100541E+04  0.7818609E-02  0.9204664E-01
        2   -1    0    0  501    0  0.00000000000E+00  0.00000000000E+00  0.11164610831E+04  0.11164610831E+04  0.25500000920E-02 0. -1.
       -2   -1    0    0    0  501  0.00000000000E+00  0.00000000000E+00 -0.27121218796E+03  0.27121218797E+03  0.25500000920E-02 0.  1.
    10030    2    1    2    0    0  0.00000000000E+00  0.00000000000E+00  0.84524889512E+03  0.13876732711E+04  0.11005414179E+04 0.  0.
        2    1    3    3  502    0  0.26137912461E+03  0.37943133754E+03  0.80196625833E+03  0.92489840858E+03  0.25500000920E-02 0. -1.
       -2    1    3    3    0  502 -0.26137912461E+03 -0.37943133754E+03  0.43282636790E+02  0.46277486248E+03  0.25500000920E-02 0.  1.
</event>
<event>
 5   0  0.2403875E-04  0.1098339E+04  0.7818609E-02  0.9206813E-01
       -3   -1    0    0    0  501  0.00000000000E+00  0.00000000000E+00  0.62264417538E+03  0.62264418357E+03  0.10100000352E+00 0. -1.
        3   -1    0    0  501    0  0.00000000000E+00  0.00000000000E+00 -0.48436480816E+03  0.48436481869E+03  0.10100000352E+00 0.  1.
    10030    2    1    2    0    0  0.00000000000E+00  0.00000000000E+00  0.13827936721E+03  0.11070090023E+04  0.10983386307E+04 0.  0.
        3    1    3    3  502    0 -0.40161747279E+03 -0.16340225943E+03 -0.27055207335E+03  0.51107272225E+03  0.10100000352E+00 0.  1.
       -3    1    3    3    0  502  0.40161747279E+03  0.16340225943E+03  0.40883144057E+03  0.59593628001E+03  0.10100000352E+00 0. -1.
</event>
<event>
 5   0  0.6109149E-04  0.1098460E+04  0.7818609E-02  0.9206694E-01
       -2   -1    0    0    0  501  0.00000000000E+00  0.00000000000E+00  0.19354299258E+03  0.19354299260E+03  0.25500000920E-02 0.  1.
        2   -1    0    0  501    0  0.00000000000E+00  0.00000000000E+00 -0.15585866774E+04  0.15585866774E+04  0.25500000920E-02 0. -1.
    10030    2    1    2    0    0  0.00000000000E+00  0.00000000000E+00 -0.13650436848E+04  0.17521296700E+04  0.10984598850E+04 0.  0.
        1    1    3    3  502    0 -0.24416046502E+03 -0.12966409708E+03  0.74470887060E+02  0.28630931489E+03  0.50400001928E-02 0.  1.
       -1    1    3    3    0  502  0.24416046502E+03  0.12966409708E+03 -0.14395145718E+04  0.14658203551E+04  0.50400001928E-02 0. -1.
</event>
<event>
 5   0  0.5948818E-04  0.1100036E+04  0.7818609E-02  0.9205156E-01
       -2   -1    0    0    0  501  0.00000000000E+00  0.00000000000E+00  0.34656476531E+03  0.34656476532E+03  0.25500000920E-02 0.  1.
        2   -1    0    0  501    0  0.00000000000E+00  0.00000000000E+00 -0.87291033262E+03  0.87291033262E+03  0.25500000920E-02 0. -1.
    10030    2    1    2    0    0  0.00000000000E+00  0.00000000000E+00 -0.52634556731E+03  0.12194750979E+04  0.11000362986E+04 0.  0.
        3    1    3    3  502    0 -0.71944009545E+02 -0.46286630609E+03  0.56395218322E+02  0.47180672810E+03  0.10100000352E+00 0.  1.
       -3    1    3    3    0  502  0.71944009545E+02  0.46286630609E+03 -0.58274078563E+03  0.74766836984E+03  0.10100000352E+00 0. -1.
</event>
<event>
 5   0  0.6412712E-04  0.1100410E+04  0.7818609E-02  0.9204792E-01
       -2   -1    0    0    0  501  0.00000000000E+00  0.00000000000E+00  0.32907187435E+03  0.32907187436E+03  0.25500000920E-02 0.  1.
        2   -1    0    0  501    0  0.00000000000E+00  0.00000000000E+00 -0.91993777965E+03  0.91993777965E+03  0.25500000920E-02 0. -1.
    10030    2    1    2    0    0  0.00000000000E+00  0.00000000000E+00 -0.59086590530E+03  0.12490096540E+04  0.11004101952E+04 0.  0.
        2    1    3    3  502    0 -0.23104747528E+03  0.47017699530E+03 -0.48629629793E+03  0.71479607730E+03  0.25500000920E-02 0. -1.
       -2    1    3    3    0  502  0.23104747528E+03 -0.47017699530E+03 -0.10456960737E+03  0.53421357671E+03  0.25500000920E-02 0.  1.
</event>
<event>
 5   0  0.3523525E-04  0.1099958E+04  0.7818609E-02  0.9205232E-01
        1   -1    0    0  501    0  0.00000000000E+00  0.00000000000E+00  0.90179717009E+03  0.90179717011E+03  0.50400001928E-02 0.  1.
       -1   -1    0    0    0  501  0.00000000000E+00  0.00000000000E+00 -0.33541587329E+03  0.33541587332E+03  0.50400001928E-02 0. -1.
    10030    2    1    2    0    0  0.00000000000E+00  0.00000000000E+00  0.56638129681E+03  0.12372130434E+04  0.10999583362E+04 0.  0.
        5    1    3    3  502    0 -0.52223667292E+03  0.15839049737E+03  0.35977749141E+03  0.65366706015E+03  0.46999998093E+01 0.  1.
       -5    1    3    3    0  502  0.52223667292E+03 -0.15839049737E+03  0.20660380539E+03  0.58354598328E+03  0.46999998093E+01 0. -1.
</event>
<event>
 5   0  0.6264830E-04  0.1098772E+04  0.7818609E-02  0.9206389E-01
       -2   -1    0    0    0  501  0.00000000000E+00  0.00000000000E+00  0.21929139897E+03  0.21929139898E+03  0.25500000920E-02 0.  1.
        2   -1    0    0  501    0  0.00000000000E+00  0.00000000000E+00 -0.13763654525E+04  0.13763654525E+04  0.25500000920E-02 0. -1.
    10030    2    1    2    0    0  0.00000000000E+00  0.00000000000E+00 -0.11570740535E+04  0.15956568515E+04  0.10987722341E+04 0.  0.
        4    1    3    3  502    0 -0.23257774342E+02 -0.11191757939E+03  0.20182855004E+03  0.23195440318E+03  0.12699999809E+01 0.  1.
       -4    1    3    3    0  502  0.23257774342E+02  0.11191757939E+03 -0.13589026036E+04  0.13637024483E+04  0.12699999809E+01 0. -1.
</event>
<event>
 5   0  0.3621403E-04  0.1097111E+04  0.7818609E-02  0.9208012E-01
       -1   -1    0    0    0  501  0.00000000000E+00  0.00000000000E+00  0.74583713630E+03  0.74583713631E+03  0.50400001928E-02 0.  1.
        1   -1    0    0  501    0  0.00000000000E+00  0.00000000000E+00 -0.40345692001E+03  0.40345692004E+03  0.50400001928E-02 0. -1.
    10030    2    1    2    0    0  0.00000000000E+00  0.00000000000E+00  0.34238021629E+03  0.11492940564E+04  0.10971110315E+04 0.  0.
        3    1    3    3  502    0 -0.49944380251E+02  0.30592799617E+02  0.74255229721E+03  0.74485856698E+03  0.10100000352E+00 0.  1.
       -3    1    3    3    0  502  0.49944380251E+02 -0.30592799617E+02 -0.40017208093E+03  0.40443548937E+03  0.10100000352E+00 0. -1.
</event>
<event>
 5   0  0.3423758E-04  0.1098829E+04  0.7818609E-02  0.9206334E-01
       -1   -1    0    0    0  501  0.00000000000E+00  0.00000000000E+00  0.50647659162E+03  0.50647659164E+03  0.50400001928E-02 0. -1.
        1   -1    0    0  501    0  0.00000000000E+00  0.00000000000E+00 -0.59599233303E+03  0.59599233306E+03  0.50400001928E-02 0.  1.
    10030    2    1    2    0    0  0.00000000000E+00  0.00000000000E+00 -0.89515741417E+02  0.11024689247E+04  0.10988287683E+04 0.  0.
        1    1    3    3  502    0  0.62703316941E+02 -0.54063649218E+03  0.30568422091E+02  0.54511829091E+03  0.50400001928E-02 0. -1.
       -1    1    3    3    0  502 -0.62703316941E+02  0.54063649218E+03 -0.12008416351E+03  0.55735063379E+03  0.50400001928E-02 0.  1.
</event>
<event>
 5   0  0.5948818E-04  0.1098286E+04  0.7818609E-02  0.9206864E-01
        2   -1    0    0  501    0  0.00000000000E+00  0.00000000000E+00  0.98591385959E+03  0.98591385959E+03  0.25500000920E-02 0.  1.
       -2   -1    0    0    0  501  0.00000000000E+00  0.00000000000E+00 -0.30586646387E+03  0.30586646388E+03  0.25500000920E-02 0. -1.
    10030    2    1    2    0    0  0.00000000000E+00  0.00000000000E+00  0.68004739572E+03  0.12917803235E+04  0.10982859116E+04 0.  0.
        3    1    3    3  502    0  0.11448774324E+03 -0.29203418811E+03 -0.19012704182E+03  0.36679655479E+03  0.10100000352E+00 0. -1.
       -3    1    3    3    0  502 -0.11448774324E+03  0.29203418811E+03  0.87017443753E+03  0.92498376868E+03  0.10100000352E+00 0.  1.
</event>
<event>
 5   0  0.3523525E-04  0.1099899E+04  0.7818609E-02  0.9205291E-01
        1   -1    0    0  501    0  0.00000000000E+00  0.00000000000E+00  0.83862047354E+03  0.83862047355E+03  0.50400001928E-02 0. -1.
       -1   -1    0    0    0  501  0.00000000000E+00  0.00000000000E+00 -0.36064497742E+03  0.36064497746E+03  0.50400001928E-02 0.  1.
    10030    2    1    2    0    0  0.00000000000E+00  0.00000000000E+00  0.47797549612E+03  0.11992654510E+04  0.10998986531E+04 0.  0.
        5    1    3    3  502    0 -0.33388744239E+02 -0.54418264254E+03  0.16056939201E+03  0.56837855020E+03  0.46999998093E+01 0. -1.
       -5    1    3    3    0  502  0.33388744239E+02  0.54418264254E+03  0.31740610411E+03  0.63088690081E+03  0.46999998093E+01 0.  1.
</event>
<event>
 5   0  0.3621403E-04  0.1107291E+04  0.7818609E-02  0.9198115E-01
       -1   -1    0    0    0  501  0.00000000000E+00  0.00000000000E+00  0.37544176267E+03  0.37544176271E+03  0.50400001928E-02 0.  1.
        1   -1    0    0  501    0  0.00000000000E+00  0.00000000000E+00 -0.81643344464E+03  0.81643344466E+03  0.50400001928E-02 0. -1.
    10030    2    1    2    0    0  0.00000000000E+00  0.00000000000E+00 -0.44099168197E+03  0.11918752074E+04  0.11072907687E+04 0.  0.
        3    1    3    3  502    0 -0.66368679769E+02  0.10468439929E+02  0.37103707193E+03  0.37707149035E+03  0.10100000352E+00 0.  1.
       -3    1    3    3    0  502  0.66368679769E+02 -0.10468439929E+02 -0.81202875390E+03  0.81480371701E+03  0.10100000352E+00 0. -1.
</event>
<event>
 5   0  0.3657529E-04  0.1101876E+04  0.7818609E-02  0.9203366E-01
       -1   -1    0    0    0  501  0.00000000000E+00  0.00000000000E+00  0.53603579440E+03  0.53603579443E+03  0.50400001928E-02 0.  1.
        1   -1    0    0  501    0  0.00000000000E+00  0.00000000000E+00 -0.56625403943E+03  0.56625403945E+03  0.50400001928E-02 0. -1.
    10030    2    1    2    0    0  0.00000000000E+00  0.00000000000E+00 -0.30218245027E+02  0.11022898339E+04  0.11018755536E+04 0.  0.
        4    1    3    3  502    0  0.52984467992E+03  0.13056720754E+03  0.60732576078E+02  0.54906578769E+03  0.12699999809E+01 0.  1.
       -4    1    3    3    0  502 -0.52984467992E+03 -0.13056720754E+03 -0.90950821105E+02  0.55322404619E+03  0.12699999809E+01 0. -1.
</event>
<event>
 5   0  0.3523525E-04  0.1105952E+04  0.7818609E-02  0.9199410E-01
        1   -1    0    0  501    0  0.00000000000E+00  0.00000000000E+00  0.84129129602E+03  0.84129129604E+03  0.50400001928E-02 0. -1.
       -1   -1    0    0    0  501  0.00000000000E+00  0.00000000000E+00 -0.36346822226E+03  0.36346822230E+03  0.50400001928E-02 0.  1.
    10030    2    1    2    0    0  0.00000000000E+00  0.00000000000E+00  0.47782307376E+03  0.12047595183E+04  0.11059523530E+04 0.  0.
        5    1    3    3  502    0  0.18135002626E+03 -0.43600226333E+03 -0.74498502656E+02  0.47807731859E+03  0.46999998093E+01 0.  1.
       -5    1    3    3    0  502 -0.18135002626E+03  0.43600226333E+03  0.55232157642E+03  0.72668219975E+03  0.46999998093E+01 0. -1.
</event>
<event>
 5   0  0.3657529E-04  0.1095459E+04  0.7818609E-02  0.9209629E-01
       -1   -1    0    0    0  501  0.00000000000E+00  0.00000000000E+00  0.41746653337E+03  0.41746653340E+03  0.50400001928E-02 0. -1.
        1   -1    0    0  501    0  0.00000000000E+00  0.00000000000E+00 -0.71863831849E+03  0.71863831850E+03  0.50400001928E-02 0.  1.
    10030    2    1    2    0    0  0.00000000000E+00  0.00000000000E+00 -0.30117178511E+03  0.11361048519E+04  0.10954587123E+04 0.  0.
        4    1    3    3  502    0  0.20925964678E+03 -0.15709516452E+03  0.34845131197E+03  0.43576188475E+03  0.12699999809E+01 0. -1.
       -4    1    3    3    0  502 -0.20925964678E+03  0.15709516452E+03 -0.64962309708E+03  0.70034296716E+03  0.12699999809E+01 0.  1.
</event>
<event>
 5   0  0.5948818E-04  0.1098901E+04  0.7818609E-02  0.9206264E-01
        2   -1    0    0  501    0  0.00000000000E+00  0.00000000000E+00  0.41940465071E+03  0.41940465072E+03  0.25500000920E-02 0. -1.
       -2   -1    0    0    0  501  0.00000000000E+00  0.00000000000E+00 -0.71981959297E+03  0.71981959297E+03  0.25500000920E-02 0.  1.
    10030    2    1    2    0    0  0.00000000000E+00  0.00000000000E+00 -0.30041494226E+03  0.11392242437E+04  0.10989006961E+04 0.  0.
        3    1    3    3  502    0 -0.13528690967E+03 -0.10070592729E+03  0.39190684949E+03  0.42665585733E+03  0.10100000352E+00 0. -1.
       -3    1    3    3    0  502  0.13528690967E+03  0.10070592729E+03 -0.69232179174E+03  0.71256838636E+03  0.10100000352E+00 0.  1.
</event>
<event>
 5   0  0.3657529E-04  0.1113988E+04  0.7818609E-02  0.9191664E-01
       -1   -1    0    0    0  501  0.00000000000E+00  0.00000000000E+00  0.34106628399E+03  0.34106628402E+03  0.50400001928E-02 0.  1.
        1   -1    0    0  501    0  0.00000000000E+00  0.00000000000E+00 -0.90962543394E+03  0.90962543396E+03  0.50400001928E-02 0. -1.
    10030    2    1    2    0    0  0.00000000000E+00  0.00000000000E+00 -0.56855914996E+03  0.12506917180E+04  0.11139884499E+04 0.  0.
        4    1    3    3  502    0  0.53318743881E+03  0.22265377325E+02 -0.46340933874E+03  0.70677748979E+03  0.12699999809E+01 0.  1.
       -4    1    3    3    0  502 -0.53318743881E+03 -0.22265377325E+02 -0.10514981121E+03  0.54391422819E+03  0.12699999809E+01 0. -1.
</event>
<event>
 5   0  0.5948818E-04  0.1090824E+04  0.7818609E-02  0.9214182E-01
       -2   -1    0    0    0  501  0.00000000000E+00  0.00000000000E+00  0.24330943612E+03  0.24330943614E+03  0.25500000920E-02 0.  1.
        2   -1    0    0  501    0  0.00000000000E+00  0.00000000000E+00 -0.12226164276E+04  0.12226164276E+04  0.25500000920E-02 0. -1.
    10030    2    1    2    0    0  0.00000000000E+00  0.00000000000E+00 -0.97930699147E+03  0.14659258637E+04  0.10908237504E+04 0.  0.
        3    1    3    3  502    0 -0.21155694732E+03  0.60980490995E+02  0.18093538295E+03  0.28497821890E+03  0.10100000352E+00 0.  1.
       -3    1    3    3    0  502  0.21155694732E+03 -0.60980490995E+02 -0.11602423744E+04  0.11809476448E+04  0.10100000352E+00 0. -1.
</event>
<event>
 5   0  0.6264830E-04  0.1099847E+04  0.7818609E-02  0.9205341E-01
       -2   -1    0    0    0  501  0.00000000000E+00  0.00000000000E+00  0.90679594330E+03  0.90679594330E+03  0.25500000920E-02 0.  1.
        2   -1    0    0  501    0  0.00000000000E+00  0.00000000000E+00 -0.33349961262E+03  0.33349961263E+03  0.25500000920E-02 0. -1.
    10030    2    1    2    0    0  0.00000000000E+00  0.00000000000E+00  0.57329633068E+03  0.12402955559E+04  0.10998474364E+04 0.  0.
        4    1    3    3  502    0  0.17084140330E+03  0.24335556578E+03 -0.23503338589E+03  0.37901322123E+03  0.12699999809E+01 0. -1.
       -4    1    3    3    0  502 -0.17084140330E+03 -0.24335556578E+03  0.80832971657E+03  0.86128233471E+03  0.12699999809E+01 0.  1.
</event>
<event>
 5   0  0.3657529E-04  0.1104462E+04  0.7818609E-02  0.9200854E-01
        1   -1    0    0  501    0  0.00000000000E+00  0.00000000000E+00  0.42930113484E+03  0.42930113487E+03  0.50400001928E-02 0.  1.
       -1   -1    0    0    0  501  0.00000000000E+00  0.00000000000E+00 -0.71036198594E+03  0.71036198596E+03  0.50400001928E-02 0. -1.
    10030    2    1    2    0    0  0.00000000000E+00  0.00000000000E+00 -0.28106085110E+03  0.11396631208E+04  0.11044622343E+04 0.  0.
        4    1    3    3  502    0  0.35940980747E+03  0.17257939323E+03  0.25374515216E+03  0.47259630957E+03  0.12699999809E+01 0.  1.
       -4    1    3    3    0  502 -0.35940980747E+03 -0.17257939323E+03 -0.53480600326E+03  0.66706681127E+03  0.12699999809E+01 0. -1.
</event>
<event>
 5   0  0.3423758E-04  0.1097488E+04  0.7818609E-02  0.9207644E-01
        1   -1    0    0  501    0  0.00000000000E+00  0.00000000000E+00  0.46699859667E+03  0.46699859669E+03  0.50400001928E-02 0.  1.
       -1   -1    0    0    0  501  0.00000000000E+00  0.00000000000E+00 -0.64479838991E+03  0.64479838993E+03  0.50400001928E-02 0. -1.
    10030    2    1    2    0    0  0.00000000000E+00  0.00000000000E+00 -0.17779979324E+03  0.11117969866E+04  0.10974879375E+04 0.  0.
        1    1    3    3  502    0 -0.15756068054E+03 -0.45465651940E+03  0.17832336921E+03  0.51316385562E+03  0.50400001928E-02 0.  1.
       -1    1    3    3    0  502  0.15756068054E+03  0.45465651940E+03 -0.35612316245E+03  0.59863313101E+03  0.50400001928E-02 0. -1.
</event>
<event>
 5   0  0.6412712E-04  0.1086994E+04  0.7818609E-02  0.9217962E-01
        2   -1    0    0  501    0  0.00000000000E+00  0.00000000000E+00  0.69467457663E+03  0.69467457663E+03  0.25500000920E-02 0.  1.
       -2   -1    0    0    0  501  0.00000000000E+00  0.00000000000E+00 -0.42521888819E+03  0.42521888819E+03  0.25500000920E-02 0. -1.
    10030    2    1    2    0    0  0.00000000000E+00  0.00000000000E+00  0.26945568844E+03  0.11198934648E+04  0.10869935623E+04 0.  0.
        2    1    3    3  502    0 -0.41494455988E+03 -0.23606111508E+03 -0.13291342790E+03  0.49555001478E+03  0.25500000920E-02 0. -1.
       -2    1    3    3    0  502  0.41494455988E+03  0.23606111508E+03  0.40236911634E+03  0.62434345005E+03  0.25500000920E-02 0.  1.
</event>
<event>
 5   0  0.5948818E-04  0.1099058E+04  0.7818609E-02  0.9206111E-01
       -2   -1    0    0    0  501  0.00000000000E+00  0.00000000000E+00  0.36240537579E+03  0.36240537580E+03  0.25500000920E-02 0. -1.
        2   -1    0    0  501    0  0.00000000000E+00  0.00000000000E+00 -0.83327123181E+03  0.83327123181E+03  0.25500000920E-02 0.  1.
    10030    2    1    2    0    0  0.00000000000E+00  0.00000000000E+00 -0.47086585602E+03  0.11956766076E+04  0.10990577308E+04 0.  0.
        3    1    3    3  502    0 -0.36644861717E+03 -0.26639116051E+03  0.10292848872E+03  0.46458919856E+03  0.10100000352E+00 0. -1.
       -3    1    3    3    0  502  0.36644861717E+03  0.26639116051E+03 -0.57379434474E+03  0.73108740906E+03  0.10100000352E+00 0.  1.
</event>
<event>
 5   0  0.3657529E-04  0.1100261E+04  0.7818609E-02  0.9204938E-01
       -1   -1    0    0    0  501  0.00000000000E+00  0.00000000000E+00  0.32242675591E+03  0.32242675595E+03  0.50400001928E-02 0. -1.
        1   -1    0    0  501    0  0.00000000000E+00  0.00000000000E+00 -0.93864263605E+03  0.93864263607E+03  0.50400001928E-02 0.  1.
    10030    2    1    2    0    0  0.00000000000E+00  0.00000000000E+00 -0.61621588014E+03  0.12610693920E+04  0.11002608784E+04 0.  0.
        4    1    3    3  502    0  0.22032779898E+03  0.32813920348E+03 -0.74668589132E+03  0.84484383709E+03  0.12699999809E+01 0.  1.
       -4    1    3    3    0  502 -0.22032779898E+03 -0.32813920348E+03  0.13047001118E+03  0.41622555493E+03  0.12699999809E+01 0. -1.
</event>
<event>
 5   0  0.3642161E-04  0.1097453E+04  0.7818609E-02  0.9207678E-01
        1   -1    0    0  501    0  0.00000000000E+00  0.00000000000E+00  0.66351317970E+03  0.66351317972E+03  0.50400001928E-02 0.  1.
       -1   -1    0    0    0  501  0.00000000000E+00  0.00000000000E+00 -0.45379755390E+03  0.45379755392E+03  0.50400001928E-02 0. -1.
    10030    2    1    2    0    0  0.00000000000E+00  0.00000000000E+00  0.20971562580E+03  0.11173107336E+04  0.10974527925E+04 0.  0.
        2    1    3    3  502    0  0.18257933818E+03  0.16931466290E+03 -0.39296647810E+03  0.46521535091E+03  0.25500000920E-02 0. -1.
       -2    1    3    3    0  502 -0.18257933818E+03 -0.16931466290E+03  0.60268210391E+03  0.65209538273E+03  0.25500000920E-02 0.  1.
</event>
<event>
 5   0  0.3423758E-04  0.1101616E+04  0.7818609E-02  0.9203618E-01
       -1   -1    0    0    0  501  0.00000000000E+00  0.00000000000E+00  0.33707045301E+03  0.33707045305E+03  0.50400001928E-02 0. -1.
        1   -1    0    0  501    0  0.00000000000E+00  0.00000000000E+00 -0.90007783868E+03  0.90007783869E+03  0.50400001928E-02 0.  1.
    10030    2    1    2    0    0  0.00000000000E+00  0.00000000000E+00 -0.56300738567E+03  0.12371482917E+04  0.11016163486E+04 0.  0.
        1    1    3    3  502    0 -0.42942871815E+03 -0.31917858509E+03 -0.13462418810E+03  0.55173151551E+03  0.50400001928E-02 0. -1.
       -1    1    3    3    0  502  0.42942871815E+03  0.31917858509E+03 -0.42838319757E+03  0.68541677623E+03  0.50400001928E-02 0.  1.
</event>
<event>
 5   0  0.6412712E-04  0.1110410E+04  0.7818609E-02  0.9195105E-01
       -2   -1    0    0    0  501  0.00000000000E+00  0.00000000000E+00  0.23347556690E+03  0.23347556692E+03  0.25500000920E-02 0. -1.
        2   -1    0    0  501    0  0.00000000000E+00  0.00000000000E+00 -0.13202773854E+04  0.13202773854E+04  0.25500000920E-02 0.  1.
    10030    2    1    2    0    0  0.00000000000E+00  0.00000000000E+00 -0.10868018185E+04  0.15537529523E+04  0.11104098541E+04 0.  0.
        2    1    3    3  502    0  0.89331386213E+02  0.46028018895E+03 -0.95946531144E+03  0.10679005725E+04  0.25500000920E-02 0.  1.
       -2    1    3    3    0  502 -0.89331386213E+02 -0.46028018895E+03 -0.12733650703E+03  0.48585237978E+03  0.25500000920E-02 0. -1.
</event>
<event>
 5   0  0.3523525E-04  0.1100517E+04  0.7818609E-02  0.9204688E-01
        1   -1    0    0  501    0  0.00000000000E+00  0.00000000000E+00  0.98853848653E+03  0.98853848654E+03  0.50400001928E-02 0. -1.
       -1   -1    0    0    0  501  0.00000000000E+00  0.00000000000E+00 -0.30629487536E+03  0.30629487540E+03  0.50400001928E-02 0.  1.
    10030    2    1    2    0    0  0.00000000000E+00  0.00000000000E+00  0.68224361117E+03  0.12948333619E+04  0.11005167378E+04 0.  0.
        5    1    3    3  502    0  0.32744961196E+03  0.66335293083E+02  0.85551046696E+03  0.91844644294E+03  0.46999998093E+01 0.  1.
       -5    1    3    3    0  502 -0.32744961196E+03 -0.66335293083E+02 -0.17326685579E+03  0.37638691900E+03  0.46999998093E+01 0. -1.
</event>
<event>
 5   0  0.3621403E-04  0.1098351E+04  0.7818609E-02  0.9206800E-01
        1   -1    0    0  501    0  0.00000000000E+00  0.00000000000E+00  0.21485784631E+04  0.21485784632E+04  0.50400001928E-02 0.  1.
       -1   -1    0    0    0  501  0.00000000000E+00  0.00000000000E+00 -0.14036903316E+03  0.14036903325E+03  0.50400001928E-02 0. -1.
    10030    2    1    2    0    0  0.00000000000E+00  0.00000000000E+00  0.20082094300E+04  0.22889474964E+04  0.10983512765E+04 0.  0.
        3    1    3    3  502    0  0.19544498755E+03 -0.41058557848E+03  0.36240446902E+03  0.58147766060E+03  0.10100000352E+00 0. -1.
       -3    1    3    3    0  502 -0.19544498755E+03  0.41058557848E+03  0.16458049610E+04  0.17074698358E+04  0.10100000352E+00 0.  1.
</event>
<event>
 5   0  0.5948818E-04  0.1113172E+04  0.7818609E-02  0.9192448E-01
       -2   -1    0    0    0  501  0.00000000000E+00  0.00000000000E+00  0.79638888040E+03  0.79638888040E+03  0.25500000920E-02 0.  1.
        2   -1    0    0  501    0  0.00000000000E+00  0.00000000000E+00 -0.38899052003E+03  0.38899052004E+03  0.25500000920E-02 0. -1.
    10030    2    1    2    0    0  0.00000000000E+00  0.00000000000E+00  0.40739836037E+03  0.11853794004E+04  0.11131715497E+04 0.  0.
        3    1    3    3  502    0 -0.15966230510E+03 -0.92665531259E+02 -0.35544081951E+03  0.40052108399E+03  0.10100000352E+00 0. -1.
       -3    1    3    3    0  502  0.15966230510E+03  0.92665531259E+02  0.76283917987E+03  0.78485831645E+03  0.10100000352E+00 0.  1.
</event>
<event>
 5   0  0.5948818E-04  0.1098604E+04  0.7818609E-02  0.9206554E-01
       -2   -1    0    0    0  501  0.00000000000E+00  0.00000000000E+00  0.31135559890E+03  0.31135559891E+03  0.25500000920E-02 0.  1.
        2   -1    0    0  501    0  0.00000000000E+00  0.00000000000E+00 -0.96909337073E+03  0.96909337073E+03  0.25500000920E-02 0. -1.
    10030    2    1    2    0    0  0.00000000000E+00  0.00000000000E+00 -0.65773777183E+03  0.12804489696E+04  0.10986039265E+04 0.  0.
        3    1    3    3  502    0  0.52448433769E+02 -0.45446908176E+03 -0.68323344412E+03  0.82225357029E+03  0.10100000352E+00 0.  1.
       -3    1    3    3    0  502 -0.52448433769E+02  0.45446908176E+03  0.25495672291E+02  0.45819539935E+03  0.10100000352E+00 0. -1.
</event>
<event>
 5   0  0.3423758E-04  0.1106324E+04  0.7818609E-02  0.9199050E-01
       -1   -1    0    0    0  501  0.00000000000E+00  0.00000000000E+00  0.63618429073E+03  0.63618429075E+03  0.50400001928E-02 0.  1.
        1   -1    0    0  501    0  0.00000000000E+00  0.00000000000E+00 -0.48097382853E+03  0.48097382855E+03  0.50400001928E-02 0. -1.
    10030    2    1    2    0    0  0.00000000000E+00  0.00000000000E+00  0.15521046220E+03  0.11171581193E+04  0.11063236307E+04 0.  0.
        1    1    3    3  502    0 -0.33862838619E+03  0.42301445320E+03 -0.34738895093E+02  0.54297071966E+03  0.50400001928E-02 0.  1.
       -1    1    3    3    0  502  0.33862838619E+03 -0.42301445320E+03  0.18994935729E+03  0.57418739964E+03  0.50400001928E-02 0. -1.
</event>
<event>
 5   0  0.6109149E-04  0.1099002E+04  0.7818609E-02  0.9206165E-01
        2   -1    0    0  501    0  0.00000000000E+00  0.00000000000E+00  0.94463595860E+03  0.94463595860E+03  0.25500000920E-02 0.  1.
       -2   -1    0    0    0  501  0.00000000000E+00  0.00000000000E+00 -0.31964828982E+03  0.31964828983E+03  0.25500000920E-02 0. -1.
    10030    2    1    2    0    0  0.00000000000E+00  0.00000000000E+00  0.62498766878E+03  0.12642842484E+04  0.10990018538E+04 0.  0.
        1    1    3    3  502    0  0.33435711653E+03  0.32032938007E+03  0.65287353447E+03  0.80040580030E+03  0.50400001928E-02 0.  1.
       -1    1    3    3    0  502 -0.33435711653E+03 -0.32032938007E+03 -0.27885865687E+02  0.46387844813E+03  0.50400001928E-02 0. -1.
</event>
<event>
 5   0  0.3642161E-04  0.1108131E+04  0.7818609E-02  0.9197303E-01
       -1   -1    0    0    0  501  0.00000000000E+00  0.00000000000E+00  0.61341211150E+03  0.61341211152E+03  0.50400001928E-02 0.  1.
        1   -1    0    0  501    0  0.00000000000E+00  0.00000000000E+00 -0.50046074828E+03  0.50046074831E+03  0.50400001928E-02 0. -1.
    10030    2    1    2    0    0  0.00000000000E+00  0.00000000000E+00  0.11295136322E+03  0.11138728598E+04  0.11081311914E+04 0.  0.
        2    1    3    3  502    0  0.54199382397E+03 -0.11381465435E+03  0.73223451180E+02  0.55863472374E+03  0.25500000920E-02 0. -1.
       -2    1    3    3    0  502 -0.54199382397E+03  0.11381465435E+03  0.39727912036E+02  0.55523813609E+03  0.25500000920E-02 0.  1.
</event>
<event>
 5   0  0.3423758E-04  0.1098570E+04  0.7818609E-02  0.9206587E-01
        1   -1    0    0  501    0  0.00000000000E+00  0.00000000000E+00  0.62339882337E+03  0.62339882339E+03  0.50400001928E-02 0. -1.
       -1   -1    0    0    0  501  0.00000000000E+00  0.00000000000E+00 -0.48398207116E+03  0.48398207119E+03  0.50400001928E-02 0.  1.
    10030    2    1    2    0    0  0.00000000000E+00  0.00000000000E+00  0.13941675221E+03  0.11073808946E+04  0.10985697133E+04 0.  0.
        1    1    3    3  502    0  0.24302019265E+03  0.46935671327E+03  0.22043801390E+03  0.57266696808E+03  0.50400001928E-02 0. -1.
       -1    1    3    3    0  502 -0.24302019265E+03 -0.46935671327E+03 -0.81021261697E+02  0.53471392650E+03  0.50400001928E-02 0.  1.
</event>
<event>
 5   0  0.2403875E-04  0.1104916E+04  0.7818609E-02  0.9200413E-01
       -4   -1    0    0    0  501  0.00000000000E+00  0.00000000000E+00  0.70205172988E+03  0.70205287858E+03  0.12699999809E+01 0.  1.
        4   -1    0    0  501    0  0.00000000000E+00  0.00000000000E+00 -0.43473768512E+03  0.43473954014E+03  0.12699999809E+01 0. -1.
    10030    2    1    2    0    0  0.00000000000E+00  0.00000000000E+00  0.26731404476E+03  0.11367924187E+04  0.11049163791E+04 0.  0.
        2    1    3    3  502    0  0.47735374818E+03  0.25503644531E+03  0.19552758462E+02  0.54156486196E+03  0.25500000920E-02 0. -1.
       -2    1    3    3    0  502 -0.47735374818E+03 -0.25503644531E+03  0.24776128629E+03  0.59522755676E+03  0.25500000920E-02 0.  1.
</event>
<event>
 5   0  0.6109149E-04  0.1098391E+04  0.7818609E-02  0.9206762E-01
        2   -1    0    0  501    0  0.00000000000E+00  0.00000000000E+00  0.11813095321E+04  0.11813095321E+04  0.25500000920E-02 0. -1.
       -2   -1    0    0    0  501  0.00000000000E+00  0.00000000000E+00 -0.25532304695E+03  0.25532304696E+03  0.25500000920E-02 0.  1.
    10030    2    1    2    0    0  0.00000000000E+00  0.00000000000E+00  0.92598648510E+03  0.14366325790E+04  0.10983907303E+04 0.  0.
        1    1    3    3  502    0  0.27904389806E+03  0.22897376211E+03  0.10043633086E+04  0.10672582333E+04  0.50400001928E-02 0. -1.
       -1    1    3    3    0  502 -0.27904389806E+03 -0.22897376211E+03 -0.78376823538E+02  0.36937434572E+03  0.50400001928E-02 0.  1.
</event>
<event>
 5   0  0.3642161E-04  0.1102834E+04  0.7818609E-02  0.9202434E-01
        1   -1    0    0  501    0  0.00000000000E+00  0.00000000000E+00  0.15594662597E+04  0.15594662597E+04  0.50400001928E-02 0. -1.
       -1   -1    0    0    0  501  0.00000000000E+00  0.00000000000E+00 -0.19497727740E+03  0.19497727747E+03  0.50400001928E-02 0.  1.
    10030    2    1    2    0    0  0.00000000000E+00  0.00000000000E+00  0.13644889823E+04  0.17544435372E+04  0.11028335969E+04 0.  0.
        2    1    3    3  502    0  0.32288538795E+03  0.36227708665E+03  0.26569421837E+03  0.55325679295E+03  0.25500000920E-02 0.  1.
       -2    1    3    3    0  502 -0.32288538795E+03 -0.36227708665E+03  0.10987947640E+04  0.12011867443E+04  0.25500000920E-02 0. -1.
</event>
<event>
 5   0  0.3642161E-04  0.1098803E+04  0.7818609E-02  0.9206360E-01
        1   -1    0    0  501    0  0.00000000000E+00  0.00000000000E+00  0.14670577755E+04  0.14670577755E+04  0.50400001928E-02 0.  1.
       -1   -1    0    0    0  501  0.00000000000E+00  0.00000000000E+00 -0.20574640672E+03  0.20574640678E+03  0.50400001928E-02 0. -1.
    10030    2    1    2    0    0  0.00000000000E+00  0.00000000000E+00  0.12613113688E+04  0.16728041823E+04  0.10988027408E+04 0.  0.
        2    1    3    3  502    0  0.54232554809E+03 -0.84355309395E+02  0.66822652787E+03  0.86473088929E+03  0.25500000920E-02 0.  1.
       -2    1    3    3    0  502 -0.54232554809E+03  0.84355309395E+02  0.59308484094E+03  0.80807329303E+03  0.25500000920E-02 0. -1.
</event>
<event>
 5   0  0.6412712E-04  0.1099462E+04  0.7818609E-02  0.9205716E-01
       -2   -1    0    0    0  501  0.00000000000E+00  0.00000000000E+00  0.13384938497E+04  0.13384938497E+04  0.25500000920E-02 0.  1.
        2   -1    0    0  501    0  0.00000000000E+00  0.00000000000E+00 -0.22577931206E+03  0.22577931207E+03  0.25500000920E-02 0. -1.
    10030    2    1    2    0    0  0.00000000000E+00  0.00000000000E+00  0.11127145377E+04  0.15642731618E+04  0.10994620878E+04 0.  0.
        2    1    3    3  502    0 -0.28499827882E+03  0.43755020423E+03  0.31186551854E+03  0.60822224705E+03  0.25500000920E-02 0. -1.
       -2    1    3    3    0  502  0.28499827882E+03 -0.43755020423E+03  0.80084901915E+03  0.95605091477E+03  0.25500000920E-02 0.  1.
</event>
<event>
 5   0  0.2403875E-04  0.1096074E+04  0.7818609E-02  0.9209027E-01
        3   -1    0    0  501    0  0.00000000000E+00  0.00000000000E+00  0.57573380721E+03  0.57573381607E+03  0.10100000352E+00 0.  1.
       -3   -1    0    0    0  501  0.00000000000E+00  0.00000000000E+00 -0.52167281895E+03  0.52167282872E+03  0.10100000352E+00 0. -1.
    10030    2    1    2    0    0  0.00000000000E+00  0.00000000000E+00  0.54060988265E+02  0.10974066448E+04  0.10960742464E+04 0.  0.
        1    1    3    3  502    0 -0.16150104512E+03  0.32244543434E+03  0.44019548439E+03  0.56905686025E+03  0.50400001928E-02 0.  1.
       -1    1    3    3    0  502  0.16150104512E+03 -0.32244543434E+03 -0.38613449612E+03  0.52834978454E+03  0.50400001928E-02 0. -1.
</event>
<event>
 5   0  0.3621403E-04  0.1092063E+04  0.7818609E-02  0.9212962E-01
        1   -1    0    0  501    0  0.00000000000E+00  0.00000000000E+00  0.76282368769E+03  0.76282368771E+03  0.50400001928E-02 0.  1.
       -1   -1    0    0    0  501  0.00000000000E+00  0.00000000000E+00 -0.39085105244E+03  0.39085105247E+03  0.50400001928E-02 0. -1.
    10030    2    1    2    0    0  0.00000000000E+00  0.00000000000E+00  0.37197263525E+03  0.11536747402E+04  0.10920630773E+04 0.  0.
        3    1    3    3  502    0 -0.35476902070E+03  0.14306672364E+03 -0.22563891789E+03  0.44411943994E+03  0.10100000352E+00 0. -1.
       -3    1    3    3    0  502  0.35476902070E+03 -0.14306672364E+03  0.59761155314E+03  0.70955530024E+03  0.10100000352E+00 0.  1.
</event>
<event>
 5   0  0.6245176E-04  0.1106173E+04  0.7818609E-02  0.9199196E-01
       -2   -1    0    0    0  501  0.00000000000E+00  0.00000000000E+00  0.95542665917E+03  0.95542665917E+03  0.25500000920E-02 0. -1.
        2   -1    0    0  501    0  0.00000000000E+00  0.00000000000E+00 -0.32017624045E+03  0.32017624046E+03  0.25500000920E-02 0.  1.
    10030    2    1    2    0    0  0.00000000000E+00  0.00000000000E+00  0.63525041872E+03  0.12756028996E+04  0.11061734326E+04 0.  0.
        5    1    3    3  502    0  0.61058601742E+02 -0.18506314479E+03 -0.27925027549E+03  0.34055737662E+03  0.46999998093E+01 0.  1.
       -5    1    3    3    0  502 -0.61058601742E+02  0.18506314479E+03  0.91450069421E+03  0.93504552302E+03  0.46999998093E+01 0. -1.
</event>
<event>
 5   0  0.3621403E-04  0.1103596E+04  0.7818609E-02  0.9201694E-01
        1   -1    0    0  501    0  0.00000000000E+00  0.00000000000E+00  0.78663078626E+03  0.78663078627E+03  0.50400001928E-02 0. -1.
       -1   -1    0    0    0  501  0.00000000000E+00  0.00000000000E+00 -0.38707009844E+03  0.38707009847E+03  0.50400001928E-02 0.  1.
    10030    2    1    2    0    0  0.00000000000E+00  0.00000000000E+00  0.39956068782E+03  0.11737008847E+04  0.11035964043E+04 0.  0.
        3    1    3    3  502    0  0.36579029817E+02  0.52782523738E+03  0.33164031768E+02  0.53012957835E+03  0.10100000352E+00 0. -1.
       -3    1    3    3    0  502 -0.36579029817E+02 -0.52782523738E+03  0.36639665605E+03  0.64357130639E+03  0.10100000352E+00 0.  1.
</event>
<event>
 5   0  0.6412712E-04  0.1100346E+04  0.7818609E-02  0.9204855E-01
        2   -1    0    0  501    0  0.00000000000E+00  0.00000000000E+00  0.16457921833E+03  0.16457921835E+03  0.25500000920E-02 0. -1.
       -2   -1    0    0    0  501  0.00000000000E+00  0.00000000000E+00 -0.18391772068E+04  0.18391772068E+04  0.25500000920E-02 0.  1.
    10030    2    1    2    0    0  0.00000000000E+00  0.00000000000E+00 -0.16745979885E+04  0.20037564252E+04  0.11003460312E+04 0.  0.
        2    1    3    3  502    0  0.47730101956E+03 -0.13120042398E+02 -0.33958298412E+03  0.58592235142E+03  0.25500000920E-02 0.  1.
       -2    1    3    3    0  502 -0.47730101956E+03  0.13120042398E+02 -0.13350150044E+04  0.14178340737E+04  0.25500000920E-02 0. -1.
</event>
<event>
 5   0  0.6412712E-04  0.1099826E+04  0.7818609E-02  0.9205362E-01
       -2   -1    0    0    0  501  0.00000000000E+00  0.00000000000E+00  0.24762863418E+03  0.24762863419E+03  0.25500000920E-02 0. -1.
        2   -1    0    0  501    0  0.00000000000E+00  0.00000000000E+00 -0.12212006904E+04  0.12212006904E+04  0.25500000920E-02 0.  1.
    10030    2    1    2    0    0  0.00000000000E+00  0.00000000000E+00 -0.97357205621E+03  0.14688293246E+04  0.10998259117E+04 0.  0.
        2    1    3    3  502    0  0.17833827809E+03 -0.26928719830E+03 -0.10811770213E+04  0.11283899539E+04  0.25500000920E-02 0.  1.
       -2    1    3    3    0  502 -0.17833827809E+03  0.26928719830E+03  0.10760496510E+03  0.34043937070E+03  0.25500000920E-02 0. -1.
</event>
<event>
 5   0  0.3423758E-04  0.1100266E+04  0.7818609E-02  0.9204932E-01
        1   -1    0    0  501    0  0.00000000000E+00  0.00000000000E+00  0.12414978148E+04  0.12414978148E+04  0.50400001928E-02 0.  1.
       -1   -1    0    0    0  501  0.00000000000E+00  0.00000000000E+00 -0.24377532336E+03  0.24377532341E+03  0.50400001928E-02 0. -1.
    10030    2    1    2    0    0  0.00000000000E+00  0.00000000000E+00  0.99772249148E+03  0.14852731383E+04  0.11002663883E+04 0.  0.
        1    1    3    3  502    0  0.24371613873E+03 -0.70034405970E+02  0.11578996689E+04  0.11853413085E+04  0.50400001928E-02 0.  1.
       -1    1    3    3    0  502 -0.24371613873E+03  0.70034405970E+02 -0.16017717746E+03  0.29993182975E+03  0.50400001928E-02 0. -1.
</event>
<event>
 5   0  0.5948818E-04  0.1100380E+04  0.7818609E-02  0.9204821E-01
        2   -1    0    0  501    0  0.00000000000E+00  0.00000000000E+00  0.38674522734E+03  0.38674522734E+03  0.25500000920E-02 0. -1.
       -2   -1    0    0    0  501  0.00000000000E+00  0.00000000000E+00 -0.78270927579E+03  0.78270927579E+03  0.25500000920E-02 0.  1.
    10030    2    1    2    0    0  0.00000000000E+00  0.00000000000E+00 -0.39596404845E+03  0.11694545031E+04  0.11003800740E+04 0.  0.
        3    1    3    3  502    0  0.15177850475E+03  0.25332215059E+03  0.29537860838E+03  0.41768092962E+03  0.10100000352E+00 0. -1.
       -3    1    3    3    0  502 -0.15177850475E+03 -0.25332215059E+03 -0.69134265682E+03  0.75177357351E+03  0.10100000352E+00 0.  1.
</event>
<event>
 5   0  0.6412712E-04  0.1092080E+04  0.7818609E-02  0.9212946E-01
        2   -1    0    0  501    0  0.00000000000E+00  0.00000000000E+00  0.20908921296E+04  0.20908921296E+04  0.25500000920E-02 0. -1.
       -2   -1    0    0    0  501  0.00000000000E+00  0.00000000000E+00 -0.14259927907E+03  0.14259927910E+03  0.25500000920E-02 0.  1.
    10030    2    1    2    0    0  0.00000000000E+00  0.00000000000E+00  0.19482928505E+04  0.22334914087E+04  0.10920800526E+04 0.  0.
        2    1    3    3  502    0 -0.16349706175E+03 -0.21921869338E+01  0.20396468502E+04  0.20461904526E+04  0.25500000920E-02 0. -1.
       -2    1    3    3    0  502  0.16349706175E+03  0.21921869338E+01 -0.91353999670E+02  0.18730095608E+03  0.25500000920E-02 0.  1.
</event>
<event>
 5   0  0.3621403E-04  0.1100230E+04  0.7818609E-02  0.9204967E-01
        1   -1    0    0  501    0  0.00000000000E+00  0.00000000000E+00  0.13722237759E+04  0.13722237759E+04  0.50400001928E-02 0. -1.
       -1   -1    0    0    0  501  0.00000000000E+00  0.00000000000E+00 -0.22053746841E+03  0.22053746847E+03  0.50400001928E-02 0.  1.
    10030    2    1    2    0    0  0.00000000000E+00  0.00000000000E+00  0.11516863075E+04  0.15927612444E+04  0.11002304444E+04 0.  0.
        3    1    3    3  502    0 -0.10847751944E+03  0.19449231733E+03  0.13040501438E+04  0.13229291067E+04  0.10100000352E+00 0. -1.
       -3    1    3    3    0  502  0.10847751944E+03 -0.19449231733E+03 -0.15236383627E+03  0.26983213768E+03  0.10100000352E+00 0.  1.
</event>
<event>
 5   0  0.3621403E-04  0.1110906E+04  0.7818609E-02  0.9194627E-01
       -1   -1    0    0    0  501  0.00000000000E+00  0.00000000000E+00  0.18057784216E+03  0.18057784223E+03  0.50400001928E-02 0. -1.
        1   -1    0    0  501    0  0.00000000000E+00  0.00000000000E+00 -0.17085604613E+04  0.17085604613E+04  0.50400001928E-02 0.  1.
    10030    2    1    2    0    0  0.00000000000E+00  0.00000000000E+00 -0.15279826191E+04  0.18891383035E+04  0.11109062271E+04 0.  0.
        3    1    3    3  502    0 -0.20031771507E+03  0.13072209447E+03 -0.16164897026E+04  0.16340913138E+04  0.10100000352E+00 0.  1.
       -3    1    3    3    0  502  0.20031771507E+03 -0.13072209447E+03  0.88507083478E+02  0.25504698975E+03  0.10100000352E+00 0. -1.
</event>
<event>
 5   0  0.3657529E-04  0.1099990E+04  0.7818609E-02  0.9205202E-01
        1   -1    0    0  501    0  0.00000000000E+00  0.00000000000E+00  0.39773389397E+03  0.39773389400E+03  0.50400001928E-02 0.  1.
       -1   -1    0    0    0  501  0.00000000000E+00  0.00000000000E+00 -0.76054445055E+03  0.76054445057E+03  0.50400001928E-02 0. -1.
    10030    2    1    2    0    0  0.00000000000E+00  0.00000000000E+00 -0.36281055658E+03  0.11582783446E+04  0.10999896470E+04 0.  0.
        4    1    3    3  502    0 -0.27870070398E+03 -0.45971836511E+03 -0.59160254247E+02  0.54084804354E+03  0.12699999809E+01 0.  1.
       -4    1    3    3    0  502  0.27870070398E+03  0.45971836511E+03 -0.30365030234E+03  0.61743030103E+03  0.12699999809E+01 0. -1.
</event>
<event>
 5   0  0.5948818E-04  0.1093848E+04  0.7818609E-02  0.9211209E-01
        2   -1    0    0  501    0  0.00000000000E+00  0.00000000000E+00  0.15373197241E+04  0.15373197241E+04  0.25500000920E-02 0. -1.
       -2   -1    0    0    0  501  0.00000000000E+00  0.00000000000E+00 -0.19457614749E+03  0.19457614751E+03  0.25500000920E-02 0.  1.
    10030    2    1    2    0    0  0.00000000000E+00  0.00000000000E+00  0.13427435766E+04  0.17318958716E+04  0.10938477945E+04 0.  0.
        3    1    3    3  502    0 -0.46911110366E+03 -0.25675682058E+03  0.85284136898E+03  0.10066417949E+04  0.10100000352E+00 0. -1.
       -3    1    3    3    0  502  0.46911110366E+03  0.25675682058E+03  0.48990220765E+03  0.72525407669E+03  0.10100000352E+00 0.  1.
</event>
<event>
 5   0  0.6412712E-04  0.1099645E+04  0.7818609E-02  0.9205538E-01
        2   -1    0    0  501    0  0.00000000000E+00  0.00000000000E+00  0.84270871340E+03  0.84270871340E+03  0.25500000920E-02 0.  1.
       -2   -1    0    0    0  501  0.00000000000E+00  0.00000000000E+00 -0.35873011568E+03  0.35873011569E+03  0.25500000920E-02 0. -1.
    10030    2    1    2    0    0  0.00000000000E+00  0.00000000000E+00  0.48397859771E+03  0.12014388291E+04  0.10996453869E+04 0.  0.
        2    1    3    3  502    0 -0.20745886237E+03  0.65433896058E+02  0.79369269732E+03  0.82296346949E+03  0.25500000920E-02 0.  1.
       -2    1    3    3    0  502  0.20745886237E+03 -0.65433896058E+02 -0.30971409960E+03  0.37847535961E+03  0.25500000920E-02 0. -1.
</event>
<event>
 5   0  0.6264830E-04  0.1108689E+04  0.7818609E-02  0.9196764E-01
        2   -1    0    0  501    0  0.00000000000E+00  0.00000000000E+00  0.75375266040E+03  0.75375266041E+03  0.25500000920E-02 0.  1.
       -2   -1    0    0    0  501  0.00000000000E+00  0.00000000000E+00 -0.40769061914E+03  0.40769061915E+03  0.25500000920E-02 0. -1.
    10030    2    1    2    0    0  0.00000000000E+00  0.00000000000E+00  0.34606204126E+03  0.11614432796E+04  0.11086891157E+04 0.  0.
        4    1    3    3  502    0 -0.37493489754E+03 -0.40781176544E+03  0.19423421614E+03  0.58703931473E+03  0.12699999809E+01 0.  1.
       -4    1    3    3    0  502  0.37493489754E+03  0.40781176544E+03  0.15182782512E+03  0.57440396482E+03  0.12699999809E+01 0. -1.
</event>
<event>
 5   0  0.3642161E-04  0.1093079E+04  0.7818609E-02  0.9211964E-01
       -1   -1    0    0    0  501  0.00000000000E+00  0.00000000000E+00  0.41788717726E+03  0.41788717729E+03  0.50400001928E-02 0.  1.
        1   -1    0    0  501    0  0.00000000000E+00  0.00000000000E+00 -0.71479958882E+03  0.71479958884E+03  0.50400001928E-02 0. -1.
    10030    2    1    2    0    0  0.00000000000E+00  0.00000000000E+00 -0.29691241156E+03  0.11326867661E+04  0.10930792881E+04 0.  0.
        2    1    3    3  502    0  0.44985598416E+03 -0.20258382477E+03 -0.39212559481E+03  0.63021670452E+03  0.25500000920E-02 0. -1.
       -2    1    3    3    0  502 -0.44985598416E+03  0.20258382477E+03  0.95213183246E+02  0.50247006161E+03  0.25500000920E-02 0.  1.
</event>
<event>
 5   0  0.2403875E-04  0.1101106E+04  0.7818609E-02  0.9204115E-01
        3   -1    0    0  501    0  0.00000000000E+00  0.00000000000E+00  0.32400512244E+03  0.32400513818E+03  0.10100000352E+00 0. -1.
       -3   -1    0    0    0  501  0.00000000000E+00  0.00000000000E+00 -0.93550495117E+03  0.93550495663E+03  0.10100000352E+00 0.  1.
    10030    2    1    2    0    0  0.00000000000E+00  0.00000000000E+00 -0.61149982873E+03  0.12595100948E+04  0.11011056436E+04 0.  0.
        2    1    3    3  502    0  0.33537987037E+03  0.17496959046E+03  0.15181444647E+03  0.40760476101E+03  0.25500000920E-02 0. -1.
       -2    1    3    3    0  502 -0.33537987037E+03 -0.17496959046E+03 -0.76331427520E+03  0.85190533380E+03  0.25500000920E-02 0.  1.
</event>
<event>
 5   0  0.5948818E-04  0.1104308E+04  0.7818609E-02  0.9201004E-01
       -2   -1    0    0    0  501  0.00000000000E+00  0.00000000000E+00  0.33079145492E+03  0.33079145493E+03  0.25500000920E-02 0. -1.
        2   -1    0    0  501    0  0.00000000000E+00  0.00000000000E+00 -0.92164950104E+03  0.92164950104E+03  0.25500000920E-02 0.  1.
    10030    2    1    2    0    0  0.00000000000E+00  0.00000000000E+00 -0.59085804612E+03  0.12524409560E+04  0.11043075285E+04 0.  0.
        3    1    3    3  502    0 -0.31488277453E+03 -0.19902122374E+03  0.16681281138E+03  0.40815087093E+03  0.10100000352E+00 0. -1.
       -3    1    3    3    0  502  0.31488277453E+03  0.19902122374E+03 -0.75767085750E+03  0.84429008504E+03  0.10100000352E+00 0.  1.
</event>
<event>
 5   0  0.6412712E-04  0.1098393E+04  0.7818609E-02  0.9206759E-01
        2   -1    0    0  501    0  0.00000000000E+00  0.00000000000E+00  0.40385128488E+03  0.40385128488E+03  0.25500000920E-02 0.  1.
       -2   -1    0    0    0  501  0.00000000000E+00  0.00000000000E+00 -0.74685139492E+03  0.74685139493E+03  0.25500000920E-02 0. -1.
    10030    2    1    2    0    0  0.00000000000E+00  0.00000000000E+00 -0.34300011005E+03  0.11507026798E+04  0.10983931818E+04 0.  0.
        2    1    3    3  502    0 -0.11496929093E+03 -0.33462084171E+03  0.26853661230E+03  0.44418572435E+03  0.25500000920E-02 0.  1.
       -2    1    3    3    0  502  0.11496929093E+03  0.33462084171E+03 -0.61153672235E+03  0.70651695546E+03  0.25500000920E-02 0. -1.
</event>
<event>
 5   0  0.3423758E-04  0.1103411E+04  0.7818609E-02  0.9201873E-01
       -1   -1    0    0    0  501  0.00000000000E+00  0.00000000000E+00  0.30091410700E+03  0.30091410704E+03  0.50400001928E-02 0. -1.
        1   -1    0    0  501    0  0.00000000000E+00  0.00000000000E+00 -0.10115151778E+04  0.10115151778E+04  0.50400001928E-02 0.  1.
    10030    2    1    2    0    0  0.00000000000E+00  0.00000000000E+00 -0.71060107075E+03  0.13124292848E+04  0.11034114128E+04 0.  0.
        1    1    3    3  502    0  0.28242707713E+03  0.57949925721E+02  0.20418119438E+03  0.35328912799E+03  0.50400001928E-02 0. -1.
       -1    1    3    3    0  502 -0.28242707713E+03 -0.57949925721E+02 -0.91478226514E+03  0.95914015682E+03  0.50400001928E-02 0.  1.
</event>
<event>
 5   0  0.3621403E-04  0.1092548E+04  0.7818609E-02  0.9212486E-01
        1   -1    0    0  501    0  0.00000000000E+00  0.00000000000E+00  0.63712328599E+03  0.63712328601E+03  0.50400001928E-02 0. -1.
       -1   -1    0    0    0  501  0.00000000000E+00  0.00000000000E+00 -0.46837901076E+03  0.46837901079E+03  0.50400001928E-02 0.  1.
    10030    2    1    2    0    0  0.00000000000E+00  0.00000000000E+00  0.16874427523E+03  0.11055022968E+04  0.10925478012E+04 0.  0.
        3    1    3    3  502    0 -0.44289105159E+03 -0.29690342522E+03  0.20457053124E+03  0.57109827520E+03  0.10100000352E+00 0.  1.
       -3    1    3    3    0  502  0.44289105159E+03  0.29690342522E+03 -0.35826256013E+02  0.53440402160E+03  0.10100000352E+00 0. -1.
</event>
<event>
 5   0  0.3657529E-04  0.1100345E+04  0.7818609E-02  0.9204856E-01
        1   -1    0    0  501    0  0.00000000000E+00  0.00000000000E+00  0.27472367170E+03  0.27472367175E+03  0.50400001928E-02 0. -1.
       -1   -1    0    0    0  501  0.00000000000E+00  0.00000000000E+00 -0.11017974070E+04  0.11017974070E+04  0.50400001928E-02 0.  1.
    10030    2    1    2    0    0  0.00000000000E+00  0.00000000000E+00 -0.82707373529E+03  0.13765210788E+04  0.11003450898E+04 0.  0.
        4    1    3    3  502    0  0.12712830026E+03 -0.47923062598E+03 -0.71185181999E+03  0.86750113783E+03  0.12699999809E+01 0. -1.
       -4    1    3    3    0  502 -0.12712830026E+03  0.47923062598E+03 -0.11522191530E+03  0.50901994093E+03  0.12699999809E+01 0.  1.
</event>
<event>
 5   0  0.2403875E-04  0.1100476E+04  0.7818609E-02  0.9204728E-01
       -3   -1    0    0    0  501  0.00000000000E+00  0.00000000000E+00  0.73037826794E+03  0.73037827493E+03  0.10100000352E+00 0.  1.
        3   -1    0    0  501    0  0.00000000000E+00  0.00000000000E+00 -0.41452752068E+03  0.41452753299E+03  0.10100000352E+00 0. -1.
    10030    2    1    2    0    0  0.00000000000E+00  0.00000000000E+00  0.31585074726E+03  0.11449058079E+04  0.11004760854E+04 0.  0.
        4    1    3    3  502    0  0.31096825350E+03 -0.40540733613E+03 -0.54534847641E+02  0.51384046686E+03  0.12699999809E+01 0. -1.
       -4    1    3    3    0  502 -0.31096825350E+03  0.40540733613E+03  0.37038559490E+03  0.63106534106E+03  0.12699999809E+01 0.  1.
</event>
<event>
 5   0  0.3423758E-04  0.1100154E+04  0.7818609E-02  0.9205042E-01
       -1   -1    0    0    0  501  0.00000000000E+00  0.00000000000E+00  0.29166700355E+03  0.29166700359E+03  0.50400001928E-02 0.  1.
        1   -1    0    0  501    0  0.00000000000E+00  0.00000000000E+00 -0.10374316479E+04  0.10374316479E+04  0.50400001928E-02 0. -1.
    10030    2    1    2    0    0  0.00000000000E+00  0.00000000000E+00 -0.74576464433E+03  0.13290986515E+04  0.11001537714E+04 0.  0.
        1    1    3    3  502    0  0.60623331340E+02  0.13399192646E+03 -0.10132400243E+04  0.10238575934E+04  0.50400001928E-02 0. -1.
       -1    1    3    3    0  502 -0.60623331340E+02 -0.13399192646E+03  0.26747537995E+03  0.30524105812E+03  0.50400001928E-02 0.  1.
</event>
<event>
 5   0  0.5948818E-04  0.1099740E+04  0.7818609E-02  0.9205446E-01
       -2   -1    0    0    0  501  0.00000000000E+00  0.00000000000E+00  0.70628161362E+03  0.70628161363E+03  0.25500000920E-02 0. -1.
        2   -1    0    0  501    0  0.00000000000E+00  0.00000000000E+00 -0.42809670007E+03  0.42809670008E+03  0.25500000920E-02 0.  1.
    10030    2    1    2    0    0  0.00000000000E+00  0.00000000000E+00  0.27818491355E+03  0.11343783137E+04  0.10997396567E+04 0.  0.
        3    1    3    3  502    0 -0.54783356046E+03 -0.40940750197E+02  0.16348170300E+03  0.57317016008E+03  0.10100000352E+00 0.  1.
       -3    1    3    3    0  502  0.54783356046E+03  0.40940750197E+02  0.11470321055E+03  0.56120815363E+03  0.10100000352E+00 0. -1.
</event>
<event>
 5   0  0.3642161E-04  0.1098652E+04  0.7818609E-02  0.9206507E-01
        1   -1    0    0  501    0  0.00000000000E+00  0.00000000000E+00  0.13680132061E+04  0.13680132062E+04  0.50400001928E-02 0. -1.
       -1   -1    0    0    0  501  0.00000000000E+00  0.00000000000E+00 -0.22058183474E+03  0.22058183480E+03  0.50400001928E-02 0.  1.
    10030    2    1    2    0    0  0.00000000000E+00  0.00000000000E+00  0.11474313714E+04  0.15885950409E+04  0.10986516518E+04 0.  0.
        2    1    3    3  502    0 -0.38111703490E+03  0.39536681105E+03  0.55358873932E+03  0.77975996427E+03  0.25500000920E-02 0. -1.
       -2    1    3    3    0  502  0.38111703490E+03 -0.39536681105E+03  0.59384263209E+03  0.80883507668E+03  0.25500000920E-02 0.  1.
</event>
<event>
 5   0  0.6109149E-04  0.1100750E+04  0.7818609E-02  0.9204462E-01
        2   -1    0    0  501    0  0.00000000000E+00  0.00000000000E+00  0.10065928114E+04  0.10065928114E+04  0.25500000920E-02 0. -1.
       -2   -1    0    0    0  501  0.00000000000E+00  0.00000000000E+00 -0.30092848716E+03  0.30092848717E+03  0.25500000920E-02 0.  1.
    10030    2    1    2    0    0  0.00000000000E+00  0.00000000000E+00  0.70566432426E+03  0.13075212986E+04  0.11007496572E+04 0.  0.
        1    1    3    3  502    0 -0.12772792631E+03  0.31695510434E+03  0.86531242065E+03  0.93034431620E+03  0.50400001928E-02 0. -1.
       -1    1    3    3    0  502  0.12772792631E+03 -0.31695510434E+03 -0.15964809640E+03  0.37717698238E+03  0.50400001928E-02 0.  1.
</event>
<event>
 5   0  0.3642161E-04  0.1099410E+04  0.7818609E-02  0.9205767E-01
        1   -1    0    0  501    0  0.00000000000E+00  0.00000000000E+00  0.80026963185E+03  0.80026963187E+03  0.50400001928E-02 0. -1.
       -1   -1    0    0    0  501  0.00000000000E+00  0.00000000000E+00 -0.37759249703E+03  0.37759249706E+03  0.50400001928E-02 0.  1.
    10030    2    1    2    0    0  0.00000000000E+00  0.00000000000E+00  0.42267713483E+03  0.11778621289E+04  0.10994104031E+04 0.  0.
        2    1    3    3  502    0  0.23527640896E+03  0.21197394760E+03 -0.27004329686E+03  0.41618664715E+03  0.25500000920E-02 0.  1.
       -2    1    3    3    0  502 -0.23527640896E+03 -0.21197394760E+03  0.69272043168E+03  0.76167548179E+03  0.25500000920E-02 0. -1.
</event>
<event>
 5   0  0.3621403E-04  0.1098304E+04  0.7818609E-02  0.9206846E-01
       -1   -1    0    0    0  501  0.00000000000E+00  0.00000000000E+00  0.34578691767E+03  0.34578691770E+03  0.50400001928E-02 0. -1.
        1   -1    0    0  501    0  0.00000000000E+00  0.00000000000E+00 -0.87212131268E+03  0.87212131269E+03  0.50400001928E-02 0.  1.
    10030    2    1    2    0    0  0.00000000000E+00  0.00000000000E+00 -0.52633439501E+03  0.12179082304E+04  0.10983044033E+04 0.  0.
        3    1    3    3  502    0  0.11689948709E+03 -0.42365577941E+03  0.10195932365E+03  0.45116008621E+03  0.10100000352E+00 0. -1.
       -3    1    3    3    0  502 -0.11689948709E+03  0.42365577941E+03 -0.62829371866E+03  0.76674814419E+03  0.10100000352E+00 0.  1.
</event>
<event>
 5   0  0.6109149E-04  0.1098792E+04  0.7818609E-02  0.9206370E-01
        2   -1    0    0  501    0  0.00000000000E+00  0.00000000000E+00  0.13584592135E+04  0.13584592135E+04  0.25500000920E-02 0. -1.
       -2   -1    0    0    0  501  0.00000000000E+00  0.00000000000E+00 -0.22219010717E+03  0.22219010718E+03  0.25500000920E-02 0.  1.
    10030    2    1    2    0    0  0.00000000000E+00  0.00000000000E+00  0.11362691063E+04  0.15806493207E+04  0.10987924249E+04 0.  0.
        1    1    3    3  502    0  0.10153933487E+03  0.23348396036E+03  0.12684670979E+04  0.12937672800E+04  0.50400001928E-02 0. -1.
       -1    1    3    3    0  502 -0.10153933487E+03 -0.23348396036E+03 -0.13219799157E+03  0.28688204069E+03  0.50400001928E-02 0.  1.
</event>
<event>
 5   0  0.3657529E-04  0.1099649E+04  0.7818609E-02  0.9205534E-01
        1   -1    0    0  501    0  0.00000000000E+00  0.00000000000E+00  0.69553917716E+03  0.69553917718E+03  0.50400001928E-02 0.  1.
       -1   -1    0    0    0  501  0.00000000000E+00  0.00000000000E+00 -0.43463675158E+03  0.43463675161E+03  0.50400001928E-02 0. -1.
    10030    2    1    2    0    0  0.00000000000E+00  0.00000000000E+00  0.26090242558E+03  0.11301759288E+04  0.10996488323E+04 0.  0.
        4    1    3    3  502    0 -0.45392241812E+03  0.14049209408E+03  0.41475608315E+03  0.63072007387E+03  0.12699999809E+01 0.  1.
       -4    1    3    3    0  502  0.45392241812E+03 -0.14049209408E+03 -0.15385365758E+03  0.49945585492E+03  0.12699999809E+01 0. -1.
</event>
<event>
 5   0  0.6412712E-04  0.1100376E+04  0.7818609E-02  0.9204826E-01
        2   -1    0    0  501    0  0.00000000000E+00  0.00000000000E+00  0.11352176532E+04  0.11352176532E+04  0.25500000920E-02 0. -1.
       -2   -1    0    0    0  501  0.00000000000E+00  0.00000000000E+00 -0.26665069290E+03  0.26665069291E+03  0.25500000920E-02 0.  1.
    10030    2    1    2    0    0  0.00000000000E+00  0.00000000000E+00  0.86856696031E+03  0.14018683461E+04  0.11003755247E+04 0.  0.
        2    1    3    3  502    0 -0.36518824394E+03 -0.13979057064E+03  0.92737343169E+03  0.10064419203E+04  0.25500000920E-02 0. -1.
       -2    1    3    3    0  502  0.36518824394E+03  0.13979057064E+03 -0.58806471382E+02  0.39542642581E+03  0.25500000920E-02 0.  1.
</event>
<event>
 5   0  0.3621403E-04  0.1099345E+04  0.7818609E-02  0.9205831E-01
       -1   -1    0    0    0  501  0.00000000000E+00  0.00000000000E+00  0.75167096791E+03  0.75167096792E+03  0.50400001928E-02 0.  1.
        1   -1    0    0  501    0  0.00000000000E+00  0.00000000000E+00 -0.40195731658E+03  0.40195731661E+03  0.50400001928E-02 0. -1.
    10030    2    1    2    0    0  0.00000000000E+00  0.00000000000E+00  0.34971365133E+03  0.11536282845E+04  0.10993446143E+04 0.  0.
        3    1    3    3  502    0 -0.12892050356E+03 -0.49487036905E+03 -0.36645493686E+02  0.51269882076E+03  0.10100000352E+00 0.  1.
       -3    1    3    3    0  502  0.12892050356E+03  0.49487036905E+03  0.38635914501E+03  0.64092946378E+03  0.10100000352E+00 0. -1.
</event>
<event>
 5   0  0.5948818E-04  0.1099394E+04  0.7818609E-02  0.9205783E-01
        2   -1    0    0  501    0  0.00000000000E+00  0.00000000000E+00  0.70426993451E+03  0.70426993451E+03  0.25500000920E-02 0.  1.
       -2   -1    0    0    0  501  0.00000000000E+00  0.00000000000E+00 -0.42904964197E+03  0.42904964198E+03  0.25500000920E-02 0. -1.
    10030    2    1    2    0    0  0.00000000000E+00  0.00000000000E+00  0.27522029254E+03  0.11333195765E+04  0.10993939481E+04 0.  0.
        3    1    3    3  502    0  0.44187072900E+03  0.24410614104E+03  0.36187625524E+03  0.62112155296E+03  0.10100000352E+00 0. -1.
       -3    1    3    3    0  502 -0.44187072900E+03 -0.24410614104E+03 -0.86655962697E+02  0.51219802353E+03  0.10100000352E+00 0.  1.
</event>
<event>
 5   0  0.3642161E-04  0.1101449E+04  0.7818609E-02  0.9203781E-01
        1   -1    0    0  501    0  0.00000000000E+00  0.00000000000E+00  0.24276245502E+03  0.24276245507E+03  0.50400001928E-02 0.  1.
       -1   -1    0    0    0  501  0.00000000000E+00  0.00000000000E+00 -0.12493587816E+04  0.12493587816E+04  0.50400001928E-02 0. -1.
    10030    2    1    2    0    0  0.00000000000E+00  0.00000000000E+00 -0.10065963266E+04  0.14921212367E+04  0.11014488732E+04 0.  0.
        2    1    3    3  502    0 -0.59822159166E+02 -0.54705597643E+03 -0.47460965855E+03  0.72670713501E+03  0.25500000920E-02 0.  1.
       -2    1    3    3    0  502  0.59822159166E+02  0.54705597643E+03 -0.53198666806E+03  0.76541410170E+03  0.25500000920E-02 0. -1.
</event>
<event>
 5   0  0.6412712E-04  0.1097984E+04  0.7818609E-02  0.9207159E-01
        2   -1    0    0  501    0  0.00000000000E+00  0.00000000000E+00  0.45765193620E+03  0.45765193621E+03  0.25500000920E-02 0.  1.
       -2   -1    0    0    0  501  0.00000000000E+00  0.00000000000E+00 -0.65856220900E+03  0.65856220901E+03  0.25500000920E-02 0. -1.
    10030    2    1    2    0    0  0.00000000000E+00  0.00000000000E+00 -0.20091027280E+03  0.11162141452E+04  0.10979840984E+04 0.  0.
        2    1    3    3  502    0 -0.15577124492E+03 -0.47312843427E+03 -0.33510572825E+03  0.60034243992E+03  0.25500000920E-02 0.  1.
       -2    1    3    3    0  502  0.15577124492E+03  0.47312843427E+03  0.13419545545E+03  0.51587170530E+03  0.25500000920E-02 0. -1.
</event>
<event>
 5   0  0.6109149E-04  0.1105733E+04  0.7818609E-02  0.9199622E-01
       -2   -1    0    0    0  501  0.00000000000E+00  0.00000000000E+00  0.16904303193E+03  0.16904303195E+03  0.25500000920E-02 0.  1.
        2   -1    0    0  501    0  0.00000000000E+00  0.00000000000E+00 -0.18081854746E+04  0.18081854746E+04  0.25500000920E-02 0. -1.
    10030    2    1    2    0    0  0.00000000000E+00  0.00000000000E+00 -0.16391424427E+04  0.19772285065E+04  0.11057326168E+04 0.  0.
        1    1    3    3  502    0 -0.19094763107E+03 -0.23897622764E+03  0.39359222915E+01  0.30591849682E+03  0.50400001928E-02 0.  1.
       -1    1    3    3    0  502  0.19094763107E+03  0.23897622764E+03 -0.16430783650E+04  0.16713100097E+04  0.50400001928E-02 0. -1.
</event>
<event>
 5   0  0.3423758E-04  0.1100273E+04  0.7818609E-02  0.9204926E-01
       -1   -1    0    0    0  501  0.00000000000E+00  0.00000000000E+00  0.37823090219E+03  0.37823090222E+03  0.50400001928E-02 0.  1.
        1   -1    0    0  501    0  0.00000000000E+00  0.00000000000E+00 -0.80017335875E+03  0.80017335877E+03  0.50400001928E-02 0. -1.
    10030    2    1    2    0    0  0.00000000000E+00  0.00000000000E+00 -0.42194245656E+03  0.11784042610E+04  0.11002732232E+04 0.  0.
        1    1    3    3  502    0 -0.40118673043E+03 -0.36937877647E+03 -0.28863846238E+03  0.61701185983E+03  0.50400001928E-02 0.  1.
       -1    1    3    3    0  502  0.40118673043E+03  0.36937877647E+03 -0.13330399418E+03  0.56139240115E+03  0.50400001928E-02 0. -1.
</event>
<event>
 5   0  0.3642161E-04  0.1100198E+04  0.7818609E-02  0.9204999E-01
        1   -1    0    0  501    0  0.00000000000E+00  0.00000000000E+00  0.72408611565E+03  0.72408611566E+03  0.50400001928E-02 0. -1.
       -1   -1    0    0    0  501  0.00000000000E+00  0.00000000000E+00 -0.41791858036E+03  0.41791858039E+03  0.50400001928E-02 0.  1.
    10030    2    1    2    0    0  0.00000000000E+00  0.00000000000E+00  0.30616753528E+03  0.11420046961E+04  0.11001982395E+04 0.  0.
        2    1    3    3  502    0  0.72317365211E+02 -0.51463920368E+03 -0.34118227114E+02  0.52081413643E+03  0.25500000920E-02 0. -1.
       -2    1    3    3    0  502 -0.72317365211E+02  0.51463920368E+03  0.34028576240E+03  0.62119055963E+03  0.25500000920E-02 0.  1.
</event>
<event>
 5   0  0.6412712E-04  0.1126600E+04  0.7818609E-02  0.9179647E-01
       -2   -1    0    0    0  501  0.00000000000E+00  0.00000000000E+00  0.24924660185E+03  0.24924660186E+03  0.25500000920E-02 0. -1.
        2   -1    0    0  501    0  0.00000000000E+00  0.00000000000E+00 -0.12730630978E+04  0.12730630978E+04  0.25500000920E-02 0.  1.
    10030    2    1    2    0    0  0.00000000000E+00  0.00000000000E+00 -0.10238164959E+04  0.15223096996E+04  0.11265995758E+04 0.  0.
        2    1    3    3  502    0  0.53339614252E+03  0.35728981463E+02 -0.75180104494E+03  0.92249271875E+03  0.25500000920E-02 0.  1.
       -2    1    3    3    0  502 -0.53339614252E+03 -0.35728981463E+02 -0.27201545097E+03  0.59981698087E+03  0.25500000920E-02 0. -1.
</event>
<event>
 5   0  0.6264830E-04  0.1104148E+04  0.7818609E-02  0.9201159E-01
       -2   -1    0    0    0  501  0.00000000000E+00  0.00000000000E+00  0.70740657032E+03  0.70740657032E+03  0.25500000920E-02 0. -1.
        2   -1    0    0  501    0  0.00000000000E+00  0.00000000000E+00 -0.43084916180E+03  0.43084916181E+03  0.25500000920E-02 0.  1.
    10030    2    1    2    0    0  0.00000000000E+00  0.00000000000E+00  0.27655740852E+03  0.11382557321E+04  0.11041476856E+04 0.  0.
        4    1    3    3  502    0 -0.18823106563E+03 -0.39535751613E+03  0.48488716250E+03  0.65334192647E+03  0.12699999809E+01 0. -1.
       -4    1    3    3    0  502  0.18823106563E+03  0.39535751613E+03 -0.20832975398E+03  0.48491380566E+03  0.12699999809E+01 0.  1.
</event>
<event>
 5   0  0.5948818E-04  0.1100516E+04  0.7818609E-02  0.9204689E-01
       -2   -1    0    0    0  501  0.00000000000E+00  0.00000000000E+00  0.20064382871E+03  0.20064382872E+03  0.25500000920E-02 0.  1.
        2   -1    0    0  501    0  0.00000000000E+00  0.00000000000E+00 -0.15090608746E+04  0.15090608746E+04  0.25500000920E-02 0. -1.
    10030    2    1    2    0    0  0.00000000000E+00  0.00000000000E+00 -0.13084170459E+04  0.17097047033E+04  0.11005157911E+04 0.  0.
        3    1    3    3  502    0  0.50494260219E+02 -0.17565367242E+03  0.15211139514E+03  0.23778513343E+03  0.10100000352E+00 0.  1.
       -3    1    3    3    0  502 -0.50494260219E+02  0.17565367242E+03 -0.14605284410E+04  0.14719195699E+04  0.10100000352E+00 0. -1.
</event>
<event>
 5   0  0.6245176E-04  0.1107379E+04  0.7818609E-02  0.9198029E-01
        2   -1    0    0  501    0  0.00000000000E+00  0.00000000000E+00  0.84169259204E+03  0.84169259204E+03  0.25500000920E-02 0.  1.
       -2   -1    0    0    0  501  0.00000000000E+00  0.00000000000E+00 -0.36423305252E+03  0.36423305253E+03  0.25500000920E-02 0. -1.
    10030    2    1    2    0    0  0.00000000000E+00  0.00000000000E+00  0.47745953952E+03  0.12059256446E+04  0.11073793606E+04 0.  0.
        5    1    3    3  502    0 -0.40533657749E+03  0.21400271506E+03 -0.99480728402E+02  0.46905586920E+03  0.46999998093E+01 0. -1.
       -5    1    3    3    0  502  0.40533657749E+03 -0.21400271506E+03  0.57694026792E+03  0.73686977537E+03  0.46999998093E+01 0.  1.
</event>
<event>
 5   0  0.3657529E-04  0.1099334E+04  0.7818609E-02  0.9205841E-01
        1   -1    0    0  501    0  0.00000000000E+00  0.00000000000E+00  0.11859962619E+04  0.11859962619E+04  0.50400001928E-02 0.  1.
       -1   -1    0    0    0  501  0.00000000000E+00  0.00000000000E+00 -0.25475129357E+03  0.25475129362E+03  0.50400001928E-02 0. -1.
    10030    2    1    2    0    0  0.00000000000E+00  0.00000000000E+00  0.93124496829E+03  0.14407475555E+04  0.10993344931E+04 0.  0.
        4    1    3    3  502    0  0.45074913577E+02 -0.54674114777E+03  0.51054324728E+03  0.74940886753E+03  0.12699999809E+01 0.  1.
       -4    1    3    3    0  502 -0.45074913577E+02  0.54674114777E+03  0.42070172101E+03  0.69133868795E+03  0.12699999809E+01 0. -1.
</event>
<event>
 5   0  0.3621403E-04  0.1094214E+04  0.7818609E-02  0.9210850E-01
        1   -1    0    0  501    0  0.00000000000E+00  0.00000000000E+00  0.19094867867E+04  0.19094867867E+04  0.50400001928E-02 0.  1.
       -1   -1    0    0    0  501  0.00000000000E+00  0.00000000000E+00 -0.15675726363E+03  0.15675726371E+03  0.50400001928E-02 0. -1.
    10030    2    1    2    0    0  0.00000000000E+00  0.00000000000E+00  0.17527295231E+04  0.20662440504E+04  0.10942137336E+04 0.  0.
        3    1    3    3  502    0 -0.73086902422E+02 -0.21025277789E+03  0.18201138298E+04  0.18336745320E+04  0.10100000352E+00 0.  1.
       -3    1    3    3    0  502  0.73086902422E+02  0.21025277789E+03 -0.67384306654E+02  0.23256951842E+03  0.10100000352E+00 0. -1.
</event>
<event>
 5   0  0.3423758E-04  0.1100331E+04  0.7818609E-02  0.9204869E-01
       -1   -1    0    0    0  501  0.00000000000E+00  0.00000000000E+00  0.76701350069E+03  0.76701350070E+03  0.50400001928E-02 0.  1.
        1   -1    0    0  501    0  0.00000000000E+00  0.00000000000E+00 -0.39462408259E+03  0.39462408263E+03  0.50400001928E-02 0. -1.
    10030    2    1    2    0    0  0.00000000000E+00  0.00000000000E+00  0.37238941809E+03  0.11616375833E+04  0.11003308577E+04 0.  0.
        1    1    3    3  502    0  0.40885121189E+03  0.25352143375E+03  0.46799308155E+03  0.67115568629E+03  0.50400001928E-02 0.  1.
       -1    1    3    3    0  502 -0.40885121189E+03 -0.25352143375E+03 -0.95603663458E+02  0.49048189704E+03  0.50400001928E-02 0. -1.
</event>
<event>
 5   0  0.6264830E-04  0.1099539E+04  0.7818609E-02  0.9205641E-01
       -2   -1    0    0    0  501  0.00000000000E+00  0.00000000000E+00  0.72150525525E+03  0.72150525525E+03  0.25500000920E-02 0. -1.
        2   -1    0    0  501    0  0.00000000000E+00  0.00000000000E+00 -0.41891094700E+03  0.41891094701E+03  0.25500000920E-02 0.  1.
    10030    2    1    2    0    0  0.00000000000E+00  0.00000000000E+00  0.30259430825E+03  0.11404162023E+04  0.10995389029E+04 0.  0.
        4    1    3    3  502    0 -0.63053129473E+02 -0.33431648635E+03  0.59921059113E+03  0.68905598873E+03  0.12699999809E+01 0. -1.
       -4    1    3    3    0  502  0.63053129473E+02  0.33431648635E+03 -0.29661628288E+03  0.45136021353E+03  0.12699999809E+01 0.  1.
</event>
<event>
 5   0  0.6264830E-04  0.1102687E+04  0.7818609E-02  0.9202577E-01
       -2   -1    0    0    0  501  0.00000000000E+00  0.00000000000E+00  0.25708270531E+03  0.25708270532E+03  0.25500000920E-02 0.  1.
        2   -1    0    0  501    0  0.00000000000E+00  0.00000000000E+00 -0.11824191525E+04  0.11824191525E+04  0.25500000920E-02 0. -1.
    10030    2    1    2    0    0  0.00000000000E+00  0.00000000000E+00 -0.92533644724E+03  0.14395018579E+04  0.11026867453E+04 0.  0.
        4    1    3    3  502    0 -0.52580891119E+03  0.15172248577E+03 -0.37525984572E+03  0.66356332666E+03  0.12699999809E+01 0.  1.
       -4    1    3    3    0  502  0.52580891119E+03 -0.15172248577E+03 -0.55007660151E+03  0.77593853121E+03  0.12699999809E+01 0. -1.
</event>
<event>
 5   0  0.3523525E-04  0.1098474E+04  0.7818609E-02  0.9206680E-01
        1   -1    0    0  501    0  0.00000000000E+00  0.00000000000E+00  0.77994080655E+03  0.77994080656E+03  0.50400001928E-02 0.  1.
       -1   -1    0    0    0  501  0.00000000000E+00  0.00000000000E+00 -0.38677474760E+03  0.38677474763E+03  0.50400001928E-02 0. -1.
    10030    2    1    2    0    0  0.00000000000E+00  0.00000000000E+00  0.39316605894E+03  0.11667155542E+04  0.10984742302E+04 0.  0.
        5    1    3    3  502    0  0.39787424636E+03 -0.25295954019E+03 -0.10260211451E+03  0.48253676419E+03  0.46999998093E+01 0. -1.
       -5    1    3    3    0  502 -0.39787424636E+03  0.25295954019E+03  0.49576817346E+03  0.68417879001E+03  0.46999998093E+01 0.  1.
</event>
<event>
 5   0  0.6412712E-04  0.1081730E+04  0.7818609E-02  0.9223184E-01
       -2   -1    0    0    0  501  0.00000000000E+00  0.00000000000E+00  0.36379974337E+03  0.36379974338E+03  0.25500000920E-02 0.  1.
        2   -1    0    0  501    0  0.00000000000E+00  0.00000000000E+00 -0.80411009806E+03  0.80411009807E+03  0.25500000920E-02 0. -1.
    10030    2    1    2    0    0  0.00000000000E+00  0.00000000000E+00 -0.44031035469E+03  0.11679098414E+04  0.10817301832E+04 0.  0.
        2    1    3    3  502    0 -0.52330110007E+03 -0.13421599064E+03 -0.19206151315E+03  0.57336340860E+03  0.25500000920E-02 0. -1.
       -2    1    3    3    0  502  0.52330110007E+03  0.13421599064E+03 -0.24824884154E+03  0.59454643285E+03  0.25500000920E-02 0.  1.
</event>
<event>
 5   0  0.3642161E-04  0.1100332E+04  0.7818609E-02  0.9204868E-01
        1   -1    0    0  501    0  0.00000000000E+00  0.00000000000E+00  0.14532281058E+04  0.14532281058E+04  0.50400001928E-02 0. -1.
       -1   -1    0    0    0  501  0.00000000000E+00  0.00000000000E+00 -0.20828297345E+03  0.20828297351E+03  0.50400001928E-02 0.  1.
    10030    2    1    2    0    0  0.00000000000E+00  0.00000000000E+00  0.12449451324E+04  0.16615110793E+04  0.11003320790E+04 0.  0.
        2    1    3    3  502    0 -0.61856122044E+02  0.28205707721E+03 -0.84657130625E+02  0.30091394851E+03  0.25500000920E-02 0.  1.
       -2    1    3    3    0  502  0.61856122044E+02 -0.28205707721E+03  0.13296022630E+04  0.13605971308E+04  0.25500000920E-02 0. -1.
</event>
<event>
 5   0  0.3621403E-04  0.1094601E+04  0.7818609E-02  0.9210471E-01
        1   -1    0    0  501    0  0.00000000000E+00  0.00000000000E+00  0.61632080008E+03  0.61632080010E+03  0.50400001928E-02 0.  1.
       -1   -1    0    0    0  501  0.00000000000E+00  0.00000000000E+00 -0.48600926596E+03  0.48600926599E+03  0.50400001928E-02 0. -1.
    10030    2    1    2    0    0  0.00000000000E+00  0.00000000000E+00  0.13031153411E+03  0.11023300661E+04  0.10946006024E+04 0.  0.
        3    1    3    3  502    0  0.86151538015E+02 -0.24479141453E+03 -0.42011065040E+03  0.49379944604E+03  0.10100000352E+00 0. -1.
       -3    1    3    3    0  502 -0.86151538015E+02  0.24479141453E+03  0.55042218451E+03  0.60853062005E+03  0.10100000352E+00 0.  1.
</event>
<event>
 5   0  0.6245176E-04  0.1099287E+04  0.7818609E-02  0.9205887E-01
       -2   -1    0    0    0  501  0.00000000000E+00  0.00000000000E+00  0.27515838404E+03  0.27515838405E+03  0.25500000920E-02 0. -1.
        2   -1    0    0  501    0  0.00000000000E+00  0.00000000000E+00 -0.10979424169E+04  0.10979424169E+04  0.25500000920E-02 0.  1.
    10030    2    1    2    0    0  0.00000000000E+00  0.00000000000E+00 -0.82278403285E+03  0.13731008009E+04  0.10992871530E+04 0.  0.
        5    1    3    3  502    0 -0.11743574802E+02 -0.50688420843E+03 -0.67641096865E+03  0.84535400917E+03  0.46999998093E+01 0. -1.
       -5    1    3    3    0  502  0.11743574802E+02  0.50688420843E+03 -0.14637306420E+03  0.52774679177E+03  0.46999998093E+01 0.  1.
</event>
<event>
 5   0  0.6109149E-04  0.1101878E+04  0.7818609E-02  0.9203364E-01
       -2   -1    0    0    0  501  0.00000000000E+00  0.00000000000E+00  0.39376702620E+03  0.39376702621E+03  0.25500000920E-02 0.  1.
        2   -1    0    0  501    0  0.00000000000E+00  0.00000000000E+00 -0.77084542544E+03  0.77084542545E+03  0.25500000920E-02 0. -1.
    10030    2    1    2    0    0  0.00000000000E+00  0.00000000000E+00 -0.37707839924E+03  0.11646124517E+04  0.11018775083E+04 0.  0.
        1    1    3    3  502    0  0.38116364908E+03  0.17454942391E+03 -0.56635492672E+03  0.70463546023E+03  0.50400001928E-02 0. -1.
       -1    1    3    3    0  502 -0.38116364908E+03 -0.17454942391E+03  0.18927652747E+03  0.45997699143E+03  0.50400001928E-02 0.  1.
</event>
<event>
 5   0  0.3657529E-04  0.1102269E+04  0.7818609E-02  0.9202983E-01
       -1   -1    0    0    0  501  0.00000000000E+00  0.00000000000E+00  0.29276352233E+03  0.29276352237E+03  0.50400001928E-02 0. -1.
        1   -1    0    0  501    0  0.00000000000E+00  0.00000000000E+00 -0.10375242821E+04  0.10375242821E+04  0.50400001928E-02 0.  1.
    10030    2    1    2    0    0  0.00000000000E+00  0.00000000000E+00 -0.74476075981E+03  0.13302878045E+04  0.11022690477E+04 0.  0.
        4    1    3    3  502    0 -0.77627105464E+02 -0.13888251274E+03 -0.10092031867E+04  0.10216687353E+04  0.12699999809E+01 0.  1.
       -4    1    3    3    0  502  0.77627105464E+02  0.13888251274E+03  0.26444242686E+03  0.30861906920E+03  0.12699999809E+01 0. -1.
</event>
<event>
 5   0  0.3657529E-04  0.1099947E+04  0.7818609E-02  0.9205244E-01
       -1   -1    0    0    0  501  0.00000000000E+00  0.00000000000E+00  0.22048814577E+03  0.22048814583E+03  0.50400001928E-02 0.  1.
        1   -1    0    0  501    0  0.00000000000E+00  0.00000000000E+00 -0.13718225299E+04  0.13718225299E+04  0.50400001928E-02 0. -1.
    10030    2    1    2    0    0  0.00000000000E+00  0.00000000000E+00 -0.11513343841E+04  0.15923106757E+04  0.10999465551E+04 0.  0.
        4    1    3    3  502    0 -0.32558932662E+03  0.33738972763E+03 -0.99179029472E+03  0.10970368451E+04  0.12699999809E+01 0. -1.
       -4    1    3    3    0  502  0.32558932662E+03 -0.33738972763E+03 -0.15954408936E+03  0.49527383059E+03  0.12699999809E+01 0.  1.
</event>
<event>
 5   0  0.3621403E-04  0.1100081E+04  0.7818609E-02  0.9205112E-01
       -1   -1    0    0    0  501  0.00000000000E+00  0.00000000000E+00  0.13285170318E+03  0.13285170327E+03  0.50400001928E-02 0. -1.
        1   -1    0    0  501    0  0.00000000000E+00  0.00000000000E+00 -0.22773122523E+04  0.22773122523E+04  0.50400001928E-02 0.  1.
    10030    2    1    2    0    0  0.00000000000E+00  0.00000000000E+00 -0.21444605491E+04  0.24101639556E+04  0.11000814724E+04 0.  0.
        3    1    3    3  502    0  0.44159319634E+03 -0.24861960400E+03 -0.60372399340E+03  0.78822517656E+03  0.10100000352E+00 0. -1.
       -3    1    3    3    0  502 -0.44159319634E+03  0.24861960400E+03 -0.15407365557E+04  0.16219387790E+04  0.10100000352E+00 0.  1.
</event>
<event>
 5   0  0.6264830E-04  0.1102159E+04  0.7818609E-02  0.9203091E-01
        2   -1    0    0  501    0  0.00000000000E+00  0.00000000000E+00  0.10185266110E+04  0.10185266110E+04  0.25500000920E-02 0.  1.
       -2   -1    0    0    0  501  0.00000000000E+00  0.00000000000E+00 -0.29816436764E+03  0.29816436765E+03  0.25500000920E-02 0. -1.
    10030    2    1    2    0    0  0.00000000000E+00  0.00000000000E+00  0.72036224335E+03  0.13166909786E+04  0.11021585057E+04 0.  0.
        4    1    3    3  502    0 -0.22885516920E+03  0.16268361595E+03  0.92665836267E+03  0.96826544985E+03  0.12699999809E+01 0.  1.
       -4    1    3    3    0  502  0.22885516920E+03 -0.16268361595E+03 -0.20629611932E+03  0.34842552879E+03  0.12699999809E+01 0. -1.
</event>
<event>
 5   0  0.3523525E-04  0.1099013E+04  0.7818609E-02  0.9206154E-01
        1   -1    0    0  501    0  0.00000000000E+00  0.00000000000E+00  0.59555075232E+03  0.59555075234E+03  0.50400001928E-02 0. -1.
       -1   -1    0    0    0  501  0.00000000000E+00  0.00000000000E+00 -0.50702210429E+03  0.50702210431E+03  0.50400001928E-02 0.  1.
    10030    2    1    2    0    0  0.00000000000E+00  0.00000000000E+00  0.88528648032E+02  0.11025728567E+04  0.10990130039E+04 0.  0.
        5    1    3    3  502    0  0.13698093108E+03  0.37836266839E+03  0.41965976108E+03  0.58142797436E+03  0.46999998093E+01 0. -1.
       -5    1    3    3    0  502 -0.13698093108E+03 -0.37836266839E+03 -0.33113111304E+03  0.52114488229E+03  0.46999998093E+01 0.  1.
</event>
<event>
 5   0  0.5948818E-04  0.1096761E+04  0.7818609E-02  0.9208354E-01
        2   -1    0    0  501    0  0.00000000000E+00  0.00000000000E+00  0.17337287725E+04  0.17337287725E+04  0.25500000920E-02 0.  1.
       -2   -1    0    0    0  501  0.00000000000E+00  0.00000000000E+00 -0.17345349906E+03  0.17345349908E+03  0.25500000920E-02 0. -1.
    10030    2    1    2    0    0  0.00000000000E+00  0.00000000000E+00  0.15602752735E+04  0.19071822716E+04  0.10967612722E+04 0.  0.
        3    1    3    3  502    0  0.16430105943E+03 -0.33009818372E+03  0.14859807432E+04  0.15310448812E+04  0.10100000352E+00 0.  1.
       -3    1    3    3    0  502 -0.16430105943E+03  0.33009818372E+03  0.74294530311E+02  0.37613739040E+03  0.10100000352E+00 0. -1.
</event>
<event>
 5   0  0.5948818E-04  0.1097451E+04  0.7818609E-02  0.9207680E-01
       -2   -1    0    0    0  501  0.00000000000E+00  0.00000000000E+00  0.36827096716E+03  0.36827096717E+03  0.25500000920E-02 0.  1.
        2   -1    0    0  501    0  0.00000000000E+00  0.00000000000E+00 -0.81760367964E+03  0.81760367965E+03  0.25500000920E-02 0. -1.
    10030    2    1    2    0    0  0.00000000000E+00  0.00000000000E+00 -0.44933271248E+03  0.11858746468E+04  0.10974510429E+04 0.  0.
        3    1    3    3  502    0 -0.16493238032E+03  0.41950230020E+03  0.11345907674E+03  0.46482022573E+03  0.10100000352E+00 0.  1.
       -3    1    3    3    0  502  0.16493238032E+03 -0.41950230020E+03 -0.56279178922E+03  0.72105442109E+03  0.10100000352E+00 0. -1.
</event>
<event>
 5   0  0.3523525E-04  0.1098119E+04  0.7818609E-02  0.9207027E-01
       -1   -1    0    0    0  501  0.00000000000E+00  0.00000000000E+00  0.21408086447E+03  0.21408086453E+03  0.50400001928E-02 0.  1.
        1   -1    0    0  501    0  0.00000000000E+00  0.00000000000E+00 -0.14081893013E+04  0.14081893013E+04  0.50400001928E-02 0. -1.
    10030    2    1    2    0    0  0.00000000000E+00  0.00000000000E+00 -0.11941084369E+04  0.16222701659E+04  0.10981190883E+04 0.  0.
        5    1    3    3  502    0 -0.39613011346E+03  0.28852947369E+03 -0.23135937655E+03  0.54195717090E+03  0.46999998093E+01 0.  1.
       -5    1    3    3    0  502  0.39613011346E+03 -0.28852947369E+03 -0.96274906031E+03  0.10803129950E+04  0.46999998093E+01 0. -1.
</event>
<event>
 5   0  0.2403875E-04  0.1099728E+04  0.7818609E-02  0.9205457E-01
       -3   -1    0    0    0  501  0.00000000000E+00  0.00000000000E+00  0.15491869114E+03  0.15491872407E+03  0.10100000352E+00 0.  1.
        3   -1    0    0  501    0  0.00000000000E+00  0.00000000000E+00 -0.19516700641E+04  0.19516700667E+04  0.10100000352E+00 0. -1.
    10030    2    1    2    0    0  0.00000000000E+00  0.00000000000E+00 -0.17967513729E+04  0.21065887907E+04  0.10997276195E+04 0.  0.
        5    1    3    3  502    0  0.12664095962E+03  0.94253908424E+02  0.11053533149E+03  0.19277417206E+03  0.46999998093E+01 0.  1.
       -5    1    3    3    0  502 -0.12664095962E+03 -0.94253908424E+02 -0.19072867044E+04  0.19138146187E+04  0.46999998093E+01 0. -1.
</event>
<event>
 5   0  0.3523525E-04  0.1098464E+04  0.7818609E-02  0.9206690E-01
        1   -1    0    0  501    0  0.00000000000E+00  0.00000000000E+00  0.62989483840E+03  0.62989483842E+03  0.50400001928E-02 0.  1.
       -1   -1    0    0    0  501  0.00000000000E+00  0.00000000000E+00 -0.47889890813E+03  0.47889890816E+03  0.50400001928E-02 0. -1.
    10030    2    1    2    0    0  0.00000000000E+00  0.00000000000E+00  0.15099593027E+03  0.11087937466E+04  0.10984642923E+04 0.  0.
        5    1    3    3  502    0 -0.26025912754E+03  0.34072815731E+03  0.42195045013E+03  0.60157689701E+03  0.46999998093E+01 0.  1.
       -5    1    3    3    0  502  0.26025912754E+03 -0.34072815731E+03 -0.27095451986E+03  0.50721684957E+03  0.46999998093E+01 0. -1.
</event>
<event>
 5   0  0.5948818E-04  0.1096005E+04  0.7818609E-02  0.9209094E-01
       -2   -1    0    0    0  501  0.00000000000E+00  0.00000000000E+00  0.72623874426E+03  0.72623874426E+03  0.25500000920E-02 0.  1.
        2   -1    0    0  501    0  0.00000000000E+00  0.00000000000E+00 -0.41350990567E+03  0.41350990568E+03  0.25500000920E-02 0. -1.
    10030    2    1    2    0    0  0.00000000000E+00  0.00000000000E+00  0.31272883858E+03  0.11397486499E+04  0.10960053187E+04 0.  0.
        3    1    3    3  502    0 -0.45914716420E+03  0.24126633986E+03 -0.27559873234E+02  0.51940843462E+03  0.10100000352E+00 0. -1.
       -3    1    3    3    0  502  0.45914716420E+03 -0.24126633986E+03  0.34028871182E+03  0.62034021531E+03  0.10100000352E+00 0.  1.
</event>
<event>
 5   0  0.2403875E-04  0.1101212E+04  0.7818609E-02  0.9204012E-01
        3   -1    0    0  501    0  0.00000000000E+00  0.00000000000E+00  0.68292477039E+03  0.68292477786E+03  0.10100000352E+00 0.  1.
       -3   -1    0    0    0  501  0.00000000000E+00  0.00000000000E+00 -0.44392414300E+03  0.44392415449E+03  0.10100000352E+00 0. -1.
    10030    2    1    2    0    0  0.00000000000E+00  0.00000000000E+00  0.23900062739E+03  0.11268489323E+04  0.11012117037E+04 0.  0.
        2    1    3    3  502    0  0.25697847600E+03  0.45227963840E+03  0.30417912190E+03  0.60259418073E+03  0.25500000920E-02 0.  1.
       -2    1    3    3    0  502 -0.25697847600E+03 -0.45227963840E+03 -0.65178494503E+02  0.52425475162E+03  0.25500000920E-02 0. -1.
</event>
<event>
 5   0  0.6412712E-04  0.1101225E+04  0.7818609E-02  0.9203999E-01
        2   -1    0    0  501    0  0.00000000000E+00  0.00000000000E+00  0.58144416039E+03  0.58144416039E+03  0.25500000920E-02 0. -1.
       -2   -1    0    0    0  501  0.00000000000E+00  0.00000000000E+00 -0.52141533271E+03  0.52141533271E+03  0.25500000920E-02 0.  1.
    10030    2    1    2    0    0  0.00000000000E+00  0.00000000000E+00  0.60028827682E+02  0.11028594931E+04  0.11012245917E+04 0.  0.
        2    1    3    3  502    0  0.21459149074E+03 -0.50011065753E+03  0.11388671894E+03  0.55599493022E+03  0.25500000920E-02 0. -1.
       -2    1    3    3    0  502 -0.21459149074E+03  0.50011065753E+03 -0.53857891261E+02  0.54686456288E+03  0.25500000920E-02 0.  1.
</event>
<event>
 5   0  0.6109149E-04  0.1100809E+04  0.7818609E-02  0.9204404E-01
        2   -1    0    0  501    0  0.00000000000E+00  0.00000000000E+00  0.68676743277E+03  0.68676743277E+03  0.25500000920E-02 0. -1.
       -2   -1    0    0    0  501  0.00000000000E+00  0.00000000000E+00 -0.44111743047E+03  0.44111743048E+03  0.25500000920E-02 0.  1.
    10030    2    1    2    0    0  0.00000000000E+00  0.00000000000E+00  0.24565000230E+03  0.11278848633E+04  0.11008089485E+04 0.  0.
        1    1    3    3  502    0 -0.48978316135E+03  0.73569001330E+02  0.36882447274E+03  0.61752039222E+03  0.50400001928E-02 0. -1.
       -1    1    3    3    0  502  0.48978316135E+03 -0.73569001330E+02 -0.12317447045E+03  0.51036447103E+03  0.50400001928E-02 0.  1.
</event>
<event>
 5   0  0.3423758E-04  0.1100044E+04  0.7818609E-02  0.9205149E-01
       -1   -1    0    0    0  501  0.00000000000E+00  0.00000000000E+00  0.39847259254E+03  0.39847259257E+03  0.50400001928E-02 0. -1.
        1   -1    0    0  501    0  0.00000000000E+00  0.00000000000E+00 -0.75920895626E+03  0.75920895627E+03  0.50400001928E-02 0.  1.
    10030    2    1    2    0    0  0.00000000000E+00  0.00000000000E+00 -0.36073636372E+03  0.11576815488E+04  0.11000435648E+04 0.  0.
        1    1    3    3  502    0 -0.88598602533E+02  0.34418722656E+03  0.26139932088E+03  0.44118495473E+03  0.50400001928E-02 0. -1.
       -1    1    3    3    0  502  0.88598602533E+02 -0.34418722656E+03 -0.62213568460E+03  0.71649659411E+03  0.50400001928E-02 0.  1.
</event>
<event>
 5   0  0.6264830E-04  0.1101596E+04  0.7818609E-02  0.9203638E-01
        2   -1    0    0  501    0  0.00000000000E+00  0.00000000000E+00  0.84897637078E+03  0.84897637078E+03  0.25500000920E-02 0. -1.
       -2   -1    0    0    0  501  0.00000000000E+00  0.00000000000E+00 -0.35734595601E+03  0.35734595602E+03  0.25500000920E-02 0.  1.
    10030    2    1    2    0    0  0.00000000000E+00  0.00000000000E+00  0.49163041477E+03  0.12063223268E+04  0.11015957023E+04 0.  0.
        4    1    3    3  502    0 -0.45988345624E+03  0.23814003534E+03  0.45118994103E+03  0.68686057212E+03  0.12699999809E+01 0. -1.
       -4    1    3    3    0  502  0.45988345624E+03 -0.23814003534E+03  0.40440473742E+02  0.51946175468E+03  0.12699999809E+01 0.  1.
</event>
<event>
 5   0  0.6264830E-04  0.1102873E+04  0.7818609E-02  0.9202396E-01
        2   -1    0    0  501    0  0.00000000000E+00  0.00000000000E+00  0.60665413012E+03  0.60665413013E+03  0.25500000920E-02 0. -1.
       -2   -1    0    0    0  501  0.00000000000E+00  0.00000000000E+00 -0.50124474082E+03  0.50124474082E+03  0.25500000920E-02 0.  1.
    10030    2    1    2    0    0  0.00000000000E+00  0.00000000000E+00  0.10540938930E+03  0.11078988709E+04  0.11028729614E+04 0.  0.
        4    1    3    3  502    0 -0.26289460693E+03 -0.11604883872E+03  0.52548695653E+03  0.59893160019E+03  0.12699999809E+01 0. -1.
       -4    1    3    3    0  502  0.26289460693E+03  0.11604883872E+03 -0.42007756722E+03  0.50896727076E+03  0.12699999809E+01 0.  1.
</event>
<event>
 5   0  0.5948818E-04  0.1099036E+04  0.7818609E-02  0.9206132E-01
       -2   -1    0    0    0  501  0.00000000000E+00  0.00000000000E+00  0.67960069582E+03  0.67960069583E+03  0.25500000920E-02 0. -1.
        2   -1    0    0  501    0  0.00000000000E+00  0.00000000000E+00 -0.44433459634E+03  0.44433459635E+03  0.25500000920E-02 0.  1.
    10030    2    1    2    0    0  0.00000000000E+00  0.00000000000E+00  0.23526609948E+03  0.11239352922E+04  0.10990361247E+04 0.  0.
        3    1    3    3  502    0 -0.15461238957E+03 -0.13966148524E+02 -0.42144321141E+03  0.44912630178E+03  0.10100000352E+00 0.  1.
       -3    1    3    3    0  502  0.15461238957E+03  0.13966148524E+02  0.65670931088E+03  0.67480899039E+03  0.10100000352E+00 0. -1.
</event>
<event>
 5   0  0.3657529E-04  0.1095990E+04  0.7818609E-02  0.9209109E-01
       -1   -1    0    0    0  501  0.00000000000E+00  0.00000000000E+00  0.61866667534E+03  0.61866667536E+03  0.50400001928E-02 0. -1.
        1   -1    0    0  501    0  0.00000000000E+00  0.00000000000E+00 -0.48539648335E+03  0.48539648338E+03  0.50400001928E-02 0.  1.
    10030    2    1    2    0    0  0.00000000000E+00  0.00000000000E+00  0.13327019199E+03  0.11040631587E+04  0.10959901981E+04 0.  0.
        4    1    3    3  502    0 -0.79180291534E+01 -0.47557548017E+03 -0.20751335496E+03  0.51893943568E+03  0.12699999809E+01 0.  1.
       -4    1    3    3    0  502  0.79180291534E+01  0.47557548017E+03  0.34078354694E+03  0.58512372306E+03  0.12699999809E+01 0. -1.
</event>
<event>
 5   0  0.3642161E-04  0.1097709E+04  0.7818609E-02  0.9207428E-01
       -1   -1    0    0    0  501  0.00000000000E+00  0.00000000000E+00  0.26531381326E+03  0.26531381330E+03  0.50400001928E-02 0.  1.
        1   -1    0    0  501    0  0.00000000000E+00  0.00000000000E+00 -0.11354147910E+04  0.11354147910E+04  0.50400001928E-02 0. -1.
    10030    2    1    2    0    0  0.00000000000E+00  0.00000000000E+00 -0.87010097775E+03  0.14007286043E+04  0.10977089375E+04 0.  0.
        2    1    3    3  502    0 -0.47621060343E+02 -0.40386502390E+03  0.35301515507E+02  0.40819225853E+03  0.25500000920E-02 0.  1.
       -2    1    3    3    0  502  0.47621060343E+02  0.40386502390E+03 -0.90540249326E+03  0.99253634580E+03  0.25500000920E-02 0. -1.
</event>
<event>
 5   0  0.5948818E-04  0.1099307E+04  0.7818609E-02  0.9205868E-01
       -2   -1    0    0    0  501  0.00000000000E+00  0.00000000000E+00  0.21767943116E+03  0.21767943118E+03  0.25500000920E-02 0. -1.
        2   -1    0    0  501    0  0.00000000000E+00  0.00000000000E+00 -0.13879077689E+04  0.13879077689E+04  0.25500000920E-02 0.  1.
    10030    2    1    2    0    0  0.00000000000E+00  0.00000000000E+00 -0.11702283377E+04  0.16055872001E+04  0.10993070065E+04 0.  0.
        3    1    3    3  502    0 -0.18136487121E+03  0.51582407357E+03 -0.50312474181E+03  0.74303580493E+03  0.10100000352E+00 0. -1.
       -3    1    3    3    0  502  0.18136487121E+03 -0.51582407357E+03 -0.66710359592E+03  0.86255139515E+03  0.10100000352E+00 0.  1.
</event>
<event>
 5   0  0.6109149E-04  0.1102735E+04  0.7818609E-02  0.9202530E-01
        2   -1    0    0  501    0  0.00000000000E+00  0.00000000000E+00  0.98900040849E+03  0.98900040849E+03  0.25500000920E-02 0. -1.
       -2   -1    0    0    0  501  0.00000000000E+00  0.00000000000E+00 -0.30738735119E+03  0.30738735121E+03  0.25500000920E-02 0.  1.
    10030    2    1    2    0    0  0.00000000000E+00  0.00000000000E+00  0.68161305730E+03  0.12963877597E+04  0.11027351738E+04 0.  0.
        1    1    3    3  502    0 -0.47557332646E+02 -0.51839035090E+03  0.12719452199E+03  0.53588123894E+03  0.50400001928E-02 0.  1.
       -1    1    3    3    0  502  0.47557332646E+02  0.51839035090E+03  0.55441853531E+03  0.76050652076E+03  0.50400001928E-02 0. -1.
</event>
<event>
 5   0  0.6264830E-04  0.1098822E+04  0.7818609E-02  0.9206341E-01
       -2   -1    0    0    0  501  0.00000000000E+00  0.00000000000E+00  0.33658488266E+03  0.33658488267E+03  0.25500000920E-02 0.  1.
        2   -1    0    0  501    0  0.00000000000E+00  0.00000000000E+00 -0.89680857588E+03  0.89680857589E+03  0.25500000920E-02 0. -1.
    10030    2    1    2    0    0  0.00000000000E+00  0.00000000000E+00 -0.56022369322E+03  0.12333934586E+04  0.10988215675E+04 0.  0.
        4    1    3    3  502    0  0.16782350366E+03 -0.13994848492E+03 -0.84593021974E+03  0.87369895066E+03  0.12699999809E+01 0. -1.
       -4    1    3    3    0  502 -0.16782350366E+03  0.13994848492E+03  0.28570652652E+03  0.35969450789E+03  0.12699999809E+01 0.  1.
</event>
<event>
 5   0  0.3621403E-04  0.1101025E+04  0.7818609E-02  0.9204194E-01
        1   -1    0    0  501    0  0.00000000000E+00  0.00000000000E+00  0.12479007831E+04  0.12479007831E+04  0.50400001928E-02 0.  1.
       -1   -1    0    0    0  501  0.00000000000E+00  0.00000000000E+00 -0.24285901177E+03  0.24285901182E+03  0.50400001928E-02 0. -1.
    10030    2    1    2    0    0  0.00000000000E+00  0.00000000000E+00  0.10050417714E+04  0.14907597950E+04  0.11010248880E+04 0.  0.
        3    1    3    3  502    0  0.40980285807E+03  0.36313897334E+03  0.57977631587E+03  0.79746403247E+03  0.10100000352E+00 0. -1.
       -3    1    3    3    0  502 -0.40980285807E+03 -0.36313897334E+03  0.42526545549E+03  0.69329576248E+03  0.10100000352E+00 0.  1.
</event>
<event>
 5   0  0.3423758E-04  0.1102008E+04  0.7818609E-02  0.9203237E-01
        1   -1    0    0  501    0  0.00000000000E+00  0.00000000000E+00  0.97232718157E+03  0.97232718158E+03  0.50400001928E-02 0.  1.
       -1   -1    0    0    0  501  0.00000000000E+00  0.00000000000E+00 -0.31224616824E+03  0.31224616828E+03  0.50400001928E-02 0. -1.
    10030    2    1    2    0    0  0.00000000000E+00  0.00000000000E+00  0.66008101333E+03  0.12845733499E+04  0.11020080522E+04 0.  0.
        1    1    3    3  502    0  0.21523076225E+03 -0.47008974312E+03  0.10796112269E+03  0.52817066526E+03  0.50400001928E-02 0.  1.
       -1    1    3    3    0  502 -0.21523076225E+03  0.47008974312E+03  0.55211989064E+03  0.75640268460E+03  0.50400001928E-02 0. -1.
</event>
<event>
 5   0  0.3642161E-04  0.1100567E+04  0.7818609E-02  0.9204639E-01
        1   -1    0    0  501    0  0.00000000000E+00  0.00000000000E+00  0.47805924945E+03  0.47805924948E+03  0.50400001928E-02 0. -1.
       -1   -1    0    0    0  501  0.00000000000E+00  0.00000000000E+00 -0.63341964135E+03  0.63341964137E+03  0.50400001928E-02 0.  1.
    10030    2    1    2    0    0  0.00000000000E+00  0.00000000000E+00 -0.15536039190E+03  0.11114788908E+04  0.11005673416E+04 0.  0.
        2    1    3    3  502    0 -0.36503202897E+03  0.34013761410E+03 -0.31208075782E+03  0.58850350730E+03  0.25500000920E-02 0. -1.
       -2    1    3    3    0  502  0.36503202897E+03 -0.34013761410E+03  0.15672036592E+03  0.52297538355E+03  0.25500000920E-02 0.  1.
</event>
<event>
 5   0  0.6109149E-04  0.1099665E+04  0.7818609E-02  0.9205518E-01
       -2   -1    0    0    0  501  0.00000000000E+00  0.00000000000E+00  0.24033740242E+03  0.24033740243E+03  0.25500000920E-02 0.  1.
        2   -1    0    0  501    0  0.00000000000E+00  0.00000000000E+00 -0.12578812113E+04  0.12578812113E+04  0.25500000920E-02 0. -1.
    10030    2    1    2    0    0  0.00000000000E+00  0.00000000000E+00 -0.10175438089E+04  0.14982186137E+04  0.10996652270E+04 0.  0.
        1    1    3    3  502    0 -0.21290627636E+03  0.33244047586E+03 -0.10301937948E+04  0.11032429503E+04  0.50400001928E-02 0. -1.
       -1    1    3    3    0  502  0.21290627636E+03 -0.33244047586E+03  0.12649985965E+02  0.39497566339E+03  0.50400001928E-02 0.  1.
</event>
<event>
 5   0  0.6264830E-04  0.1100324E+04  0.7818609E-02  0.9204876E-01
       -2   -1    0    0    0  501  0.00000000000E+00  0.00000000000E+00  0.15861875971E+04  0.15861875971E+04  0.25500000920E-02 0. -1.
        2   -1    0    0  501    0  0.00000000000E+00  0.00000000000E+00 -0.19082128284E+03  0.19082128286E+03  0.25500000920E-02 0.  1.
    10030    2    1    2    0    0  0.00000000000E+00  0.00000000000E+00  0.13953663143E+04  0.17770088800E+04  0.11003242288E+04 0.  0.
        4    1    3    3  502    0 -0.31299353266E+03 -0.77788680498E+02 -0.22138505567E+02  0.32327659462E+03  0.12699999809E+01 0.  1.
       -4    1    3    3    0  502  0.31299353266E+03  0.77788680498E+02  0.14175048199E+04  0.14537322854E+04  0.12699999809E+01 0. -1.
</event>
<event>
 5   0  0.3523525E-04  0.1097690E+04  0.7818609E-02  0.9207446E-01
        1   -1    0    0  501    0  0.00000000000E+00  0.00000000000E+00  0.29441184770E+04  0.29441184770E+04  0.50400001928E-02 0. -1.
       -1   -1    0    0    0  501  0.00000000000E+00  0.00000000000E+00 -0.10231619151E+03  0.10231619163E+03  0.50400001928E-02 0.  1.
    10030    2    1    2    0    0  0.00000000000E+00  0.00000000000E+00  0.28418022855E+04  0.30464346686E+04  0.10976902844E+04 0.  0.
        5    1    3    3  502    0  0.60730695572E+02  0.54539134379E+03  0.14439487563E+04  0.15447168142E+04  0.46999998093E+01 0.  1.
       -5    1    3    3    0  502 -0.60730695572E+02 -0.54539134379E+03  0.13978535292E+04  0.15017178544E+04  0.46999998093E+01 0. -1.
</event>
<event>
 5   0  0.6109149E-04  0.1099935E+04  0.7818609E-02  0.9205255E-01
        2   -1    0    0  501    0  0.00000000000E+00  0.00000000000E+00  0.42702617259E+03  0.42702617259E+03  0.25500000920E-02 0.  1.
       -2   -1    0    0    0  501  0.00000000000E+00  0.00000000000E+00 -0.70830413707E+03  0.70830413708E+03  0.25500000920E-02 0. -1.
    10030    2    1    2    0    0  0.00000000000E+00  0.00000000000E+00 -0.28127796449E+03  0.11353303097E+04  0.10999352793E+04 0.  0.
        1    1    3    3  502    0  0.13737880867E+03 -0.30472272972E+03 -0.59142547620E+03  0.67934746117E+03  0.50400001928E-02 0. -1.
       -1    1    3    3    0  502 -0.13737880867E+03  0.30472272972E+03  0.31014751171E+03  0.45598284850E+03  0.50400001928E-02 0.  1.
</event>
<event>
 5   0  0.3621403E-04  0.1100322E+04  0.7818609E-02  0.9204878E-01
       -1   -1    0    0    0  501  0.00000000000E+00  0.00000000000E+00  0.72602775149E+03  0.72602775150E+03  0.50400001928E-02 0.  1.
        1   -1    0    0  501    0  0.00000000000E+00  0.00000000000E+00 -0.41689498451E+03  0.41689498454E+03  0.50400001928E-02 0. -1.
    10030    2    1    2    0    0  0.00000000000E+00  0.00000000000E+00  0.30913276697E+03  0.11429227360E+04  0.11003223677E+04 0.  0.
        3    1    3    3  502    0  0.41995215286E+03 -0.56826881412E+02 -0.20985610026E+03  0.47289396080E+03  0.10100000352E+00 0.  1.
       -3    1    3    3    0  502 -0.41995215286E+03  0.56826881412E+02  0.51898886723E+03  0.67002877525E+03  0.10100000352E+00 0. -1.
</event>
<event>
 5   0  0.3523525E-04  0.1098231E+04  0.7818609E-02  0.9206918E-01
       -1   -1    0    0    0  501  0.00000000000E+00  0.00000000000E+00  0.29655108757E+03  0.29655108761E+03  0.50400001928E-02 0.  1.
        1   -1    0    0  501    0  0.00000000000E+00  0.00000000000E+00 -0.10167822162E+04  0.10167822162E+04  0.50400001928E-02 0. -1.
    10030    2    1    2    0    0  0.00000000000E+00  0.00000000000E+00 -0.72023112866E+03  0.13133333038E+04  0.10982310724E+04 0.  0.
        5    1    3    3  502    0 -0.42459708226E+03  0.21428394694E+03 -0.31948834489E+02  0.47670023096E+03  0.46999998093E+01 0.  1.
       -5    1    3    3    0  502  0.42459708226E+03 -0.21428394694E+03 -0.68828229417E+03  0.83663307288E+03  0.46999998093E+01 0. -1.
</event>
<event>
 5   0  0.3523525E-04  0.1102478E+04  0.7818609E-02  0.9202780E-01
       -1   -1    0    0    0  501  0.00000000000E+00  0.00000000000E+00  0.61689366064E+03  0.61689366066E+03  0.50400001928E-02 0. -1.
        1   -1    0    0  501    0  0.00000000000E+00  0.00000000000E+00 -0.49257141413E+03  0.49257141416E+03  0.50400001928E-02 0.  1.
    10030    2    1    2    0    0  0.00000000000E+00  0.00000000000E+00  0.12432224651E+03  0.11094650748E+04  0.11024775423E+04 0.  0.
        5    1    3    3  502    0 -0.45283070732E+03 -0.16801780740E+03 -0.20514707250E+03  0.52477904346E+03  0.46999998093E+01 0.  1.
       -5    1    3    3    0  502  0.45283070732E+03  0.16801780740E+03  0.32946931901E+03  0.58468603136E+03  0.46999998093E+01 0. -1.
</event>
<event>
 5   0  0.6245176E-04  0.1099223E+04  0.7818609E-02  0.9205949E-01
        2   -1    0    0  501    0  0.00000000000E+00  0.00000000000E+00  0.67424958438E+03  0.67424958439E+03  0.25500000920E-02 0.  1.
       -2   -1    0    0    0  501  0.00000000000E+00  0.00000000000E+00 -0.44801353729E+03  0.44801353730E+03  0.25500000920E-02 0. -1.
    10030    2    1    2    0    0  0.00000000000E+00  0.00000000000E+00  0.22623604709E+03  0.11222631217E+04  0.10992232554E+04 0.  0.
        5    1    3    3  502    0 -0.20081397423E+03  0.39224356916E+03 -0.22220106813E+03  0.49353487666E+03  0.46999998093E+01 0. -1.
       -5    1    3    3    0  502  0.20081397423E+03 -0.39224356916E+03  0.44843711522E+03  0.62872824504E+03  0.46999998093E+01 0.  1.
</event>
<event>
 5   0  0.6245176E-04  0.1100489E+04  0.7818609E-02  0.9204715E-01
       -2   -1    0    0    0  501  0.00000000000E+00  0.00000000000E+00  0.50931776069E+03  0.50931776070E+03  0.25500000920E-02 0.  1.
        2   -1    0    0  501    0  0.00000000000E+00  0.00000000000E+00 -0.59446034714E+03  0.59446034714E+03  0.25500000920E-02 0. -1.
    10030    2    1    2    0    0  0.00000000000E+00  0.00000000000E+00 -0.85142586447E+02  0.11037781078E+04  0.11004893690E+04 0.  0.
        5    1    3    3  502    0 -0.41575562523E+03 -0.90551193427E+02 -0.39246171183E+03  0.57887869523E+03  0.46999998093E+01 0. -1.
       -5    1    3    3    0  502  0.41575562523E+03  0.90551193427E+02  0.30731912538E+03  0.52489941261E+03  0.46999998093E+01 0.  1.
</event>
<event>
 5   0  0.6264830E-04  0.1099857E+04  0.7818609E-02  0.9205331E-01
       -2   -1    0    0    0  501  0.00000000000E+00  0.00000000000E+00  0.45805939440E+03  0.45805939441E+03  0.25500000920E-02 0.  1.
        2   -1    0    0  501    0  0.00000000000E+00  0.00000000000E+00 -0.66022279057E+03  0.66022279058E+03  0.25500000920E-02 0. -1.
    10030    2    1    2    0    0  0.00000000000E+00  0.00000000000E+00 -0.20216339617E+03  0.11182821850E+04  0.10998568118E+04 0.  0.
        4    1    3    3  502    0  0.23270653508E+03  0.48266331961E+03 -0.22686112390E+03  0.58187953565E+03  0.12699999809E+01 0.  1.
       -4    1    3    3    0  502 -0.23270653508E+03 -0.48266331961E+03  0.24697727729E+02  0.53640264934E+03  0.12699999809E+01 0. -1.
</event>
<event>
 5   0  0.3423758E-04  0.1099848E+04  0.7818609E-02  0.9205340E-01
        1   -1    0    0  501    0  0.00000000000E+00  0.00000000000E+00  0.94879873507E+03  0.94879873509E+03  0.50400001928E-02 0. -1.
       -1   -1    0    0    0  501  0.00000000000E+00  0.00000000000E+00 -0.31873584960E+03  0.31873584964E+03  0.50400001928E-02 0.  1.
    10030    2    1    2    0    0  0.00000000000E+00  0.00000000000E+00  0.63006288547E+03  0.12675345847E+04  0.10998475730E+04 0.  0.
        1    1    3    3  502    0  0.32411002816E+03  0.43980802113E+03  0.24271247449E+03  0.59781916255E+03  0.50400001928E-02 0. -1.
       -1    1    3    3    0  502 -0.32411002816E+03 -0.43980802113E+03  0.38735041098E+03  0.66971542219E+03  0.50400001928E-02 0.  1.
</event>
<event>
 5   0  0.6245176E-04  0.1100048E+04  0.7818609E-02  0.9205145E-01
       -2   -1    0    0    0  501  0.00000000000E+00  0.00000000000E+00  0.99053498699E+03  0.99053498699E+03  0.25500000920E-02 0.  1.
        2   -1    0    0  501    0  0.00000000000E+00  0.00000000000E+00 -0.30541711764E+03  0.30541711765E+03  0.25500000920E-02 0. -1.
    10030    2    1    2    0    0  0.00000000000E+00  0.00000000000E+00  0.68511786935E+03  0.12959521046E+04  0.11000478911E+04 0.  0.
        5    1    3    3  502    0  0.80969596271E+02  0.49138728704E+02 -0.29571372193E+03  0.31054691355E+03  0.46999998093E+01 0. -1.
       -5    1    3    3    0  502 -0.80969596271E+02 -0.49138728704E+02  0.98083159128E+03  0.98540519109E+03  0.46999998093E+01 0.  1.
</event>
<event>
 5   0  0.3523525E-04  0.1100120E+04  0.7818609E-02  0.9205075E-01
        1   -1    0    0  501    0  0.00000000000E+00  0.00000000000E+00  0.15173477918E+04  0.15173477918E+04  0.50400001928E-02 0.  1.
       -1   -1    0    0    0  501  0.00000000000E+00  0.00000000000E+00 -0.19940443292E+03  0.19940443299E+03  0.50400001928E-02 0. -1.
    10030    2    1    2    0    0  0.00000000000E+00  0.00000000000E+00  0.13179433589E+04  0.17167522248E+04  0.11001197681E+04 0.  0.
        5    1    3    3  502    0 -0.41824812128E+03 -0.35403915294E+03  0.58464511578E+03  0.80131592657E+03  0.46999998093E+01 0.  1.
       -5    1    3    3    0  502  0.41824812128E+03  0.35403915294E+03  0.73329824308E+03  0.91543629821E+03  0.46999998093E+01 0. -1.
</event>
<event>
 5   0  0.5948818E-04  0.1100805E+04  0.7818609E-02  0.9204408E-01
       -2   -1    0    0    0  501  0.00000000000E+00  0.00000000000E+00  0.66352355977E+03  0.66352355978E+03  0.25500000920E-02 0. -1.
        2   -1    0    0  501    0  0.00000000000E+00  0.00000000000E+00 -0.45656678234E+03  0.45656678235E+03  0.25500000920E-02 0.  1.
    10030    2    1    2    0    0  0.00000000000E+00  0.00000000000E+00  0.20695677743E+03  0.11200903421E+04  0.11008048268E+04 0.  0.
        3    1    3    3  502    0  0.13409695963E+03 -0.44866340029E+03  0.39778956751E+03  0.61442443927E+03  0.10100000352E+00 0. -1.
       -3    1    3    3    0  502 -0.13409695963E+03  0.44866340029E+03 -0.19083279008E+03  0.50566590286E+03  0.10100000352E+00 0.  1.
</event>
<event>
 5   0  0.6245176E-04  0.1097954E+04  0.7818609E-02  0.9207188E-01
       -2   -1    0    0    0  501  0.00000000000E+00  0.00000000000E+00  0.54399803775E+03  0.54399803775E+03  0.25500000920E-02 0. -1.
        2   -1    0    0  501    0  0.00000000000E+00  0.00000000000E+00 -0.55400169995E+03  0.55400169996E+03  0.25500000920E-02 0.  1.
    10030    2    1    2    0    0  0.00000000000E+00  0.00000000000E+00 -0.10003662206E+02  0.10979997377E+04  0.10979541661E+04 0.  0.
        5    1    3    3  502    0 -0.85730451370E+02 -0.35715004735E+03 -0.41299901066E+03  0.55271705186E+03  0.46999998093E+01 0.  1.
       -5    1    3    3    0  502  0.85730451370E+02  0.35715004735E+03  0.40299534845E+03  0.54528268585E+03  0.46999998093E+01 0. -1.
</event>
<event>
 5   0  0.3657529E-04  0.1096618E+04  0.7818609E-02  0.9208495E-01
        1   -1    0    0  501    0  0.00000000000E+00  0.00000000000E+00  0.18051116300E+04  0.18051116300E+04  0.50400001928E-02 0.  1.
       -1   -1    0    0    0  501  0.00000000000E+00  0.00000000000E+00 -0.16655067278E+03  0.16655067285E+03  0.50400001928E-02 0. -1.
    10030    2    1    2    0    0  0.00000000000E+00  0.00000000000E+00  0.16385609572E+04  0.19716623029E+04  0.10966176298E+04 0.  0.
        4    1    3    3  502    0  0.44536731812E+03 -0.22307567928E+03  0.12313448258E+04  0.13282795262E+04  0.12699999809E+01 0. -1.
       -4    1    3    3    0  502 -0.44536731812E+03  0.22307567928E+03  0.40721613140E+03  0.64338277666E+03  0.12699999809E+01 0.  1.
</event>
<event>
 5   0  0.5948818E-04  0.1100751E+04  0.7818609E-02  0.9204460E-01
        2   -1    0    0  501    0  0.00000000000E+00  0.00000000000E+00  0.58182259698E+03  0.58182259699E+03  0.25500000920E-02 0. -1.
       -2   -1    0    0    0  501  0.00000000000E+00  0.00000000000E+00 -0.52062816649E+03  0.52062816650E+03  0.25500000920E-02 0.  1.
    10030    2    1    2    0    0  0.00000000000E+00  0.00000000000E+00  0.61194430492E+02  0.11024507635E+04  0.11007510743E+04 0.  0.
        3    1    3    3  502    0 -0.43592178028E+03 -0.16626983679E-01  0.36710027437E+03  0.56990386947E+03  0.10100000352E+00 0. -1.
       -3    1    3    3    0  502  0.43592178028E+03  0.16626983679E-01 -0.30590584388E+03  0.53254689401E+03  0.10100000352E+00 0.  1.
</event>
<event>
 5   0  0.6412712E-04  0.1099476E+04  0.7818609E-02  0.9205703E-01
        2   -1    0    0  501    0  0.00000000000E+00  0.00000000000E+00  0.39979749483E+03  0.39979749483E+03  0.25500000920E-02 0. -1.
       -2   -1    0    0    0  501  0.00000000000E+00  0.00000000000E+00 -0.75591237394E+03  0.75591237394E+03  0.25500000920E-02 0.  1.
    10030    2    1    2    0    0  0.00000000000E+00  0.00000000000E+00 -0.35611487911E+03  0.11557098688E+04  0.10994760087E+04 0.  0.
        2    1    3    3  502    0  0.12923064403E+02  0.52256684229E+03  0.84985201285E+00  0.52272730224E+03  0.25500000920E-02 0. -1.
       -2    1    3    3    0  502 -0.12923064403E+02 -0.52256684229E+03 -0.35696473112E+03  0.63298256653E+03  0.25500000920E-02 0.  1.
</event>
<event>
 5   0  0.6264830E-04  0.1101900E+04  0.7818609E-02  0.9203342E-01
       -2   -1    0    0    0  501  0.00000000000E+00  0.00000000000E+00  0.18539457289E+03  0.18539457290E+03  0.25500000920E-02 0.  1.
        2   -1    0    0  501    0  0.00000000000E+00  0.00000000000E+00 -0.16372963036E+04  0.16372963036E+04  0.25500000920E-02 0. -1.
    10030    2    1    2    0    0  0.00000000000E+00  0.00000000000E+00 -0.14519017307E+04  0.18226908765E+04  0.11018999027E+04 0.  0.
        4    1    3    3  502    0 -0.31342167553E+03  0.29103890039E+03 -0.13004084113E+04  0.13689413564E+04  0.12699999809E+01 0. -1.
       -4    1    3    3    0  502  0.31342167553E+03 -0.29103890039E+03 -0.15149331939E+03  0.45374952006E+03  0.12699999809E+01 0.  1.
</event>
<event>
 5   0  0.5948818E-04  0.1100867E+04  0.7818609E-02  0.9204347E-01
        2   -1    0    0  501    0  0.00000000000E+00  0.00000000000E+00  0.15600973934E+04  0.15600973934E+04  0.25500000920E-02 0.  1.
       -2   -1    0    0    0  501  0.00000000000E+00  0.00000000000E+00 -0.19420383557E+03  0.19420383558E+03  0.25500000920E-02 0. -1.
    10030    2    1    2    0    0  0.00000000000E+00  0.00000000000E+00  0.13658935578E+04  0.17543012290E+04  0.11008667452E+04 0.  0.
        3    1    3    3  502    0 -0.11625587946E+03 -0.20148306003E+03 -0.11202594622E+03  0.25818728825E+03  0.10100000352E+00 0. -1.
       -3    1    3    3    0  502  0.11625587946E+03  0.20148306003E+03  0.14779195041E+04  0.14961139407E+04  0.10100000352E+00 0.  1.
</event>
<event>
 5   0  0.6109149E-04  0.1097744E+04  0.7818609E-02  0.9207394E-01
        2   -1    0    0  501    0  0.00000000000E+00  0.00000000000E+00  0.15884155886E+04  0.15884155886E+04  0.25500000920E-02 0.  1.
       -2   -1    0    0    0  501  0.00000000000E+00  0.00000000000E+00 -0.18966083280E+03  0.18966083282E+03  0.25500000920E-02 0. -1.
    10030    2    1    2    0    0  0.00000000000E+00  0.00000000000E+00  0.13987547557E+04  0.17780764214E+04  0.10977435463E+04 0.  0.
        1    1    3    3  502    0  0.19255947546E+03 -0.33242105247E+03  0.64405614098E+02  0.38952662408E+03  0.50400001928E-02 0. -1.
       -1    1    3    3    0  502 -0.19255947546E+03  0.33242105247E+03  0.13343491416E+04  0.13885497973E+04  0.50400001928E-02 0.  1.
</event>
<event>
 5   0  0.6109149E-04  0.1099414E+04  0.7818609E-02  0.9205763E-01
        2   -1    0    0  501    0  0.00000000000E+00  0.00000000000E+00  0.57349381879E+03  0.57349381880E+03  0.25500000920E-02 0.  1.
       -2   -1    0    0    0  501  0.00000000000E+00  0.00000000000E+00 -0.52690656043E+03  0.52690656044E+03  0.25500000920E-02 0. -1.
    10030    2    1    2    0    0  0.00000000000E+00  0.00000000000E+00  0.46587258364E+02  0.11004003792E+04  0.10994137629E+04 0.  0.
        1    1    3    3  502    0  0.36687996383E+03  0.37851429396E+03 -0.13274263839E+03  0.54359413781E+03  0.50400001928E-02 0. -1.
       -1    1    3    3    0  502 -0.36687996383E+03 -0.37851429396E+03  0.17932989675E+03  0.55680624142E+03  0.50400001928E-02 0.  1.
</event>
<event>
 5   0  0.3423758E-04  0.1099677E+04  0.7818609E-02  0.9205506E-01
        1   -1    0    0  501    0  0.00000000000E+00  0.00000000000E+00  0.13215763395E+04  0.13215763395E+04  0.50400001928E-02 0.  1.
       -1   -1    0    0    0  501  0.00000000000E+00  0.00000000000E+00 -0.22875907875E+03  0.22875907881E+03  0.50400001928E-02 0. -1.
    10030    2    1    2    0    0  0.00000000000E+00  0.00000000000E+00  0.10928172608E+04  0.15503354183E+04  0.10996773817E+04 0.  0.
        1    1    3    3  502    0  0.22644142863E+03  0.43680524000E+03  0.20036419858E+03  0.53124415328E+03  0.50400001928E-02 0. -1.
       -1    1    3    3    0  502 -0.22644142863E+03 -0.43680524000E+03  0.89245306219E+03  0.10190912651E+04  0.50400001928E-02 0.  1.
</event>
<event>
 5   0  0.3642161E-04  0.1099844E+04  0.7818609E-02  0.9205344E-01
       -1   -1    0    0    0  501  0.00000000000E+00  0.00000000000E+00  0.35491278603E+03  0.35491278607E+03  0.50400001928E-02 0.  1.
        1   -1    0    0  501    0  0.00000000000E+00  0.00000000000E+00 -0.85207965052E+03  0.85207965054E+03  0.50400001928E-02 0. -1.
    10030    2    1    2    0    0  0.00000000000E+00  0.00000000000E+00 -0.49716686449E+03  0.12069924366E+04  0.10998435575E+04 0.  0.
        2    1    3    3  502    0  0.23207865740E+03 -0.35741516483E+03  0.13285217138E+03  0.44638078220E+03  0.25500000920E-02 0.  1.
       -2    1    3    3    0  502 -0.23207865740E+03  0.35741516483E+03 -0.63001903586E+03  0.76061165441E+03  0.25500000920E-02 0. -1.
</event>
<event>
 5   0  0.6109149E-04  0.1099470E+04  0.7818609E-02  0.9205709E-01
       -2   -1    0    0    0  501  0.00000000000E+00  0.00000000000E+00  0.43682117485E+03  0.43682117486E+03  0.25500000920E-02 0.  1.
        2   -1    0    0  501    0  0.00000000000E+00  0.00000000000E+00 -0.69183573446E+03  0.69183573447E+03  0.25500000920E-02 0. -1.
    10030    2    1    2    0    0  0.00000000000E+00  0.00000000000E+00 -0.25501455962E+03  0.11286569093E+04  0.10994698692E+04 0.  0.
        1    1    3    3  502    0  0.30886791529E+03 -0.44666162655E+03 -0.21523046915E+03  0.58414908422E+03  0.50400001928E-02 0. -1.
       -1    1    3    3    0  502 -0.30886791529E+03  0.44666162655E+03 -0.39784090468E+02  0.54450782511E+03  0.50400001928E-02 0.  1.
</event>
<event>
 5   0  0.3621403E-04  0.1090689E+04  0.7818609E-02  0.9214315E-01
        1   -1    0    0  501    0  0.00000000000E+00  0.00000000000E+00  0.14223542823E+04  0.14223542823E+04  0.50400001928E-02 0.  1.
       -1   -1    0    0    0  501  0.00000000000E+00  0.00000000000E+00 -0.20909024949E+03  0.20909024955E+03  0.50400001928E-02 0. -1.
    10030    2    1    2    0    0  0.00000000000E+00  0.00000000000E+00  0.12132640328E+04  0.16314445318E+04  0.10906886115E+04 0.  0.
        3    1    3    3  502    0  0.76619593973E+02 -0.26136016947E+03 -0.10007396686E+03  0.29016290151E+03  0.10100000352E+00 0. -1.
       -3    1    3    3    0  502 -0.76619593973E+02  0.26136016947E+03  0.13133379996E+04  0.13412816303E+04  0.10100000352E+00 0.  1.
</event>
<event>
 5   0  0.6245176E-04  0.1098784E+04  0.7818609E-02  0.9206378E-01
        2   -1    0    0  501    0  0.00000000000E+00  0.00000000000E+00  0.18179337957E+04  0.18179337957E+04  0.25500000920E-02 0.  1.
       -2   -1    0    0    0  501  0.00000000000E+00  0.00000000000E+00 -0.16603003016E+03  0.16603003018E+03  0.25500000920E-02 0. -1.
    10030    2    1    2    0    0  0.00000000000E+00  0.00000000000E+00  0.16519037655E+04  0.19839638258E+04  0.10987840606E+04 0.  0.
        5    1    3    3  502    0  0.32161323268E+03  0.25163270831E+01  0.16301393967E+04  0.16615709272E+04  0.46999998093E+01 0.  1.
       -5    1    3    3    0  502 -0.32161323268E+03 -0.25163270831E+01  0.21764368757E+02  0.32239289863E+03  0.46999998093E+01 0. -1.
</event>
<event>
 5   0  0.3621403E-04  0.1098900E+04  0.7818609E-02  0.9206265E-01
       -1   -1    0    0    0  501  0.00000000000E+00  0.00000000000E+00  0.27488729486E+03  0.27488729490E+03  0.50400001928E-02 0. -1.
        1   -1    0    0  501    0  0.00000000000E+00  0.00000000000E+00 -0.10982506306E+04  0.10982506306E+04  0.50400001928E-02 0.  1.
    10030    2    1    2    0    0  0.00000000000E+00  0.00000000000E+00 -0.82336333572E+03  0.13731379255E+04  0.10988997133E+04 0.  0.
        3    1    3    3  502    0 -0.29655084777E+03  0.42912812087E+03 -0.19596820866E+03  0.55722248558E+03  0.10100000352E+00 0. -1.
       -3    1    3    3    0  502  0.29655084777E+03 -0.42912812087E+03 -0.62739512705E+03  0.81591543991E+03  0.10100000352E+00 0.  1.
</event>
<event>
 5   0  0.6412712E-04  0.1100562E+04  0.7818609E-02  0.9204644E-01
        2   -1    0    0  501    0  0.00000000000E+00  0.00000000000E+00  0.67872239944E+03  0.67872239944E+03  0.25500000920E-02 0. -1.
       -2   -1    0    0    0  501  0.00000000000E+00  0.00000000000E+00 -0.44614595365E+03  0.44614595366E+03  0.25500000920E-02 0.  1.
    10030    2    1    2    0    0  0.00000000000E+00  0.00000000000E+00  0.23257644578E+03  0.11248683531E+04  0.11005621330E+04 0.  0.
        2    1    3    3  502    0 -0.96063387583E+02  0.48475693841E+03  0.36369153511E+03  0.61358699179E+03  0.25500000920E-02 0. -1.
       -2    1    3    3    0  502  0.96063387583E+02 -0.48475693841E+03 -0.13111508933E+03  0.51128136132E+03  0.25500000920E-02 0.  1.
</event>
<event>
 5   0  0.3657529E-04  0.1100457E+04  0.7818609E-02  0.9204747E-01
       -1   -1    0    0    0  501  0.00000000000E+00  0.00000000000E+00  0.47046695802E+03  0.47046695805E+03  0.50400001928E-02 0. -1.
        1   -1    0    0  501    0  0.00000000000E+00  0.00000000000E+00 -0.64351219828E+03  0.64351219830E+03  0.50400001928E-02 0.  1.
    10030    2    1    2    0    0  0.00000000000E+00  0.00000000000E+00 -0.17304524025E+03  0.11139791563E+04  0.11004566805E+04 0.  0.
        4    1    3    3  502    0  0.30029017304E+03  0.21319417936E+03 -0.50035368852E+03  0.62127399162E+03  0.12699999809E+01 0.  1.
       -4    1    3    3    0  502 -0.30029017304E+03 -0.21319417936E+03  0.32730844827E+03  0.49270516473E+03  0.12699999809E+01 0. -1.
</event>
<event>
 5   0  0.3523525E-04  0.1098225E+04  0.7818609E-02  0.9206924E-01
        1   -1    0    0  501    0  0.00000000000E+00  0.00000000000E+00  0.68332599947E+03  0.68332599949E+03  0.50400001928E-02 0.  1.
       -1   -1    0    0    0  501  0.00000000000E+00  0.00000000000E+00 -0.44126023003E+03  0.44126023006E+03  0.50400001928E-02 0. -1.
    10030    2    1    2    0    0  0.00000000000E+00  0.00000000000E+00  0.24206576944E+03  0.11245862295E+04  0.10982250912E+04 0.  0.
        5    1    3    3  502    0  0.25362281300E+03  0.42725228042E+02 -0.37574336794E+03  0.45536265211E+03  0.46999998093E+01 0. -1.
       -5    1    3    3    0  502 -0.25362281300E+03 -0.42725228042E+02  0.61780913738E+03  0.66922357744E+03  0.46999998093E+01 0.  1.
</event>
<event>
 5   0  0.3423758E-04  0.1097229E+04  0.7818609E-02  0.9207897E-01
       -1   -1    0    0    0  501  0.00000000000E+00  0.00000000000E+00  0.61627598110E+03  0.61627598112E+03  0.50400001928E-02 0.  1.
        1   -1    0    0  501    0  0.00000000000E+00  0.00000000000E+00 -0.48838149614E+03  0.48838149616E+03  0.50400001928E-02 0. -1.
    10030    2    1    2    0    0  0.00000000000E+00  0.00000000000E+00  0.12789448496E+03  0.11046574773E+04  0.10972288471E+04 0.  0.
        1    1    3    3  502    0 -0.56862270557E+02 -0.12942540836E+03  0.59762435862E+03  0.61411654283E+03  0.50400001928E-02 0.  1.
       -1    1    3    3    0  502  0.56862270557E+02  0.12942540836E+03 -0.46972987366E+03  0.49054093445E+03  0.50400001928E-02 0. -1.
</event>
<event>
 5   0  0.3642161E-04  0.1100485E+04  0.7818609E-02  0.9204720E-01
       -1   -1    0    0    0  501  0.00000000000E+00  0.00000000000E+00  0.48577168881E+03  0.48577168884E+03  0.50400001928E-02 0. -1.
        1   -1    0    0  501    0  0.00000000000E+00  0.00000000000E+00 -0.62326938702E+03  0.62326938704E+03  0.50400001928E-02 0.  1.
    10030    2    1    2    0    0  0.00000000000E+00  0.00000000000E+00 -0.13749769821E+03  0.11090410759E+04  0.11004846618E+04 0.  0.
        2    1    3    3  502    0  0.42909928536E+02 -0.54563025726E+03 -0.11624947773E+02  0.54743837920E+03  0.25500000920E-02 0.  1.
       -2    1    3    3    0  502 -0.42909928536E+02  0.54563025726E+03 -0.12587275044E+03  0.56160269668E+03  0.25500000920E-02 0. -1.
</event>
<event>
 5   0  0.5948818E-04  0.1099344E+04  0.7818609E-02  0.9205831E-01
        2   -1    0    0  501    0  0.00000000000E+00  0.00000000000E+00  0.94711246128E+03  0.94711246129E+03  0.25500000920E-02 0. -1.
       -2   -1    0    0    0  501  0.00000000000E+00  0.00000000000E+00 -0.31901116887E+03  0.31901116888E+03  0.25500000920E-02 0.  1.
    10030    2    1    2    0    0  0.00000000000E+00  0.00000000000E+00  0.62810129242E+03  0.12661236302E+04  0.10993442652E+04 0.  0.
        3    1    3    3  502    0 -0.44784308326E+03  0.17780447528E+03  0.61868032843E+03  0.78418315312E+03  0.10100000352E+00 0. -1.
       -3    1    3    3    0  502  0.44784308326E+03 -0.17780447528E+03  0.94209639887E+01  0.48194047704E+03  0.10100000352E+00 0.  1.
</event>
<event>
 5   0  0.6109149E-04  0.1099772E+04  0.7818609E-02  0.9205414E-01
       -2   -1    0    0    0  501  0.00000000000E+00  0.00000000000E+00  0.12760181438E+03  0.12760181441E+03  0.25500000920E-02 0. -1.
        2   -1    0    0  501    0  0.00000000000E+00  0.00000000000E+00 -0.23696721880E+04  0.23696721880E+04  0.25500000920E-02 0.  1.
    10030    2    1    2    0    0  0.00000000000E+00  0.00000000000E+00 -0.22420703736E+04  0.24972740024E+04  0.10997717412E+04 0.  0.
        1    1    3    3  502    0 -0.23890457506E+03  0.47724745129E+03 -0.14217144372E+04  0.15185889723E+04  0.50400001928E-02 0.  1.
       -1    1    3    3    0  502  0.23890457506E+03 -0.47724745129E+03 -0.82035593634E+03  0.97868503006E+03  0.50400001928E-02 0. -1.
</event>
<event>
 5   0  0.3642161E-04  0.1099560E+04  0.7818609E-02  0.9205621E-01
        1   -1    0    0  501    0  0.00000000000E+00  0.00000000000E+00  0.88299745348E+03  0.88299745349E+03  0.50400001928E-02 0.  1.
       -1   -1    0    0    0  501  0.00000000000E+00  0.00000000000E+00 -0.34230878265E+03  0.34230878268E+03  0.50400001928E-02 0. -1.
    10030    2    1    2    0    0  0.00000000000E+00  0.00000000000E+00  0.54068867083E+03  0.12253062362E+04  0.10995595180E+04 0.  0.
        2    1    3    3  502    0  0.42693342602E+03  0.11866012667E+03  0.63299207049E+03  0.77267802947E+03  0.25500000920E-02 0.  1.
       -2    1    3    3    0  502 -0.42693342602E+03 -0.11866012667E+03 -0.92303399657E+02  0.45262820671E+03  0.25500000920E-02 0. -1.
</event>
<event>
 5   0  0.3657529E-04  0.1099651E+04  0.7818609E-02  0.9205532E-01
       -1   -1    0    0    0  501  0.00000000000E+00  0.00000000000E+00  0.31497326357E+03  0.31497326361E+03  0.50400001928E-02 0. -1.
        1   -1    0    0  501    0  0.00000000000E+00  0.00000000000E+00 -0.95978979919E+03  0.95978979920E+03  0.50400001928E-02 0.  1.
    10030    2    1    2    0    0  0.00000000000E+00  0.00000000000E+00 -0.64481653562E+03  0.12747630628E+04  0.10996510818E+04 0.  0.
        4    1    3    3  502    0  0.81238140971E+02  0.37008003992E+03  0.13947072000E+03  0.40374814691E+03  0.12699999809E+01 0. -1.
       -4    1    3    3    0  502 -0.81238140971E+02 -0.37008003992E+03 -0.78428725562E+03  0.87101491590E+03  0.12699999809E+01 0.  1.
</event>
<event>
 5   0  0.3621403E-04  0.1107323E+04  0.7818609E-02  0.9198083E-01
       -1   -1    0    0    0  501  0.00000000000E+00  0.00000000000E+00  0.17512304902E+03  0.17512304910E+03  0.50400001928E-02 0. -1.
        1   -1    0    0  501    0  0.00000000000E+00  0.00000000000E+00 -0.17504336161E+04  0.17504336161E+04  0.50400001928E-02 0.  1.
    10030    2    1    2    0    0  0.00000000000E+00  0.00000000000E+00 -0.15753105671E+04  0.19255566652E+04  0.11073233892E+04 0.  0.
        3    1    3    3  502    0  0.69020534715E+02  0.61556486100E+02  0.16159641540E+03  0.18618927699E+03  0.10100000352E+00 0. -1.
       -3    1    3    3    0  502 -0.69020534715E+02 -0.61556486100E+02 -0.17369069825E+04  0.17393673883E+04  0.10100000352E+00 0.  1.
</event>
<event>
 5   0  0.3657529E-04  0.1102954E+04  0.7818609E-02  0.9202318E-01
       -1   -1    0    0    0  501  0.00000000000E+00  0.00000000000E+00  0.21385779351E+03  0.21385779357E+03  0.50400001928E-02 0.  1.
        1   -1    0    0  501    0  0.00000000000E+00  0.00000000000E+00 -0.14220984993E+04  0.14220984993E+04  0.50400001928E-02 0. -1.
    10030    2    1    2    0    0  0.00000000000E+00  0.00000000000E+00 -0.12082407058E+04  0.16359562929E+04  0.11029539379E+04 0.  0.
        4    1    3    3  502    0 -0.20855377446E+03 -0.48453612478E+03 -0.84262075895E+03  0.99412337734E+03  0.12699999809E+01 0. -1.
       -4    1    3    3    0  502  0.20855377446E+03  0.48453612478E+03 -0.36561994685E+03  0.64183291555E+03  0.12699999809E+01 0.  1.
</event>
<event>
 5   0  0.6412712E-04  0.1101628E+04  0.7818609E-02  0.9203607E-01
       -2   -1    0    0    0  501  0.00000000000E+00  0.00000000000E+00  0.89272725995E+03  0.89272725995E+03  0.25500000920E-02 0.  1.
        2   -1    0    0  501    0  0.00000000000E+00  0.00000000000E+00 -0.33985275873E+03  0.33985275874E+03  0.25500000920E-02 0. -1.
    10030    2    1    2    0    0  0.00000000000E+00  0.00000000000E+00  0.55287450122E+03  0.12325800187E+04  0.11016275634E+04 0.  0.
        2    1    3    3  502    0  0.13285319707E+03 -0.73774657704E+02 -0.31593447156E+03  0.35058132069E+03  0.25500000920E-02 0. -1.
       -2    1    3    3    0  502 -0.13285319707E+03  0.73774657704E+02  0.86880897278E+03  0.88199869800E+03  0.25500000920E-02 0.  1.
</event>
<event>
 5   0  0.6109149E-04  0.1099275E+04  0.7818609E-02  0.9205899E-01
        2   -1    0    0  501    0  0.00000000000E+00  0.00000000000E+00  0.11620838839E+04  0.11620838839E+04  0.25500000920E-02 0.  1.
       -2   -1    0    0    0  501  0.00000000000E+00  0.00000000000E+00 -0.25996507774E+03  0.25996507775E+03  0.25500000920E-02 0. -1.
    10030    2    1    2    0    0  0.00000000000E+00  0.00000000000E+00  0.90211880616E+03  0.14220489617E+04  0.10992747195E+04 0.  0.
        1    1    3    3  502    0 -0.35839820823E+03 -0.43831362792E+02  0.98714280278E+03  0.10511048364E+04  0.50400001928E-02 0.  1.
       -1    1    3    3    0  502  0.35839820823E+03  0.43831362792E+02 -0.85023996619E+02  0.37094412525E+03  0.50400001928E-02 0. -1.
</event>
<event>
 5   0  0.2403875E-04  0.1101041E+04  0.7818609E-02  0.9204178E-01
        3   -1    0    0  501    0  0.00000000000E+00  0.00000000000E+00  0.94679042004E+03  0.94679042543E+03  0.10100000352E+00 0. -1.
       -3   -1    0    0    0  501  0.00000000000E+00  0.00000000000E+00 -0.32010524598E+03  0.32010526192E+03  0.10100000352E+00 0.  1.
    10030    2    1    2    0    0  0.00000000000E+00  0.00000000000E+00  0.62668517406E+03  0.12668956873E+04  0.11010405875E+04 0.  0.
        1    1    3    3  502    0  0.21781972758E+03 -0.47712495517E+03  0.12087697900E+03  0.53824241810E+03  0.50400001928E-02 0.  1.
       -1    1    3    3    0  502 -0.21781972758E+03  0.47712495517E+03  0.50580819505E+03  0.72865326924E+03  0.50400001928E-02 0. -1.
</event>
<event>
 5   0  0.3423758E-04  0.1099405E+04  0.7818609E-02  0.9205772E-01
       -1   -1    0    0    0  501  0.00000000000E+00  0.00000000000E+00  0.57762954204E+03  0.57762954206E+03  0.50400001928E-02 0.  1.
        1   -1    0    0  501    0  0.00000000000E+00  0.00000000000E+00 -0.52312523812E+03  0.52312523814E+03  0.50400001928E-02 0. -1.
    10030    2    1    2    0    0  0.00000000000E+00  0.00000000000E+00  0.54504303919E+02  0.11007547802E+04  0.10994045511E+04 0.  0.
        1    1    3    3  502    0 -0.49610764712E+02 -0.20397830300E+03 -0.48141137552E+03  0.52519071638E+03  0.50400001928E-02 0. -1.
       -1    1    3    3    0  502  0.49610764712E+02  0.20397830300E+03  0.53591567943E+03  0.57556406382E+03  0.50400001928E-02 0.  1.
</event>
<event>
 5   0  0.6412712E-04  0.1099021E+04  0.7818609E-02  0.9206146E-01
       -2   -1    0    0    0  501  0.00000000000E+00  0.00000000000E+00  0.23199893943E+03  0.23199893944E+03  0.25500000920E-02 0.  1.
        2   -1    0    0  501    0  0.00000000000E+00  0.00000000000E+00 -0.13015661013E+04  0.13015661013E+04  0.25500000920E-02 0. -1.
    10030    2    1    2    0    0  0.00000000000E+00  0.00000000000E+00 -0.10695671619E+04  0.15335650407E+04  0.10990213012E+04 0.  0.
        2    1    3    3  502    0 -0.31638006368E+03 -0.41152985638E+03 -0.78637537792E+03  0.94225230294E+03  0.25500000920E-02 0. -1.
       -2    1    3    3    0  502  0.31638006368E+03  0.41152985638E+03 -0.28319178395E+03  0.59131273781E+03  0.25500000920E-02 0.  1.
</event>
<event>
 5   0  0.3423758E-04  0.1101328E+04  0.7818609E-02  0.9203899E-01
       -1   -1    0    0    0  501  0.00000000000E+00  0.00000000000E+00  0.14035184957E+03  0.14035184966E+03  0.50400001928E-02 0.  1.
        1   -1    0    0  501    0  0.00000000000E+00  0.00000000000E+00 -0.21605039777E+04  0.21605039777E+04  0.50400001928E-02 0. -1.
    10030    2    1    2    0    0  0.00000000000E+00  0.00000000000E+00 -0.20201521281E+04  0.23008558274E+04  0.11013277975E+04 0.  0.
        1    1    3    3  502    0 -0.10024598928E+03  0.39467552704E+03 -0.17845133264E+04  0.18303840695E+04  0.50400001928E-02 0. -1.
       -1    1    3    3    0  502  0.10024598928E+03 -0.39467552704E+03 -0.23563880179E+03  0.47047175786E+03  0.50400001928E-02 0.  1.
</event>
<event>
 5   0  0.6109149E-04  0.1097365E+04  0.7818609E-02  0.9207764E-01
       -2   -1    0    0    0  501  0.00000000000E+00  0.00000000000E+00  0.14364801660E+03  0.14364801663E+03  0.25500000920E-02 0. -1.
        2   -1    0    0  501    0  0.00000000000E+00  0.00000000000E+00 -0.20957666222E+04  0.20957666222E+04  0.25500000920E-02 0.  1.
    10030    2    1    2    0    0  0.00000000000E+00  0.00000000000E+00 -0.19521186056E+04  0.22394146388E+04  0.10973654242E+04 0.  0.
        1    1    3    3  502    0 -0.46434357448E+03  0.29207939187E+03 -0.95302607988E+03  0.10996290444E+04  0.50400001928E-02 0.  1.
       -1    1    3    3    0  502  0.46434357448E+03 -0.29207939187E+03 -0.99909252574E+03  0.11397855945E+04  0.50400001928E-02 0. -1.
</event>
<event>
 5   0  0.3621403E-04  0.1097616E+04  0.7818609E-02  0.9207519E-01
        1   -1    0    0  501    0  0.00000000000E+00  0.00000000000E+00  0.33834997791E+03  0.33834997794E+03  0.50400001928E-02 0. -1.
       -1   -1    0    0    0  501  0.00000000000E+00  0.00000000000E+00 -0.89017356211E+03  0.89017356213E+03  0.50400001928E-02 0.  1.
    10030    2    1    2    0    0  0.00000000000E+00  0.00000000000E+00 -0.55182358421E+03  0.12285235401E+04  0.10976159713E+04 0.  0.
        3    1    3    3  502    0 -0.17051198826E+03 -0.38806670816E+03  0.11426110670E+03  0.43900537449E+03  0.10100000352E+00 0. -1.
       -3    1    3    3    0  502  0.17051198826E+03  0.38806670816E+03 -0.66608469091E+03  0.78951816559E+03  0.10100000352E+00 0.  1.
</event>
<event>
 5   0  0.6245176E-04  0.1078573E+04  0.7818609E-02  0.9226331E-01
        2   -1    0    0  501    0  0.00000000000E+00  0.00000000000E+00  0.21597838482E+04  0.21597838482E+04  0.25500000920E-02 0.  1.
       -2   -1    0    0    0  501  0.00000000000E+00  0.00000000000E+00 -0.13465696115E+03  0.13465696117E+03  0.25500000920E-02 0. -1.
    10030    2    1    2    0    0  0.00000000000E+00  0.00000000000E+00  0.20251268871E+04  0.22944408094E+04  0.10785730013E+04 0.  0.
        5    1    3    3  502    0 -0.48915014721E+03  0.10817686678E+03  0.58796866099E+03  0.77246316244E+03  0.46999998093E+01 0. -1.
       -5    1    3    3    0  502  0.48915014721E+03 -0.10817686678E+03  0.14371582261E+04  0.15219776470E+04  0.46999998093E+01 0.  1.
</event>
<event>
 5   0  0.6109149E-04  0.1100817E+04  0.7818609E-02  0.9204396E-01
       -2   -1    0    0    0  501  0.00000000000E+00  0.00000000000E+00  0.14934034077E+03  0.14934034079E+03  0.25500000920E-02 0. -1.
        2   -1    0    0  501    0  0.00000000000E+00  0.00000000000E+00 -0.20285861763E+04  0.20285861763E+04  0.25500000920E-02 0.  1.
    10030    2    1    2    0    0  0.00000000000E+00  0.00000000000E+00 -0.18792458355E+04  0.21779265171E+04  0.11008174252E+04 0.  0.
        1    1    3    3  502    0 -0.13127924178E+03 -0.31414451119E+03 -0.17952452244E+04  0.18272455853E+04  0.50400001928E-02 0.  1.
       -1    1    3    3    0  502  0.13127924178E+03  0.31414451119E+03 -0.84000611133E+02  0.35068093180E+03  0.50400001928E-02 0. -1.
</event>
<event>
 5   0  0.3642161E-04  0.1100174E+04  0.7818609E-02  0.9205022E-01
        1   -1    0    0  501    0  0.00000000000E+00  0.00000000000E+00  0.19367004620E+04  0.19367004620E+04  0.50400001928E-02 0.  1.
       -1   -1    0    0    0  501  0.00000000000E+00  0.00000000000E+00 -0.15624302159E+03  0.15624302167E+03  0.50400001928E-02 0. -1.
    10030    2    1    2    0    0  0.00000000000E+00  0.00000000000E+00  0.17804574404E+04  0.20929434837E+04  0.11001744083E+04 0.  0.
        2    1    3    3  502    0  0.28057820696E+03  0.15933026348E+03  0.17377693768E+04  0.17674706985E+04  0.25500000920E-02 0.  1.
       -2    1    3    3    0  502 -0.28057820696E+03 -0.15933026348E+03  0.42688063559E+02  0.32547278513E+03  0.25500000920E-02 0. -1.
</event>
<event>
 5   0  0.6412712E-04  0.1100160E+04  0.7818609E-02  0.9205036E-01
       -2   -1    0    0    0  501  0.00000000000E+00  0.00000000000E+00  0.93041845752E+03  0.93041845752E+03  0.25500000920E-02 0. -1.
        2   -1    0    0  501    0  0.00000000000E+00  0.00000000000E+00 -0.32521714614E+03  0.32521714615E+03  0.25500000920E-02 0.  1.
    10030    2    1    2    0    0  0.00000000000E+00  0.00000000000E+00  0.60520131137E+03  0.12556356037E+04  0.11001600529E+04 0.  0.
        2    1    3    3  502    0 -0.53001338342E+03 -0.66010974448E+02  0.15241219840E+03  0.55542876553E+03  0.25500000920E-02 0. -1.
       -2    1    3    3    0  502  0.53001338342E+03  0.66010974448E+02  0.45278911297E+03  0.70020683814E+03  0.25500000920E-02 0.  1.
</event>
<event>
 5   0  0.6109149E-04  0.1099862E+04  0.7818609E-02  0.9205327E-01
        2   -1    0    0  501    0  0.00000000000E+00  0.00000000000E+00  0.86008327354E+03  0.86008327354E+03  0.25500000920E-02 0.  1.
       -2   -1    0    0    0  501  0.00000000000E+00  0.00000000000E+00 -0.35162177239E+03  0.35162177240E+03  0.25500000920E-02 0. -1.
    10030    2    1    2    0    0  0.00000000000E+00  0.00000000000E+00  0.50846150114E+03  0.12117050459E+04  0.10998618187E+04 0.  0.
        1    1    3    3  502    0  0.50101593183E+03  0.12252645369E+03  0.44058424451E+02  0.51765900030E+03  0.50400001928E-02 0. -1.
       -1    1    3    3    0  502 -0.50101593183E+03 -0.12252645369E+03  0.46440307669E+03  0.69404604564E+03  0.50400001928E-02 0.  1.
</event>
<event>
 5   0  0.3642161E-04  0.1100539E+04  0.7818609E-02  0.9204667E-01
        1   -1    0    0  501    0  0.00000000000E+00  0.00000000000E+00  0.40127944533E+03  0.40127944536E+03  0.50400001928E-02 0. -1.
       -1   -1    0    0    0  501  0.00000000000E+00  0.00000000000E+00 -0.75457738397E+03  0.75457738399E+03  0.50400001928E-02 0.  1.
    10030    2    1    2    0    0  0.00000000000E+00  0.00000000000E+00 -0.35329793864E+03  0.11558568293E+04  0.11005387665E+04 0.  0.
        2    1    3    3  502    0 -0.20296171946E+03 -0.13809925670E+03 -0.69387789117E+03  0.73602404318E+03  0.25500000920E-02 0.  1.
       -2    1    3    3    0  502  0.20296171946E+03  0.13809925670E+03  0.34057995253E+03  0.41983278617E+03  0.25500000920E-02 0. -1.
</event>
<event>
 5   0  0.3657529E-04  0.1099242E+04  0.7818609E-02  0.9205931E-01
        1   -1    0    0  501    0  0.00000000000E+00  0.00000000000E+00  0.26555841134E+03  0.26555841139E+03  0.50400001928E-02 0.  1.
       -1   -1    0    0    0  501  0.00000000000E+00  0.00000000000E+00 -0.11375402089E+04  0.11375402089E+04  0.50400001928E-02 0. -1.
    10030    2    1    2    0    0  0.00000000000E+00  0.00000000000E+00 -0.87198179751E+03  0.14030986203E+04  0.10992422313E+04 0.  0.
        4    1    3    3  502    0  0.40916814186E+03  0.15689709811E+03 -0.12559664594E+02  0.43840007503E+03  0.12699999809E+01 0.  1.
       -4    1    3    3    0  502 -0.40916814186E+03 -0.15689709811E+03 -0.85942213292E+03  0.96469854522E+03  0.12699999809E+01 0. -1.
</event>
<event>
 5   0  0.6245176E-04  0.1096490E+04  0.7818609E-02  0.9208620E-01
        2   -1    0    0  501    0  0.00000000000E+00  0.00000000000E+00  0.15541178295E+04  0.15541178295E+04  0.25500000920E-02 0.  1.
       -2   -1    0    0    0  501  0.00000000000E+00  0.00000000000E+00 -0.19340381474E+03  0.19340381475E+03  0.25500000920E-02 0. -1.
    10030    2    1    2    0    0  0.00000000000E+00  0.00000000000E+00  0.13607140148E+04  0.17475216443E+04  0.10964895199E+04 0.  0.
        5    1    3    3  502    0  0.17427567186E+03  0.21458280666E+03  0.14348764481E+04  0.14612700989E+04  0.46999998093E+01 0.  1.
       -5    1    3    3    0  502 -0.17427567186E+03 -0.21458280666E+03 -0.74162433294E+02  0.28625154537E+03  0.46999998093E+01 0. -1.
</event>
<event>
 5   0  0.3621403E-04  0.1099718E+04  0.7818609E-02  0.9205467E-01
       -1   -1    0    0    0  501  0.00000000000E+00  0.00000000000E+00  0.43532398024E+03  0.43532398027E+03  0.50400001928E-02 0.  1.
        1   -1    0    0  501    0  0.00000000000E+00  0.00000000000E+00 -0.69452868550E+03  0.69452868552E+03  0.50400001928E-02 0. -1.
    10030    2    1    2    0    0  0.00000000000E+00  0.00000000000E+00 -0.25920470526E+03  0.11298526658E+04  0.10997181308E+04 0.  0.
        3    1    3    3  502    0 -0.19872128097E+03  0.35636909869E+03  0.24908402325E+03  0.47805014680E+03  0.10100000352E+00 0.  1.
       -3    1    3    3    0  502  0.19872128097E+03 -0.35636909869E+03 -0.50828872851E+03  0.65180251898E+03  0.10100000352E+00 0. -1.
</event>
<event>
 5   0  0.3423758E-04  0.1101369E+04  0.7818609E-02  0.9203858E-01
        1   -1    0    0  501    0  0.00000000000E+00  0.00000000000E+00  0.19008342716E+04  0.19008342716E+04  0.50400001928E-02 0. -1.
       -1   -1    0    0    0  501  0.00000000000E+00  0.00000000000E+00 -0.15953714382E+03  0.15953714390E+03  0.50400001928E-02 0.  1.
    10030    2    1    2    0    0  0.00000000000E+00  0.00000000000E+00  0.17412971278E+04  0.20603714155E+04  0.11013694578E+04 0.  0.
        1    1    3    3  502    0  0.89414673813E+02  0.52354587562E+03  0.59853265806E+03  0.80021035395E+03  0.50400001928E-02 0.  1.
       -1    1    3    3    0  502 -0.89414673813E+02 -0.52354587562E+03  0.11427644697E+04  0.12601610616E+04  0.50400001928E-02 0. -1.
</event>
<event>
 5   0  0.5948818E-04  0.1100171E+04  0.7818609E-02  0.9205025E-01
       -2   -1    0    0    0  501  0.00000000000E+00  0.00000000000E+00  0.37577566455E+03  0.37577566456E+03  0.25500000920E-02 0. -1.
        2   -1    0    0  501    0  0.00000000000E+00  0.00000000000E+00 -0.80525170812E+03  0.80525170813E+03  0.25500000920E-02 0.  1.
    10030    2    1    2    0    0  0.00000000000E+00  0.00000000000E+00 -0.42947604357E+03  0.11810273727E+04  0.11001708881E+04 0.  0.
        3    1    3    3  502    0  0.23522246915E+03  0.47421753058E+03 -0.54136254415E+02  0.53211147380E+03  0.10100000352E+00 0. -1.
       -3    1    3    3    0  502 -0.23522246915E+03 -0.47421753058E+03 -0.37533978915E+03  0.64891589889E+03  0.10100000352E+00 0.  1.
</event>
<event>
 5   0  0.6245176E-04  0.1100264E+04  0.7818609E-02  0.9204935E-01
        2   -1    0    0  501    0  0.00000000000E+00  0.00000000000E+00  0.13373301953E+04  0.13373301953E+04  0.25500000920E-02 0. -1.
       -2   -1    0    0    0  501  0.00000000000E+00  0.00000000000E+00 -0.22630553988E+03  0.22630553989E+03  0.25500000920E-02 0.  1.
    10030    2    1    2    0    0  0.00000000000E+00  0.00000000000E+00  0.11110246555E+04  0.15636357352E+04  0.11002640262E+04 0.  0.
        5    1    3    3  502    0  0.34011253485E+03  0.13987224444E+03  0.11369370819E+04  0.11949430109E+04  0.46999998093E+01 0. -1.
       -5    1    3    3    0  502 -0.34011253485E+03 -0.13987224444E+03 -0.25912426428E+02  0.36869272433E+03  0.46999998093E+01 0.  1.
</event>
<event>
 5   0  0.3523525E-04  0.1100216E+04  0.7818609E-02  0.9204981E-01
       -1   -1    0    0    0  501  0.00000000000E+00  0.00000000000E+00  0.73487338123E+03  0.73487338124E+03  0.50400001928E-02 0.  1.
        1   -1    0    0  501    0  0.00000000000E+00  0.00000000000E+00 -0.41179720416E+03  0.41179720419E+03  0.50400001928E-02 0. -1.
    10030    2    1    2    0    0  0.00000000000E+00  0.00000000000E+00  0.32307617706E+03  0.11466705854E+04  0.11002159858E+04 0.  0.
        5    1    3    3  502    0  0.21312935858E+02  0.26202595316E+03 -0.34206698317E+03  0.43144379974E+03  0.46999998093E+01 0. -1.
       -5    1    3    3    0  502 -0.21312935858E+02 -0.26202595316E+03  0.66514316023E+03  0.71522678569E+03  0.46999998093E+01 0.  1.
</event>
<event>
 5   0  0.3642161E-04  0.1103833E+04  0.7818609E-02  0.9201464E-01
        1   -1    0    0  501    0  0.00000000000E+00  0.00000000000E+00  0.42963807057E+03  0.42963807060E+03  0.50400001928E-02 0.  1.
       -1   -1    0    0    0  501  0.00000000000E+00  0.00000000000E+00 -0.70899628263E+03  0.70899628265E+03  0.50400001928E-02 0. -1.
    10030    2    1    2    0    0  0.00000000000E+00  0.00000000000E+00 -0.27935821206E+03  0.11386343532E+04  0.11038329492E+04 0.  0.
        2    1    3    3  502    0 -0.26224281897E+03 -0.39185998168E+02  0.35963250677E+03  0.44681358360E+03  0.25500000920E-02 0.  1.
       -2    1    3    3    0  502  0.26224281897E+03  0.39185998168E+02 -0.63899071884E+03  0.69182076965E+03  0.25500000920E-02 0. -1.
</event>
<event>
 5   0  0.6264830E-04  0.1095035E+04  0.7818609E-02  0.9210045E-01
       -2   -1    0    0    0  501  0.00000000000E+00  0.00000000000E+00  0.10487174937E+04  0.10487174937E+04  0.25500000920E-02 0. -1.
        2   -1    0    0  501    0  0.00000000000E+00  0.00000000000E+00 -0.28584934481E+03  0.28584934482E+03  0.25500000920E-02 0.  1.
    10030    2    1    2    0    0  0.00000000000E+00  0.00000000000E+00  0.76286814890E+03  0.13345668385E+04  0.10950346268E+04 0.  0.
        4    1    3    3  502    0 -0.25565273822E+03 -0.35566674550E+03 -0.18931087627E+02  0.43842576954E+03  0.12699999809E+01 0.  1.
       -4    1    3    3    0  502  0.25565273822E+03  0.35566674550E+03  0.78179923653E+03  0.89614106900E+03  0.12699999809E+01 0. -1.
</event>
<event>
 5   0  0.6245176E-04  0.1087082E+04  0.7818609E-02  0.9217875E-01
        2   -1    0    0  501    0  0.00000000000E+00  0.00000000000E+00  0.67102076297E+03  0.67102076298E+03  0.25500000920E-02 0.  1.
       -2   -1    0    0    0  501  0.00000000000E+00  0.00000000000E+00 -0.44027939133E+03  0.44027939134E+03  0.25500000920E-02 0. -1.
    10030    2    1    2    0    0  0.00000000000E+00  0.00000000000E+00  0.23074137164E+03  0.11113001543E+04  0.10870816218E+04 0.  0.
        5    1    3    3  502    0  0.18924478912E+03  0.34933349141E+03  0.49453409963E+03  0.63437650029E+03  0.46999998093E+01 0.  1.
       -5    1    3    3    0  502 -0.18924478912E+03 -0.34933349141E+03 -0.26379272799E+03  0.47692365403E+03  0.46999998093E+01 0. -1.
</event>
<event>
 5   0  0.3423758E-04  0.1099368E+04  0.7818609E-02  0.9205808E-01
        1   -1    0    0  501    0  0.00000000000E+00  0.00000000000E+00  0.35423593912E+03  0.35423593916E+03  0.50400001928E-02 0. -1.
       -1   -1    0    0    0  501  0.00000000000E+00  0.00000000000E+00 -0.85297020717E+03  0.85297020719E+03  0.50400001928E-02 0.  1.
    10030    2    1    2    0    0  0.00000000000E+00  0.00000000000E+00 -0.49873426805E+03  0.12072061463E+04  0.10993683685E+04 0.  0.
        1    1    3    3  502    0  0.80621610206E+02 -0.54088049919E+03 -0.31051751454E+03  0.62886619030E+03  0.50400001928E-02 0. -1.
       -1    1    3    3    0  502 -0.80621610206E+02  0.54088049919E+03 -0.18821675351E+03  0.57833995605E+03  0.50400001928E-02 0.  1.
</event>
<event>
 5   0  0.6412712E-04  0.1100316E+04  0.7818609E-02  0.9204884E-01
       -2   -1    0    0    0  501  0.00000000000E+00  0.00000000000E+00  0.24722623030E+03  0.24722623032E+03  0.25500000920E-02 0.  1.
        2   -1    0    0  501    0  0.00000000000E+00  0.00000000000E+00 -0.12242779276E+04  0.12242779276E+04  0.25500000920E-02 0. -1.
    10030    2    1    2    0    0  0.00000000000E+00  0.00000000000E+00 -0.97705169732E+03  0.14715041579E+04  0.11003156218E+04 0.  0.
        2    1    3    3  502    0 -0.39836794408E+03  0.21061404314E+03 -0.91062436688E+03  0.10160177319E+04  0.25500000920E-02 0. -1.
       -2    1    3    3    0  502  0.39836794408E+03 -0.21061404314E+03 -0.66427330437E+02  0.45548642601E+03  0.25500000920E-02 0.  1.
</event>
<event>
 5   0  0.3642161E-04  0.1088454E+04  0.7818609E-02  0.9216519E-01
        1   -1    0    0  501    0  0.00000000000E+00  0.00000000000E+00  0.57070226221E+03  0.57070226223E+03  0.50400001928E-02 0.  1.
       -1   -1    0    0    0  501  0.00000000000E+00  0.00000000000E+00 -0.51897984816E+03  0.51897984819E+03  0.50400001928E-02 0. -1.
    10030    2    1    2    0    0  0.00000000000E+00  0.00000000000E+00  0.51722414048E+02  0.10896821104E+04  0.10884539006E+04 0.  0.
        2    1    3    3  502    0  0.31900357532E+02  0.29551646018E+03 -0.43054285656E+03  0.52317756296E+03  0.25500000920E-02 0. -1.
       -2    1    3    3    0  502 -0.31900357532E+02 -0.29551646018E+03  0.48226527061E+03  0.56650454746E+03  0.25500000920E-02 0.  1.
</event>
<event>
 5   0  0.6109149E-04  0.1099130E+04  0.7818609E-02  0.9206040E-01
        2   -1    0    0  501    0  0.00000000000E+00  0.00000000000E+00  0.95179583395E+03  0.95179583395E+03  0.25500000920E-02 0. -1.
       -2   -1    0    0    0  501  0.00000000000E+00  0.00000000000E+00 -0.31731773508E+03  0.31731773509E+03  0.25500000920E-02 0.  1.
    10030    2    1    2    0    0  0.00000000000E+00  0.00000000000E+00  0.63447809887E+03  0.12691135690E+04  0.10991300165E+04 0.  0.
        1    1    3    3  502    0  0.19477864550E+03  0.96734268918E+02 -0.26551808044E+03  0.34321435080E+03  0.50400001928E-02 0.  1.
       -1    1    3    3    0  502 -0.19477864550E+03 -0.96734268918E+02  0.89999617932E+03  0.92589921824E+03  0.50400001928E-02 0. -1.
</event>
<event>
 5   0  0.3423758E-04  0.1098395E+04  0.7818609E-02  0.9206758E-01
        1   -1    0    0  501    0  0.00000000000E+00  0.00000000000E+00  0.11172724499E+04  0.11172724500E+04  0.50400001928E-02 0.  1.
       -1   -1    0    0    0  501  0.00000000000E+00  0.00000000000E+00 -0.26995908105E+03  0.26995908110E+03  0.50400001928E-02 0. -1.
    10030    2    1    2    0    0  0.00000000000E+00  0.00000000000E+00  0.84731336890E+03  0.13872315311E+04  0.10983949088E+04 0.  0.
        1    1    3    3  502    0 -0.47219331866E+01 -0.21543757145E+03 -0.21433589730E+03  0.30393341498E+03  0.50400001928E-02 0. -1.
       -1    1    3    3    0  502  0.47219331866E+01  0.21543757145E+03  0.10616492662E+04  0.10832981161E+04  0.50400001928E-02 0.  1.
</event>
<event>
 5   0  0.3621403E-04  0.1100383E+04  0.7818609E-02  0.9204818E-01
        1   -1    0    0  501    0  0.00000000000E+00  0.00000000000E+00  0.64529979506E+03  0.64529979508E+03  0.50400001928E-02 0.  1.
       -1   -1    0    0    0  501  0.00000000000E+00  0.00000000000E+00 -0.46910102274E+03  0.46910102276E+03  0.50400001928E-02 0. -1.
    10030    2    1    2    0    0  0.00000000000E+00  0.00000000000E+00  0.17619877232E+03  0.11144008178E+04  0.11003831948E+04 0.  0.
        3    1    3    3  502    0 -0.42171468190E+03 -0.11600625651E+03  0.42613283425E+03  0.61064713796E+03  0.10100000352E+00 0.  1.
       -3    1    3    3    0  502  0.42171468190E+03  0.11600625651E+03 -0.24993406193E+03  0.50375367988E+03  0.10100000352E+00 0. -1.
</event>
<event>
 5   0  0.6264830E-04  0.1100724E+04  0.7818609E-02  0.9204487E-01
       -2   -1    0    0    0  501  0.00000000000E+00  0.00000000000E+00  0.49340567579E+03  0.49340567579E+03  0.25500000920E-02 0.  1.
        2   -1    0    0  501    0  0.00000000000E+00  0.00000000000E+00 -0.61389282624E+03  0.61389282624E+03  0.25500000920E-02 0. -1.
    10030    2    1    2    0    0  0.00000000000E+00  0.00000000000E+00 -0.12048715045E+03  0.11072985020E+04  0.11007237706E+04 0.  0.
        4    1    3    3  502    0  0.18442855202E+03  0.39656317570E+03  0.27584833157E+03  0.51707848346E+03  0.12699999809E+01 0.  1.
       -4    1    3    3    0  502 -0.18442855202E+03 -0.39656317570E+03 -0.39633548202E+03  0.59022001858E+03  0.12699999809E+01 0. -1.
</event>
<event>
 5   0  0.6109149E-04  0.1099223E+04  0.7818609E-02  0.9205950E-01
       -2   -1    0    0    0  501  0.00000000000E+00  0.00000000000E+00  0.12327294874E+03  0.12327294877E+03  0.25500000920E-02 0.  1.
        2   -1    0    0  501    0  0.00000000000E+00  0.00000000000E+00 -0.24504372519E+04  0.24504372519E+04  0.25500000920E-02 0. -1.
    10030    2    1    2    0    0  0.00000000000E+00  0.00000000000E+00 -0.23271643032E+04  0.25737102007E+04  0.10992226813E+04 0.  0.
        1    1    3    3  502    0 -0.20582355013E+03  0.43835401592E+03 -0.17721414023E+04  0.18371180492E+04  0.50400001928E-02 0. -1.
       -1    1    3    3    0  502  0.20582355013E+03 -0.43835401592E+03 -0.55502290089E+03  0.73659215146E+03  0.50400001928E-02 0.  1.
</event>
<event>
 5   0  0.2403875E-04  0.1080497E+04  0.7818609E-02  0.9224412E-01
       -4   -1    0    0    0  501  0.00000000000E+00  0.00000000000E+00  0.50444263336E+03  0.50444423205E+03  0.12699999809E+01 0.  1.
        4   -1    0    0  501    0  0.00000000000E+00  0.00000000000E+00 -0.57859275900E+03  0.57859415281E+03  0.12699999809E+01 0. -1.
    10030    2    1    2    0    0  0.00000000000E+00  0.00000000000E+00 -0.74150125636E+02  0.10830383849E+04  0.10804970624E+04 0.  0.
        2    1    3    3  502    0 -0.30124004057E+03  0.29006113222E+03  0.30576368602E+03  0.51804676832E+03  0.25500000920E-02 0. -1.
       -2    1    3    3    0  502  0.30124004057E+03 -0.29006113222E+03 -0.37991381166E+03  0.56499161654E+03  0.25500000920E-02 0.  1.
</event>
<event>
 5   0  0.3657529E-04  0.1099513E+04  0.7818609E-02  0.9205667E-01
       -1   -1    0    0    0  501  0.00000000000E+00  0.00000000000E+00  0.48533765804E+03  0.48533765807E+03  0.50400001928E-02 0.  1.
        1   -1    0    0  501    0  0.00000000000E+00  0.00000000000E+00 -0.62272560370E+03  0.62272560372E+03  0.50400001928E-02 0. -1.
    10030    2    1    2    0    0  0.00000000000E+00  0.00000000000E+00 -0.13738794566E+03  0.11080632618E+04  0.10995129579E+04 0.  0.
        4    1    3    3  502    0 -0.33380089688E+03 -0.18190626277E+02  0.37113624113E+03  0.49949740743E+03  0.12699999809E+01 0.  1.
       -4    1    3    3    0  502  0.33380089688E+03  0.18190626277E+02 -0.50852418679E+03  0.60856585436E+03  0.12699999809E+01 0. -1.
</event>
<event>
 5   0  0.3523525E-04  0.1102109E+04  0.7818609E-02  0.9203138E-01
       -1   -1    0    0    0  501  0.00000000000E+00  0.00000000000E+00  0.34298497726E+03  0.34298497730E+03  0.50400001928E-02 0.  1.
        1   -1    0    0  501    0  0.00000000000E+00  0.00000000000E+00 -0.88534874293E+03  0.88534874295E+03  0.50400001928E-02 0. -1.
    10030    2    1    2    0    0  0.00000000000E+00  0.00000000000E+00 -0.54236376567E+03  0.12283337202E+04  0.11021094655E+04 0.  0.
        5    1    3    3  502    0  0.48427161331E+03  0.23085004553E+03 -0.41140233988E+03  0.67608040516E+03  0.46999998093E+01 0. -1.
       -5    1    3    3    0  502 -0.48427161331E+03 -0.23085004553E+03 -0.13096142579E+03  0.55225331509E+03  0.46999998093E+01 0.  1.
</event>
<event>
 5   0  0.6412712E-04  0.1101675E+04  0.7818609E-02  0.9203561E-01
       -2   -1    0    0    0  501  0.00000000000E+00  0.00000000000E+00  0.78301492676E+03  0.78301492677E+03  0.25500000920E-02 0.  1.
        2   -1    0    0  501    0  0.00000000000E+00  0.00000000000E+00 -0.38750477946E+03  0.38750477947E+03  0.25500000920E-02 0. -1.
    10030    2    1    2    0    0  0.00000000000E+00  0.00000000000E+00  0.39551014731E+03  0.11705197062E+04  0.11016751364E+04 0.  0.
        2    1    3    3  502    0 -0.22510967140E+03  0.33750904902E+03  0.59364562781E+03  0.71902840956E+03  0.25500000920E-02 0.  1.
       -2    1    3    3    0  502  0.22510967140E+03 -0.33750904902E+03 -0.19813548051E+03  0.45149129667E+03  0.25500000920E-02 0. -1.
</event>
<event>
 5   0  0.3657529E-04  0.1100598E+04  0.7818609E-02  0.9204609E-01
       -1   -1    0    0    0  501  0.00000000000E+00  0.00000000000E+00  0.41926343700E+03  0.41926343703E+03  0.50400001928E-02 0. -1.
        1   -1    0    0  501    0  0.00000000000E+00  0.00000000000E+00 -0.72228844534E+03  0.72228844535E+03  0.50400001928E-02 0.  1.
    10030    2    1    2    0    0  0.00000000000E+00  0.00000000000E+00 -0.30302500834E+03  0.11415518824E+04  0.11005982666E+04 0.  0.
        4    1    3    3  502    0 -0.31682176726E+03 -0.16144221368E+03  0.28410089327E+03  0.45514234150E+03  0.12699999809E+01 0. -1.
       -4    1    3    3    0  502  0.31682176726E+03  0.16144221368E+03 -0.58712590161E+03  0.68640954088E+03  0.12699999809E+01 0.  1.
</event>
<event>
 5   0  0.6245176E-04  0.1089413E+04  0.7818609E-02  0.9215572E-01
        2   -1    0    0  501    0  0.00000000000E+00  0.00000000000E+00  0.12105585570E+04  0.12105585570E+04  0.25500000920E-02 0.  1.
       -2   -1    0    0    0  501  0.00000000000E+00  0.00000000000E+00 -0.24509781039E+03  0.24509781041E+03  0.25500000920E-02 0. -1.
    10030    2    1    2    0    0  0.00000000000E+00  0.00000000000E+00  0.96546074660E+03  0.14556563674E+04  0.10894131479E+04 0.  0.
        5    1    3    3  502    0  0.21423689252E+03  0.47597958628E+03  0.27474378428E+03  0.58988155563E+03  0.46999998093E+01 0. -1.
       -5    1    3    3    0  502 -0.21423689252E+03 -0.47597958628E+03  0.69071696233E+03  0.86577481178E+03  0.46999998093E+01 0.  1.
</event>
<event>
 5   0  0.3523525E-04  0.1102434E+04  0.7818609E-02  0.9202822E-01
        1   -1    0    0  501    0  0.00000000000E+00  0.00000000000E+00  0.15959305099E+04  0.15959305099E+04  0.50400001928E-02 0.  1.
       -1   -1    0    0    0  501  0.00000000000E+00  0.00000000000E+00 -0.19038450173E+03  0.19038450179E+03  0.50400001928E-02 0. -1.
    10030    2    1    2    0    0  0.00000000000E+00  0.00000000000E+00  0.14055460082E+04  0.17863150117E+04  0.11024344606E+04 0.  0.
        5    1    3    3  502    0 -0.12332102887E+03  0.28285155792E+03 -0.37288647217E+02  0.31084660717E+03  0.46999998093E+01 0. -1.
       -5    1    3    3    0  502  0.12332102887E+03 -0.28285155792E+03  0.14428346554E+04  0.14754684046E+04  0.46999998093E+01 0.  1.
</event>
<event>
 5   0  0.3423758E-04  0.1099299E+04  0.7818609E-02  0.9205876E-01
       -1   -1    0    0    0  501  0.00000000000E+00  0.00000000000E+00  0.39846583697E+03  0.39846583700E+03  0.50400001928E-02 0.  1.
        1   -1    0    0  501    0  0.00000000000E+00  0.00000000000E+00 -0.75819387035E+03  0.75819387037E+03  0.50400001928E-02 0. -1.
    10030    2    1    2    0    0  0.00000000000E+00  0.00000000000E+00 -0.35972803338E+03  0.11566597074E+04  0.10992986039E+04 0.  0.
        1    1    3    3  502    0 -0.34829496883E+03  0.23480633393E+03 -0.55286277746E+03  0.69433468191E+03  0.50400001928E-02 0. -1.
       -1    1    3    3    0  502  0.34829496883E+03 -0.23480633393E+03  0.19313474408E+03  0.46232502546E+03  0.50400001928E-02 0.  1.
</event>
<event>
 5   0  0.6412712E-04  0.1101110E+04  0.7818609E-02  0.9204111E-01
        2   -1    0    0  501    0  0.00000000000E+00  0.00000000000E+00  0.61821684205E+03  0.61821684205E+03  0.25500000920E-02 0.  1.
       -2   -1    0    0    0  501  0.00000000000E+00  0.00000000000E+00 -0.49029820649E+03  0.49029820650E+03  0.25500000920E-02 0. -1.
    10030    2    1    2    0    0  0.00000000000E+00  0.00000000000E+00  0.12791863555E+03  0.11085150486E+04  0.11011096383E+04 0.  0.
        2    1    3    3  502    0 -0.20586173863E+03  0.46863540336E+03  0.26808493382E+03  0.57781288360E+03  0.25500000920E-02 0.  1.
       -2    1    3    3    0  502  0.20586173863E+03 -0.46863540336E+03 -0.14016629827E+03  0.53070216495E+03  0.25500000920E-02 0. -1.
</event>
<event>
 5   0  0.3523525E-04  0.1099179E+04  0.7818609E-02  0.9205993E-01
       -1   -1    0    0    0  501  0.00000000000E+00  0.00000000000E+00  0.43341617818E+03  0.43341617821E+03  0.50400001928E-02 0. -1.
        1   -1    0    0  501    0  0.00000000000E+00  0.00000000000E+00 -0.69690172148E+03  0.69690172150E+03  0.50400001928E-02 0.  1.
    10030    2    1    2    0    0  0.00000000000E+00  0.00000000000E+00 -0.26348554330E+03  0.11303178997E+04  0.10991787493E+04 0.  0.
        5    1    3    3  502    0 -0.37654737985E+03  0.37543981776E+03  0.11055890783E+02  0.53187151527E+03  0.46999998093E+01 0.  1.
       -5    1    3    3    0  502  0.37654737985E+03 -0.37543981776E+03 -0.27454143408E+03  0.59844638445E+03  0.46999998093E+01 0. -1.
</event>
<event>
 5   0  0.6109149E-04  0.1100669E+04  0.7818609E-02  0.9204541E-01
        2   -1    0    0  501    0  0.00000000000E+00  0.00000000000E+00  0.57470043030E+03  0.57470043030E+03  0.25500000920E-02 0. -1.
       -2   -1    0    0    0  501  0.00000000000E+00  0.00000000000E+00 -0.52700118266E+03  0.52700118267E+03  0.25500000920E-02 0.  1.
    10030    2    1    2    0    0  0.00000000000E+00  0.00000000000E+00  0.47699247634E+02  0.11017016130E+04  0.11006685358E+04 0.  0.
        1    1    3    3  502    0  0.46958264966E+03  0.24212643074E+03 -0.13035578593E+03  0.54417433262E+03  0.50400001928E-02 0.  1.
       -1    1    3    3    0  502 -0.46958264966E+03 -0.24212643074E+03  0.17805503357E+03  0.55752728035E+03  0.50400001928E-02 0. -1.
</event>
<event>
 5   0  0.3423758E-04  0.1105590E+04  0.7818609E-02  0.9199761E-01
       -1   -1    0    0    0  501  0.00000000000E+00  0.00000000000E+00  0.59510133992E+03  0.59510133994E+03  0.50400001928E-02 0. -1.
        1   -1    0    0  501    0  0.00000000000E+00  0.00000000000E+00 -0.51349593705E+03  0.51349593707E+03  0.50400001928E-02 0.  1.
    10030    2    1    2    0    0  0.00000000000E+00  0.00000000000E+00  0.81605402875E+02  0.11085972770E+04  0.11055896530E+04 0.  0.
        1    1    3    3  502    0 -0.47067752271E+03 -0.28961070975E+03  0.53892968816E+02  0.55526223148E+03  0.50400001928E-02 0. -1.
       -1    1    3    3    0  502  0.47067752271E+03  0.28961070975E+03  0.27712434059E+02  0.55333504554E+03  0.50400001928E-02 0.  1.
</event>
<event>
 5   0  0.3642161E-04  0.1096090E+04  0.7818609E-02  0.9209011E-01
       -1   -1    0    0    0  501  0.00000000000E+00  0.00000000000E+00  0.40603807991E+03  0.40603807994E+03  0.50400001928E-02 0. -1.
        1   -1    0    0  501    0  0.00000000000E+00  0.00000000000E+00 -0.73971762973E+03  0.73971762975E+03  0.50400001928E-02 0.  1.
    10030    2    1    2    0    0  0.00000000000E+00  0.00000000000E+00 -0.33367954982E+03  0.11457557097E+04  0.10960903723E+04 0.  0.
        2    1    3    3  502    0  0.40031957381E+03  0.29265846799E+03  0.77075932078E+02  0.50184204623E+03  0.25500000920E-02 0. -1.
       -2    1    3    3    0  502 -0.40031957381E+03 -0.29265846799E+03 -0.41075548190E+03  0.64391366345E+03  0.25500000920E-02 0.  1.
</event>
<event>
 5   0  0.6264830E-04  0.1100743E+04  0.7818609E-02  0.9204468E-01
       -2   -1    0    0    0  501  0.00000000000E+00  0.00000000000E+00  0.58064756875E+03  0.58064756876E+03  0.25500000920E-02 0. -1.
        2   -1    0    0  501    0  0.00000000000E+00  0.00000000000E+00 -0.52167379678E+03  0.52167379679E+03  0.25500000920E-02 0.  1.
    10030    2    1    2    0    0  0.00000000000E+00  0.00000000000E+00  0.58973771973E+02  0.11023213655E+04  0.11007426980E+04 0.  0.
        4    1    3    3  502    0  0.30919182513E+03 -0.22513069273E+03  0.42581146461E+03  0.57236389633E+03  0.12699999809E+01 0. -1.
       -4    1    3    3    0  502 -0.30919182513E+03  0.22513069273E+03 -0.36683769263E+03  0.52995746921E+03  0.12699999809E+01 0.  1.
</event>
<event>
 5   0  0.6412712E-04  0.1100789E+04  0.7818609E-02  0.9204423E-01
        2   -1    0    0  501    0  0.00000000000E+00  0.00000000000E+00  0.18785256143E+03  0.18785256144E+03  0.25500000920E-02 0. -1.
       -2   -1    0    0    0  501  0.00000000000E+00  0.00000000000E+00 -0.16126168594E+04  0.16126168594E+04  0.25500000920E-02 0.  1.
    10030    2    1    2    0    0  0.00000000000E+00  0.00000000000E+00 -0.14247642980E+04  0.18004694209E+04  0.11007891854E+04 0.  0.
        2    1    3    3  502    0  0.40366278199E+03  0.34727306686E+03 -0.48461414931E+03  0.71999520710E+03  0.25500000920E-02 0. -1.
       -2    1    3    3    0  502 -0.40366278199E+03 -0.34727306686E+03 -0.94015014870E+03  0.10804742138E+04  0.25500000920E-02 0.  1.
</event>
<event>
 5   0  0.6264830E-04  0.1100753E+04  0.7818609E-02  0.9204458E-01
       -2   -1    0    0    0  501  0.00000000000E+00  0.00000000000E+00  0.62204765582E+03  0.62204765583E+03  0.25500000920E-02 0.  1.
        2   -1    0    0  501    0  0.00000000000E+00  0.00000000000E+00 -0.48696305643E+03  0.48696305644E+03  0.25500000920E-02 0. -1.
    10030    2    1    2    0    0  0.00000000000E+00  0.00000000000E+00  0.13508459939E+03  0.11090107123E+04  0.11007528837E+04 0.  0.
        4    1    3    3  502    0 -0.45885878862E+03 -0.30033066391E+03  0.11439622523E+03  0.56021246400E+03  0.12699999809E+01 0. -1.
       -4    1    3    3    0  502  0.45885878862E+03  0.30033066391E+03  0.20688374159E+02  0.54879824826E+03  0.12699999809E+01 0.  1.
</event>
<event>
 5   0  0.3642161E-04  0.1090333E+04  0.7818609E-02  0.9214665E-01
       -1   -1    0    0    0  501  0.00000000000E+00  0.00000000000E+00  0.99849966335E+03  0.99849966336E+03  0.50400001928E-02 0.  1.
        1   -1    0    0  501    0  0.00000000000E+00  0.00000000000E+00 -0.29765322108E+03  0.29765322112E+03  0.50400001928E-02 0. -1.
    10030    2    1    2    0    0  0.00000000000E+00  0.00000000000E+00  0.70084644227E+03  0.12961528845E+04  0.10903332354E+04 0.  0.
        2    1    3    3  502    0  0.30342570830E+03  0.82507576498E+01  0.88875440064E+03  0.93915899619E+03  0.25500000920E-02 0.  1.
       -2    1    3    3    0  502 -0.30342570830E+03 -0.82507576498E+01 -0.18790795836E+03  0.35699388830E+03  0.25500000920E-02 0. -1.
</event>
<event>
 5   0  0.6109149E-04  0.1100116E+04  0.7818609E-02  0.9205079E-01
       -2   -1    0    0    0  501  0.00000000000E+00  0.00000000000E+00  0.35608489191E+03  0.35608489191E+03  0.25500000920E-02 0.  1.
        2   -1    0    0  501    0  0.00000000000E+00  0.00000000000E+00 -0.84969595563E+03  0.84969595563E+03  0.25500000920E-02 0. -1.
    10030    2    1    2    0    0  0.00000000000E+00  0.00000000000E+00 -0.49361106372E+03  0.12057808475E+04  0.11001161621E+04 0.  0.
        1    1    3    3  502    0  0.29779165477E+03 -0.13512130555E+03 -0.73158409539E+03  0.80134444873E+03  0.50400001928E-02 0. -1.
       -1    1    3    3    0  502 -0.29779165477E+03  0.13512130555E+03  0.23797303166E+03  0.40443639882E+03  0.50400001928E-02 0.  1.
</event>
<event>
 5   0  0.3657529E-04  0.1086023E+04  0.7818609E-02  0.9218923E-01
        1   -1    0    0  501    0  0.00000000000E+00  0.00000000000E+00  0.45857976565E+03  0.45857976567E+03  0.50400001928E-02 0. -1.
       -1   -1    0    0    0  501  0.00000000000E+00  0.00000000000E+00 -0.64298825917E+03  0.64298825919E+03  0.50400001928E-02 0.  1.
    10030    2    1    2    0    0  0.00000000000E+00  0.00000000000E+00 -0.18440849352E+03  0.11015680249E+04  0.10860228455E+04 0.  0.
        4    1    3    3  502    0 -0.28464562517E+03 -0.37277797413E+03 -0.36975069909E+03  0.59724680184E+03  0.12699999809E+01 0.  1.
       -4    1    3    3    0  502  0.28464562517E+03  0.37277797413E+03  0.18534220557E+03  0.50432122302E+03  0.12699999809E+01 0. -1.
</event>
<event>
 5   0  0.3642161E-04  0.1099323E+04  0.7818609E-02  0.9205852E-01
        1   -1    0    0  501    0  0.00000000000E+00  0.00000000000E+00  0.47503503352E+03  0.47503503355E+03  0.50400001928E-02 0.  1.
       -1   -1    0    0    0  501  0.00000000000E+00  0.00000000000E+00 -0.63601127788E+03  0.63601127790E+03  0.50400001928E-02 0. -1.
    10030    2    1    2    0    0  0.00000000000E+00  0.00000000000E+00 -0.16097624435E+03  0.11110463114E+04  0.10993227710E+04 0.  0.
        2    1    3    3  502    0  0.14876513433E+02 -0.25653433490E+03 -0.57156747917E+03  0.62667420474E+03  0.25500000920E-02 0. -1.
       -2    1    3    3    0  502 -0.14876513433E+02  0.25653433490E+03  0.41059123482E+03  0.48437210670E+03  0.25500000920E-02 0.  1.
</event>
<event>
 5   0  0.3423758E-04  0.1100595E+04  0.7818609E-02  0.9204612E-01
        1   -1    0    0  501    0  0.00000000000E+00  0.00000000000E+00  0.33868355723E+03  0.33868355726E+03  0.50400001928E-02 0.  1.
       -1   -1    0    0    0  501  0.00000000000E+00  0.00000000000E+00 -0.89413105877E+03  0.89413105878E+03  0.50400001928E-02 0. -1.
    10030    2    1    2    0    0  0.00000000000E+00  0.00000000000E+00 -0.55544750154E+03  0.12328146160E+04  0.11005952710E+04 0.  0.
        1    1    3    3  502    0 -0.14158905628E+03  0.52993525308E+03 -0.32717047584E+03  0.63868564537E+03  0.50400001928E-02 0.  1.
       -1    1    3    3    0  502  0.14158905628E+03 -0.52993525308E+03 -0.22827702571E+03  0.59412897068E+03  0.50400001928E-02 0. -1.
</event>
<event>
 5   0  0.6109149E-04  0.1099814E+04  0.7818609E-02  0.9205373E-01
       -2   -1    0    0    0  501  0.00000000000E+00  0.00000000000E+00  0.55434227655E+03  0.55434227656E+03  0.25500000920E-02 0. -1.
        2   -1    0    0  501    0  0.00000000000E+00  0.00000000000E+00 -0.54550709249E+03  0.54550709249E+03  0.25500000920E-02 0.  1.
    10030    2    1    2    0    0  0.00000000000E+00  0.00000000000E+00  0.88351840652E+01  0.10998493691E+04  0.10998138816E+04 0.  0.
        1    1    3    3  502    0 -0.17091936174E+03 -0.27244895955E+02 -0.51755895234E+03  0.54573160229E+03  0.50400001928E-02 0.  1.
       -1    1    3    3    0  502  0.17091936174E+03  0.27244895955E+02  0.52639413640E+03  0.55411776676E+03  0.50400001928E-02 0. -1.
</event>
<event>
 5   0  0.3423758E-04  0.1099194E+04  0.7818609E-02  0.9205978E-01
        1   -1    0    0  501    0  0.00000000000E+00  0.00000000000E+00  0.28737751068E+03  0.28737751073E+03  0.50400001928E-02 0.  1.
       -1   -1    0    0    0  501  0.00000000000E+00  0.00000000000E+00 -0.10510804190E+04  0.10510804191E+04  0.50400001928E-02 0. -1.
    10030    2    1    2    0    0  0.00000000000E+00  0.00000000000E+00 -0.76370290837E+03  0.13384579298E+04  0.10991940218E+04 0.  0.
        1    1    3    3  502    0 -0.35211446284E+03  0.19841041298E+03  0.71648602153E+02  0.41046901117E+03  0.50400001928E-02 0.  1.
       -1    1    3    3    0  502  0.35211446284E+03 -0.19841041298E+03 -0.83535151052E+03  0.92798891861E+03  0.50400001928E-02 0. -1.
</event>
<event>
 5   0  0.3523525E-04  0.1100127E+04  0.7818609E-02  0.9205069E-01
        1   -1    0    0  501    0  0.00000000000E+00  0.00000000000E+00  0.47885013983E+03  0.47885013985E+03  0.50400001928E-02 0. -1.
       -1   -1    0    0    0  501  0.00000000000E+00  0.00000000000E+00 -0.63186698938E+03  0.63186698940E+03  0.50400001928E-02 0.  1.
    10030    2    1    2    0    0  0.00000000000E+00  0.00000000000E+00 -0.15301684955E+03  0.11107171292E+04  0.11001265313E+04 0.  0.
        5    1    3    3  502    0  0.27537498404E+03 -0.39862489556E+03  0.18641030605E+03  0.51913782505E+03  0.46999998093E+01 0. -1.
       -5    1    3    3    0  502 -0.27537498404E+03  0.39862489556E+03 -0.33942715560E+03  0.59157930420E+03  0.46999998093E+01 0.  1.
</event>
<event>
 5   0  0.3621403E-04  0.1100114E+04  0.7818609E-02  0.9205080E-01
       -1   -1    0    0    0  501  0.00000000000E+00  0.00000000000E+00  0.36037812040E+03  0.36037812044E+03  0.50400001928E-02 0.  1.
        1   -1    0    0  501    0  0.00000000000E+00  0.00000000000E+00 -0.83957059116E+03  0.83957059117E+03  0.50400001928E-02 0. -1.
    10030    2    1    2    0    0  0.00000000000E+00  0.00000000000E+00 -0.47919247076E+03  0.11999487116E+04  0.11001143061E+04 0.  0.
        3    1    3    3  502    0 -0.14037660808E+03 -0.37800850226E+03 -0.64766885189E+03  0.76293575862E+03  0.10100000352E+00 0. -1.
       -3    1    3    3    0  502  0.14037660808E+03  0.37800850226E+03  0.16847638113E+03  0.43701295299E+03  0.10100000352E+00 0.  1.
</event>
<event>
 5   0  0.6412712E-04  0.1100981E+04  0.7818609E-02  0.9204236E-01
       -2   -1    0    0    0  501  0.00000000000E+00  0.00000000000E+00  0.48199821745E+03  0.48199821745E+03  0.25500000920E-02 0.  1.
        2   -1    0    0  501    0  0.00000000000E+00  0.00000000000E+00 -0.62871552297E+03  0.62871552297E+03  0.25500000920E-02 0. -1.
    10030    2    1    2    0    0  0.00000000000E+00  0.00000000000E+00 -0.14671730552E+03  0.11107137404E+04  0.11009809469E+04 0.  0.
        2    1    3    3  502    0 -0.52958368071E+02 -0.39845516082E+03 -0.45280681793E+03  0.60547924680E+03  0.25500000920E-02 0. -1.
       -2    1    3    3    0  502  0.52958368071E+02  0.39845516082E+03  0.30608951241E+03  0.50523449362E+03  0.25500000920E-02 0.  1.
</event>
<event>
 5   0  0.6264830E-04  0.1099430E+04  0.7818609E-02  0.9205747E-01
       -2   -1    0    0    0  501  0.00000000000E+00  0.00000000000E+00  0.71854258765E+03  0.71854258766E+03  0.25500000920E-02 0. -1.
        2   -1    0    0  501    0  0.00000000000E+00  0.00000000000E+00 -0.42055523046E+03  0.42055523047E+03  0.25500000920E-02 0.  1.
    10030    2    1    2    0    0  0.00000000000E+00  0.00000000000E+00  0.29798735720E+03  0.11390978181E+04  0.10994304772E+04 0.  0.
        4    1    3    3  502    0 -0.49437301460E+03  0.18941957618E+03 -0.43348655712E+01  0.52943824698E+03  0.12699999809E+01 0.  1.
       -4    1    3    3    0  502  0.49437301460E+03 -0.18941957618E+03  0.30232222277E+03  0.60965957114E+03  0.12699999809E+01 0. -1.
</event>
<event>
 5   0  0.6264830E-04  0.1100964E+04  0.7818609E-02  0.9204253E-01
        2   -1    0    0  501    0  0.00000000000E+00  0.00000000000E+00  0.16876588410E+04  0.16876588410E+04  0.25500000920E-02 0. -1.
       -2   -1    0    0    0  501  0.00000000000E+00  0.00000000000E+00 -0.17955672107E+03  0.17955672109E+03  0.25500000920E-02 0.  1.
    10030    2    1    2    0    0  0.00000000000E+00  0.00000000000E+00  0.15081021200E+04  0.18672155621E+04  0.11009641008E+04 0.  0.
        4    1    3    3  502    0 -0.27400445801E+03  0.15706968226E+03  0.15187106543E+04  0.15512037237E+04  0.12699999809E+01 0. -1.
       -4    1    3    3    0  502  0.27400445801E+03 -0.15706968226E+03 -0.10608534360E+02  0.31601183838E+03  0.12699999809E+01 0.  1.
</event>
<event>
 5   0  0.3523525E-04  0.1097813E+04  0.7818609E-02  0.9207327E-01
       -1   -1    0    0    0  501  0.00000000000E+00  0.00000000000E+00  0.26876495498E+03  0.26876495502E+03  0.50400001928E-02 0. -1.
        1   -1    0    0  501    0  0.00000000000E+00  0.00000000000E+00 -0.11210467510E+04  0.11210467510E+04  0.50400001928E-02 0.  1.
    10030    2    1    2    0    0  0.00000000000E+00  0.00000000000E+00 -0.85228179601E+03  0.13898117060E+04  0.10978125151E+04 0.  0.
        5    1    3    3  502    0 -0.31804473588E+01 -0.54076915954E+02 -0.11176289287E+04  0.11189508212E+04  0.46999998093E+01 0.  1.
       -5    1    3    3    0  502  0.31804473588E+01  0.54076915954E+02  0.26534713269E+03  0.27086088479E+03  0.46999998093E+01 0. -1.
</event>
<event>
 5   0  0.3621403E-04  0.1099882E+04  0.7818609E-02  0.9205307E-01
        1   -1    0    0  501    0  0.00000000000E+00  0.00000000000E+00  0.14011833230E+04  0.14011833230E+04  0.50400001928E-02 0.  1.
       -1   -1    0    0    0  501  0.00000000000E+00  0.00000000000E+00 -0.21584272601E+03  0.21584272607E+03  0.50400001928E-02 0. -1.
    10030    2    1    2    0    0  0.00000000000E+00  0.00000000000E+00  0.11853405970E+04  0.16170260491E+04  0.10998822267E+04 0.  0.
        3    1    3    3  502    0  0.33816344187E+03 -0.16373204042E+03  0.11830766523E+04  0.12413029727E+04  0.10100000352E+00 0.  1.
       -3    1    3    3    0  502 -0.33816344187E+03  0.16373204042E+03  0.22639446446E+01  0.37572307638E+03  0.10100000352E+00 0. -1.
</event>
<event>
 5   0  0.3657529E-04  0.1100844E+04  0.7818609E-02  0.9204370E-01
       -1   -1    0    0    0  501  0.00000000000E+00  0.00000000000E+00  0.40541826965E+03  0.40541826968E+03  0.50400001928E-02 0. -1.
        1   -1    0    0  501    0  0.00000000000E+00  0.00000000000E+00 -0.74728787825E+03  0.74728787827E+03  0.50400001928E-02 0.  1.
    10030    2    1    2    0    0  0.00000000000E+00  0.00000000000E+00 -0.34186960860E+03  0.11527061480E+04  0.11008436012E+04 0.  0.
        4    1    3    3  502    0  0.23960779143E+03  0.49552942723E+03 -0.16976940180E+03  0.57600743888E+03  0.12699999809E+01 0. -1.
       -4    1    3    3    0  502 -0.23960779143E+03 -0.49552942723E+03 -0.17210020680E+03  0.57669870907E+03  0.12699999809E+01 0.  1.
</event>
<event>
 5   0  0.6245176E-04  0.1106454E+04  0.7818609E-02  0.9198924E-01
        2   -1    0    0  501    0  0.00000000000E+00  0.00000000000E+00  0.13011868953E+04  0.13011868953E+04  0.25500000920E-02 0.  1.
       -2   -1    0    0    0  501  0.00000000000E+00  0.00000000000E+00 -0.23521596480E+03  0.23521596481E+03  0.25500000920E-02 0. -1.
    10030    2    1    2    0    0  0.00000000000E+00  0.00000000000E+00  0.10659709305E+04  0.15364028601E+04  0.11064536700E+04 0.  0.
        5    1    3    3  502    0 -0.51685132034E+03 -0.11258356807E+02  0.25955161761E+03  0.57849042355E+03  0.46999998093E+01 0. -1.
       -5    1    3    3    0  502  0.51685132034E+03  0.11258356807E+02  0.80641931290E+03  0.95791243658E+03  0.46999998093E+01 0.  1.
</event>
<event>
 5   0  0.3621403E-04  0.1098767E+04  0.7818609E-02  0.9206394E-01
       -1   -1    0    0    0  501  0.00000000000E+00  0.00000000000E+00  0.13314600544E+03  0.13314600553E+03  0.50400001928E-02 0.  1.
        1   -1    0    0  501    0  0.00000000000E+00  0.00000000000E+00 -0.22668522043E+04  0.22668522043E+04  0.50400001928E-02 0. -1.
    10030    2    1    2    0    0  0.00000000000E+00  0.00000000000E+00 -0.21337061989E+04  0.23999982099E+04  0.10987671565E+04 0.  0.
        3    1    3    3  502    0 -0.26407939484E+03  0.31950340095E+03 -0.18544068272E+04  0.19001697401E+04  0.10100000352E+00 0. -1.
       -3    1    3    3    0  502  0.26407939484E+03 -0.31950340095E+03 -0.27929937164E+03  0.49982846978E+03  0.10100000352E+00 0.  1.
</event>
<event>
 5   0  0.3642161E-04  0.1099155E+04  0.7818609E-02  0.9206016E-01
       -1   -1    0    0    0  501  0.00000000000E+00  0.00000000000E+00  0.81639051815E+03  0.81639051817E+03  0.50400001928E-02 0.  1.
        1   -1    0    0  501    0  0.00000000000E+00  0.00000000000E+00 -0.36996419700E+03  0.36996419704E+03  0.50400001928E-02 0. -1.
    10030    2    1    2    0    0  0.00000000000E+00  0.00000000000E+00  0.44642632115E+03  0.11863547152E+04  0.10991546980E+04 0.  0.
        2    1    3    3  502    0 -0.39436083743E+03  0.51989571116E+02  0.63252387895E+03  0.74720134037E+03  0.25500000920E-02 0.  1.
       -2    1    3    3    0  502  0.39436083743E+03 -0.51989571116E+02 -0.18609755780E+03  0.43915337483E+03  0.25500000920E-02 0. -1.
</event>
<event>
 5   0  0.5948818E-04  0.1099617E+04  0.7818609E-02  0.9205565E-01
       -2   -1    0    0    0  501  0.00000000000E+00  0.00000000000E+00  0.77867824556E+03  0.77867824556E+03  0.25500000920E-02 0.  1.
        2   -1    0    0  501    0  0.00000000000E+00  0.00000000000E+00 -0.38820859169E+03  0.38820859170E+03  0.25500000920E-02 0. -1.
    10030    2    1    2    0    0  0.00000000000E+00  0.00000000000E+00  0.39046965387E+03  0.11668868373E+04  0.10996173609E+04 0.  0.
        3    1    3    3  502    0 -0.22898756424E+03  0.20666133327E+03 -0.28774029597E+03  0.42182780772E+03  0.10100000352E+00 0. -1.
       -3    1    3    3    0  502  0.22898756424E+03 -0.20666133327E+03  0.67820994983E+03  0.74505902954E+03  0.10100000352E+00 0.  1.
</event>
<event>
 5   0  0.3621403E-04  0.1095097E+04  0.7818609E-02  0.9209984E-01
       -1   -1    0    0    0  501  0.00000000000E+00  0.00000000000E+00  0.73612871816E+03  0.73612871817E+03  0.50400001928E-02 0.  1.
        1   -1    0    0  501    0  0.00000000000E+00  0.00000000000E+00 -0.40727816356E+03  0.40727816359E+03  0.50400001928E-02 0. -1.
    10030    2    1    2    0    0  0.00000000000E+00  0.00000000000E+00  0.32885055460E+03  0.11434068818E+04  0.10950966213E+04 0.  0.
        3    1    3    3  502    0  0.38256033525E+03  0.14682543630E+03 -0.21477544227E+03  0.46264308019E+03  0.10100000352E+00 0. -1.
       -3    1    3    3    0  502 -0.38256033525E+03 -0.14682543630E+03  0.54362599687E+03  0.68076380157E+03  0.10100000352E+00 0.  1.
</event>
<event>
 5   0  0.3621403E-04  0.1099794E+04  0.7818609E-02  0.9205393E-01
       -1   -1    0    0    0  501  0.00000000000E+00  0.00000000000E+00  0.17162043548E+03  0.17162043556E+03  0.50400001928E-02 0. -1.
        1   -1    0    0  501    0  0.00000000000E+00  0.00000000000E+00 -0.17619490737E+04  0.17619490738E+04  0.50400001928E-02 0.  1.
    10030    2    1    2    0    0  0.00000000000E+00  0.00000000000E+00 -0.15903286383E+04  0.19335695093E+04  0.10997935577E+04 0.  0.
        3    1    3    3  502    0 -0.99363200361E+02 -0.23010548695E+03  0.65354138335E+02  0.25902269072E+03  0.10100000352E+00 0. -1.
       -3    1    3    3    0  502  0.99363200361E+02  0.23010548695E+03 -0.16556827766E+04  0.16745468186E+04  0.10100000352E+00 0.  1.
</event>
<event>
 5   0  0.3621403E-04  0.1100774E+04  0.7818609E-02  0.9204437E-01
       -1   -1    0    0    0  501  0.00000000000E+00  0.00000000000E+00  0.63525430522E+03  0.63525430524E+03  0.50400001928E-02 0. -1.
        1   -1    0    0  501    0  0.00000000000E+00  0.00000000000E+00 -0.47685798714E+03  0.47685798717E+03  0.50400001928E-02 0.  1.
    10030    2    1    2    0    0  0.00000000000E+00  0.00000000000E+00  0.15839631807E+03  0.11121122924E+04  0.11007744353E+04 0.  0.
        3    1    3    3  502    0  0.42465837747E+03 -0.24049192804E+03  0.33628915896E+03  0.59267319295E+03  0.10100000352E+00 0. -1.
       -3    1    3    3    0  502 -0.42465837747E+03  0.24049192804E+03 -0.17789284089E+03  0.51943909946E+03  0.10100000352E+00 0.  1.
</event>
<event>
 5   0  0.2403875E-04  0.1102356E+04  0.7818609E-02  0.9202899E-01
        4   -1    0    0  501    0  0.00000000000E+00  0.00000000000E+00  0.36911722777E+03  0.36911941257E+03  0.12699999809E+01 0. -1.
       -4   -1    0    0    0  501  0.00000000000E+00  0.00000000000E+00 -0.82303164359E+03  0.82303262344E+03  0.12699999809E+01 0.  1.
    10030    2    1    2    0    0  0.00000000000E+00  0.00000000000E+00 -0.45391441582E+03  0.11921520360E+04  0.11023557412E+04 0.  0.
        4    1    3    3  502    0 -0.23952272278E+03  0.83834280693E+02 -0.75609456261E+03  0.79754618791E+03  0.12699999809E+01 0.  1.
       -4    1    3    3    0  502  0.23952272278E+03 -0.83834280693E+02  0.30218014678E+03  0.39460584810E+03  0.12699999809E+01 0. -1.
</event>
<event>
 5   0  0.3657529E-04  0.1101077E+04  0.7818609E-02  0.9204143E-01
       -1   -1    0    0    0  501  0.00000000000E+00  0.00000000000E+00  0.17354232465E+03  0.17354232473E+03  0.50400001928E-02 0.  1.
        1   -1    0    0  501    0  0.00000000000E+00  0.00000000000E+00 -0.17465061697E+04  0.17465061697E+04  0.50400001928E-02 0. -1.
    10030    2    1    2    0    0  0.00000000000E+00  0.00000000000E+00 -0.15729638450E+04  0.19200484944E+04  0.11010771831E+04 0.  0.
        4    1    3    3  502    0  0.16749367995E+03 -0.25798349959E+03 -0.15826929817E+04  0.16123052770E+04  0.12699999809E+01 0. -1.
       -4    1    3    3    0  502 -0.16749367995E+03  0.25798349959E+03  0.97291366784E+01  0.30774321745E+03  0.12699999809E+01 0.  1.
</event>
<event>
 5   0  0.3642161E-04  0.1097925E+04  0.7818609E-02  0.9207216E-01
        1   -1    0    0  501    0  0.00000000000E+00  0.00000000000E+00  0.10275232155E+04  0.10275232155E+04  0.50400001928E-02 0.  1.
       -1   -1    0    0    0  501  0.00000000000E+00  0.00000000000E+00 -0.29328770249E+03  0.29328770253E+03  0.50400001928E-02 0. -1.
    10030    2    1    2    0    0  0.00000000000E+00  0.00000000000E+00  0.73423551301E+03  0.13208109180E+04  0.10979251763E+04 0.  0.
        2    1    3    3  502    0  0.51300778096E+03 -0.19423498227E+03  0.39279881369E+03  0.67468149501E+03  0.25500000920E-02 0. -1.
       -2    1    3    3    0  502 -0.51300778096E+03  0.19423498227E+03  0.34143669932E+03  0.64612942304E+03  0.25500000920E-02 0.  1.
</event>
<event>
 5   0  0.5948818E-04  0.1101321E+04  0.7818609E-02  0.9203906E-01
       -2   -1    0    0    0  501  0.00000000000E+00  0.00000000000E+00  0.32927928159E+03  0.32927928160E+03  0.25500000920E-02 0.  1.
        2   -1    0    0  501    0  0.00000000000E+00  0.00000000000E+00 -0.92088039248E+03  0.92088039249E+03  0.25500000920E-02 0. -1.
    10030    2    1    2    0    0  0.00000000000E+00  0.00000000000E+00 -0.59160111089E+03  0.12501596741E+04  0.11013207236E+04 0.  0.
        3    1    3    3  502    0  0.23653061259E+03  0.11860752895E+03 -0.84398593004E+03  0.88449236115E+03  0.10100000352E+00 0. -1.
       -3    1    3    3    0  502 -0.23653061259E+03 -0.11860752895E+03  0.25238481915E+03  0.36566731294E+03  0.10100000352E+00 0.  1.
</event>
<event>
 5   0  0.6264830E-04  0.1095739E+04  0.7818609E-02  0.9209355E-01
       -2   -1    0    0    0  501  0.00000000000E+00  0.00000000000E+00  0.14802253660E+03  0.14802253663E+03  0.25500000920E-02 0.  1.
        2   -1    0    0  501    0  0.00000000000E+00  0.00000000000E+00 -0.20278062354E+04  0.20278062354E+04  0.25500000920E-02 0. -1.
    10030    2    1    2    0    0  0.00000000000E+00  0.00000000000E+00 -0.18797836988E+04  0.21758287720E+04  0.10957390615E+04 0.  0.
        4    1    3    3  502    0  0.43890459688E+03  0.24388972301E+03 -0.50466174770E+03  0.71190205411E+03  0.12699999809E+01 0.  1.
       -4    1    3    3    0  502 -0.43890459688E+03 -0.24388972301E+03 -0.13751219511E+04  0.14639267179E+04  0.12699999809E+01 0. -1.
</event>
<event>
 5   0  0.6264830E-04  0.1104342E+04  0.7818609E-02  0.9200970E-01
       -2   -1    0    0    0  501  0.00000000000E+00  0.00000000000E+00  0.30447131299E+03  0.30447131300E+03  0.25500000920E-02 0. -1.
        2   -1    0    0  501    0  0.00000000000E+00  0.00000000000E+00 -0.10013848935E+04  0.10013848935E+04  0.25500000920E-02 0.  1.
    10030    2    1    2    0    0  0.00000000000E+00  0.00000000000E+00 -0.69691358046E+03  0.13058562065E+04  0.11043422899E+04 0.  0.
        4    1    3    3  502    0  0.22185488432E+03 -0.11025117948E+03 -0.93197686872E+03  0.96434299345E+03  0.12699999809E+01 0.  1.
       -4    1    3    3    0  502 -0.22185488432E+03  0.11025117948E+03  0.23506328826E+03  0.34151321301E+03  0.12699999809E+01 0. -1.
</event>
<event>
 5   0  0.3523525E-04  0.1100353E+04  0.7818609E-02  0.9204848E-01
       -1   -1    0    0    0  501  0.00000000000E+00  0.00000000000E+00  0.34398592095E+03  0.34398592099E+03  0.50400001928E-02 0.  1.
        1   -1    0    0  501    0  0.00000000000E+00  0.00000000000E+00 -0.87996026806E+03  0.87996026807E+03  0.50400001928E-02 0. -1.
    10030    2    1    2    0    0  0.00000000000E+00  0.00000000000E+00 -0.53597434710E+03  0.12239461891E+04  0.11003525676E+04 0.  0.
        5    1    3    3  502    0 -0.28264739927E+03 -0.44176053888E+03 -0.45288011587E+03  0.69293896944E+03  0.46999998093E+01 0.  1.
       -5    1    3    3    0  502  0.28264739927E+03  0.44176053888E+03 -0.83094231239E+02  0.53100721962E+03  0.46999998093E+01 0. -1.
</event>
<event>
 5   0  0.3621403E-04  0.1102026E+04  0.7818609E-02  0.9203219E-01
        1   -1    0    0  501    0  0.00000000000E+00  0.00000000000E+00  0.91974333722E+03  0.91974333723E+03  0.50400001928E-02 0. -1.
       -1   -1    0    0    0  501  0.00000000000E+00  0.00000000000E+00 -0.33010893068E+03  0.33010893072E+03  0.50400001928E-02 0.  1.
    10030    2    1    2    0    0  0.00000000000E+00  0.00000000000E+00  0.58963440654E+03  0.12498522679E+04  0.11020262966E+04 0.  0.
        3    1    3    3  502    0 -0.14343794106E+03  0.50224759644E+03  0.95813937944E+02  0.53104370062E+03  0.10100000352E+00 0.  1.
       -3    1    3    3    0  502  0.14343794106E+03 -0.50224759644E+03  0.49382046860E+03  0.71880856733E+03  0.10100000352E+00 0. -1.
</event>
<event>
 5   0  0.6264830E-04  0.1100865E+04  0.7818609E-02  0.9204349E-01
        2   -1    0    0  501    0  0.00000000000E+00  0.00000000000E+00  0.47966915201E+03  0.47966915201E+03  0.25500000920E-02 0. -1.
       -2   -1    0    0    0  501  0.00000000000E+00  0.00000000000E+00 -0.63163527930E+03  0.63163527930E+03  0.25500000920E-02 0.  1.
    10030    2    1    2    0    0  0.00000000000E+00  0.00000000000E+00 -0.15196612729E+03  0.11113044313E+04  0.11008650395E+04 0.  0.
        4    1    3    3  502    0  0.27135847802E+03 -0.19856132595E+03 -0.51590491894E+03  0.61580964757E+03  0.12699999809E+01 0.  1.
       -4    1    3    3    0  502 -0.27135847802E+03  0.19856132595E+03  0.36393879164E+03  0.49549478375E+03  0.12699999809E+01 0. -1.
</event>
<event>
 5   0  0.6245176E-04  0.1099810E+04  0.7818609E-02  0.9205377E-01
       -2   -1    0    0    0  501  0.00000000000E+00  0.00000000000E+00  0.13534508362E+03  0.13534508364E+03  0.25500000920E-02 0. -1.
        2   -1    0    0  501    0  0.00000000000E+00  0.00000000000E+00 -0.22342539601E+04  0.22342539601E+04  0.25500000920E-02 0.  1.
    10030    2    1    2    0    0  0.00000000000E+00  0.00000000000E+00 -0.20989088765E+04  0.23695990438E+04  0.10998096000E+04 0.  0.
        5    1    3    3  502    0 -0.61136082020E+02 -0.47221834476E+03 -0.45687215896E+03  0.65991063432E+03  0.46999998093E+01 0. -1.
       -5    1    3    3    0  502  0.61136082020E+02  0.47221834476E+03 -0.16420367175E+04  0.17096884094E+04  0.46999998093E+01 0.  1.
</event>
<event>
 5   0  0.3523525E-04  0.1106146E+04  0.7818609E-02  0.9199222E-01
        1   -1    0    0  501    0  0.00000000000E+00  0.00000000000E+00  0.77700577810E+03  0.77700577812E+03  0.50400001928E-02 0. -1.
       -1   -1    0    0    0  501  0.00000000000E+00  0.00000000000E+00 -0.39367779895E+03  0.39367779898E+03  0.50400001928E-02 0.  1.
    10030    2    1    2    0    0  0.00000000000E+00  0.00000000000E+00  0.38332797915E+03  0.11706835771E+04  0.11061463276E+04 0.  0.
        5    1    3    3  502    0 -0.18159453457E+03  0.62676384418E+02  0.74053862037E+03  0.76506499228E+03  0.46999998093E+01 0. -1.
       -5    1    3    3    0  502  0.18159453457E+03 -0.62676384418E+02 -0.35721064122E+03  0.40561858482E+03  0.46999998093E+01 0.  1.
</event>
<event>
 5   0  0.3621403E-04  0.1099736E+04  0.7818609E-02  0.9205450E-01
        1   -1    0    0  501    0  0.00000000000E+00  0.00000000000E+00  0.11871622497E+04  0.11871622497E+04  0.50400001928E-02 0.  1.
       -1   -1    0    0    0  501  0.00000000000E+00  0.00000000000E+00 -0.25468687848E+03  0.25468687853E+03  0.50400001928E-02 0. -1.
    10030    2    1    2    0    0  0.00000000000E+00  0.00000000000E+00  0.93247537119E+03  0.14418491282E+04  0.10997356913E+04 0.  0.
        3    1    3    3  502    0 -0.44864888059E+03  0.31775725510E+03  0.45318290337E+03  0.71248175088E+03  0.10100000352E+00 0. -1.
       -3    1    3    3    0  502  0.44864888059E+03 -0.31775725510E+03  0.47929246782E+03  0.72936737735E+03  0.10100000352E+00 0.  1.
</event>
<event>
 5   0  0.6412712E-04  0.1101810E+04  0.7818609E-02  0.9203430E-01
       -2   -1    0    0    0  501  0.00000000000E+00  0.00000000000E+00  0.60899337025E+03  0.60899337026E+03  0.25500000920E-02 0. -1.
        2   -1    0    0  501    0  0.00000000000E+00  0.00000000000E+00 -0.49835731984E+03  0.49835731984E+03  0.25500000920E-02 0.  1.
    10030    2    1    2    0    0  0.00000000000E+00  0.00000000000E+00  0.11063605042E+03  0.11073506901E+04  0.11018099724E+04 0.  0.
        2    1    3    3  502    0  0.17544376112E+03 -0.51531335608E+03  0.14040743809E+03  0.56217667770E+03  0.25500000920E-02 0. -1.
       -2    1    3    3    0  502 -0.17544376112E+03  0.51531335608E+03 -0.29771387672E+02  0.54517401240E+03  0.25500000920E-02 0.  1.
</event>
<event>
 5   0  0.6245176E-04  0.1089280E+04  0.7818609E-02  0.9215704E-01
       -2   -1    0    0    0  501  0.00000000000E+00  0.00000000000E+00  0.32895034779E+03  0.32895034780E+03  0.25500000920E-02 0.  1.
        2   -1    0    0  501    0  0.00000000000E+00  0.00000000000E+00 -0.90175557494E+03  0.90175557494E+03  0.25500000920E-02 0. -1.
    10030    2    1    2    0    0  0.00000000000E+00  0.00000000000E+00 -0.57280522715E+03  0.12307059227E+04  0.10892801476E+04 0.  0.
        5    1    3    3  502    0 -0.43223241469E+03 -0.13919613437E+03 -0.62612459410E+03  0.77346914707E+03  0.46999998093E+01 0. -1.
       -5    1    3    3    0  502  0.43223241469E+03  0.13919613437E+03  0.53319366948E+02  0.45723677567E+03  0.46999998093E+01 0.  1.
</event>
<event>
 5   0  0.6109149E-04  0.1099410E+04  0.7818609E-02  0.9205767E-01
        2   -1    0    0  501    0  0.00000000000E+00  0.00000000000E+00  0.88032661293E+03  0.88032661293E+03  0.25500000920E-02 0. -1.
       -2   -1    0    0    0  501  0.00000000000E+00  0.00000000000E+00 -0.34325415502E+03  0.34325415503E+03  0.25500000920E-02 0.  1.
    10030    2    1    2    0    0  0.00000000000E+00  0.00000000000E+00  0.53707245791E+03  0.12235807680E+04  0.10994103286E+04 0.  0.
        1    1    3    3  502    0 -0.25308939075E+03  0.22937727685E+03  0.74788726950E+03  0.82219434610E+03  0.50400001928E-02 0. -1.
       -1    1    3    3    0  502  0.25308939075E+03 -0.22937727685E+03 -0.21081481159E+03  0.40138642187E+03  0.50400001928E-02 0.  1.
</event>
<event>
 5   0  0.6264830E-04  0.1120709E+04  0.7818609E-02  0.9185239E-01
       -2   -1    0    0    0  501  0.00000000000E+00  0.00000000000E+00  0.37163517957E+03  0.37163517957E+03  0.25500000920E-02 0.  1.
        2   -1    0    0  501    0  0.00000000000E+00  0.00000000000E+00 -0.84490758602E+03  0.84490758602E+03  0.25500000920E-02 0. -1.
    10030    2    1    2    0    0  0.00000000000E+00  0.00000000000E+00 -0.47327240645E+03  0.12165427656E+04  0.11207093869E+04 0.  0.
        4    1    3    3  502    0  0.30753187520E+03  0.93948914279E+02  0.26151005155E+03  0.41447722822E+03  0.12699999809E+01 0.  1.
       -4    1    3    3    0  502 -0.30753187520E+03 -0.93948914279E+02 -0.73478245800E+03  0.80206553737E+03  0.12699999809E+01 0. -1.
</event>
<event>
 5   0  0.6245176E-04  0.1100294E+04  0.7818609E-02  0.9204906E-01
       -2   -1    0    0    0  501  0.00000000000E+00  0.00000000000E+00  0.67969549145E+03  0.67969549145E+03  0.25500000920E-02 0.  1.
        2   -1    0    0  501    0  0.00000000000E+00  0.00000000000E+00 -0.44528997752E+03  0.44528997752E+03  0.25500000920E-02 0. -1.
    10030    2    1    2    0    0  0.00000000000E+00  0.00000000000E+00  0.23440551393E+03  0.11249854690E+04  0.11002937610E+04 0.  0.
        5    1    3    3  502    0  0.49849012556E+03  0.18537369376E+03 -0.26608173128E+02  0.53252783636E+03  0.46999998093E+01 0. -1.
       -5    1    3    3    0  502 -0.49849012556E+03 -0.18537369376E+03  0.26101368706E+03  0.59245763262E+03  0.46999998093E+01 0.  1.
</event>
<event>
 5   0  0.5948818E-04  0.1102540E+04  0.7818609E-02  0.9202720E-01
        2   -1    0    0  501    0  0.00000000000E+00  0.00000000000E+00  0.44416247897E+03  0.44416247898E+03  0.25500000920E-02 0.  1.
       -2   -1    0    0    0  501  0.00000000000E+00  0.00000000000E+00 -0.68420538819E+03  0.68420538820E+03  0.25500000920E-02 0. -1.
    10030    2    1    2    0    0  0.00000000000E+00  0.00000000000E+00 -0.24004290922E+03  0.11283678672E+04  0.11025395437E+04 0.  0.
        3    1    3    3  502    0  0.13383543490E+03 -0.48089895955E+03  0.11938726798E+03  0.51325341001E+03  0.10100000352E+00 0.  1.
       -3    1    3    3    0  502 -0.13383543490E+03  0.48089895955E+03 -0.35943017720E+03  0.61511445717E+03  0.10100000352E+00 0. -1.
</event>
<event>
 5   0  0.3642161E-04  0.1098907E+04  0.7818609E-02  0.9206258E-01
        1   -1    0    0  501    0  0.00000000000E+00  0.00000000000E+00  0.88408453352E+03  0.88408453354E+03  0.50400001928E-02 0.  1.
       -1   -1    0    0    0  501  0.00000000000E+00  0.00000000000E+00 -0.34148221350E+03  0.34148221354E+03  0.50400001928E-02 0. -1.
    10030    2    1    2    0    0  0.00000000000E+00  0.00000000000E+00  0.54260232002E+03  0.12255667471E+04  0.10989069905E+04 0.  0.
        2    1    3    3  502    0 -0.80645593233E+02  0.52305377675E+03  0.43600572695E+03  0.68570398790E+03  0.25500000920E-02 0.  1.
       -2    1    3    3    0  502  0.80645593233E+02 -0.52305377675E+03  0.10659659307E+03  0.53986275918E+03  0.25500000920E-02 0. -1.
</event>
<event>
 5   0  0.6245176E-04  0.1100062E+04  0.7818609E-02  0.9205131E-01
        2   -1    0    0  501    0  0.00000000000E+00  0.00000000000E+00  0.10827280127E+04  0.10827280127E+04  0.25500000920E-02 0. -1.
       -2   -1    0    0    0  501  0.00000000000E+00  0.00000000000E+00 -0.27941836764E+03  0.27941836765E+03  0.25500000920E-02 0.  1.
    10030    2    1    2    0    0  0.00000000000E+00  0.00000000000E+00  0.80330964506E+03  0.13621463804E+04  0.11000619872E+04 0.  0.
        5    1    3    3  502    0  0.50856749823E+03 -0.90003301039E+02  0.63584527501E+03  0.81918422727E+03  0.46999998093E+01 0. -1.
       -5    1    3    3    0  502 -0.50856749823E+03  0.90003301039E+02  0.16746437005E+03  0.54296215309E+03  0.46999998093E+01 0.  1.
</event>
<event>
 5   0  0.3523525E-04  0.1088637E+04  0.7818609E-02  0.9216338E-01
       -1   -1    0    0    0  501  0.00000000000E+00  0.00000000000E+00  0.39359449250E+03  0.39359449253E+03  0.50400001928E-02 0. -1.
        1   -1    0    0  501    0  0.00000000000E+00  0.00000000000E+00 -0.75276172437E+03  0.75276172438E+03  0.50400001928E-02 0.  1.
    10030    2    1    2    0    0  0.00000000000E+00  0.00000000000E+00 -0.35916723187E+03  0.11463562169E+04  0.10886374399E+04 0.  0.
        5    1    3    3  502    0 -0.12189125901E+03  0.25031955559E+03  0.31291364925E+03  0.41887277402E+03  0.46999998093E+01 0. -1.
       -5    1    3    3    0  502  0.12189125901E+03 -0.25031955559E+03 -0.67208088111E+03  0.72748344290E+03  0.46999998093E+01 0.  1.
</event>
<event>
 5   0  0.3523525E-04  0.1109531E+04  0.7818609E-02  0.9195952E-01
        1   -1    0    0  501    0  0.00000000000E+00  0.00000000000E+00  0.46268150763E+03  0.46268150766E+03  0.50400001928E-02 0. -1.
       -1   -1    0    0    0  501  0.00000000000E+00  0.00000000000E+00 -0.66517598068E+03  0.66517598070E+03  0.50400001928E-02 0.  1.
    10030    2    1    2    0    0  0.00000000000E+00  0.00000000000E+00 -0.20249447305E+03  0.11278574884E+04  0.11095307578E+04 0.  0.
        5    1    3    3  502    0  0.37232888194E+03  0.71297860200E+00  0.31677912958E+03  0.48887668344E+03  0.46999998093E+01 0. -1.
       -5    1    3    3    0  502 -0.37232888194E+03 -0.71297860200E+00 -0.51927360263E+03  0.63898080492E+03  0.46999998093E+01 0.  1.
</event>
<event>
 5   0  0.3523525E-04  0.1100486E+04  0.7818609E-02  0.9204718E-01
        1   -1    0    0  501    0  0.00000000000E+00  0.00000000000E+00  0.74130453692E+03  0.74130453693E+03  0.50400001928E-02 0.  1.
       -1   -1    0    0    0  501  0.00000000000E+00  0.00000000000E+00 -0.40842498515E+03  0.40842498519E+03  0.50400001928E-02 0. -1.
    10030    2    1    2    0    0  0.00000000000E+00  0.00000000000E+00  0.33287955176E+03  0.11497295221E+04  0.11004858827E+04 0.  0.
        5    1    3    3  502    0  0.36475983499E+03 -0.15862997996E+03  0.56362511429E+03  0.68986126665E+03  0.46999998093E+01 0.  1.
       -5    1    3    3    0  502 -0.36475983499E+03  0.15862997996E+03 -0.23074556253E+03  0.45986825547E+03  0.46999998093E+01 0. -1.
</event>
<event>
 5   0  0.3657529E-04  0.1098771E+04  0.7818609E-02  0.9206391E-01
       -1   -1    0    0    0  501  0.00000000000E+00  0.00000000000E+00  0.17329823115E+03  0.17329823122E+03  0.50400001928E-02 0.  1.
        1   -1    0    0  501    0  0.00000000000E+00  0.00000000000E+00 -0.17416472639E+04  0.17416472639E+04  0.50400001928E-02 0. -1.
    10030    2    1    2    0    0  0.00000000000E+00  0.00000000000E+00 -0.15683490327E+04  0.19149454951E+04  0.10987709319E+04 0.  0.
        4    1    3    3  502    0  0.24460766092E+03 -0.40001425591E+03 -0.12831729077E+04  0.13661546899E+04  0.12699999809E+01 0. -1.
       -4    1    3    3    0  502 -0.24460766092E+03  0.40001425591E+03 -0.28517612500E+03  0.54879080521E+03  0.12699999809E+01 0.  1.
</event>
<event>
 5   0  0.5948818E-04  0.1100563E+04  0.7818609E-02  0.9204643E-01
       -2   -1    0    0    0  501  0.00000000000E+00  0.00000000000E+00  0.11538554945E+04  0.11538554945E+04  0.25500000920E-02 0. -1.
        2   -1    0    0  501    0  0.00000000000E+00  0.00000000000E+00 -0.26243315367E+03  0.26243315368E+03  0.25500000920E-02 0.  1.
    10030    2    1    2    0    0  0.00000000000E+00  0.00000000000E+00  0.89142234087E+03  0.14162886482E+04  0.11005633763E+04 0.  0.
        3    1    3    3  502    0  0.20418057584E+03  0.50127348387E+03  0.57339828386E+03  0.78851151882E+03  0.10100000352E+00 0.  1.
       -3    1    3    3    0  502 -0.20418057584E+03 -0.50127348387E+03  0.31802405701E+03  0.62777712941E+03  0.10100000352E+00 0. -1.
</event>
<event>
 5   0  0.2403875E-04  0.1103718E+04  0.7818609E-02  0.9201576E-01
       -4   -1    0    0    0  501  0.00000000000E+00  0.00000000000E+00  0.90369508166E+03  0.90369597405E+03  0.12699999809E+01 0.  1.
        4   -1    0    0  501    0  0.00000000000E+00  0.00000000000E+00 -0.33700104913E+03  0.33700344214E+03  0.12699999809E+01 0. -1.
    10030    2    1    2    0    0  0.00000000000E+00  0.00000000000E+00  0.56669403253E+03  0.12406994162E+04  0.11037177696E+04 0.  0.
        2    1    3    3  502    0 -0.31986714562E+03 -0.43124649422E+03  0.42668615648E+03  0.68582038885E+03  0.25500000920E-02 0.  1.
       -2    1    3    3    0  502  0.31986714562E+03  0.43124649422E+03  0.14000787605E+03  0.55487902734E+03  0.25500000920E-02 0. -1.
</event>
<event>
 5   0  0.3657529E-04  0.1099422E+04  0.7818609E-02  0.9205755E-01
        1   -1    0    0  501    0  0.00000000000E+00  0.00000000000E+00  0.42712842019E+03  0.42712842022E+03  0.50400001928E-02 0.  1.
       -1   -1    0    0    0  501  0.00000000000E+00  0.00000000000E+00 -0.70747401190E+03  0.70747401192E+03  0.50400001928E-02 0. -1.
    10030    2    1    2    0    0  0.00000000000E+00  0.00000000000E+00 -0.28034559171E+03  0.11346024321E+04  0.10994221338E+04 0.  0.
        4    1    3    3  502    0 -0.67589995142E+01 -0.41487896805E+03 -0.51228017689E+03  0.65924413895E+03  0.12699999809E+01 0. -1.
       -4    1    3    3    0  502  0.67589995142E+01  0.41487896805E+03  0.23193458518E+03  0.47535829319E+03  0.12699999809E+01 0.  1.
</event>
<event>
 5   0  0.6264830E-04  0.1110348E+04  0.7818609E-02  0.9195164E-01
        2   -1    0    0  501    0  0.00000000000E+00  0.00000000000E+00  0.85093085106E+03  0.85093085106E+03  0.25500000920E-02 0.  1.
       -2   -1    0    0    0  501  0.00000000000E+00  0.00000000000E+00 -0.36221283466E+03  0.36221283467E+03  0.25500000920E-02 0. -1.
    10030    2    1    2    0    0  0.00000000000E+00  0.00000000000E+00  0.48871801640E+03  0.12131436857E+04  0.11103478296E+04 0.  0.
        4    1    3    3  502    0  0.19820621586E+03 -0.46890485390E+03  0.23605909946E+01  0.50908216558E+03  0.12699999809E+01 0. -1.
       -4    1    3    3    0  502 -0.19820621586E+03  0.46890485390E+03  0.48635742540E+03  0.70406152016E+03  0.12699999809E+01 0.  1.
</event>
<event>
 5   0  0.6412712E-04  0.1101390E+04  0.7818609E-02  0.9203838E-01
        2   -1    0    0  501    0  0.00000000000E+00  0.00000000000E+00  0.38816812769E+03  0.38816812770E+03  0.25500000920E-02 0. -1.
       -2   -1    0    0    0  501  0.00000000000E+00  0.00000000000E+00 -0.78127177651E+03  0.78127177651E+03  0.25500000920E-02 0.  1.
    10030    2    1    2    0    0  0.00000000000E+00  0.00000000000E+00 -0.39310364882E+03  0.11694399042E+04  0.11013896726E+04 0.  0.
        2    1    3    3  502    0  0.33208585809E+03 -0.27090610924E+03  0.17063830452E+03  0.46129011277E+03  0.25500000920E-02 0. -1.
       -2    1    3    3    0  502 -0.33208585809E+03  0.27090610924E+03 -0.56374195333E+03  0.70814979144E+03  0.25500000920E-02 0.  1.
</event>
<event>
 5   0  0.3657529E-04  0.1099242E+04  0.7818609E-02  0.9205931E-01
        1   -1    0    0  501    0  0.00000000000E+00  0.00000000000E+00  0.19529423438E+04  0.19529423438E+04  0.50400001928E-02 0. -1.
       -1   -1    0    0    0  501  0.00000000000E+00  0.00000000000E+00 -0.15468103701E+03  0.15468103709E+03  0.50400001928E-02 0.  1.
    10030    2    1    2    0    0  0.00000000000E+00  0.00000000000E+00  0.17982613068E+04  0.21076233809E+04  0.10992418242E+04 0.  0.
        4    1    3    3  502    0  0.31997692961E+03  0.42121851859E+03  0.11852664155E+04  0.12979477510E+04  0.12699999809E+01 0. -1.
       -4    1    3    3    0  502 -0.31997692961E+03 -0.42121851859E+03  0.61299489132E+03  0.80967562985E+03  0.12699999809E+01 0.  1.
</event>
<event>
 5   0  0.6245176E-04  0.1089290E+04  0.7818609E-02  0.9215694E-01
        2   -1    0    0  501    0  0.00000000000E+00  0.00000000000E+00  0.63537330568E+03  0.63537330568E+03  0.25500000920E-02 0.  1.
       -2   -1    0    0    0  501  0.00000000000E+00  0.00000000000E+00 -0.46687219598E+03  0.46687219598E+03  0.25500000920E-02 0. -1.
    10030    2    1    2    0    0  0.00000000000E+00  0.00000000000E+00  0.16850110970E+03  0.11022455017E+04  0.10892899164E+04 0.  0.
        5    1    3    3  502    0 -0.54250294215E+03 -0.47406567548E+02  0.92037245828E+02  0.55231310822E+03  0.46999998093E+01 0.  1.
       -5    1    3    3    0  502  0.54250294215E+03  0.47406567548E+02  0.76463863877E+02  0.54993239345E+03  0.46999998093E+01 0. -1.
</event>
<event>
 5   0  0.3621403E-04  0.1108612E+04  0.7818609E-02  0.9196838E-01
       -1   -1    0    0    0  501  0.00000000000E+00  0.00000000000E+00  0.57818675506E+03  0.57818675509E+03  0.50400001928E-02 0. -1.
        1   -1    0    0  501    0  0.00000000000E+00  0.00000000000E+00 -0.53141187810E+03  0.53141187813E+03  0.50400001928E-02 0.  1.
    10030    2    1    2    0    0  0.00000000000E+00  0.00000000000E+00  0.46774876962E+02  0.11095986332E+04  0.11086123027E+04 0.  0.
        3    1    3    3  502    0 -0.52727018713E+03  0.17046511393E+03  0.98441795662E+01  0.55422840362E+03  0.10100000352E+00 0. -1.
       -3    1    3    3    0  502  0.52727018713E+03 -0.17046511393E+03  0.36930697396E+02  0.55537022959E+03  0.10100000352E+00 0.  1.
</event>
<event>
 5   0  0.6264830E-04  0.1101266E+04  0.7818609E-02  0.9203959E-01
       -2   -1    0    0    0  501  0.00000000000E+00  0.00000000000E+00  0.43157894918E+03  0.43157894919E+03  0.25500000920E-02 0.  1.
        2   -1    0    0  501    0  0.00000000000E+00  0.00000000000E+00 -0.70252874834E+03  0.70252874835E+03  0.25500000920E-02 0. -1.
    10030    2    1    2    0    0  0.00000000000E+00  0.00000000000E+00 -0.27094979916E+03  0.11341076975E+04  0.11012658516E+04 0.  0.
        4    1    3    3  502    0 -0.89991253187E+02  0.12203219938E+03  0.40965480894E+03  0.43681684803E+03  0.12699999809E+01 0.  1.
       -4    1    3    3    0  502  0.89991253187E+02 -0.12203219938E+03 -0.68060460810E+03  0.69729084950E+03  0.12699999809E+01 0. -1.
</event>
<event>
 5   0  0.2403875E-04  0.1101268E+04  0.7818609E-02  0.9203957E-01
        3   -1    0    0  501    0  0.00000000000E+00  0.00000000000E+00  0.31042993634E+03  0.31042995277E+03  0.10100000352E+00 0. -1.
       -3   -1    0    0    0  501  0.00000000000E+00  0.00000000000E+00 -0.97670198314E+03  0.97670198837E+03  0.10100000352E+00 0.  1.
    10030    2    1    2    0    0  0.00000000000E+00  0.00000000000E+00 -0.66627204681E+03  0.12871319411E+04  0.11012675395E+04 0.  0.
        4    1    3    3  502    0 -0.10828217970E+03  0.32005767895E+03  0.17502362607E+03  0.38052178765E+03  0.12699999809E+01 0. -1.
       -4    1    3    3    0  502  0.10828217970E+03 -0.32005767895E+03 -0.84129567288E+03  0.90661015348E+03  0.12699999809E+01 0.  1.
</event>
<event>
 5   0  0.2403875E-04  0.1109676E+04  0.7818609E-02  0.9195812E-01
       -4   -1    0    0    0  501  0.00000000000E+00  0.00000000000E+00  0.24467970116E+03  0.24468299708E+03  0.12699999809E+01 0.  1.
        4   -1    0    0  501    0  0.00000000000E+00  0.00000000000E+00 -0.12581428768E+04  0.12581435178E+04  0.12699999809E+01 0. -1.
    10030    2    1    2    0    0  0.00000000000E+00  0.00000000000E+00 -0.10134631756E+04  0.15028265148E+04  0.11096755946E+04 0.  0.
        2    1    3    3  502    0  0.84827214548E+02  0.11485315266E+03 -0.12328376677E+04  0.12410784092E+04  0.25500000920E-02 0. -1.
       -2    1    3    3    0  502 -0.84827214548E+02 -0.11485315266E+03  0.21937449207E+03  0.26174810559E+03  0.25500000920E-02 0.  1.
</event>
<event>
 5   0  0.3423758E-04  0.1099493E+04  0.7818609E-02  0.9205686E-01
       -1   -1    0    0    0  501  0.00000000000E+00  0.00000000000E+00  0.33558439692E+03  0.33558439696E+03  0.50400001928E-02 0.  1.
        1   -1    0    0  501    0  0.00000000000E+00  0.00000000000E+00 -0.90058190398E+03  0.90058190399E+03  0.50400001928E-02 0. -1.
    10030    2    1    2    0    0  0.00000000000E+00  0.00000000000E+00 -0.56499750706E+03  0.12361663009E+04  0.10994930380E+04 0.  0.
        1    1    3    3  502    0  0.33126394076E+03 -0.43067938989E+03 -0.37656961993E+03  0.66107882586E+03  0.50400001928E-02 0. -1.
       -1    1    3    3    0  502 -0.33126394076E+03  0.43067938989E+03 -0.18842788713E+03  0.57508747508E+03  0.50400001928E-02 0.  1.
</event>
<event>
 5   0  0.3423758E-04  0.1099428E+04  0.7818609E-02  0.9205750E-01
        1   -1    0    0  501    0  0.00000000000E+00  0.00000000000E+00  0.20799922246E+04  0.20799922246E+04  0.50400001928E-02 0.  1.
       -1   -1    0    0    0  501  0.00000000000E+00  0.00000000000E+00 -0.14528190216E+03  0.14528190225E+03  0.50400001928E-02 0. -1.
    10030    2    1    2    0    0  0.00000000000E+00  0.00000000000E+00  0.19347103224E+04  0.22252741268E+04  0.10994275364E+04 0.  0.
        1    1    3    3  502    0  0.28458409209E+03  0.13616026938E+03  0.56187596840E+02  0.32044464497E+03  0.50400001928E-02 0. -1.
       -1    1    3    3    0  502 -0.28458409209E+03 -0.13616026938E+03  0.18785227256E+04  0.19048294818E+04  0.50400001928E-02 0.  1.
</event>
<event>
 5   0  0.3621403E-04  0.1100388E+04  0.7818609E-02  0.9204814E-01
       -1   -1    0    0    0  501  0.00000000000E+00  0.00000000000E+00  0.25806738437E+03  0.25806738442E+03  0.50400001928E-02 0. -1.
        1   -1    0    0  501    0  0.00000000000E+00  0.00000000000E+00 -0.11730013200E+04  0.11730013200E+04  0.50400001928E-02 0.  1.
    10030    2    1    2    0    0  0.00000000000E+00  0.00000000000E+00 -0.91493393562E+03  0.14310687044E+04  0.11003878999E+04 0.  0.
        3    1    3    3  502    0  0.13852189639E+03 -0.52037251991E+03 -0.31069040028E+03  0.62169478869E+03  0.10100000352E+00 0. -1.
       -3    1    3    3    0  502 -0.13852189639E+03  0.52037251991E+03 -0.60424353534E+03  0.80937391573E+03  0.10100000352E+00 0.  1.
</event>
<event>
 5   0  0.6264830E-04  0.1096398E+04  0.7818609E-02  0.9208709E-01
        2   -1    0    0  501    0  0.00000000000E+00  0.00000000000E+00  0.59864213841E+03  0.59864213842E+03  0.25500000920E-02 0. -1.
       -2   -1    0    0    0  501  0.00000000000E+00  0.00000000000E+00 -0.50200666507E+03  0.50200666508E+03  0.25500000920E-02 0.  1.
    10030    2    1    2    0    0  0.00000000000E+00  0.00000000000E+00  0.96635473343E+02  0.11006488035E+04  0.10963983646E+04 0.  0.
        4    1    3    3  502    0 -0.65340909826E+02  0.73472940984E+02 -0.49308092488E+03  0.50279033297E+03  0.12699999809E+01 0.  1.
       -4    1    3    3    0  502  0.65340909826E+02 -0.73472940984E+02  0.58971639822E+03  0.59785847053E+03  0.12699999809E+01 0. -1.
</event>
<event>
 5   0  0.6109149E-04  0.1101487E+04  0.7818609E-02  0.9203744E-01
       -2   -1    0    0    0  501  0.00000000000E+00  0.00000000000E+00  0.43094725535E+03  0.43094725536E+03  0.25500000920E-02 0.  1.
        2   -1    0    0  501    0  0.00000000000E+00  0.00000000000E+00 -0.70384074189E+03  0.70384074189E+03  0.25500000920E-02 0. -1.
    10030    2    1    2    0    0  0.00000000000E+00  0.00000000000E+00 -0.27289348654E+03  0.11347879972E+04  0.11014866970E+04 0.  0.
        1    1    3    3  502    0  0.28243959670E+03 -0.15935993261E+03 -0.59504572653E+03  0.67767774834E+03  0.50400001928E-02 0. -1.
       -1    1    3    3    0  502 -0.28243959670E+03  0.15935993261E+03  0.32215223999E+03  0.45711024891E+03  0.50400001928E-02 0.  1.
</event>
<event>
 5   0  0.2403875E-04  0.1101278E+04  0.7818609E-02  0.9203948E-01
       -4   -1    0    0    0  501  0.00000000000E+00  0.00000000000E+00  0.96254393716E+03  0.96254477499E+03  0.12699999809E+01 0.  1.
        4   -1    0    0  501    0  0.00000000000E+00  0.00000000000E+00 -0.31499954844E+03  0.31500210860E+03  0.12699999809E+01 0. -1.
    10030    2    1    2    0    0  0.00000000000E+00  0.00000000000E+00  0.64754438872E+03  0.12775468836E+04  0.11012775783E+04 0.  0.
        2    1    3    3  502    0  0.18895196434E+03 -0.74717393589E+02 -0.26992137274E+03  0.33785067885E+03  0.25500000920E-02 0. -1.
       -2    1    3    3    0  502 -0.18895196434E+03  0.74717393589E+02  0.91746576146E+03  0.93969620473E+03  0.25500000920E-02 0.  1.
</event>
<event>
 5   0  0.3642161E-04  0.1103410E+04  0.7818609E-02  0.9201874E-01
       -1   -1    0    0    0  501  0.00000000000E+00  0.00000000000E+00  0.83864999290E+03  0.83864999291E+03  0.50400001928E-02 0.  1.
        1   -1    0    0  501    0  0.00000000000E+00  0.00000000000E+00 -0.36293884408E+03  0.36293884411E+03  0.50400001928E-02 0. -1.
    10030    2    1    2    0    0  0.00000000000E+00  0.00000000000E+00  0.47571114882E+03  0.12015888370E+04  0.11034104568E+04 0.  0.
        2    1    3    3  502    0 -0.18049095111E+03  0.51158737989E+03  0.12852297690E+03  0.55750944951E+03  0.25500000920E-02 0.  1.
       -2    1    3    3    0  502  0.18049095111E+03 -0.51158737989E+03  0.34718817192E+03  0.64407938752E+03  0.25500000920E-02 0. -1.
</event>
<event>
 5   0  0.3523525E-04  0.1097859E+04  0.7818609E-02  0.9207281E-01
        1   -1    0    0  501    0  0.00000000000E+00  0.00000000000E+00  0.98807461144E+03  0.98807461145E+03  0.50400001928E-02 0.  1.
       -1   -1    0    0    0  501  0.00000000000E+00  0.00000000000E+00 -0.30496033817E+03  0.30496033821E+03  0.50400001928E-02 0. -1.
    10030    2    1    2    0    0  0.00000000000E+00  0.00000000000E+00  0.68311427328E+03  0.12930349497E+04  0.10978589485E+04 0.  0.
        5    1    3    3  502    0 -0.12152491929E+03  0.31040869726E+03  0.85518159521E+03  0.91786682919E+03  0.46999998093E+01 0.  1.
       -5    1    3    3    0  502  0.12152491929E+03 -0.31040869726E+03 -0.17206732193E+03  0.37516812047E+03  0.46999998093E+01 0. -1.
</event>
<event>
 5   0  0.6264830E-04  0.1096172E+04  0.7818609E-02  0.9208931E-01
       -2   -1    0    0    0  501  0.00000000000E+00  0.00000000000E+00  0.73844723973E+03  0.73844723974E+03  0.25500000920E-02 0.  1.
        2   -1    0    0  501    0  0.00000000000E+00  0.00000000000E+00 -0.40679748719E+03  0.40679748719E+03  0.25500000920E-02 0. -1.
    10030    2    1    2    0    0  0.00000000000E+00  0.00000000000E+00  0.33164975255E+03  0.11452447269E+04  0.10961723980E+04 0.  0.
        4    1    3    3  502    0 -0.94464122656E+02 -0.11911713194E+03 -0.38432654709E+03  0.41330481401E+03  0.12699999809E+01 0. -1.
       -4    1    3    3    0  502  0.94464122656E+02  0.11911713194E+03  0.71597629963E+03  0.73193991292E+03  0.12699999809E+01 0.  1.
</event>
<event>
 5   0  0.3621403E-04  0.1099875E+04  0.7818609E-02  0.9205314E-01
        1   -1    0    0  501    0  0.00000000000E+00  0.00000000000E+00  0.10487806812E+04  0.10487806812E+04  0.50400001928E-02 0.  1.
       -1   -1    0    0    0  501  0.00000000000E+00  0.00000000000E+00 -0.28836451287E+03  0.28836451292E+03  0.50400001928E-02 0. -1.
    10030    2    1    2    0    0  0.00000000000E+00  0.00000000000E+00  0.76041616835E+03  0.13371451942E+04  0.10998747752E+04 0.  0.
        3    1    3    3  502    0  0.34587651700E+03  0.40201971018E+02  0.89769059285E+03  0.96285781618E+03  0.10100000352E+00 0.  1.
       -3    1    3    3    0  502 -0.34587651700E+03 -0.40201971018E+02 -0.13727442450E+03  0.37428737797E+03  0.10100000352E+00 0. -1.
</event>
<event>
 5   0  0.6264830E-04  0.1093815E+04  0.7818609E-02  0.9211242E-01
       -2   -1    0    0    0  501  0.00000000000E+00  0.00000000000E+00  0.45726568562E+03  0.45726568563E+03  0.25500000920E-02 0.  1.
        2   -1    0    0  501    0  0.00000000000E+00  0.00000000000E+00 -0.65412219902E+03  0.65412219903E+03  0.25500000920E-02 0. -1.
    10030    2    1    2    0    0  0.00000000000E+00  0.00000000000E+00 -0.19685651341E+03  0.11113878847E+04  0.10938146750E+04 0.  0.
        4    1    3    3  502    0  0.15499571999E+03 -0.39591015083E+03 -0.44795717385E+03  0.61760486012E+03  0.12699999809E+01 0. -1.
       -4    1    3    3    0  502 -0.15499571999E+03  0.39591015083E+03  0.25110066044E+03  0.49378302453E+03  0.12699999809E+01 0.  1.
</event>
<event>
 5   0  0.3423758E-04  0.1101796E+04  0.7818609E-02  0.9203444E-01
        1   -1    0    0  501    0  0.00000000000E+00  0.00000000000E+00  0.42202974368E+03  0.42202974371E+03  0.50400001928E-02 0. -1.
       -1   -1    0    0    0  501  0.00000000000E+00  0.00000000000E+00 -0.71911612599E+03  0.71911612601E+03  0.50400001928E-02 0.  1.
    10030    2    1    2    0    0  0.00000000000E+00  0.00000000000E+00 -0.29708638230E+03  0.11411458697E+04  0.11017956151E+04 0.  0.
        1    1    3    3  502    0  0.25014576768E+03  0.48694375688E+03 -0.84686809819E+02  0.55394853844E+03  0.50400001928E-02 0. -1.
       -1    1    3    3    0  502 -0.25014576768E+03 -0.48694375688E+03 -0.21239957249E+03  0.58719733129E+03  0.50400001928E-02 0.  1.
</event>
<event>
 5   0  0.3423758E-04  0.1100323E+04  0.7818609E-02  0.9204877E-01
       -1   -1    0    0    0  501  0.00000000000E+00  0.00000000000E+00  0.18104157539E+03  0.18104157546E+03  0.50400001928E-02 0. -1.
        1   -1    0    0  501    0  0.00000000000E+00  0.00000000000E+00 -0.16718698193E+04  0.16718698193E+04  0.50400001928E-02 0.  1.
    10030    2    1    2    0    0  0.00000000000E+00  0.00000000000E+00 -0.14908282439E+04  0.18529113947E+04  0.11003234906E+04 0.  0.
        1    1    3    3  502    0  0.41063004594E+03  0.31564807881E+03 -0.43296081228E+03  0.67505985607E+03  0.50400001928E-02 0. -1.
       -1    1    3    3    0  502 -0.41063004594E+03 -0.31564807881E+03 -0.10578674316E+04  0.11778515387E+04  0.50400001928E-02 0.  1.
</event>
<event>
 5   0  0.6109149E-04  0.1097100E+04  0.7818609E-02  0.9208023E-01
       -2   -1    0    0    0  501  0.00000000000E+00  0.00000000000E+00  0.14311444704E+03  0.14311444706E+03  0.25500000920E-02 0.  1.
        2   -1    0    0  501    0  0.00000000000E+00  0.00000000000E+00 -0.21025614540E+04  0.21025614540E+04  0.25500000920E-02 0. -1.
    10030    2    1    2    0    0  0.00000000000E+00  0.00000000000E+00 -0.19594470070E+04  0.22456759011E+04  0.10970996671E+04 0.  0.
        1    1    3    3  502    0  0.37039922428E+03  0.36856639183E+03 -0.63800331042E+03  0.82467265909E+03  0.50400001928E-02 0. -1.
       -1    1    3    3    0  502 -0.37039922428E+03 -0.36856639183E+03 -0.13214436965E+04  0.14210032420E+04  0.50400001928E-02 0.  1.
</event>
<event>
 5   0  0.6109149E-04  0.1100002E+04  0.7818609E-02  0.9205190E-01
        2   -1    0    0  501    0  0.00000000000E+00  0.00000000000E+00  0.15183682199E+04  0.15183682199E+04  0.25500000920E-02 0.  1.
       -2   -1    0    0    0  501  0.00000000000E+00  0.00000000000E+00 -0.19922787113E+03  0.19922787114E+03  0.25500000920E-02 0. -1.
    10030    2    1    2    0    0  0.00000000000E+00  0.00000000000E+00  0.13191403487E+04  0.17175960910E+04  0.11000023055E+04 0.  0.
        1    1    3    3  502    0  0.38278392586E+03  0.17401289516E+03  0.10597750622E+03  0.43363031885E+03  0.50400001928E-02 0. -1.
       -1    1    3    3    0  502 -0.38278392586E+03 -0.17401289516E+03  0.12131628425E+04  0.12839657722E+04  0.50400001928E-02 0.  1.
</event>
<event>
 5   0  0.6264830E-04  0.1104020E+04  0.7818609E-02  0.9201282E-01
        2   -1    0    0  501    0  0.00000000000E+00  0.00000000000E+00  0.53169088036E+03  0.53169088037E+03  0.25500000920E-02 0. -1.
       -2   -1    0    0    0  501  0.00000000000E+00  0.00000000000E+00 -0.57310607650E+03  0.57310607650E+03  0.25500000920E-02 0.  1.
    10030    2    1    2    0    0  0.00000000000E+00  0.00000000000E+00 -0.41415196137E+02  0.11047969569E+04  0.11040204244E+04 0.  0.
        4    1    3    3  502    0 -0.51850569871E+03 -0.17058546829E+03 -0.10302176049E+03  0.55548416505E+03  0.12699999809E+01 0.  1.
       -4    1    3    3    0  502  0.51850569871E+03  0.17058546829E+03  0.61606564357E+02  0.54931279182E+03  0.12699999809E+01 0. -1.
</event>
<event>
 5   0  0.6264830E-04  0.1099365E+04  0.7818609E-02  0.9205811E-01
        2   -1    0    0  501    0  0.00000000000E+00  0.00000000000E+00  0.50966095767E+03  0.50966095767E+03  0.25500000920E-02 0. -1.
       -2   -1    0    0    0  501  0.00000000000E+00  0.00000000000E+00 -0.59284650286E+03  0.59284650287E+03  0.25500000920E-02 0.  1.
    10030    2    1    2    0    0  0.00000000000E+00  0.00000000000E+00 -0.83185545197E+02  0.11025074605E+04  0.10993647555E+04 0.  0.
        4    1    3    3  502    0  0.86075459043E+02  0.55039274289E+02  0.50005377479E+03  0.51038583145E+03  0.12699999809E+01 0. -1.
       -4    1    3    3    0  502 -0.86075459043E+02 -0.55039274289E+02 -0.58323931999E+03  0.59212162909E+03  0.12699999809E+01 0.  1.
</event>
<event>
 5   0  0.3423758E-04  0.1097391E+04  0.7818609E-02  0.9207738E-01
       -1   -1    0    0    0  501  0.00000000000E+00  0.00000000000E+00  0.51913367199E+03  0.51913367201E+03  0.50400001928E-02 0.  1.
        1   -1    0    0  501    0  0.00000000000E+00  0.00000000000E+00 -0.57994122658E+03  0.57994122660E+03  0.50400001928E-02 0. -1.
    10030    2    1    2    0    0  0.00000000000E+00  0.00000000000E+00 -0.60807554587E+02  0.10990748986E+04  0.10973914862E+04 0.  0.
        1    1    3    3  502    0  0.53737102562E+03 -0.80187185969E+02  0.46325850900E+02  0.54529229635E+03  0.50400001928E-02 0.  1.
       -1    1    3    3    0  502 -0.53737102562E+03  0.80187185969E+02 -0.10713340549E+03  0.55378260226E+03  0.50400001928E-02 0. -1.
</event>
<event>
 5   0  0.3621403E-04  0.1100994E+04  0.7818609E-02  0.9204224E-01
        1   -1    0    0  501    0  0.00000000000E+00  0.00000000000E+00  0.14029634518E+04  0.14029634519E+04  0.50400001928E-02 0. -1.
       -1   -1    0    0    0  501  0.00000000000E+00  0.00000000000E+00 -0.21600479214E+03  0.21600479220E+03  0.50400001928E-02 0.  1.
    10030    2    1    2    0    0  0.00000000000E+00  0.00000000000E+00  0.11869586597E+04  0.16189682440E+04  0.11009937854E+04 0.  0.
        3    1    3    3  502    0  0.28117635310E+03  0.18869923885E+03 -0.44740101161E+02  0.34156877951E+03  0.10100000352E+00 0.  1.
       -3    1    3    3    0  502 -0.28117635310E+03 -0.18869923885E+03  0.12316987609E+04  0.12773994645E+04  0.10100000352E+00 0. -1.
</event>
<event>
 5   0  0.6412712E-04  0.1102528E+04  0.7818609E-02  0.9202731E-01
        2   -1    0    0  501    0  0.00000000000E+00  0.00000000000E+00  0.77697614555E+03  0.77697614555E+03  0.25500000920E-02 0. -1.
       -2   -1    0    0    0  501  0.00000000000E+00  0.00000000000E+00 -0.39112162083E+03  0.39112162084E+03  0.25500000920E-02 0.  1.
    10030    2    1    2    0    0  0.00000000000E+00  0.00000000000E+00  0.38585452472E+03  0.11680977664E+04  0.11025283115E+04 0.  0.
        2    1    3    3  502    0  0.42474298787E+03 -0.27947859821E+03  0.41861536098E+03  0.65859981252E+03  0.25500000920E-02 0.  1.
       -2    1    3    3    0  502 -0.42474298787E+03  0.27947859821E+03 -0.32760836259E+02  0.50949795387E+03  0.25500000920E-02 0. -1.
</event>
<event>
 5   0  0.2403875E-04  0.1099616E+04  0.7818609E-02  0.9205566E-01
        3   -1    0    0  501    0  0.00000000000E+00  0.00000000000E+00  0.32794215185E+03  0.32794216740E+03  0.10100000352E+00 0. -1.
       -3   -1    0    0    0  501  0.00000000000E+00  0.00000000000E+00 -0.92177561554E+03  0.92177562108E+03  0.10100000352E+00 0.  1.
    10030    2    1    2    0    0  0.00000000000E+00  0.00000000000E+00 -0.59383346370E+03  0.12497177885E+04  0.10996164641E+04 0.  0.
        5    1    3    3  502    0 -0.11963914088E+03  0.43328473113E+03  0.62868384284E+02  0.45389834325E+03  0.46999998093E+01 0. -1.
       -5    1    3    3    0  502  0.11963914088E+03 -0.43328473113E+03 -0.65670184798E+03  0.79581944523E+03  0.46999998093E+01 0.  1.
</event>
<event>
 5   0  0.3642161E-04  0.1097888E+04  0.7818609E-02  0.9207253E-01
        1   -1    0    0  501    0  0.00000000000E+00  0.00000000000E+00  0.76459246273E+03  0.76459246275E+03  0.50400001928E-02 0.  1.
       -1   -1    0    0    0  501  0.00000000000E+00  0.00000000000E+00 -0.39411754535E+03  0.39411754538E+03  0.50400001928E-02 0. -1.
    10030    2    1    2    0    0  0.00000000000E+00  0.00000000000E+00  0.37047491738E+03  0.11587100081E+04  0.10978876165E+04 0.  0.
        2    1    3    3  502    0 -0.29349013879E+03 -0.25639020131E+03  0.59326492298E+03  0.70981382470E+03  0.25500000920E-02 0.  1.
       -2    1    3    3    0  502  0.29349013879E+03  0.25639020131E+03 -0.22279000560E+03  0.44889618342E+03  0.25500000920E-02 0. -1.
</event>
<event>
 5   0  0.3642161E-04  0.1098891E+04  0.7818609E-02  0.9206274E-01
       -1   -1    0    0    0  501  0.00000000000E+00  0.00000000000E+00  0.39792948847E+03  0.39792948850E+03  0.50400001928E-02 0. -1.
        1   -1    0    0  501    0  0.00000000000E+00  0.00000000000E+00 -0.75865231227E+03  0.75865231228E+03  0.50400001928E-02 0.  1.
    10030    2    1    2    0    0  0.00000000000E+00  0.00000000000E+00 -0.36072282380E+03  0.11565818008E+04  0.10988905798E+04 0.  0.
        2    1    3    3  502    0 -0.31663180590E+03 -0.68083377092E+02 -0.64750888353E+03  0.72398812214E+03  0.25500000920E-02 0.  1.
       -2    1    3    3    0  502  0.31663180590E+03  0.68083377092E+02  0.28678605973E+03  0.43259367865E+03  0.25500000920E-02 0. -1.
</event>
<event>
 5   0  0.3657529E-04  0.1100456E+04  0.7818609E-02  0.9204747E-01
       -1   -1    0    0    0  501  0.00000000000E+00  0.00000000000E+00  0.46145276851E+03  0.46145276853E+03  0.50400001928E-02 0.  1.
        1   -1    0    0  501    0  0.00000000000E+00  0.00000000000E+00 -0.65608213198E+03  0.65608213200E+03  0.50400001928E-02 0. -1.
    10030    2    1    2    0    0  0.00000000000E+00  0.00000000000E+00 -0.19462936348E+03  0.11175349005E+04  0.11004561167E+04 0.  0.
        4    1    3    3  502    0 -0.21053286774E+03 -0.47716821334E+03 -0.27535157153E+03  0.58977427298E+03  0.12699999809E+01 0.  1.
       -4    1    3    3    0  502  0.21053286774E+03  0.47716821334E+03  0.80722208053E+02  0.52776062756E+03  0.12699999809E+01 0. -1.
</event>
<event>
 5   0  0.6412712E-04  0.1101391E+04  0.7818609E-02  0.9203837E-01
        2   -1    0    0  501    0  0.00000000000E+00  0.00000000000E+00  0.40765515439E+03  0.40765515440E+03  0.25500000920E-02 0.  1.
       -2   -1    0    0    0  501  0.00000000000E+00  0.00000000000E+00 -0.74392644356E+03  0.74392644356E+03  0.25500000920E-02 0. -1.
    10030    2    1    2    0    0  0.00000000000E+00  0.00000000000E+00 -0.33627128916E+03  0.11515815980E+04  0.11013908465E+04 0.  0.
        2    1    3    3  502    0  0.28443364394E+03 -0.50877038087E+02 -0.65830017627E+03  0.71892286992E+03  0.25500000920E-02 0. -1.
       -2    1    3    3    0  502 -0.28443364394E+03  0.50877038087E+02  0.32202888711E+03  0.43265872804E+03  0.25500000920E-02 0.  1.
</event>
<event>
 5   0  0.3423758E-04  0.1099759E+04  0.7818609E-02  0.9205427E-01
       -1   -1    0    0    0  501  0.00000000000E+00  0.00000000000E+00  0.52596514614E+03  0.52596514617E+03  0.50400001928E-02 0.  1.
        1   -1    0    0  501    0  0.00000000000E+00  0.00000000000E+00 -0.57488091206E+03  0.57488091208E+03  0.50400001928E-02 0. -1.
    10030    2    1    2    0    0  0.00000000000E+00  0.00000000000E+00 -0.48915765917E+02  0.11008460582E+04  0.10997587425E+04 0.  0.
        1    1    3    3  502    0 -0.20675202420E+03  0.32103565679E+03 -0.42052196224E+03  0.56802201823E+03  0.50400001928E-02 0. -1.
       -1    1    3    3    0  502  0.20675202420E+03 -0.32103565679E+03  0.37160619632E+03  0.53282404001E+03  0.50400001928E-02 0.  1.
</event>
<event>
 5   0  0.6412712E-04  0.1097135E+04  0.7818609E-02  0.9207989E-01
        2   -1    0    0  501    0  0.00000000000E+00  0.00000000000E+00  0.93806123647E+03  0.93806123647E+03  0.25500000920E-02 0. -1.
       -2   -1    0    0    0  501  0.00000000000E+00  0.00000000000E+00 -0.32079616151E+03  0.32079616152E+03  0.25500000920E-02 0.  1.
    10030    2    1    2    0    0  0.00000000000E+00  0.00000000000E+00  0.61726507496E+03  0.12588573980E+04  0.10971352586E+04 0.  0.
        2    1    3    3  502    0  0.13053607098E+03 -0.82689272196E+02  0.91257402369E+03  0.92556389854E+03  0.25500000920E-02 0. -1.
       -2    1    3    3    0  502 -0.13053607098E+03  0.82689272196E+02 -0.29530894873E+03  0.33329349945E+03  0.25500000920E-02 0.  1.
</event>
<event>
 5   0  0.6412712E-04  0.1089368E+04  0.7818609E-02  0.9215617E-01
       -2   -1    0    0    0  501  0.00000000000E+00  0.00000000000E+00  0.19094989350E+03  0.19094989351E+03  0.25500000920E-02 0.  1.
        2   -1    0    0  501    0  0.00000000000E+00  0.00000000000E+00 -0.15537095338E+04  0.15537095338E+04  0.25500000920E-02 0. -1.
    10030    2    1    2    0    0  0.00000000000E+00  0.00000000000E+00 -0.13627596403E+04  0.17446594273E+04  0.10893680187E+04 0.  0.
        2    1    3    3  502    0  0.22564010176E+03 -0.49465207086E+03 -0.62858886065E+03  0.83109450874E+03  0.25500000920E-02 0.  1.
       -2    1    3    3    0  502 -0.22564010176E+03  0.49465207086E+03 -0.73417077964E+03  0.91356491856E+03  0.25500000920E-02 0. -1.
</event>
<event>
 5   0  0.6412712E-04  0.1101195E+04  0.7818609E-02  0.9204028E-01
        2   -1    0    0  501    0  0.00000000000E+00  0.00000000000E+00  0.83692238479E+03  0.83692238479E+03  0.25500000920E-02 0. -1.
       -2   -1    0    0    0  501  0.00000000000E+00  0.00000000000E+00 -0.36222891056E+03  0.36222891057E+03  0.25500000920E-02 0.  1.
    10030    2    1    2    0    0  0.00000000000E+00  0.00000000000E+00  0.47469347423E+03  0.11991512954E+04  0.11011947760E+04 0.  0.
        2    1    3    3  502    0  0.46758743775E+03  0.29021781611E+03  0.25598953255E+03  0.60695554492E+03  0.25500000920E-02 0. -1.
       -2    1    3    3    0  502 -0.46758743775E+03 -0.29021781611E+03  0.21870394169E+03  0.59219575044E+03  0.25500000920E-02 0.  1.
</event>
<event>
 5   0  0.6109149E-04  0.1097587E+04  0.7818609E-02  0.9207547E-01
        2   -1    0    0  501    0  0.00000000000E+00  0.00000000000E+00  0.11859135302E+04  0.11859135303E+04  0.25500000920E-02 0. -1.
       -2   -1    0    0    0  501  0.00000000000E+00  0.00000000000E+00 -0.25395970399E+03  0.25395970400E+03  0.25500000920E-02 0.  1.
    10030    2    1    2    0    0  0.00000000000E+00  0.00000000000E+00  0.93195382626E+03  0.14398732343E+04  0.10975868970E+04 0.  0.
        1    1    3    3  502    0 -0.54896165095E+02 -0.34718512934E+03 -0.86908489768E+02  0.36208312388E+03  0.50400001928E-02 0.  1.
       -1    1    3    3    0  502  0.54896165095E+02  0.34718512934E+03  0.10188623160E+04  0.10777901104E+04  0.50400001928E-02 0. -1.
</event>
<event>
 5   0  0.3642161E-04  0.1099457E+04  0.7818609E-02  0.9205721E-01
        1   -1    0    0  501    0  0.00000000000E+00  0.00000000000E+00  0.54272372307E+03  0.54272372309E+03  0.50400001928E-02 0.  1.
       -1   -1    0    0    0  501  0.00000000000E+00  0.00000000000E+00 -0.55682396952E+03  0.55682396954E+03  0.50400001928E-02 0. -1.
    10030    2    1    2    0    0  0.00000000000E+00  0.00000000000E+00 -0.14100246445E+02  0.10995476926E+04  0.10994572804E+04 0.  0.
        2    1    3    3  502    0  0.43272877624E+03  0.15929324727E+02  0.33164222209E+03  0.54543056447E+03  0.25500000920E-02 0.  1.
       -2    1    3    3    0  502 -0.43272877624E+03 -0.15929324727E+02 -0.34574246854E+03  0.55411712817E+03  0.25500000920E-02 0. -1.
</event>
<event>
 5   0  0.6264830E-04  0.1098109E+04  0.7818609E-02  0.9207037E-01
        2   -1    0    0  501    0  0.00000000000E+00  0.00000000000E+00  0.12431820589E+04  0.12431820589E+04  0.25500000920E-02 0. -1.
       -2   -1    0    0    0  501  0.00000000000E+00  0.00000000000E+00 -0.24249131441E+03  0.24249131442E+03  0.25500000920E-02 0.  1.
    10030    2    1    2    0    0  0.00000000000E+00  0.00000000000E+00  0.10006907445E+04  0.14856733733E+04  0.10981090138E+04 0.  0.
        4    1    3    3  502    0 -0.20437571534E+03 -0.40764645482E+03  0.91407498175E+03  0.10215085660E+04  0.12699999809E+01 0. -1.
       -4    1    3    3    0  502  0.20437571534E+03  0.40764645482E+03  0.86615762747E+02  0.46416480737E+03  0.12699999809E+01 0.  1.
</event>
<event>
 5   0  0.6245176E-04  0.1099389E+04  0.7818609E-02  0.9205787E-01
        2   -1    0    0  501    0  0.00000000000E+00  0.00000000000E+00  0.21586647361E+04  0.21586647361E+04  0.25500000920E-02 0. -1.
       -2   -1    0    0    0  501  0.00000000000E+00  0.00000000000E+00 -0.13997739198E+03  0.13997739200E+03  0.25500000920E-02 0.  1.
    10030    2    1    2    0    0  0.00000000000E+00  0.00000000000E+00  0.20186873441E+04  0.22986421281E+04  0.10993893940E+04 0.  0.
        5    1    3    3  502    0 -0.54108270514E+03  0.68738744310E+02  0.11518684330E+04  0.12744875385E+04  0.46999998093E+01 0. -1.
       -5    1    3    3    0  502  0.54108270514E+03 -0.68738744310E+02  0.86681891108E+03  0.10241545896E+04  0.46999998093E+01 0.  1.
</event>
<event>
 5   0  0.3621403E-04  0.1098333E+04  0.7818609E-02  0.9206818E-01
       -1   -1    0    0    0  501  0.00000000000E+00  0.00000000000E+00  0.59147581352E+03  0.59147581355E+03  0.50400001928E-02 0.  1.
        1   -1    0    0  501    0  0.00000000000E+00  0.00000000000E+00 -0.50988377522E+03  0.50988377525E+03  0.50400001928E-02 0. -1.
    10030    2    1    2    0    0  0.00000000000E+00  0.00000000000E+00  0.81592038303E+02  0.11013595888E+04  0.10983331385E+04 0.  0.
        3    1    3    3  502    0  0.34542281041E+03  0.30274899329E+03  0.34264047992E+03  0.57304134194E+03  0.10100000352E+00 0.  1.
       -3    1    3    3    0  502 -0.34542281041E+03 -0.30274899329E+03 -0.26104844161E+03  0.52831824685E+03  0.10100000352E+00 0. -1.
</event>
<event>
 5   0  0.6245176E-04  0.1102075E+04  0.7818609E-02  0.9203172E-01
       -2   -1    0    0    0  501  0.00000000000E+00  0.00000000000E+00  0.46236196691E+03  0.46236196691E+03  0.25500000920E-02 0. -1.
        2   -1    0    0  501    0  0.00000000000E+00  0.00000000000E+00 -0.65671950142E+03  0.65671950142E+03  0.25500000920E-02 0.  1.
    10030    2    1    2    0    0  0.00000000000E+00  0.00000000000E+00 -0.19435753451E+03  0.11190814683E+04  0.11020746261E+04 0.  0.
        5    1    3    3  502    0  0.46373897192E+03 -0.27417793819E+03  0.20333724058E+02  0.53913164088E+03  0.46999998093E+01 0. -1.
       -5    1    3    3    0  502 -0.46373897192E+03  0.27417793819E+03 -0.21469125857E+03  0.57994982746E+03  0.46999998093E+01 0.  1.
</event>
<event>
 5   0  0.3523525E-04  0.1093700E+04  0.7818609E-02  0.9211354E-01
       -1   -1    0    0    0  501  0.00000000000E+00  0.00000000000E+00  0.79262663394E+03  0.79262663395E+03  0.50400001928E-02 0. -1.
        1   -1    0    0  501    0  0.00000000000E+00  0.00000000000E+00 -0.37728324841E+03  0.37728324845E+03  0.50400001928E-02 0.  1.
    10030    2    1    2    0    0  0.00000000000E+00  0.00000000000E+00  0.41534338552E+03  0.11699098824E+04  0.10936996869E+04 0.  0.
        5    1    3    3  502    0  0.41842725981E+03  0.35200397791E+03  0.21395364922E+03  0.58718517201E+03  0.46999998093E+01 0.  1.
       -5    1    3    3    0  502 -0.41842725981E+03 -0.35200397791E+03  0.20138973630E+03  0.58272471039E+03  0.46999998093E+01 0. -1.
</event>
<event>
 5   0  0.6245176E-04  0.1100998E+04  0.7818609E-02  0.9204220E-01
        2   -1    0    0  501    0  0.00000000000E+00  0.00000000000E+00  0.53141127525E+03  0.53141127525E+03  0.25500000920E-02 0. -1.
       -2   -1    0    0    0  501  0.00000000000E+00  0.00000000000E+00 -0.57027221968E+03  0.57027221969E+03  0.25500000920E-02 0.  1.
    10030    2    1    2    0    0  0.00000000000E+00  0.00000000000E+00 -0.38860944438E+02  0.11016834949E+04  0.11009978883E+04 0.  0.
        5    1    3    3  502    0 -0.40417560669E+03 -0.36348514839E+03  0.67500686227E+02  0.54777532510E+03  0.46999998093E+01 0.  1.
       -5    1    3    3    0  502  0.40417560669E+03  0.36348514839E+03 -0.10636163067E+03  0.55390816985E+03  0.46999998093E+01 0. -1.
</event>
<event>
 5   0  0.6412712E-04  0.1098536E+04  0.7818609E-02  0.9206620E-01
       -2   -1    0    0    0  501  0.00000000000E+00  0.00000000000E+00  0.54878446023E+03  0.54878446024E+03  0.25500000920E-02 0. -1.
        2   -1    0    0  501    0  0.00000000000E+00  0.00000000000E+00 -0.54975160160E+03  0.54975160161E+03  0.25500000920E-02 0.  1.
    10030    2    1    2    0    0  0.00000000000E+00  0.00000000000E+00 -0.96714137022E+00  0.10985360618E+04  0.10985356361E+04 0.  0.
        2    1    3    3  502    0 -0.22237804800E+03  0.49971728096E+03 -0.50740717279E+02  0.54931227687E+03  0.25500000920E-02 0.  1.
       -2    1    3    3    0  502  0.22237804800E+03 -0.49971728096E+03  0.49773575908E+02  0.54922378498E+03  0.25500000920E-02 0. -1.
</event>
<event>
 5   0  0.3423758E-04  0.1099683E+04  0.7818609E-02  0.9205501E-01
        1   -1    0    0  501    0  0.00000000000E+00  0.00000000000E+00  0.18211359543E+03  0.18211359550E+03  0.50400001928E-02 0. -1.
       -1   -1    0    0    0  501  0.00000000000E+00  0.00000000000E+00 -0.16600931261E+04  0.16600931261E+04  0.50400001928E-02 0.  1.
    10030    2    1    2    0    0  0.00000000000E+00  0.00000000000E+00 -0.14779795307E+04  0.18422067216E+04  0.10996827325E+04 0.  0.
        1    1    3    3  502    0  0.39280424388E+03  0.23830116973E+03 -0.12450130628E+04  0.13270795561E+04  0.50400001928E-02 0. -1.
       -1    1    3    3    0  502 -0.39280424388E+03 -0.23830116973E+03 -0.23296646785E+03  0.51512716554E+03  0.50400001928E-02 0.  1.
</event>
<event>
 5   0  0.3423758E-04  0.1096066E+04  0.7818609E-02  0.9209035E-01
        1   -1    0    0  501    0  0.00000000000E+00  0.00000000000E+00  0.13945414844E+04  0.13945414844E+04  0.50400001928E-02 0.  1.
       -1   -1    0    0    0  501  0.00000000000E+00  0.00000000000E+00 -0.21536835433E+03  0.21536835439E+03  0.50400001928E-02 0. -1.
    10030    2    1    2    0    0  0.00000000000E+00  0.00000000000E+00  0.11791731301E+04  0.16099098388E+04  0.10960658823E+04 0.  0.
        1    1    3    3  502    0 -0.13054373872E+03 -0.53129792376E+03  0.63651842701E+03  0.83933000628E+03  0.50400001928E-02 0.  1.
       -1    1    3    3    0  502  0.13054373872E+03  0.53129792376E+03  0.54265470308E+03  0.77057983254E+03  0.50400001928E-02 0. -1.
</event>
<event>
 5   0  0.6264830E-04  0.1100201E+04  0.7818609E-02  0.9204996E-01
       -2   -1    0    0    0  501  0.00000000000E+00  0.00000000000E+00  0.18708226367E+03  0.18708226369E+03  0.25500000920E-02 0. -1.
        2   -1    0    0  501    0  0.00000000000E+00  0.00000000000E+00 -0.16175281247E+04  0.16175281247E+04  0.25500000920E-02 0.  1.
    10030    2    1    2    0    0  0.00000000000E+00  0.00000000000E+00 -0.14304458611E+04  0.18046103884E+04  0.11002014782E+04 0.  0.
        4    1    3    3  502    0  0.31612700071E+03 -0.13393397253E+03 -0.10229004059E+02  0.34348338388E+03  0.12699999809E+01 0. -1.
       -4    1    3    3    0  502 -0.31612700071E+03  0.13393397253E+03 -0.14202168570E+04  0.14611270045E+04  0.12699999809E+01 0.  1.
</event>
<event>
 5   0  0.6264830E-04  0.1099710E+04  0.7818609E-02  0.9205474E-01
        2   -1    0    0  501    0  0.00000000000E+00  0.00000000000E+00  0.85106951928E+03  0.85106951928E+03  0.25500000920E-02 0.  1.
       -2   -1    0    0    0  501  0.00000000000E+00  0.00000000000E+00 -0.35524779505E+03  0.35524779506E+03  0.25500000920E-02 0. -1.
    10030    2    1    2    0    0  0.00000000000E+00  0.00000000000E+00  0.49582172423E+03  0.12063173143E+04  0.10997100894E+04 0.  0.
        4    1    3    3  502    0  0.30961406272E+03  0.17432336819E+03 -0.21239872857E+03  0.41396175829E+03  0.12699999809E+01 0. -1.
       -4    1    3    3    0  502 -0.30961406272E+03 -0.17432336819E+03  0.70822045280E+03  0.79235555605E+03  0.12699999809E+01 0.  1.
</event>
<event>
 5   0  0.6109149E-04  0.1099637E+04  0.7818609E-02  0.9205545E-01
        2   -1    0    0  501    0  0.00000000000E+00  0.00000000000E+00  0.67704897082E+03  0.67704897083E+03  0.25500000920E-02 0. -1.
       -2   -1    0    0    0  501  0.00000000000E+00  0.00000000000E+00 -0.44649730934E+03  0.44649730935E+03  0.25500000920E-02 0.  1.
    10030    2    1    2    0    0  0.00000000000E+00  0.00000000000E+00  0.23055166148E+03  0.11235462802E+04  0.10996372925E+04 0.  0.
        1    1    3    3  502    0  0.24621278848E+03  0.10072394324E+02 -0.38691700728E+03  0.45872318547E+03  0.50400001928E-02 0.  1.
       -1    1    3    3    0  502 -0.24621278848E+03 -0.10072394324E+02  0.61746866875E+03  0.66482309471E+03  0.50400001928E-02 0. -1.
</event>
<event>
 5   0  0.6245176E-04  0.1077660E+04  0.7818609E-02  0.9227243E-01
        2   -1    0    0  501    0  0.00000000000E+00  0.00000000000E+00  0.88293467414E+03  0.88293467414E+03  0.25500000920E-02 0.  1.
       -2   -1    0    0    0  501  0.00000000000E+00  0.00000000000E+00 -0.32883297298E+03  0.32883297299E+03  0.25500000920E-02 0. -1.
    10030    2    1    2    0    0  0.00000000000E+00  0.00000000000E+00  0.55410170116E+03  0.12117676471E+04  0.10776604917E+04 0.  0.
        5    1    3    3  502    0  0.25895675357E+03  0.39395528772E+03 -0.16289925058E+02  0.47174868373E+03  0.46999998093E+01 0. -1.
       -5    1    3    3    0  502 -0.25895675357E+03 -0.39395528772E+03  0.57039162622E+03  0.74001896340E+03  0.46999998093E+01 0.  1.
</event>
<event>
 5   0  0.3621403E-04  0.1100760E+04  0.7818609E-02  0.9204451E-01
        1   -1    0    0  501    0  0.00000000000E+00  0.00000000000E+00  0.28044009804E+03  0.28044009809E+03  0.50400001928E-02 0. -1.
       -1   -1    0    0    0  501  0.00000000000E+00  0.00000000000E+00 -0.10801536426E+04  0.10801536426E+04  0.50400001928E-02 0.  1.
    10030    2    1    2    0    0  0.00000000000E+00  0.00000000000E+00 -0.79971354455E+03  0.13605937407E+04  0.11007604525E+04 0.  0.
        3    1    3    3  502    0 -0.19696333715E+02  0.63977968410E+02  0.27538946156E+03  0.28340870090E+03  0.10100000352E+00 0. -1.
       -3    1    3    3    0  502  0.19696333715E+02 -0.63977968410E+02 -0.10751030061E+04  0.10771850398E+04  0.10100000352E+00 0.  1.
</event>
<event>
 5   0  0.3423758E-04  0.1100350E+04  0.7818609E-02  0.9204851E-01
        1   -1    0    0  501    0  0.00000000000E+00  0.00000000000E+00  0.70460506238E+03  0.70460506239E+03  0.50400001928E-02 0.  1.
       -1   -1    0    0    0  501  0.00000000000E+00  0.00000000000E+00 -0.42959172091E+03  0.42959172094E+03  0.50400001928E-02 0. -1.
    10030    2    1    2    0    0  0.00000000000E+00  0.00000000000E+00  0.27501334147E+03  0.11341967833E+04  0.11003499468E+04 0.  0.
        1    1    3    3  502    0 -0.48384384614E+03  0.18236636668E+03 -0.56238228243E+02  0.52012027213E+03  0.50400001928E-02 0.  1.
       -1    1    3    3    0  502  0.48384384614E+03 -0.18236636668E+03  0.33125156971E+03  0.61407651120E+03  0.50400001928E-02 0. -1.
</event>
<event>
 5   0  0.6412712E-04  0.1111379E+04  0.7818609E-02  0.9194171E-01
       -2   -1    0    0    0  501  0.00000000000E+00  0.00000000000E+00  0.36989236478E+03  0.36989236478E+03  0.25500000920E-02 0. -1.
        2   -1    0    0  501    0  0.00000000000E+00  0.00000000000E+00 -0.83481321436E+03  0.83481321436E+03  0.25500000920E-02 0.  1.
    10030    2    1    2    0    0  0.00000000000E+00  0.00000000000E+00 -0.46492084958E+03  0.12047055791E+04  0.11113793844E+04 0.  0.
        2    1    3    3  502    0  0.34957708752E+03 -0.43862741324E+02  0.23334921741E+03  0.42258719510E+03  0.25500000920E-02 0. -1.
       -2    1    3    3    0  502 -0.34957708752E+03  0.43862741324E+02 -0.69827006699E+03  0.78211838404E+03  0.25500000920E-02 0.  1.
</event>
<event>
 5   0  0.3523525E-04  0.1098550E+04  0.7818609E-02  0.9206606E-01
        1   -1    0    0  501    0  0.00000000000E+00  0.00000000000E+00  0.35401475328E+03  0.35401475332E+03  0.50400001928E-02 0. -1.
       -1   -1    0    0    0  501  0.00000000000E+00  0.00000000000E+00 -0.85223257846E+03  0.85223257847E+03  0.50400001928E-02 0.  1.
    10030    2    1    2    0    0  0.00000000000E+00  0.00000000000E+00 -0.49821782518E+03  0.12062473318E+04  0.10985497823E+04 0.  0.
        5    1    3    3  502    0 -0.30140674265E+03  0.11407110221E+03 -0.73748517726E+03  0.80483831764E+03  0.46999998093E+01 0.  1.
       -5    1    3    3    0  502  0.30140674265E+03 -0.11407110221E+03  0.23926735208E+03  0.40140901415E+03  0.46999998093E+01 0. -1.
</event>
<event>
 5   0  0.3423758E-04  0.1090483E+04  0.7818609E-02  0.9214517E-01
        1   -1    0    0  501    0  0.00000000000E+00  0.00000000000E+00  0.80148932675E+03  0.80148932677E+03  0.50400001928E-02 0. -1.
       -1   -1    0    0    0  501  0.00000000000E+00  0.00000000000E+00 -0.37092009649E+03  0.37092009652E+03  0.50400001928E-02 0.  1.
    10030    2    1    2    0    0  0.00000000000E+00  0.00000000000E+00  0.43056923027E+03  0.11724094233E+04  0.10904833762E+04 0.  0.
        1    1    3    3  502    0  0.15755538518E+03 -0.23314444624E+03  0.71739188898E+03  0.77060440864E+03  0.50400001928E-02 0. -1.
       -1    1    3    3    0  502 -0.15755538518E+03  0.23314444624E+03 -0.28682265872E+03  0.40180501464E+03  0.50400001928E-02 0.  1.
</event>
<event>
 5   0  0.3642161E-04  0.1100653E+04  0.7818609E-02  0.9204555E-01
       -1   -1    0    0    0  501  0.00000000000E+00  0.00000000000E+00  0.21058670612E+03  0.21058670618E+03  0.50400001928E-02 0.  1.
        1   -1    0    0  501    0  0.00000000000E+00  0.00000000000E+00 -0.14381697939E+04  0.14381697939E+04  0.50400001928E-02 0. -1.
    10030    2    1    2    0    0  0.00000000000E+00  0.00000000000E+00 -0.12275830878E+04  0.16487565001E+04  0.11006533329E+04 0.  0.
        2    1    3    3  502    0  0.19878778806E+03 -0.14947409488E+03  0.12159351930E+03  0.27684666092E+03  0.25500000920E-02 0.  1.
       -2    1    3    3    0  502 -0.19878778806E+03  0.14947409488E+03 -0.13491766071E+04  0.13719098392E+04  0.25500000920E-02 0. -1.
</event>
<event>
 5   0  0.6412712E-04  0.1099960E+04  0.7818609E-02  0.9205231E-01
       -2   -1    0    0    0  501  0.00000000000E+00  0.00000000000E+00  0.53182995079E+03  0.53182995080E+03  0.25500000920E-02 0. -1.
        2   -1    0    0  501    0  0.00000000000E+00  0.00000000000E+00 -0.56874981513E+03  0.56874981514E+03  0.25500000920E-02 0.  1.
    10030    2    1    2    0    0  0.00000000000E+00  0.00000000000E+00 -0.36919864339E+02  0.11005797659E+04  0.10999603378E+04 0.  0.
        2    1    3    3  502    0 -0.38339753549E+03 -0.95980595167E+02  0.36421098424E+03  0.53745286855E+03  0.25500000920E-02 0. -1.
       -2    1    3    3    0  502  0.38339753549E+03  0.95980595167E+02 -0.40113084858E+03  0.56312689738E+03  0.25500000920E-02 0.  1.
</event>
<event>
 5   0  0.5948818E-04  0.1111482E+04  0.7818609E-02  0.9194073E-01
        2   -1    0    0  501    0  0.00000000000E+00  0.00000000000E+00  0.14204019307E+04  0.14204019307E+04  0.25500000920E-02 0.  1.
       -2   -1    0    0    0  501  0.00000000000E+00  0.00000000000E+00 -0.21743706171E+03  0.21743706172E+03  0.25500000920E-02 0. -1.
    10030    2    1    2    0    0  0.00000000000E+00  0.00000000000E+00  0.12029648690E+04  0.16378389924E+04  0.11114819338E+04 0.  0.
        3    1    3    3  502    0 -0.43289899046E+01 -0.55520208252E+03  0.63696807495E+03  0.84498309527E+03  0.10100000352E+00 0. -1.
       -3    1    3    3    0  502  0.43289899046E+01  0.55520208252E+03  0.56599679406E+03  0.79285589717E+03  0.10100000352E+00 0.  1.
</event>
<event>
 5   0  0.3523525E-04  0.1099311E+04  0.7818609E-02  0.9205864E-01
       -1   -1    0    0    0  501  0.00000000000E+00  0.00000000000E+00  0.92986646321E+03  0.92986646322E+03  0.50400001928E-02 0. -1.
        1   -1    0    0  501    0  0.00000000000E+00  0.00000000000E+00 -0.32490792846E+03  0.32490792850E+03  0.50400001928E-02 0.  1.
    10030    2    1    2    0    0  0.00000000000E+00  0.00000000000E+00  0.60495853474E+03  0.12547743917E+04  0.10993106683E+04 0.  0.
        5    1    3    3  502    0 -0.38430636583E+03 -0.18876703638E+03  0.69585434825E+03  0.81704329189E+03  0.46999998093E+01 0. -1.
       -5    1    3    3    0  502  0.38430636583E+03  0.18876703638E+03 -0.90895813510E+02  0.43773109983E+03  0.46999998093E+01 0.  1.
</event>
<event>
 5   0  0.3423758E-04  0.1099641E+04  0.7818609E-02  0.9205541E-01
       -1   -1    0    0    0  501  0.00000000000E+00  0.00000000000E+00  0.32353907736E+03  0.32353907740E+03  0.50400001928E-02 0. -1.
        1   -1    0    0  501    0  0.00000000000E+00  0.00000000000E+00 -0.93436272564E+03  0.93436272565E+03  0.50400001928E-02 0.  1.
    10030    2    1    2    0    0  0.00000000000E+00  0.00000000000E+00 -0.61082364828E+03  0.12579018030E+04  0.10996414947E+04 0.  0.
        1    1    3    3  502    0 -0.21471148681E+03  0.29798967565E+03  0.16262337501E+03  0.40167801967E+03  0.50400001928E-02 0. -1.
       -1    1    3    3    0  502  0.21471148681E+03 -0.29798967565E+03 -0.77344702329E+03  0.85622378338E+03  0.50400001928E-02 0.  1.
</event>
<event>
 5   0  0.3621403E-04  0.1099094E+04  0.7818609E-02  0.9206076E-01
        1   -1    0    0  501    0  0.00000000000E+00  0.00000000000E+00  0.92097577563E+03  0.92097577564E+03  0.50400001928E-02 0. -1.
       -1   -1    0    0    0  501  0.00000000000E+00  0.00000000000E+00 -0.32791487173E+03  0.32791487177E+03  0.50400001928E-02 0.  1.
    10030    2    1    2    0    0  0.00000000000E+00  0.00000000000E+00  0.59306090390E+03  0.12488906474E+04  0.10990935417E+04 0.  0.
        3    1    3    3  502    0  0.10036910232E+03  0.29884645364E+03  0.80801119537E+03  0.86733226713E+03  0.10100000352E+00 0. -1.
       -3    1    3    3    0  502 -0.10036910232E+03 -0.29884645364E+03 -0.21495029147E+03  0.38155838028E+03  0.10100000352E+00 0.  1.
</event>
<event>
 5   0  0.6245176E-04  0.1100663E+04  0.7818609E-02  0.9204546E-01
       -2   -1    0    0    0  501  0.00000000000E+00  0.00000000000E+00  0.24672801393E+03  0.24672801395E+03  0.25500000920E-02 0.  1.
        2   -1    0    0  501    0  0.00000000000E+00  0.00000000000E+00 -0.12275244851E+04  0.12275244851E+04  0.25500000920E-02 0. -1.
    10030    2    1    2    0    0  0.00000000000E+00  0.00000000000E+00 -0.98079647120E+03  0.14742524991E+04  0.11006628517E+04 0.  0.
        5    1    3    3  502    0 -0.43555271264E+03  0.33288369942E+03 -0.42581549418E+03  0.69416039062E+03  0.46999998093E+01 0.  1.
       -5    1    3    3    0  502  0.43555271264E+03 -0.33288369942E+03 -0.55498097702E+03  0.78009210846E+03  0.46999998093E+01 0. -1.
</event>
<event>
 5   0  0.3523525E-04  0.1098731E+04  0.7818609E-02  0.9206430E-01
       -1   -1    0    0    0  501  0.00000000000E+00  0.00000000000E+00  0.27993277928E+03  0.27993277933E+03  0.50400001928E-02 0.  1.
        1   -1    0    0  501    0  0.00000000000E+00  0.00000000000E+00 -0.10781243792E+04  0.10781243792E+04  0.50400001928E-02 0. -1.
    10030    2    1    2    0    0  0.00000000000E+00  0.00000000000E+00 -0.79819159988E+03  0.13580571585E+04  0.10987308204E+04 0.  0.
        5    1    3    3  502    0 -0.32261762495E+03  0.27659779213E+03  0.31196275756E+02  0.42612646967E+03  0.46999998093E+01 0.  1.
       -5    1    3    3    0  502  0.32261762495E+03 -0.27659779213E+03 -0.82938787564E+03  0.93193068883E+03  0.46999998093E+01 0. -1.
</event>
<event>
 5   0  0.6412712E-04  0.1100874E+04  0.7818609E-02  0.9204341E-01
        2   -1    0    0  501    0  0.00000000000E+00  0.00000000000E+00  0.10880034289E+04  0.10880034289E+04  0.25500000920E-02 0. -1.
       -2   -1    0    0    0  501  0.00000000000E+00  0.00000000000E+00 -0.27847408025E+03  0.27847408026E+03  0.25500000920E-02 0.  1.
    10030    2    1    2    0    0  0.00000000000E+00  0.00000000000E+00  0.80952934869E+03  0.13664775092E+04  0.11008737515E+04 0.  0.
        2    1    3    3  502    0 -0.45091210267E+03 -0.20187883249E+03  0.70602174080E+03  0.86170962965E+03  0.25500000920E-02 0. -1.
       -2    1    3    3    0  502  0.45091210267E+03  0.20187883249E+03  0.10350760789E+03  0.50476787956E+03  0.25500000920E-02 0.  1.
</event>
<event>
 5   0  0.6412712E-04  0.1098056E+04  0.7818609E-02  0.9207088E-01
       -2   -1    0    0    0  501  0.00000000000E+00  0.00000000000E+00  0.74441443925E+03  0.74441443926E+03  0.25500000920E-02 0.  1.
        2   -1    0    0  501    0  0.00000000000E+00  0.00000000000E+00 -0.40492492489E+03  0.40492492489E+03  0.25500000920E-02 0. -1.
    10030    2    1    2    0    0  0.00000000000E+00  0.00000000000E+00  0.33948951437E+03  0.11493393642E+04  0.10980563936E+04 0.  0.
        2    1    3    3  502    0 -0.25353759769E+03  0.48163514685E+03  0.24506546990E+03  0.59691776039E+03  0.25500000920E-02 0. -1.
       -2    1    3    3    0  502  0.25353759769E+03 -0.48163514685E+03  0.94424044464E+02  0.55242160376E+03  0.25500000920E-02 0.  1.
</event>
<event>
 5   0  0.6245176E-04  0.1097611E+04  0.7818609E-02  0.9207523E-01
       -2   -1    0    0    0  501  0.00000000000E+00  0.00000000000E+00  0.39664122656E+03  0.39664122657E+03  0.25500000920E-02 0. -1.
        2   -1    0    0  501    0  0.00000000000E+00  0.00000000000E+00 -0.75934528536E+03  0.75934528537E+03  0.25500000920E-02 0.  1.
    10030    2    1    2    0    0  0.00000000000E+00  0.00000000000E+00 -0.36270405880E+03  0.11559865119E+04  0.10976113071E+04 0.  0.
        5    1    3    3  502    0  0.26370541281E+03 -0.26616489399E+02 -0.68744667943E+03  0.73678627112E+03  0.46999998093E+01 0.  1.
       -5    1    3    3    0  502 -0.26370541281E+03  0.26616489399E+02  0.32474262063E+03  0.41920024082E+03  0.46999998093E+01 0. -1.
</event>
<event>
 5   0  0.6109149E-04  0.1099361E+04  0.7818609E-02  0.9205815E-01
       -2   -1    0    0    0  501  0.00000000000E+00  0.00000000000E+00  0.61522609106E+03  0.61522609107E+03  0.25500000920E-02 0. -1.
        2   -1    0    0  501    0  0.00000000000E+00  0.00000000000E+00 -0.49111791687E+03  0.49111791688E+03  0.25500000920E-02 0.  1.
    10030    2    1    2    0    0  0.00000000000E+00  0.00000000000E+00  0.12410817419E+03  0.11063440079E+04  0.10993608257E+04 0.  0.
        1    1    3    3  502    0 -0.35057220032E+02  0.18208126728E+03 -0.45869391621E+03  0.49475519741E+03  0.50400001928E-02 0.  1.
       -1    1    3    3    0  502  0.35057220032E+02 -0.18208126728E+03  0.58280209040E+03  0.61158881053E+03  0.50400001928E-02 0. -1.
</event>
<event>
 5   0  0.6412712E-04  0.1099796E+04  0.7818609E-02  0.9205391E-01
       -2   -1    0    0    0  501  0.00000000000E+00  0.00000000000E+00  0.51728873497E+03  0.51728873498E+03  0.25500000920E-02 0.  1.
        2   -1    0    0  501    0  0.00000000000E+00  0.00000000000E+00 -0.58456301924E+03  0.58456301924E+03  0.25500000920E-02 0. -1.
    10030    2    1    2    0    0  0.00000000000E+00  0.00000000000E+00 -0.67274284265E+02  0.11018517542E+04  0.10997960988E+04 0.  0.
        2    1    3    3  502    0 -0.65877370732E+02  0.40290774646E+03 -0.40271869011E+03  0.57346039401E+03  0.25500000920E-02 0. -1.
       -2    1    3    3    0  502  0.65877370732E+02 -0.40290774646E+03  0.33544440584E+03  0.52839136021E+03  0.25500000920E-02 0.  1.
</event>
<event>
 5   0  0.6109149E-04  0.1098988E+04  0.7818609E-02  0.9206179E-01
       -2   -1    0    0    0  501  0.00000000000E+00  0.00000000000E+00  0.57891473191E+03  0.57891473192E+03  0.25500000920E-02 0. -1.
        2   -1    0    0  501    0  0.00000000000E+00  0.00000000000E+00 -0.52156835869E+03  0.52156835869E+03  0.25500000920E-02 0.  1.
    10030    2    1    2    0    0  0.00000000000E+00  0.00000000000E+00  0.57346373223E+02  0.11004830906E+04  0.10989879099E+04 0.  0.
        1    1    3    3  502    0  0.52823168754E+03  0.53462123259E+02 -0.11314114213E+03  0.54285157494E+03  0.50400001928E-02 0.  1.
       -1    1    3    3    0  502 -0.52823168754E+03 -0.53462123259E+02  0.17048751535E+03  0.55763151567E+03  0.50400001928E-02 0. -1.
</event>
<event>
 5   0  0.3657529E-04  0.1096584E+04  0.7818609E-02  0.9208528E-01
       -1   -1    0    0    0  501  0.00000000000E+00  0.00000000000E+00  0.11348813014E+03  0.11348813025E+03  0.50400001928E-02 0. -1.
        1   -1    0    0  501    0  0.00000000000E+00  0.00000000000E+00 -0.26489469158E+04  0.26489469158E+04  0.50400001928E-02 0.  1.
    10030    2    1    2    0    0  0.00000000000E+00  0.00000000000E+00 -0.25354587857E+04  0.27624350461E+04  0.10965838454E+04 0.  0.
        4    1    3    3  502    0  0.22493513492E+03  0.18978926151E+03 -0.24330994537E+04  0.24508346217E+04  0.12699999809E+01 0.  1.
       -4    1    3    3    0  502 -0.22493513492E+03 -0.18978926151E+03 -0.10235933200E+03  0.31160042434E+03  0.12699999809E+01 0. -1.
</event>
<event>
 5   0  0.3657529E-04  0.1097002E+04  0.7818609E-02  0.9208119E-01
        1   -1    0    0  501    0  0.00000000000E+00  0.00000000000E+00  0.10840385732E+04  0.10840385732E+04  0.50400001928E-02 0.  1.
       -1   -1    0    0    0  501  0.00000000000E+00  0.00000000000E+00 -0.27753018787E+03  0.27753018791E+03  0.50400001928E-02 0. -1.
    10030    2    1    2    0    0  0.00000000000E+00  0.00000000000E+00  0.80650838531E+03  0.13615687611E+04  0.10970021493E+04 0.  0.
        4    1    3    3  502    0 -0.38952790722E+02 -0.49341377983E+03  0.10986105330E+03  0.50699658970E+03  0.12699999809E+01 0. -1.
       -4    1    3    3    0  502  0.38952790722E+02  0.49341377983E+03  0.69664733202E+03  0.85457217141E+03  0.12699999809E+01 0.  1.
</event>
<event>
 5   0  0.3657529E-04  0.1100162E+04  0.7818609E-02  0.9205034E-01
        1   -1    0    0  501    0  0.00000000000E+00  0.00000000000E+00  0.11408327416E+04  0.11408327416E+04  0.50400001928E-02 0.  1.
       -1   -1    0    0    0  501  0.00000000000E+00  0.00000000000E+00 -0.26523546833E+03  0.26523546838E+03  0.50400001928E-02 0. -1.
    10030    2    1    2    0    0  0.00000000000E+00  0.00000000000E+00  0.87559727330E+03  0.14060682100E+04  0.11001623636E+04 0.  0.
        4    1    3    3  502    0 -0.16189703828E+03 -0.19059337037E+03  0.10639820436E+04  0.10929757023E+04  0.12699999809E+01 0.  1.
       -4    1    3    3    0  502  0.16189703828E+03  0.19059337037E+03 -0.18838477028E+03  0.31309250774E+03  0.12699999809E+01 0. -1.
</event>
<event>
 5   0  0.6264830E-04  0.1099849E+04  0.7818609E-02  0.9205339E-01
        2   -1    0    0  501    0  0.00000000000E+00  0.00000000000E+00  0.15666997217E+04  0.15666997217E+04  0.25500000920E-02 0. -1.
       -2   -1    0    0    0  501  0.00000000000E+00  0.00000000000E+00 -0.19302810176E+03  0.19302810178E+03  0.25500000920E-02 0.  1.
    10030    2    1    2    0    0  0.00000000000E+00  0.00000000000E+00  0.13736716199E+04  0.17597278235E+04  0.10998492139E+04 0.  0.
        4    1    3    3  502    0 -0.37750636718E+03  0.70777745462E+02  0.57139815280E+02  0.38831316989E+03  0.12699999809E+01 0.  1.
       -4    1    3    3    0  502  0.37750636718E+03 -0.70777745462E+02  0.13165318047E+04  0.13714146536E+04  0.12699999809E+01 0. -1.
</event>
<event>
 5   0  0.3523525E-04  0.1099893E+04  0.7818609E-02  0.9205296E-01
        1   -1    0    0  501    0  0.00000000000E+00  0.00000000000E+00  0.38566610061E+03  0.38566610065E+03  0.50400001928E-02 0. -1.
       -1   -1    0    0    0  501  0.00000000000E+00  0.00000000000E+00 -0.78420466222E+03  0.78420466223E+03  0.50400001928E-02 0.  1.
    10030    2    1    2    0    0  0.00000000000E+00  0.00000000000E+00 -0.39853856160E+03  0.11698707629E+04  0.10998930024E+04 0.  0.
        5    1    3    3  502    0  0.12337395102E+03  0.19435647385E+03  0.33192834729E+03  0.40397288084E+03  0.46999998093E+01 0. -1.
       -5    1    3    3    0  502 -0.12337395102E+03 -0.19435647385E+03 -0.73046690890E+03  0.76589788204E+03  0.46999998093E+01 0.  1.
</event>
<event>
 5   0  0.3642161E-04  0.1110038E+04  0.7818609E-02  0.9195463E-01
        1   -1    0    0  501    0  0.00000000000E+00  0.00000000000E+00  0.59500373451E+03  0.59500373453E+03  0.50400001928E-02 0.  1.
       -1   -1    0    0    0  501  0.00000000000E+00  0.00000000000E+00 -0.51772104102E+03  0.51772104104E+03  0.50400001928E-02 0. -1.
    10030    2    1    2    0    0  0.00000000000E+00  0.00000000000E+00  0.77282693497E+02  0.11127247756E+04  0.11100377523E+04 0.  0.
        2    1    3    3  502    0 -0.35217887095E+03  0.11541889150E+03  0.45279332582E+03  0.58512671583E+03  0.25500000920E-02 0.  1.
       -2    1    3    3    0  502  0.35217887095E+03 -0.11541889150E+03 -0.37551063233E+03  0.52759805975E+03  0.25500000920E-02 0. -1.
</event>
<event>
 5   0  0.3657529E-04  0.1100496E+04  0.7818609E-02  0.9204708E-01
        1   -1    0    0  501    0  0.00000000000E+00  0.00000000000E+00  0.33225789628E+03  0.33225789631E+03  0.50400001928E-02 0. -1.
       -1   -1    0    0    0  501  0.00000000000E+00  0.00000000000E+00 -0.91125897015E+03  0.91125897016E+03  0.50400001928E-02 0.  1.
    10030    2    1    2    0    0  0.00000000000E+00  0.00000000000E+00 -0.57900107387E+03  0.12435168665E+04  0.11004962306E+04 0.  0.
        4    1    3    3  502    0 -0.85047097148E+02 -0.17971123558E+03 -0.86925073878E+03  0.89169927481E+03  0.12699999809E+01 0.  1.
       -4    1    3    3    0  502  0.85047097148E+02  0.17971123558E+03  0.29024966491E+03  0.35181759167E+03  0.12699999809E+01 0. -1.
</event>
<event>
 5   0  0.3657529E-04  0.1101417E+04  0.7818609E-02  0.9203812E-01
       -1   -1    0    0    0  501  0.00000000000E+00  0.00000000000E+00  0.39149200373E+03  0.39149200376E+03  0.50400001928E-02 0.  1.
        1   -1    0    0  501    0  0.00000000000E+00  0.00000000000E+00 -0.77467659717E+03  0.77467659719E+03  0.50400001928E-02 0. -1.
    10030    2    1    2    0    0  0.00000000000E+00  0.00000000000E+00 -0.38318459344E+03  0.11661686010E+04  0.11014167119E+04 0.  0.
        4    1    3    3  502    0  0.19960662062E+03  0.12760821243E+03  0.33477783585E+03  0.41012738405E+03  0.12699999809E+01 0.  1.
       -4    1    3    3    0  502 -0.19960662062E+03 -0.12760821243E+03 -0.71796242929E+03  0.75604121690E+03  0.12699999809E+01 0. -1.
</event>
<event>
 5   0  0.5948818E-04  0.1099823E+04  0.7818609E-02  0.9205364E-01
        2   -1    0    0  501    0  0.00000000000E+00  0.00000000000E+00  0.12665935232E+04  0.12665935232E+04  0.25500000920E-02 0.  1.
       -2   -1    0    0    0  501  0.00000000000E+00  0.00000000000E+00 -0.23875291497E+03  0.23875291499E+03  0.25500000920E-02 0. -1.
    10030    2    1    2    0    0  0.00000000000E+00  0.00000000000E+00  0.10278406082E+04  0.15053464382E+04  0.10998234327E+04 0.  0.
        3    1    3    3  502    0 -0.68577521318E+02 -0.49034783825E+03  0.18640213646E+03  0.52904597681E+03  0.10100000352E+00 0. -1.
       -3    1    3    3    0  502  0.68577521318E+02  0.49034783825E+03  0.84143847176E+03  0.97630046136E+03  0.10100000352E+00 0.  1.
</event>
<event>
 5   0  0.3642161E-04  0.1101169E+04  0.7818609E-02  0.9204053E-01
       -1   -1    0    0    0  501  0.00000000000E+00  0.00000000000E+00  0.66386928585E+03  0.66386928587E+03  0.50400001928E-02 0. -1.
        1   -1    0    0  501    0  0.00000000000E+00  0.00000000000E+00 -0.45663131196E+03  0.45663131199E+03  0.50400001928E-02 0.  1.
    10030    2    1    2    0    0  0.00000000000E+00  0.00000000000E+00  0.20723797389E+03  0.11205005979E+04  0.11011693839E+04 0.  0.
        2    1    3    3  502    0 -0.50961119091E+03 -0.20302089721E+03  0.55648492239E+02  0.55137809650E+03  0.25500000920E-02 0. -1.
       -2    1    3    3    0  502  0.50961119091E+03  0.20302089721E+03  0.15158948166E+03  0.56912250136E+03  0.25500000920E-02 0.  1.
</event>
<event>
 5   0  0.5948818E-04  0.1099201E+04  0.7818609E-02  0.9205971E-01
        2   -1    0    0  501    0  0.00000000000E+00  0.00000000000E+00  0.40394328502E+03  0.40394328503E+03  0.25500000920E-02 0.  1.
       -2   -1    0    0    0  501  0.00000000000E+00  0.00000000000E+00 -0.74777987978E+03  0.74777987978E+03  0.25500000920E-02 0. -1.
    10030    2    1    2    0    0  0.00000000000E+00  0.00000000000E+00 -0.34383659476E+03  0.11517231648E+04  0.10992009118E+04 0.  0.
        3    1    3    3  502    0  0.32377518664E+03  0.33953131880E+03 -0.47186370927E+03  0.66540758807E+03  0.10100000352E+00 0.  1.
       -3    1    3    3    0  502 -0.32377518664E+03 -0.33953131880E+03  0.12802711451E+03  0.48631557674E+03  0.10100000352E+00 0. -1.
</event>
<event>
 5   0  0.3523525E-04  0.1102354E+04  0.7818609E-02  0.9202901E-01
       -1   -1    0    0    0  501  0.00000000000E+00  0.00000000000E+00  0.37140489656E+03  0.37140489660E+03  0.50400001928E-02 0.  1.
        1   -1    0    0  501    0  0.00000000000E+00  0.00000000000E+00 -0.81796402563E+03  0.81796402565E+03  0.50400001928E-02 0. -1.
    10030    2    1    2    0    0  0.00000000000E+00  0.00000000000E+00 -0.44655912907E+03  0.11893689222E+04  0.11023535628E+04 0.  0.
        5    1    3    3  502    0 -0.22639213549E+03 -0.50195484003E+02 -0.76274838425E+03  0.79723282251E+03  0.46999998093E+01 0. -1.
       -5    1    3    3    0  502  0.22639213549E+03  0.50195484003E+02  0.31618925518E+03  0.39213609973E+03  0.46999998093E+01 0.  1.
</event>
<event>
 5   0  0.5948818E-04  0.1101257E+04  0.7818609E-02  0.9203967E-01
        2   -1    0    0  501    0  0.00000000000E+00  0.00000000000E+00  0.12065475824E+04  0.12065475824E+04  0.25500000920E-02 0.  1.
       -2   -1    0    0    0  501  0.00000000000E+00  0.00000000000E+00 -0.25128871767E+03  0.25128871769E+03  0.25500000920E-02 0. -1.
    10030    2    1    2    0    0  0.00000000000E+00  0.00000000000E+00  0.95525886477E+03  0.14578363001E+04  0.11012570904E+04 0.  0.
        3    1    3    3  502    0 -0.42724947921E+03 -0.25410485476E+02  0.19046531661E+02  0.42842804627E+03  0.10100000352E+00 0. -1.
       -3    1    3    3    0  502  0.42724947921E+03  0.25410485476E+02  0.93621233311E+03  0.10294082539E+04  0.10100000352E+00 0.  1.
</event>
<event>
 5   0  0.3423758E-04  0.1100908E+04  0.7818609E-02  0.9204307E-01
        1   -1    0    0  501    0  0.00000000000E+00  0.00000000000E+00  0.12259590825E+04  0.12259590825E+04  0.50400001928E-02 0. -1.
       -1   -1    0    0    0  501  0.00000000000E+00  0.00000000000E+00 -0.24715321776E+03  0.24715321781E+03  0.50400001928E-02 0.  1.
    10030    2    1    2    0    0  0.00000000000E+00  0.00000000000E+00  0.97880586477E+03  0.14731123004E+04  0.11009082289E+04 0.  0.
        1    1    3    3  502    0  0.10216826447E+02 -0.38622463086E+03 -0.35233246455E+02  0.38796292439E+03  0.50400001928E-02 0.  1.
       -1    1    3    3    0  502 -0.10216826447E+02  0.38622463086E+03  0.10140391112E+04  0.10851493760E+04  0.50400001928E-02 0. -1.
</event>
<event>
 5   0  0.3523525E-04  0.1099518E+04  0.7818609E-02  0.9205661E-01
        1   -1    0    0  501    0  0.00000000000E+00  0.00000000000E+00  0.61155598698E+03  0.61155598700E+03  0.50400001928E-02 0.  1.
       -1   -1    0    0    0  501  0.00000000000E+00  0.00000000000E+00 -0.49420683350E+03  0.49420683352E+03  0.50400001928E-02 0. -1.
    10030    2    1    2    0    0  0.00000000000E+00  0.00000000000E+00  0.11734915348E+03  0.11057628205E+04  0.10995183452E+04 0.  0.
        5    1    3    3  502    0 -0.54772255098E+03 -0.42231484786E+02  0.79518276510E+02  0.55509344930E+03  0.46999998093E+01 0.  1.
       -5    1    3    3    0  502  0.54772255098E+03  0.42231484786E+02  0.37830876971E+02  0.55066937123E+03  0.46999998093E+01 0. -1.
</event>
<event>
 5   0  0.6245176E-04  0.1107529E+04  0.7818609E-02  0.9197884E-01
       -2   -1    0    0    0  501  0.00000000000E+00  0.00000000000E+00  0.87630420389E+03  0.87630420389E+03  0.25500000920E-02 0. -1.
        2   -1    0    0  501    0  0.00000000000E+00  0.00000000000E+00 -0.34994163550E+03  0.34994163551E+03  0.25500000920E-02 0.  1.
    10030    2    1    2    0    0  0.00000000000E+00  0.00000000000E+00  0.52636256839E+03  0.12262458394E+04  0.11075293699E+04 0.  0.
        5    1    3    3  502    0 -0.51160163186E+03 -0.15399370403E+03  0.42432577837E+03  0.68229373938E+03  0.46999998093E+01 0. -1.
       -5    1    3    3    0  502  0.51160163186E+03  0.15399370403E+03  0.10203679002E+03  0.54395210003E+03  0.46999998093E+01 0.  1.
</event>
<event>
 5   0  0.3423758E-04  0.1089820E+04  0.7818609E-02  0.9215171E-01
       -1   -1    0    0    0  501  0.00000000000E+00  0.00000000000E+00  0.36852764915E+03  0.36852764919E+03  0.50400001928E-02 0. -1.
        1   -1    0    0  501    0  0.00000000000E+00  0.00000000000E+00 -0.80571196858E+03  0.80571196859E+03  0.50400001928E-02 0.  1.
    10030    2    1    2    0    0  0.00000000000E+00  0.00000000000E+00 -0.43718431942E+03  0.11742396178E+04  0.10898204214E+04 0.  0.
        1    1    3    3  502    0 -0.28734374174E+03 -0.23960186640E+03 -0.64545145246E+03  0.74604494356E+03  0.50400001928E-02 0.  1.
       -1    1    3    3    0  502  0.28734374174E+03  0.23960186640E+03  0.20826713304E+03  0.42819467422E+03  0.50400001928E-02 0. -1.
</event>
<event>
 5   0  0.3642161E-04  0.1099848E+04  0.7818609E-02  0.9205340E-01
        1   -1    0    0  501    0  0.00000000000E+00  0.00000000000E+00  0.49793545978E+03  0.49793545981E+03  0.50400001928E-02 0.  1.
       -1   -1    0    0    0  501  0.00000000000E+00  0.00000000000E+00 -0.60734043226E+03  0.60734043229E+03  0.50400001928E-02 0. -1.
    10030    2    1    2    0    0  0.00000000000E+00  0.00000000000E+00 -0.10940497248E+03  0.11052758921E+04  0.10998478757E+04 0.  0.
        2    1    3    3  502    0 -0.43301043165E+02 -0.29452687547E+03  0.40995948472E+03  0.50664370107E+03  0.25500000920E-02 0.  1.
       -2    1    3    3    0  502  0.43301043165E+02  0.29452687547E+03 -0.51936445721E+03  0.59863219102E+03  0.25500000920E-02 0. -1.
</event>
<event>
 5   0  0.6412712E-04  0.1097052E+04  0.7818609E-02  0.9208070E-01
       -2   -1    0    0    0  501  0.00000000000E+00  0.00000000000E+00  0.20969626478E+03  0.20969626480E+03  0.25500000920E-02 0. -1.
        2   -1    0    0  501    0  0.00000000000E+00  0.00000000000E+00 -0.14348401695E+04  0.14348401695E+04  0.25500000920E-02 0.  1.
    10030    2    1    2    0    0  0.00000000000E+00  0.00000000000E+00 -0.12251439047E+04  0.16445364343E+04  0.10970517292E+04 0.  0.
        2    1    3    3  502    0 -0.81158349644E+02  0.28109226173E+02  0.19955377867E+03  0.21725219654E+03  0.25500000920E-02 0. -1.
       -2    1    3    3    0  502  0.81158349644E+02 -0.28109226173E+02 -0.14246976834E+04  0.14272842377E+04  0.25500000920E-02 0.  1.
</event>
<event>
 5   0  0.6412712E-04  0.1100772E+04  0.7818609E-02  0.9204440E-01
        2   -1    0    0  501    0  0.00000000000E+00  0.00000000000E+00  0.15936213872E+04  0.15936213872E+04  0.25500000920E-02 0. -1.
       -2   -1    0    0    0  501  0.00000000000E+00  0.00000000000E+00 -0.19008567966E+03  0.19008567968E+03  0.25500000920E-02 0.  1.
    10030    2    1    2    0    0  0.00000000000E+00  0.00000000000E+00  0.14035357075E+04  0.17837070669E+04  0.11007717375E+04 0.  0.
        2    1    3    3  502    0 -0.26288253764E+03  0.26654214687E+03  0.48009889419E+02  0.37743462235E+03  0.25500000920E-02 0.  1.
       -2    1    3    3    0  502  0.26288253764E+03 -0.26654214687E+03  0.13555258181E+04  0.14062724445E+04  0.25500000920E-02 0. -1.
</event>
<event>
 5   0  0.6264830E-04  0.1100870E+04  0.7818609E-02  0.9204345E-01
       -2   -1    0    0    0  501  0.00000000000E+00  0.00000000000E+00  0.35106477734E+03  0.35106477735E+03  0.25500000920E-02 0.  1.
        2   -1    0    0  501    0  0.00000000000E+00  0.00000000000E+00 -0.86302753331E+03  0.86302753331E+03  0.25500000920E-02 0. -1.
    10030    2    1    2    0    0  0.00000000000E+00  0.00000000000E+00 -0.51196275596E+03  0.12140923107E+04  0.11008697813E+04 0.  0.
        4    1    3    3  502    0  0.44505563556E+03  0.41938544935E+02 -0.61017186414E+03  0.75640245702E+03  0.12699999809E+01 0. -1.
       -4    1    3    3    0  502 -0.44505563556E+03 -0.41938544935E+02  0.98209108180E+02  0.45768985364E+03  0.12699999809E+01 0.  1.
</event>
<event>
 5   0  0.6109149E-04  0.1100432E+04  0.7818609E-02  0.9204771E-01
       -2   -1    0    0    0  501  0.00000000000E+00  0.00000000000E+00  0.43238726071E+03  0.43238726072E+03  0.25500000920E-02 0.  1.
        2   -1    0    0  501    0  0.00000000000E+00  0.00000000000E+00 -0.70015423827E+03  0.70015423827E+03  0.25500000920E-02 0. -1.
    10030    2    1    2    0    0  0.00000000000E+00  0.00000000000E+00 -0.26776697756E+03  0.11325414990E+04  0.11004322299E+04 0.  0.
        1    1    3    3  502    0 -0.39871427958E+03  0.32364232317E+03  0.69416036475E+02  0.51820460846E+03  0.50400001928E-02 0.  1.
       -1    1    3    3    0  502  0.39871427958E+03 -0.32364232317E+03 -0.33718301403E+03  0.61433689053E+03  0.50400001928E-02 0. -1.
</event>
<event>
 5   0  0.2403875E-04  0.1098588E+04  0.7818609E-02  0.9206569E-01
        4   -1    0    0  501    0  0.00000000000E+00  0.00000000000E+00  0.99924288255E+03  0.99924368961E+03  0.12699999809E+01 0. -1.
       -4   -1    0    0    0  501  0.00000000000E+00  0.00000000000E+00 -0.30195021759E+03  0.30195288838E+03  0.12699999809E+01 0.  1.
    10030    2    1    2    0    0  0.00000000000E+00  0.00000000000E+00  0.69729266496E+03  0.13011965780E+04  0.10985879455E+04 0.  0.
        2    1    3    3  502    0 -0.47772193549E+02  0.28648767931E+03  0.90085648249E+03  0.94651982278E+03  0.25500000920E-02 0. -1.
       -2    1    3    3    0  502  0.47772193549E+02 -0.28648767931E+03 -0.20356381752E+03  0.35467675521E+03  0.25500000920E-02 0.  1.
</event>
<event>
 5   0  0.6264830E-04  0.1099785E+04  0.7818609E-02  0.9205401E-01
       -2   -1    0    0    0  501  0.00000000000E+00  0.00000000000E+00  0.46120284170E+03  0.46120284171E+03  0.25500000920E-02 0.  1.
        2   -1    0    0  501    0  0.00000000000E+00  0.00000000000E+00 -0.65563779915E+03  0.65563779915E+03  0.25500000920E-02 0. -1.
    10030    2    1    2    0    0  0.00000000000E+00  0.00000000000E+00 -0.19443495744E+03  0.11168406409E+04  0.10997854629E+04 0.  0.
        4    1    3    3  502    0  0.46059187870E+03 -0.27880940666E+03  0.16323548590E+02  0.53865353903E+03  0.12699999809E+01 0.  1.
       -4    1    3    3    0  502 -0.46059187870E+03  0.27880940666E+03 -0.21075850603E+03  0.57818710184E+03  0.12699999809E+01 0. -1.
</event>
<event>
 5   0  0.5948818E-04  0.1100346E+04  0.7818609E-02  0.9204855E-01
        2   -1    0    0  501    0  0.00000000000E+00  0.00000000000E+00  0.84209342299E+03  0.84209342299E+03  0.25500000920E-02 0. -1.
       -2   -1    0    0    0  501  0.00000000000E+00  0.00000000000E+00 -0.35944968667E+03  0.35944968668E+03  0.25500000920E-02 0.  1.
    10030    2    1    2    0    0  0.00000000000E+00  0.00000000000E+00  0.48264373631E+03  0.12015431097E+04  0.11003457948E+04 0.  0.
        3    1    3    3  502    0  0.44655427787E+03  0.28048721554E+03  0.41261275550E+03  0.66957680469E+03  0.10100000352E+00 0. -1.
       -3    1    3    3    0  502 -0.44655427787E+03 -0.28048721554E+03  0.70030980807E+02  0.53196630499E+03  0.10100000352E+00 0.  1.
</event>
<event>
 5   0  0.2403875E-04  0.1100830E+04  0.7818609E-02  0.9204384E-01
       -3   -1    0    0    0  501  0.00000000000E+00  0.00000000000E+00  0.12770301788E+04  0.12770301828E+04  0.10100000352E+00 0.  1.
        3   -1    0    0  501    0  0.00000000000E+00  0.00000000000E+00 -0.23723515950E+03  0.23723518100E+03  0.10100000352E+00 0. -1.
    10030    2    1    2    0    0  0.00000000000E+00  0.00000000000E+00  0.10397950193E+04  0.15142653638E+04  0.11008296462E+04 0.  0.
        2    1    3    3  502    0 -0.20391989788E+03  0.40739375100E+03  0.94477526112E+03  0.10488819224E+04  0.25500000920E-02 0.  1.
       -2    1    3    3    0  502  0.20391989788E+03 -0.40739375100E+03  0.95019758202E+02  0.46538344143E+03  0.25500000920E-02 0. -1.
</event>
<event>
 5   0  0.2403875E-04  0.1100711E+04  0.7818609E-02  0.9204499E-01
       -3   -1    0    0    0  501  0.00000000000E+00  0.00000000000E+00  0.28744193646E+03  0.28744195420E+03  0.10100000352E+00 0. -1.
        3   -1    0    0  501    0  0.00000000000E+00  0.00000000000E+00 -0.10537470392E+04  0.10537470440E+04  0.10100000352E+00 0.  1.
    10030    2    1    2    0    0  0.00000000000E+00  0.00000000000E+00 -0.76630510271E+03  0.13411889982E+04  0.11007108696E+04 0.  0.
        2    1    3    3  502    0 -0.52774756022E+03  0.15498330512E+03 -0.36023379777E+03  0.65749958269E+03  0.25500000920E-02 0. -1.
       -2    1    3    3    0  502  0.52774756022E+03 -0.15498330512E+03 -0.40607130494E+03  0.68368941551E+03  0.25500000920E-02 0.  1.
</event>
<event>
 5   0  0.3621403E-04  0.1097276E+04  0.7818609E-02  0.9207851E-01
        1   -1    0    0  501    0  0.00000000000E+00  0.00000000000E+00  0.78088781604E+03  0.78088781606E+03  0.50400001928E-02 0. -1.
       -1   -1    0    0    0  501  0.00000000000E+00  0.00000000000E+00 -0.38546352815E+03  0.38546352818E+03  0.50400001928E-02 0.  1.
    10030    2    1    2    0    0  0.00000000000E+00  0.00000000000E+00  0.39542428790E+03  0.11663513442E+04  0.10972762144E+04 0.  0.
        3    1    3    3  502    0 -0.41965262296E+03  0.26048697159E+03  0.45158175083E+03  0.66924425601E+03  0.10100000352E+00 0. -1.
       -3    1    3    3    0  502  0.41965262296E+03 -0.26048697159E+03 -0.56157462928E+02  0.49710708823E+03  0.10100000352E+00 0.  1.
</event>
<event>
 5   0  0.6245176E-04  0.1088000E+04  0.7818609E-02  0.9216968E-01
       -2   -1    0    0    0  501  0.00000000000E+00  0.00000000000E+00  0.51265226481E+03  0.51265226482E+03  0.25500000920E-02 0. -1.
        2   -1    0    0  501    0  0.00000000000E+00  0.00000000000E+00 -0.57726428836E+03  0.57726428836E+03  0.25500000920E-02 0.  1.
    10030    2    1    2    0    0  0.00000000000E+00  0.00000000000E+00 -0.64612023544E+02  0.10899165532E+04  0.10879997148E+04 0.  0.
        5    1    3    3  502    0  0.51795528347E+03 -0.20655401043E+02 -0.19754944797E+03  0.55475417588E+03  0.46999998093E+01 0. -1.
       -5    1    3    3    0  502 -0.51795528347E+03  0.20655401043E+02  0.13293742442E+03  0.53516237730E+03  0.46999998093E+01 0.  1.
</event>
<event>
 5   0  0.3657529E-04  0.1095007E+04  0.7818609E-02  0.9210072E-01
        1   -1    0    0  501    0  0.00000000000E+00  0.00000000000E+00  0.24501901917E+04  0.24501901917E+04  0.50400001928E-02 0. -1.
       -1   -1    0    0    0  501  0.00000000000E+00  0.00000000000E+00 -0.12234157879E+03  0.12234157890E+03  0.50400001928E-02 0.  1.
    10030    2    1    2    0    0  0.00000000000E+00  0.00000000000E+00  0.23278486129E+04  0.25725317706E+04  0.10950070987E+04 0.  0.
        4    1    3    3  502    0  0.38707276586E+03  0.13563991842E+03  0.20159731544E+04  0.20572731675E+04  0.12699999809E+01 0. -1.
       -4    1    3    3    0  502 -0.38707276586E+03 -0.13563991842E+03  0.31187545848E+03  0.51525860307E+03  0.12699999809E+01 0.  1.
</event>
<event>
 5   0  0.6109149E-04  0.1098254E+04  0.7818609E-02  0.9206895E-01
        2   -1    0    0  501    0  0.00000000000E+00  0.00000000000E+00  0.21435977191E+04  0.21435977191E+04  0.25500000920E-02 0.  1.
       -2   -1    0    0    0  501  0.00000000000E+00  0.00000000000E+00 -0.14067038607E+03  0.14067038610E+03  0.25500000920E-02 0. -1.
    10030    2    1    2    0    0  0.00000000000E+00  0.00000000000E+00  0.20029273330E+04  0.22842681052E+04  0.10982544673E+04 0.  0.
        1    1    3    3  502    0  0.33057503416E+03 -0.40516769132E+03  0.13501198041E+04  0.14478481263E+04  0.50400001928E-02 0. -1.
       -1    1    3    3    0  502 -0.33057503416E+03  0.40516769132E+03  0.65280752891E+03  0.83641997891E+03  0.50400001928E-02 0.  1.
</event>
<event>
 5   0  0.2403875E-04  0.1100998E+04  0.7818609E-02  0.9204219E-01
       -3   -1    0    0    0  501  0.00000000000E+00  0.00000000000E+00  0.59729443152E+03  0.59729444006E+03  0.10100000352E+00 0.  1.
        3   -1    0    0  501    0  0.00000000000E+00  0.00000000000E+00 -0.50736996828E+03  0.50736997833E+03  0.10100000352E+00 0. -1.
    10030    2    1    2    0    0  0.00000000000E+00  0.00000000000E+00  0.89924463242E+02  0.11046644184E+04  0.11009982144E+04 0.  0.
        1    1    3    3  502    0 -0.46743262204E+03  0.11672264784E+03  0.31217939311E+03  0.57408484232E+03  0.50400001928E-02 0.  1.
       -1    1    3    3    0  502  0.46743262204E+03 -0.11672264784E+03 -0.22225492987E+03  0.53057957607E+03  0.50400001928E-02 0. -1.
</event>
<event>
 5   0  0.6412712E-04  0.1100183E+04  0.7818609E-02  0.9205014E-01
       -2   -1    0    0    0  501  0.00000000000E+00  0.00000000000E+00  0.20769800248E+03  0.20769800250E+03  0.25500000920E-02 0. -1.
        2   -1    0    0  501    0  0.00000000000E+00  0.00000000000E+00 -0.14569250529E+04  0.14569250529E+04  0.25500000920E-02 0.  1.
    10030    2    1    2    0    0  0.00000000000E+00  0.00000000000E+00 -0.12492270504E+04  0.16646230554E+04  0.11001825726E+04 0.  0.
        2    1    3    3  502    0 -0.31097395235E+03  0.35584362208E+03 -0.19861494610E+03  0.51261816124E+03  0.25500000920E-02 0. -1.
       -2    1    3    3    0  502  0.31097395235E+03 -0.35584362208E+03 -0.10506121043E+04  0.11520048941E+04  0.25500000920E-02 0.  1.
</event>
<event>
 5   0  0.3523525E-04  0.1099766E+04  0.7818609E-02  0.9205420E-01
       -1   -1    0    0    0  501  0.00000000000E+00  0.00000000000E+00  0.82934789454E+03  0.82934789455E+03  0.50400001928E-02 0.  1.
        1   -1    0    0  501    0  0.00000000000E+00  0.00000000000E+00 -0.36458898208E+03  0.36458898212E+03  0.50400001928E-02 0. -1.
    10030    2    1    2    0    0  0.00000000000E+00  0.00000000000E+00  0.46475891245E+03  0.11939368767E+04  0.10997656199E+04 0.  0.
        5    1    3    3  502    0  0.39108582908E+03  0.86570890443E+02 -0.17658180606E+03  0.43777376464E+03  0.46999998093E+01 0. -1.
       -5    1    3    3    0  502 -0.39108582908E+03 -0.86570890443E+02  0.64134071851E+03  0.75616311203E+03  0.46999998093E+01 0.  1.
</event>
<event>
 5   0  0.6264830E-04  0.1105987E+04  0.7818609E-02  0.9199376E-01
       -2   -1    0    0    0  501  0.00000000000E+00  0.00000000000E+00  0.89828339556E+03  0.89828339557E+03  0.25500000920E-02 0. -1.
        2   -1    0    0  501    0  0.00000000000E+00  0.00000000000E+00 -0.34042917557E+03  0.34042917558E+03  0.25500000920E-02 0.  1.
    10030    2    1    2    0    0  0.00000000000E+00  0.00000000000E+00  0.55785422000E+03  0.12387125711E+04  0.11059871171E+04 0.  0.
        4    1    3    3  502    0 -0.12951634704E+03  0.17032625624E+03 -0.29218249654E+03  0.36215706800E+03  0.12699999809E+01 0.  1.
       -4    1    3    3    0  502  0.12951634704E+03 -0.17032625624E+03  0.85003671654E+03  0.87655550314E+03  0.12699999809E+01 0. -1.
</event>
<event>
 5   0  0.6245176E-04  0.1100652E+04  0.7818609E-02  0.9204557E-01
        2   -1    0    0  501    0  0.00000000000E+00  0.00000000000E+00  0.19000490853E+04  0.19000490853E+04  0.25500000920E-02 0. -1.
       -2   -1    0    0    0  501  0.00000000000E+00  0.00000000000E+00 -0.15939521040E+03  0.15939521042E+03  0.25500000920E-02 0.  1.
    10030    2    1    2    0    0  0.00000000000E+00  0.00000000000E+00  0.17406538749E+04  0.20594442958E+04  0.11006520318E+04 0.  0.
        5    1    3    3  502    0  0.45811037712E+03 -0.13452265303E+03  0.35832815722E+03  0.59697790583E+03  0.46999998093E+01 0.  1.
       -5    1    3    3    0  502 -0.45811037712E+03  0.13452265303E+03  0.13823257177E+04  0.14624663899E+04  0.46999998093E+01 0. -1.
</event>
<event>
 5   0  0.3657529E-04  0.1103501E+04  0.7818609E-02  0.9201786E-01
        1   -1    0    0  501    0  0.00000000000E+00  0.00000000000E+00  0.13386022633E+04  0.13386022633E+04  0.50400001928E-02 0. -1.
       -1   -1    0    0    0  501  0.00000000000E+00  0.00000000000E+00 -0.22742266692E+03  0.22742266698E+03  0.50400001928E-02 0.  1.
    10030    2    1    2    0    0  0.00000000000E+00  0.00000000000E+00  0.11111795964E+04  0.15660249303E+04  0.11035007870E+04 0.  0.
        4    1    3    3  502    0  0.26622231779E+03 -0.42264631182E+03  0.88817413462E+03  0.10189990842E+04  0.12699999809E+01 0. -1.
       -4    1    3    3    0  502 -0.26622231779E+03  0.42264631182E+03  0.22300546179E+03  0.54702584608E+03  0.12699999809E+01 0.  1.
</event>
<event>
 5   0  0.5948818E-04  0.1100937E+04  0.7818609E-02  0.9204279E-01
       -2   -1    0    0    0  501  0.00000000000E+00  0.00000000000E+00  0.30765014810E+03  0.30765014811E+03  0.25500000920E-02 0.  1.
        2   -1    0    0  501    0  0.00000000000E+00  0.00000000000E+00 -0.98493481638E+03  0.98493481639E+03  0.25500000920E-02 0. -1.
    10030    2    1    2    0    0  0.00000000000E+00  0.00000000000E+00 -0.67728466828E+03  0.12925849645E+04  0.11009365870E+04 0.  0.
        3    1    3    3  502    0 -0.22189272413E+03  0.39936705457E+03 -0.69915280477E+03  0.83519164263E+03  0.10100000352E+00 0. -1.
       -3    1    3    3    0  502  0.22189272413E+03 -0.39936705457E+03  0.21868136493E+02  0.45739332187E+03  0.10100000352E+00 0.  1.
</event>
<event>
 5   0  0.3523525E-04  0.1103625E+04  0.7818609E-02  0.9201666E-01
        1   -1    0    0  501    0  0.00000000000E+00  0.00000000000E+00  0.68293577425E+03  0.68293577427E+03  0.50400001928E-02 0.  1.
       -1   -1    0    0    0  501  0.00000000000E+00  0.00000000000E+00 -0.44586480976E+03  0.44586480979E+03  0.50400001928E-02 0. -1.
    10030    2    1    2    0    0  0.00000000000E+00  0.00000000000E+00  0.23707096449E+03  0.11288005841E+04  0.11036249890E+04 0.  0.
        5    1    3    3  502    0 -0.40990473128E+03 -0.31485425395E+03 -0.79054826414E+02  0.52290232887E+03  0.46999998093E+01 0. -1.
       -5    1    3    3    0  502  0.40990473128E+03  0.31485425395E+03  0.31612579090E+03  0.60589825518E+03  0.46999998093E+01 0.  1.
</event>
<event>
 5   0  0.3621403E-04  0.1105740E+04  0.7818609E-02  0.9199616E-01
        1   -1    0    0  501    0  0.00000000000E+00  0.00000000000E+00  0.67800857127E+03  0.67800857129E+03  0.50400001928E-02 0. -1.
       -1   -1    0    0    0  501  0.00000000000E+00  0.00000000000E+00 -0.45082773303E+03  0.45082773306E+03  0.50400001928E-02 0.  1.
    10030    2    1    2    0    0  0.00000000000E+00  0.00000000000E+00  0.22718083824E+03  0.11288363044E+04  0.11057396930E+04 0.  0.
        3    1    3    3  502    0 -0.25982332392E+02 -0.29697737602E+03 -0.36174711823E+03  0.46875540660E+03  0.10100000352E+00 0.  1.
       -3    1    3    3    0  502  0.25982332392E+02  0.29697737602E+03  0.58892795648E+03  0.66008089775E+03  0.10100000352E+00 0. -1.
</event>
<event>
 5   0  0.3621403E-04  0.1105717E+04  0.7818609E-02  0.9199637E-01
       -1   -1    0    0    0  501  0.00000000000E+00  0.00000000000E+00  0.39717741268E+03  0.39717741271E+03  0.50400001928E-02 0. -1.
        1   -1    0    0  501    0  0.00000000000E+00  0.00000000000E+00 -0.76956193189E+03  0.76956193190E+03  0.50400001928E-02 0.  1.
    10030    2    1    2    0    0  0.00000000000E+00  0.00000000000E+00 -0.37238451921E+03  0.11667393446E+04  0.11057171737E+04 0.  0.
        3    1    3    3  502    0 -0.12077268019E+02  0.55002657654E+03 -0.24377025147E+03  0.60174665849E+03  0.10100000352E+00 0.  1.
       -3    1    3    3    0  502  0.12077268019E+02 -0.55002657654E+03 -0.12861426774E+03  0.56499268612E+03  0.10100000352E+00 0. -1.
</event>
<event>
 5   0  0.3657529E-04  0.1103160E+04  0.7818609E-02  0.9202118E-01
       -1   -1    0    0    0  501  0.00000000000E+00  0.00000000000E+00  0.30094140700E+03  0.30094140704E+03  0.50400001928E-02 0. -1.
        1   -1    0    0  501    0  0.00000000000E+00  0.00000000000E+00 -0.10109622674E+04  0.10109622675E+04  0.50400001928E-02 0.  1.
    10030    2    1    2    0    0  0.00000000000E+00  0.00000000000E+00 -0.71002086045E+03  0.13119036745E+04  0.11031598383E+04 0.  0.
        4    1    3    3  502    0  0.25428347368E+03  0.44790957839E+03 -0.12029095920E+03  0.52891833318E+03  0.12699999809E+01 0. -1.
       -4    1    3    3    0  502 -0.25428347368E+03 -0.44790957839E+03 -0.58972990124E+03  0.78298534132E+03  0.12699999809E+01 0.  1.
</event>
<event>
 5   0  0.5948818E-04  0.1099577E+04  0.7818609E-02  0.9205604E-01
        2   -1    0    0  501    0  0.00000000000E+00  0.00000000000E+00  0.96305580880E+03  0.96305580880E+03  0.25500000920E-02 0.  1.
       -2   -1    0    0    0  501  0.00000000000E+00  0.00000000000E+00 -0.31386295356E+03  0.31386295357E+03  0.25500000920E-02 0. -1.
    10030    2    1    2    0    0  0.00000000000E+00  0.00000000000E+00  0.64919285524E+03  0.12769187624E+04  0.10995772653E+04 0.  0.
        3    1    3    3  502    0 -0.49667162978E+03 -0.20145456196E+03  0.46682796831E+03  0.71077071588E+03  0.10100000352E+00 0.  1.
       -3    1    3    3    0  502  0.49667162978E+03  0.20145456196E+03  0.18236488692E+03  0.56614804649E+03  0.10100000352E+00 0. -1.
</event>
<event>
 5   0  0.3523525E-04  0.1100167E+04  0.7818609E-02  0.9205029E-01
       -1   -1    0    0    0  501  0.00000000000E+00  0.00000000000E+00  0.56153172640E+03  0.56153172642E+03  0.50400001928E-02 0.  1.
        1   -1    0    0  501    0  0.00000000000E+00  0.00000000000E+00 -0.53886892826E+03  0.53886892828E+03  0.50400001928E-02 0. -1.
    10030    2    1    2    0    0  0.00000000000E+00  0.00000000000E+00  0.22662798141E+02  0.11004006547E+04  0.11001672593E+04 0.  0.
        5    1    3    3  502    0 -0.33958722014E+03  0.12496577910E+03 -0.40304381015E+03  0.54166625235E+03  0.46999998093E+01 0. -1.
       -5    1    3    3    0  502  0.33958722014E+03 -0.12496577910E+03  0.42570660829E+03  0.55873440235E+03  0.46999998093E+01 0.  1.
</event>
<event>
 5   0  0.5948818E-04  0.1100361E+04  0.7818609E-02  0.9204840E-01
       -2   -1    0    0    0  501  0.00000000000E+00  0.00000000000E+00  0.34332633576E+03  0.34332633577E+03  0.25500000920E-02 0. -1.
        2   -1    0    0  501    0  0.00000000000E+00  0.00000000000E+00 -0.88166370967E+03  0.88166370967E+03  0.25500000920E-02 0.  1.
    10030    2    1    2    0    0  0.00000000000E+00  0.00000000000E+00 -0.53833737391E+03  0.12249900454E+04  0.11003606151E+04 0.  0.
        3    1    3    3  502    0  0.39252829083E+03 -0.38538701803E+03 -0.28011878920E+03  0.61730718369E+03  0.10100000352E+00 0. -1.
       -3    1    3    3    0  502 -0.39252829083E+03  0.38538701803E+03 -0.25821858471E+03  0.60768286175E+03  0.10100000352E+00 0.  1.
</event>
<event>
 5   0  0.6245176E-04  0.1100468E+04  0.7818609E-02  0.9204736E-01
       -2   -1    0    0    0  501  0.00000000000E+00  0.00000000000E+00  0.27198893942E+03  0.27198893943E+03  0.25500000920E-02 0.  1.
        2   -1    0    0  501    0  0.00000000000E+00  0.00000000000E+00 -0.11131243761E+04  0.11131243761E+04  0.25500000920E-02 0. -1.
    10030    2    1    2    0    0  0.00000000000E+00  0.00000000000E+00 -0.84113543664E+03  0.13851133155E+04  0.11004681158E+04 0.  0.
        5    1    3    3  502    0 -0.24514831109E+03 -0.38959285185E+03 -0.41180582958E+02  0.46216686928E+03  0.46999998093E+01 0.  1.
       -5    1    3    3    0  502  0.24514831109E+03  0.38959285185E+03 -0.79995485368E+03  0.92294644621E+03  0.46999998093E+01 0. -1.
</event>
<event>
 5   0  0.3642161E-04  0.1100786E+04  0.7818609E-02  0.9204427E-01
       -1   -1    0    0    0  501  0.00000000000E+00  0.00000000000E+00  0.37364111656E+03  0.37364111659E+03  0.50400001928E-02 0.  1.
        1   -1    0    0  501    0  0.00000000000E+00  0.00000000000E+00 -0.81075720422E+03  0.81075720424E+03  0.50400001928E-02 0. -1.
    10030    2    1    2    0    0  0.00000000000E+00  0.00000000000E+00 -0.43711608766E+03  0.11843983208E+04  0.11007855869E+04 0.  0.
        2    1    3    3  502    0  0.12165808343E+03  0.49353421859E+03  0.85569319189E+01  0.50837971564E+03  0.25500000920E-02 0. -1.
       -2    1    3    3    0  502 -0.12165808343E+03 -0.49353421859E+03 -0.44567301958E+03  0.67601860520E+03  0.25500000920E-02 0.  1.
</event>
<event>
 5   0  0.3657529E-04  0.1100382E+04  0.7818609E-02  0.9204819E-01
       -1   -1    0    0    0  501  0.00000000000E+00  0.00000000000E+00  0.71396066816E+03  0.71396066818E+03  0.50400001928E-02 0. -1.
        1   -1    0    0  501    0  0.00000000000E+00  0.00000000000E+00 -0.42398727451E+03  0.42398727454E+03  0.50400001928E-02 0.  1.
    10030    2    1    2    0    0  0.00000000000E+00  0.00000000000E+00  0.28997339365E+03  0.11379479427E+04  0.11003821842E+04 0.  0.
        4    1    3    3  502    0 -0.15586145645E+03 -0.42180786868E+03  0.47281678471E+03  0.65251206617E+03  0.12699999809E+01 0. -1.
       -4    1    3    3    0  502  0.15586145645E+03  0.42180786868E+03 -0.18284339107E+03  0.48543587655E+03  0.12699999809E+01 0.  1.
</event>
<event>
 5   0  0.6412712E-04  0.1100892E+04  0.7818609E-02  0.9204323E-01
        2   -1    0    0  501    0  0.00000000000E+00  0.00000000000E+00  0.17260754101E+04  0.17260754101E+04  0.25500000920E-02 0. -1.
       -2   -1    0    0    0  501  0.00000000000E+00  0.00000000000E+00 -0.17553724685E+03  0.17553724687E+03  0.25500000920E-02 0.  1.
    10030    2    1    2    0    0  0.00000000000E+00  0.00000000000E+00  0.15505381632E+04  0.19016126569E+04  0.11008915030E+04 0.  0.
        2    1    3    3  502    0 -0.51692198737E+03  0.16088612597E+02  0.44970653180E+03  0.68534892517E+03  0.25500000920E-02 0.  1.
       -2    1    3    3    0  502  0.51692198737E+03 -0.16088612597E+02  0.11008316314E+04  0.12162637318E+04  0.25500000920E-02 0. -1.
</event>
<event>
 5   0  0.5948818E-04  0.1072822E+04  0.7818609E-02  0.9232094E-01
       -2   -1    0    0    0  501  0.00000000000E+00  0.00000000000E+00  0.50006100424E+03  0.50006100424E+03  0.25500000920E-02 0.  1.
        2   -1    0    0  501    0  0.00000000000E+00  0.00000000000E+00 -0.57540308933E+03  0.57540308933E+03  0.25500000920E-02 0. -1.
    10030    2    1    2    0    0  0.00000000000E+00  0.00000000000E+00 -0.75342085089E+02  0.10754640936E+04  0.10728217871E+04 0.  0.
        3    1    3    3  502    0  0.24825625776E+03  0.38256267416E+03 -0.32076925498E+03  0.55756460999E+03  0.10100000352E+00 0. -1.
       -3    1    3    3    0  502 -0.24825625776E+03 -0.38256267416E+03  0.24542716989E+03  0.51789948358E+03  0.10100000352E+00 0.  1.
</event>
<event>
 5   0  0.3423758E-04  0.1104223E+04  0.7818609E-02  0.9201086E-01
       -1   -1    0    0    0  501  0.00000000000E+00  0.00000000000E+00  0.41440070288E+03  0.41440070291E+03  0.50400001928E-02 0.  1.
        1   -1    0    0  501    0  0.00000000000E+00  0.00000000000E+00 -0.73558502618E+03  0.73558502620E+03  0.50400001928E-02 0. -1.
    10030    2    1    2    0    0  0.00000000000E+00  0.00000000000E+00 -0.32118432331E+03  0.11499857291E+04  0.11042227165E+04 0.  0.
        1    1    3    3  502    0  0.89617222839E+02 -0.51001156791E+03  0.38875987833E+02  0.51928257095E+03  0.50400001928E-02 0.  1.
       -1    1    3    3    0  502 -0.89617222839E+02  0.51001156791E+03 -0.36006031114E+03  0.63070315816E+03  0.50400001928E-02 0. -1.
</event>
<event>
 5   0  0.6245176E-04  0.1099434E+04  0.7818609E-02  0.9205743E-01
       -2   -1    0    0    0  501  0.00000000000E+00  0.00000000000E+00  0.79126535326E+03  0.79126535327E+03  0.25500000920E-02 0.  1.
        2   -1    0    0  501    0  0.00000000000E+00  0.00000000000E+00 -0.38190590392E+03  0.38190590393E+03  0.25500000920E-02 0. -1.
    10030    2    1    2    0    0  0.00000000000E+00  0.00000000000E+00  0.40935944934E+03  0.11731712572E+04  0.10994342363E+04 0.  0.
        5    1    3    3  502    0 -0.19393666503E+03 -0.28307917345E+03  0.66292502188E+03  0.74648303606E+03  0.46999998093E+01 0.  1.
       -5    1    3    3    0  502  0.19393666503E+03  0.28307917345E+03 -0.25356557254E+03  0.42668822114E+03  0.46999998093E+01 0. -1.
</event>
<event>
 5   0  0.3657529E-04  0.1098995E+04  0.7818609E-02  0.9206172E-01
        1   -1    0    0  501    0  0.00000000000E+00  0.00000000000E+00  0.11678220284E+04  0.11678220285E+04  0.50400001928E-02 0. -1.
       -1   -1    0    0    0  501  0.00000000000E+00  0.00000000000E+00 -0.25855619409E+03  0.25855619414E+03  0.50400001928E-02 0.  1.
    10030    2    1    2    0    0  0.00000000000E+00  0.00000000000E+00  0.90926583435E+03  0.14263782226E+04  0.10989952122E+04 0.  0.
        4    1    3    3  502    0  0.48451936270E+03 -0.19601848745E+03  0.67475399020E+03  0.85350853566E+03  0.12699999809E+01 0. -1.
       -4    1    3    3    0  502 -0.48451936270E+03  0.19601848745E+03  0.23451184415E+03  0.57286968693E+03  0.12699999809E+01 0.  1.
</event>
<event>
 5   0  0.3523525E-04  0.1103410E+04  0.7818609E-02  0.9201875E-01
       -1   -1    0    0    0  501  0.00000000000E+00  0.00000000000E+00  0.18762003526E+03  0.18762003533E+03  0.50400001928E-02 0.  1.
        1   -1    0    0  501    0  0.00000000000E+00  0.00000000000E+00 -0.16223126748E+04  0.16223126748E+04  0.50400001928E-02 0. -1.
    10030    2    1    2    0    0  0.00000000000E+00  0.00000000000E+00 -0.14346926396E+04  0.18099327102E+04  0.11034099172E+04 0.  0.
        5    1    3    3  502    0  0.33786093535E+03 -0.41770696625E+03 -0.92305402573E+03  0.10680261915E+04  0.46999998093E+01 0.  1.
       -5    1    3    3    0  502 -0.33786093535E+03  0.41770696625E+03 -0.51163861384E+03  0.74190651868E+03  0.46999998093E+01 0. -1.
</event>
<event>
 5   0  0.6412712E-04  0.1098075E+04  0.7818609E-02  0.9207070E-01
       -2   -1    0    0    0  501  0.00000000000E+00  0.00000000000E+00  0.38163327978E+03  0.38163327979E+03  0.25500000920E-02 0.  1.
        2   -1    0    0  501    0  0.00000000000E+00  0.00000000000E+00 -0.78987389463E+03  0.78987389463E+03  0.25500000920E-02 0. -1.
    10030    2    1    2    0    0  0.00000000000E+00  0.00000000000E+00 -0.40824061485E+03  0.11715071744E+04  0.10980749793E+04 0.  0.
        2    1    3    3  502    0  0.36591446539E+03 -0.17560904299E+03  0.19034922800E+03  0.44829093296E+03  0.25500000920E-02 0.  1.
       -2    1    3    3    0  502 -0.36591446539E+03  0.17560904299E+03 -0.59858984285E+03  0.72321624147E+03  0.25500000920E-02 0. -1.
</event>
<event>
 5   0  0.3423758E-04  0.1104677E+04  0.7818609E-02  0.9200645E-01
        1   -1    0    0  501    0  0.00000000000E+00  0.00000000000E+00  0.77645189259E+03  0.77645189261E+03  0.50400001928E-02 0. -1.
       -1   -1    0    0    0  501  0.00000000000E+00  0.00000000000E+00 -0.39291288560E+03  0.39291288563E+03  0.50400001928E-02 0.  1.
    10030    2    1    2    0    0  0.00000000000E+00  0.00000000000E+00  0.38353900699E+03  0.11693647782E+04  0.11046772446E+04 0.  0.
        1    1    3    3  502    0  0.11478159350E+03 -0.13803894870E+03  0.74470605136E+03  0.76603959984E+03  0.50400001928E-02 0. -1.
       -1    1    3    3    0  502 -0.11478159350E+03  0.13803894870E+03 -0.36116704437E+03  0.40332517840E+03  0.50400001928E-02 0.  1.
</event>
<event>
 5   0  0.3642161E-04  0.1105184E+04  0.7818609E-02  0.9200153E-01
        1   -1    0    0  501    0  0.00000000000E+00  0.00000000000E+00  0.26244216468E+03  0.26244216472E+03  0.50400001928E-02 0.  1.
       -1   -1    0    0    0  501  0.00000000000E+00  0.00000000000E+00 -0.11635256240E+04  0.11635256240E+04  0.50400001928E-02 0. -1.
    10030    2    1    2    0    0  0.00000000000E+00  0.00000000000E+00 -0.90108345928E+03  0.14259677887E+04  0.11051844795E+04 0.  0.
        2    1    3    3  502    0 -0.50148133553E+03 -0.23209960810E+03 -0.45325601283E+03  0.71469907733E+03  0.25500000920E-02 0.  1.
       -2    1    3    3    0  502  0.50148133553E+03  0.23209960810E+03 -0.44782744644E+03  0.71126871136E+03  0.25500000920E-02 0. -1.
</event>
<event>
 5   0  0.6245176E-04  0.1097752E+04  0.7818609E-02  0.9207385E-01
       -2   -1    0    0    0  501  0.00000000000E+00  0.00000000000E+00  0.30755018997E+03  0.30755018998E+03  0.25500000920E-02 0. -1.
        2   -1    0    0  501    0  0.00000000000E+00  0.00000000000E+00 -0.97956379396E+03  0.97956379396E+03  0.25500000920E-02 0.  1.
    10030    2    1    2    0    0  0.00000000000E+00  0.00000000000E+00 -0.67201360399E+03  0.12871139839E+04  0.10977523053E+04 0.  0.
        5    1    3    3  502    0 -0.72420515743E+02  0.45733799264E+03  0.95130334804E+01  0.46315802748E+03  0.46999998093E+01 0. -1.
       -5    1    3    3    0  502  0.72420515743E+02 -0.45733799264E+03 -0.68152663747E+03  0.82395595646E+03  0.46999998093E+01 0.  1.
</event>
<event>
 5   0  0.6264830E-04  0.1097648E+04  0.7818609E-02  0.9207487E-01
        2   -1    0    0  501    0  0.00000000000E+00  0.00000000000E+00  0.55086809454E+03  0.55086809455E+03  0.25500000920E-02 0. -1.
       -2   -1    0    0    0  501  0.00000000000E+00  0.00000000000E+00 -0.54678769056E+03  0.54678769057E+03  0.25500000920E-02 0.  1.
    10030    2    1    2    0    0  0.00000000000E+00  0.00000000000E+00  0.40804039823E+01  0.10976557851E+04  0.10976482009E+04 0.  0.
        4    1    3    3  502    0  0.24093839430E+03 -0.35310863497E+03 -0.34215581705E+03  0.54754838506E+03  0.12699999809E+01 0.  1.
       -4    1    3    3    0  502 -0.24093839430E+03  0.35310863497E+03  0.34623622104E+03  0.55010740006E+03  0.12699999809E+01 0. -1.
</event>
<event>
 5   0  0.3642161E-04  0.1099784E+04  0.7818609E-02  0.9205402E-01
       -1   -1    0    0    0  501  0.00000000000E+00  0.00000000000E+00  0.34456180176E+03  0.34456180180E+03  0.50400001928E-02 0. -1.
        1   -1    0    0  501    0  0.00000000000E+00  0.00000000000E+00 -0.87758203441E+03  0.87758203442E+03  0.50400001928E-02 0.  1.
    10030    2    1    2    0    0  0.00000000000E+00  0.00000000000E+00 -0.53302023265E+03  0.12221438362E+04  0.10997840643E+04 0.  0.
        2    1    3    3  502    0  0.29208912365E+03  0.46521280845E+03 -0.29467198332E+03  0.62335430620E+03  0.25500000920E-02 0. -1.
       -2    1    3    3    0  502 -0.29208912365E+03 -0.46521280845E+03 -0.23834824933E+03  0.59878953002E+03  0.25500000920E-02 0.  1.
</event>
<event>
 5   0  0.3621403E-04  0.1098742E+04  0.7818609E-02  0.9206419E-01
        1   -1    0    0  501    0  0.00000000000E+00  0.00000000000E+00  0.93478510945E+03  0.93478510947E+03  0.50400001928E-02 0.  1.
       -1   -1    0    0    0  501  0.00000000000E+00  0.00000000000E+00 -0.32286405722E+03  0.32286405726E+03  0.50400001928E-02 0. -1.
    10030    2    1    2    0    0  0.00000000000E+00  0.00000000000E+00  0.61192105224E+03  0.12576491667E+04  0.10987420318E+04 0.  0.
        3    1    3    3  502    0 -0.40824718289E+03 -0.33050728216E+03  0.12172303717E+03  0.53918209714E+03  0.10100000352E+00 0.  1.
       -3    1    3    3    0  502  0.40824718289E+03  0.33050728216E+03  0.49019801507E+03  0.71846706958E+03  0.10100000352E+00 0. -1.
</event>
<event>
 5   0  0.3642161E-04  0.1100361E+04  0.7818609E-02  0.9204840E-01
        1   -1    0    0  501    0  0.00000000000E+00  0.00000000000E+00  0.89204755767E+03  0.89204755769E+03  0.50400001928E-02 0. -1.
       -1   -1    0    0    0  501  0.00000000000E+00  0.00000000000E+00 -0.33933016227E+03  0.33933016230E+03  0.50400001928E-02 0.  1.
    10030    2    1    2    0    0  0.00000000000E+00  0.00000000000E+00  0.55271739541E+03  0.12313777200E+04  0.11003611090E+04 0.  0.
        2    1    3    3  502    0 -0.44968586791E+03  0.15990198655E+03 -0.29931814978E+02  0.47820700397E+03  0.25500000920E-02 0.  1.
       -2    1    3    3    0  502  0.44968586791E+03 -0.15990198655E+03  0.58264921038E+03  0.75317071602E+03  0.25500000920E-02 0. -1.
</event>
<event>
 5   0  0.5948818E-04  0.1101079E+04  0.7818609E-02  0.9204140E-01
       -2   -1    0    0    0  501  0.00000000000E+00  0.00000000000E+00  0.54823648146E+03  0.54823648146E+03  0.25500000920E-02 0. -1.
        2   -1    0    0  501    0  0.00000000000E+00  0.00000000000E+00 -0.55285269164E+03  0.55285269165E+03  0.25500000920E-02 0.  1.
    10030    2    1    2    0    0  0.00000000000E+00  0.00000000000E+00 -0.46162101874E+01  0.11010891731E+04  0.11010794966E+04 0.  0.
        3    1    3    3  502    0  0.16482132554E+03 -0.12580780335E+03  0.50769670191E+03  0.54840644058E+03  0.10100000352E+00 0. -1.
       -3    1    3    3    0  502 -0.16482132554E+03  0.12580780335E+03 -0.51231291210E+03  0.55268273253E+03  0.10100000352E+00 0.  1.
</event>
<event>
 5   0  0.3523525E-04  0.1100115E+04  0.7818609E-02  0.9205080E-01
       -1   -1    0    0    0  501  0.00000000000E+00  0.00000000000E+00  0.11136068143E+03  0.11136068155E+03  0.50400001928E-02 0. -1.
        1   -1    0    0  501    0  0.00000000000E+00  0.00000000000E+00 -0.27169665193E+04  0.27169665193E+04  0.50400001928E-02 0.  1.
    10030    2    1    2    0    0  0.00000000000E+00  0.00000000000E+00 -0.26056058379E+04  0.28283272009E+04  0.11001149816E+04 0.  0.
        5    1    3    3  502    0 -0.54285964533E+03  0.67728801234E+02 -0.11560708660E+04  0.12789862088E+04  0.46999998093E+01 0.  1.
       -5    1    3    3    0  502  0.54285964533E+03 -0.67728801234E+02 -0.14495349719E+04  0.15493409921E+04  0.46999998093E+01 0. -1.
</event>
<event>
 5   0  0.3657529E-04  0.1099809E+04  0.7818609E-02  0.9205378E-01
        1   -1    0    0  501    0  0.00000000000E+00  0.00000000000E+00  0.10373175308E+04  0.10373175308E+04  0.50400001928E-02 0.  1.
       -1   -1    0    0    0  501  0.00000000000E+00  0.00000000000E+00 -0.29151642474E+03  0.29151642479E+03  0.50400001928E-02 0. -1.
    10030    2    1    2    0    0  0.00000000000E+00  0.00000000000E+00  0.74580110605E+03  0.13288339556E+04  0.10998092524E+04 0.  0.
        4    1    3    3  502    0  0.33223008701E+03 -0.24121730302E+03 -0.69108835301E+02  0.41634152088E+03  0.12699999809E+01 0. -1.
       -4    1    3    3    0  502 -0.33223008701E+03  0.24121730302E+03  0.81490994135E+03  0.91249243471E+03  0.12699999809E+01 0.  1.
</event>
<event>
 5   0  0.3423758E-04  0.1100344E+04  0.7818609E-02  0.9204856E-01
       -1   -1    0    0    0  501  0.00000000000E+00  0.00000000000E+00  0.37755736604E+03  0.37755736607E+03  0.50400001928E-02 0. -1.
        1   -1    0    0  501    0  0.00000000000E+00  0.00000000000E+00 -0.80170420621E+03  0.80170420623E+03  0.50400001928E-02 0.  1.
    10030    2    1    2    0    0  0.00000000000E+00  0.00000000000E+00 -0.42414684017E+03  0.11792615723E+04  0.11003441797E+04 0.  0.
        1    1    3    3  502    0  0.26484612386E+03  0.27188150891E+03 -0.63891743782E+03  0.74315443656E+03  0.50400001928E-02 0.  1.
       -1    1    3    3    0  502 -0.26484612386E+03 -0.27188150891E+03  0.21477059764E+03  0.43610713574E+03  0.50400001928E-02 0. -1.
</event>
<event>
 5   0  0.6109149E-04  0.1099825E+04  0.7818609E-02  0.9205363E-01
        2   -1    0    0  501    0  0.00000000000E+00  0.00000000000E+00  0.18087643111E+04  0.18087643111E+04  0.25500000920E-02 0.  1.
       -2   -1    0    0    0  501  0.00000000000E+00  0.00000000000E+00 -0.16718789967E+03  0.16718789969E+03  0.25500000920E-02 0. -1.
    10030    2    1    2    0    0  0.00000000000E+00  0.00000000000E+00  0.16415764114E+04  0.19759522108E+04  0.10998245427E+04 0.  0.
        1    1    3    3  502    0 -0.31804862877E+03 -0.44111955349E+03  0.96743045270E+03  0.11098031679E+04  0.50400001928E-02 0. -1.
       -1    1    3    3    0  502  0.31804862877E+03  0.44111955349E+03  0.67414595873E+03  0.86614904285E+03  0.50400001928E-02 0.  1.
</event>
<event>
 5   0  0.3423758E-04  0.1100517E+04  0.7818609E-02  0.9204688E-01
       -1   -1    0    0    0  501  0.00000000000E+00  0.00000000000E+00  0.21389045390E+03  0.21389045396E+03  0.50400001928E-02 0.  1.
        1   -1    0    0  501    0  0.00000000000E+00  0.00000000000E+00 -0.14156047273E+04  0.14156047273E+04  0.50400001928E-02 0. -1.
    10030    2    1    2    0    0  0.00000000000E+00  0.00000000000E+00 -0.12017142734E+04  0.16294951813E+04  0.11005168563E+04 0.  0.
        1    1    3    3  502    0  0.41606909594E+03 -0.33031463789E+03 -0.81318183618E+03  0.97133204998E+03  0.50400001928E-02 0. -1.
       -1    1    3    3    0  502 -0.41606909594E+03  0.33031463789E+03 -0.38853243724E+03  0.65816313131E+03  0.50400001928E-02 0.  1.
</event>
<event>
 5   0  0.5948818E-04  0.1099894E+04  0.7818609E-02  0.9205296E-01
        2   -1    0    0  501    0  0.00000000000E+00  0.00000000000E+00  0.64184421020E+03  0.64184421020E+03  0.25500000920E-02 0.  1.
       -2   -1    0    0    0  501  0.00000000000E+00  0.00000000000E+00 -0.47120700130E+03  0.47120700131E+03  0.25500000920E-02 0. -1.
    10030    2    1    2    0    0  0.00000000000E+00  0.00000000000E+00  0.17063720890E+03  0.11130512115E+04  0.10998936050E+04 0.  0.
        3    1    3    3  502    0 -0.12067642708E+03 -0.15513527614E+03  0.60508896859E+03  0.63620941840E+03  0.10100000352E+00 0.  1.
       -3    1    3    3    0  502  0.12067642708E+03  0.15513527614E+03 -0.43445175970E+03  0.47684179311E+03  0.10100000352E+00 0. -1.
</event>
<event>
 5   0  0.5948818E-04  0.1100071E+04  0.7818609E-02  0.9205122E-01
       -2   -1    0    0    0  501  0.00000000000E+00  0.00000000000E+00  0.65522561666E+03  0.65522561667E+03  0.25500000920E-02 0. -1.
        2   -1    0    0  501    0  0.00000000000E+00  0.00000000000E+00 -0.46173287978E+03  0.46173287979E+03  0.25500000920E-02 0.  1.
    10030    2    1    2    0    0  0.00000000000E+00  0.00000000000E+00  0.19349273688E+03  0.11169584965E+04  0.11000712902E+04 0.  0.
        3    1    3    3  502    0  0.15409375351E+03  0.15323470920E+03  0.60978851482E+03  0.64735446549E+03  0.10100000352E+00 0. -1.
       -3    1    3    3    0  502 -0.15409375351E+03 -0.15323470920E+03 -0.41629577794E+03  0.46960403097E+03  0.10100000352E+00 0.  1.
</event>
<event>
 5   0  0.6264830E-04  0.1104032E+04  0.7818609E-02  0.9201271E-01
        2   -1    0    0  501    0  0.00000000000E+00  0.00000000000E+00  0.64272221335E+03  0.64272221336E+03  0.25500000920E-02 0. -1.
       -2   -1    0    0    0  501  0.00000000000E+00  0.00000000000E+00 -0.47411100108E+03  0.47411100108E+03  0.25500000920E-02 0.  1.
    10030    2    1    2    0    0  0.00000000000E+00  0.00000000000E+00  0.16861121227E+03  0.11168332144E+04  0.11040320140E+04 0.  0.
        4    1    3    3  502    0  0.10714266145E+03 -0.26162254505E+03 -0.39531646470E+03  0.48600681697E+03  0.12699999809E+01 0.  1.
       -4    1    3    3    0  502 -0.10714266145E+03  0.26162254505E+03  0.56392767697E+03  0.63082639747E+03  0.12699999809E+01 0. -1.
</event>
<event>
 5   0  0.3621403E-04  0.1101215E+04  0.7818609E-02  0.9204008E-01
        1   -1    0    0  501    0  0.00000000000E+00  0.00000000000E+00  0.10106106109E+04  0.10106106109E+04  0.50400001928E-02 0. -1.
       -1   -1    0    0    0  501  0.00000000000E+00  0.00000000000E+00 -0.29998584113E+03  0.29998584118E+03  0.50400001928E-02 0.  1.
    10030    2    1    2    0    0  0.00000000000E+00  0.00000000000E+00  0.71062476975E+03  0.13105964521E+04  0.11012154634E+04 0.  0.
        3    1    3    3  502    0 -0.45949224645E+03  0.21535115290E+03  0.60962203187E+03  0.79318867588E+03  0.10100000352E+00 0. -1.
       -3    1    3    3    0  502  0.45949224645E+03 -0.21535115290E+03  0.10100273788E+03  0.51740777619E+03  0.10100000352E+00 0.  1.
</event>
<event>
 5   0  0.6264830E-04  0.1100318E+04  0.7818609E-02  0.9204882E-01
       -2   -1    0    0    0  501  0.00000000000E+00  0.00000000000E+00  0.31869141057E+03  0.31869141058E+03  0.25500000920E-02 0.  1.
        2   -1    0    0  501    0  0.00000000000E+00  0.00000000000E+00 -0.94974286893E+03  0.94974286893E+03  0.25500000920E-02 0. -1.
    10030    2    1    2    0    0  0.00000000000E+00  0.00000000000E+00 -0.63105145835E+03  0.12684342795E+04  0.11003179442E+04 0.  0.
        4    1    3    3  502    0  0.54724500492E+03 -0.18547962653E+02 -0.37709112400E+03  0.66484618599E+03  0.12699999809E+01 0. -1.
       -4    1    3    3    0  502 -0.54724500492E+03  0.18547962653E+02 -0.25396033435E+03  0.60358809353E+03  0.12699999809E+01 0.  1.
</event>
<event>
 5   0  0.3523525E-04  0.1100777E+04  0.7818609E-02  0.9204435E-01
        1   -1    0    0  501    0  0.00000000000E+00  0.00000000000E+00  0.87407079591E+03  0.87407079592E+03  0.50400001928E-02 0.  1.
       -1   -1    0    0    0  501  0.00000000000E+00  0.00000000000E+00 -0.34657103227E+03  0.34657103231E+03  0.50400001928E-02 0. -1.
    10030    2    1    2    0    0  0.00000000000E+00  0.00000000000E+00  0.52749976364E+03  0.12206418282E+04  0.11007772128E+04 0.  0.
        5    1    3    3  502    0 -0.14323661733E+03  0.13960259311E+02  0.85281409111E+03  0.86488472143E+03  0.46999998093E+01 0.  1.
       -5    1    3    3    0  502  0.14323661733E+03 -0.13960259311E+02 -0.32531432747E+03  0.35575710680E+03  0.46999998093E+01 0. -1.
</event>
<event>
 5   0  0.6109149E-04  0.1100978E+04  0.7818609E-02  0.9204239E-01
       -2   -1    0    0    0  501  0.00000000000E+00  0.00000000000E+00  0.24183241105E+03  0.24183241106E+03  0.25500000920E-02 0. -1.
        2   -1    0    0  501    0  0.00000000000E+00  0.00000000000E+00 -0.12530919939E+04  0.12530919939E+04  0.25500000920E-02 0.  1.
    10030    2    1    2    0    0  0.00000000000E+00  0.00000000000E+00 -0.10112595829E+04  0.14949244050E+04  0.11009782162E+04 0.  0.
        1    1    3    3  502    0  0.20133361968E+03  0.10691345463E+03 -0.11859918995E+04  0.12077013285E+04  0.50400001928E-02 0.  1.
       -1    1    3    3    0  502 -0.20133361968E+03 -0.10691345463E+03  0.17473231658E+03  0.28722307651E+03  0.50400001928E-02 0. -1.
</event>
<event>
 5   0  0.3642161E-04  0.1099498E+04  0.7818609E-02  0.9205681E-01
        1   -1    0    0  501    0  0.00000000000E+00  0.00000000000E+00  0.37827595604E+03  0.37827595607E+03  0.50400001928E-02 0. -1.
       -1   -1    0    0    0  501  0.00000000000E+00  0.00000000000E+00 -0.79895154703E+03  0.79895154705E+03  0.50400001928E-02 0.  1.
    10030    2    1    2    0    0  0.00000000000E+00  0.00000000000E+00 -0.42067559099E+03  0.11772275031E+04  0.10994983589E+04 0.  0.
        2    1    3    3  502    0 -0.20971786860E+02 -0.30571781606E+03 -0.69902649888E+03  0.76324389617E+03  0.25500000920E-02 0.  1.
       -2    1    3    3    0  502  0.20971786860E+02  0.30571781606E+03  0.27835090789E+03  0.41398360695E+03  0.25500000920E-02 0. -1.
</event>
<event>
 5   0  0.6245176E-04  0.1099661E+04  0.7818609E-02  0.9205523E-01
        2   -1    0    0  501    0  0.00000000000E+00  0.00000000000E+00  0.49543156866E+03  0.49543156866E+03  0.25500000920E-02 0.  1.
       -2   -1    0    0    0  501  0.00000000000E+00  0.00000000000E+00 -0.61020195999E+03  0.61020196000E+03  0.25500000920E-02 0. -1.
    10030    2    1    2    0    0  0.00000000000E+00  0.00000000000E+00 -0.11477039134E+03  0.11056335287E+04  0.10996605190E+04 0.  0.
        5    1    3    3  502    0 -0.22572199460E+03 -0.49765537951E+03  0.36067188896E+01  0.54648549296E+03  0.46999998093E+01 0.  1.
       -5    1    3    3    0  502  0.22572199460E+03  0.49765537951E+03 -0.11837711023E+03  0.55914803570E+03  0.46999998093E+01 0. -1.
</event>
<event>
 5   0  0.3621403E-04  0.1103215E+04  0.7818609E-02  0.9202064E-01
        1   -1    0    0  501    0  0.00000000000E+00  0.00000000000E+00  0.79284835404E+03  0.79284835406E+03  0.50400001928E-02 0. -1.
       -1   -1    0    0    0  501  0.00000000000E+00  0.00000000000E+00 -0.38376926441E+03  0.38376926445E+03  0.50400001928E-02 0.  1.
    10030    2    1    2    0    0  0.00000000000E+00  0.00000000000E+00  0.40907908963E+03  0.11766176185E+04  0.11032149920E+04 0.  0.
        3    1    3    3  502    0  0.48671580590E+03  0.23283339665E+03  0.82156533395E+02  0.54575944563E+03  0.10100000352E+00 0.  1.
       -3    1    3    3    0  502 -0.48671580590E+03 -0.23283339665E+03  0.32692255623E+03  0.63085817288E+03  0.10100000352E+00 0. -1.
</event>
<event>
 5   0  0.3423758E-04  0.1100050E+04  0.7818609E-02  0.9205143E-01
       -1   -1    0    0    0  501  0.00000000000E+00  0.00000000000E+00  0.51388888947E+03  0.51388888949E+03  0.50400001928E-02 0. -1.
        1   -1    0    0  501    0  0.00000000000E+00  0.00000000000E+00 -0.58870180063E+03  0.58870180065E+03  0.50400001928E-02 0.  1.
    10030    2    1    2    0    0  0.00000000000E+00  0.00000000000E+00 -0.74812911164E+02  0.11025906901E+04  0.11000496618E+04 0.  0.
        1    1    3    3  502    0  0.15555414675E+03 -0.36276710787E+03 -0.42134512394E+03  0.57734632641E+03  0.50400001928E-02 0.  1.
       -1    1    3    3    0  502 -0.15555414675E+03  0.36276710787E+03  0.34653221277E+03  0.52524436374E+03  0.50400001928E-02 0. -1.
</event>
<event>
 5   0  0.3523525E-04  0.1098672E+04  0.7818609E-02  0.9206487E-01
        1   -1    0    0  501    0  0.00000000000E+00  0.00000000000E+00  0.12382370576E+04  0.12382370576E+04  0.50400001928E-02 0.  1.
       -1   -1    0    0    0  501  0.00000000000E+00  0.00000000000E+00 -0.24370948024E+03  0.24370948029E+03  0.50400001928E-02 0. -1.
    10030    2    1    2    0    0  0.00000000000E+00  0.00000000000E+00  0.99452757735E+03  0.14819465379E+04  0.10986721254E+04 0.  0.
        5    1    3    3  502    0  0.95236855274E+02  0.48819208812E+03  0.18281494233E+03  0.52994807920E+03  0.46999998093E+01 0. -1.
       -5    1    3    3    0  502 -0.95236855274E+02 -0.48819208812E+03  0.81171263502E+03  0.95199845870E+03  0.46999998093E+01 0.  1.
</event>
<event>
 5   0  0.3423758E-04  0.1099998E+04  0.7818609E-02  0.9205194E-01
       -1   -1    0    0    0  501  0.00000000000E+00  0.00000000000E+00  0.40983905362E+03  0.40983905366E+03  0.50400001928E-02 0. -1.
        1   -1    0    0  501    0  0.00000000000E+00  0.00000000000E+00 -0.73809220953E+03  0.73809220954E+03  0.50400001928E-02 0.  1.
    10030    2    1    2    0    0  0.00000000000E+00  0.00000000000E+00 -0.32825315590E+03  0.11479312632E+04  0.10999982048E+04 0.  0.
        1    1    3    3  502    0  0.15889620560E+03 -0.28435928890E+03  0.29834439636E+03  0.44172116567E+03  0.50400001928E-02 0. -1.
       -1    1    3    3    0  502 -0.15889620560E+03  0.28435928890E+03 -0.62659755226E+03  0.70621009753E+03  0.50400001928E-02 0.  1.
</event>
<event>
 5   0  0.3642161E-04  0.1098189E+04  0.7818609E-02  0.9206959E-01
        1   -1    0    0  501    0  0.00000000000E+00  0.00000000000E+00  0.24808712563E+03  0.24808712568E+03  0.50400001928E-02 0.  1.
       -1   -1    0    0    0  501  0.00000000000E+00  0.00000000000E+00 -0.12153171026E+04  0.12153171026E+04  0.50400001928E-02 0. -1.
    10030    2    1    2    0    0  0.00000000000E+00  0.00000000000E+00 -0.96722997699E+03  0.14634042283E+04  0.10981885571E+04 0.  0.
        2    1    3    3  502    0 -0.41011051735E+03 -0.21347838103E+03 -0.88895688094E+02  0.47081429351E+03  0.25500000920E-02 0.  1.
       -2    1    3    3    0  502  0.41011051735E+03  0.21347838103E+03 -0.87833428889E+03  0.99258993480E+03  0.25500000920E-02 0. -1.
</event>
<event>
 5   0  0.3523525E-04  0.1086419E+04  0.7818609E-02  0.9218530E-01
        1   -1    0    0  501    0  0.00000000000E+00  0.00000000000E+00  0.13988269455E+04  0.13988269455E+04  0.50400001928E-02 0.  1.
       -1   -1    0    0    0  501  0.00000000000E+00  0.00000000000E+00 -0.21094589095E+03  0.21094589101E+03  0.50400001928E-02 0. -1.
    10030    2    1    2    0    0  0.00000000000E+00  0.00000000000E+00  0.11878810546E+04  0.16097728365E+04  0.10864194335E+04 0.  0.
        5    1    3    3  502    0  0.44618003504E+03  0.61928300430E+02  0.14416256913E+03  0.47298697064E+03  0.46999998093E+01 0. -1.
       -5    1    3    3    0  502 -0.44618003504E+03 -0.61928300430E+02  0.10437184854E+04  0.11367858659E+04  0.46999998093E+01 0.  1.
</event>
<event>
 5   0  0.6245176E-04  0.1097159E+04  0.7818609E-02  0.9207965E-01
       -2   -1    0    0    0  501  0.00000000000E+00  0.00000000000E+00  0.56235548656E+03  0.56235548657E+03  0.25500000920E-02 0. -1.
        2   -1    0    0  501    0  0.00000000000E+00  0.00000000000E+00 -0.53514095387E+03  0.53514095388E+03  0.25500000920E-02 0.  1.
    10030    2    1    2    0    0  0.00000000000E+00  0.00000000000E+00  0.27214532692E+02  0.10974964404E+04  0.10971589703E+04 0.  0.
        5    1    3    3  502    0 -0.93920659867E+01  0.54783956156E+03  0.40091160792E+02  0.54940493927E+03  0.46999998093E+01 0. -1.
       -5    1    3    3    0  502  0.93920659867E+01 -0.54783956156E+03 -0.12876628099E+02  0.54809150118E+03  0.46999998093E+01 0.  1.
</event>
<event>
 5   0  0.3523525E-04  0.1100661E+04  0.7818609E-02  0.9204548E-01
       -1   -1    0    0    0  501  0.00000000000E+00  0.00000000000E+00  0.88685886145E+03  0.88685886147E+03  0.50400001928E-02 0.  1.
        1   -1    0    0  501    0  0.00000000000E+00  0.00000000000E+00 -0.34150135120E+03  0.34150135124E+03  0.50400001928E-02 0. -1.
    10030    2    1    2    0    0  0.00000000000E+00  0.00000000000E+00  0.54535751025E+03  0.12283602127E+04  0.11006607098E+04 0.  0.
        5    1    3    3  502    0 -0.12693029590E+03  0.21922131953E+03 -0.27254293523E+03  0.37211695540E+03  0.46999998093E+01 0. -1.
       -5    1    3    3    0  502  0.12693029590E+03 -0.21922131953E+03  0.81790044548E+03  0.85624325730E+03  0.46999998093E+01 0.  1.
</event>
<event>
 5   0  0.6109149E-04  0.1110122E+04  0.7818609E-02  0.9195382E-01
       -2   -1    0    0    0  501  0.00000000000E+00  0.00000000000E+00  0.49903989309E+03  0.49903989310E+03  0.25500000920E-02 0. -1.
        2   -1    0    0  501    0  0.00000000000E+00  0.00000000000E+00 -0.61737089039E+03  0.61737089040E+03  0.25500000920E-02 0.  1.
    10030    2    1    2    0    0  0.00000000000E+00  0.00000000000E+00 -0.11833099730E+03  0.11164107835E+04  0.11101219809E+04 0.  0.
        1    1    3    3  502    0 -0.17902001037E+03 -0.58495661714E+02  0.46592529628E+03  0.50254978688E+03  0.50400001928E-02 0. -1.
       -1    1    3    3    0  502  0.17902001037E+03  0.58495661714E+02 -0.58425629358E+03  0.61386099662E+03  0.50400001928E-02 0.  1.
</event>
<event>
 5   0  0.3423758E-04  0.1126078E+04  0.7818609E-02  0.9180140E-01
       -1   -1    0    0    0  501  0.00000000000E+00  0.00000000000E+00  0.81110201130E+03  0.81110201131E+03  0.50400001928E-02 0. -1.
        1   -1    0    0  501    0  0.00000000000E+00  0.00000000000E+00 -0.39084249221E+03  0.39084249225E+03  0.50400001928E-02 0.  1.
    10030    2    1    2    0    0  0.00000000000E+00  0.00000000000E+00  0.42025951908E+03  0.12019445036E+04  0.11260783837E+04 0.  0.
        1    1    3    3  502    0 -0.43147197592E+03  0.32775994065E+03  0.46788759912E+02  0.54386012244E+03  0.50400001928E-02 0.  1.
       -1    1    3    3    0  502  0.43147197592E+03 -0.32775994065E+03  0.37347075917E+03  0.65808438112E+03  0.50400001928E-02 0. -1.
</event>
<event>
 5   0  0.6264830E-04  0.1100155E+04  0.7818609E-02  0.9205041E-01
        2   -1    0    0  501    0  0.00000000000E+00  0.00000000000E+00  0.25913353248E+03  0.25913353249E+03  0.25500000920E-02 0.  1.
       -2   -1    0    0    0  501  0.00000000000E+00  0.00000000000E+00 -0.11676810154E+04  0.11676810154E+04  0.25500000920E-02 0. -1.
    10030    2    1    2    0    0  0.00000000000E+00  0.00000000000E+00 -0.90854748293E+03  0.14268145479E+04  0.11001550915E+04 0.  0.
        4    1    3    3  502    0 -0.33723904875E+03  0.18869923038E+03 -0.96197513629E+03  0.10366944349E+04  0.12699999809E+01 0. -1.
       -4    1    3    3    0  502  0.33723904875E+03 -0.18869923038E+03  0.53427653364E+02  0.39012011303E+03  0.12699999809E+01 0.  1.
</event>
<event>
 5   0  0.5948818E-04  0.1095859E+04  0.7818609E-02  0.9209237E-01
        2   -1    0    0  501    0  0.00000000000E+00  0.00000000000E+00  0.96344447317E+03  0.96344447317E+03  0.25500000920E-02 0. -1.
       -2   -1    0    0    0  501  0.00000000000E+00  0.00000000000E+00 -0.31161833651E+03  0.31161833652E+03  0.25500000920E-02 0.  1.
    10030    2    1    2    0    0  0.00000000000E+00  0.00000000000E+00  0.65182613666E+03  0.12750628097E+04  0.10958594144E+04 0.  0.
        3    1    3    3  502    0  0.44032646679E+02 -0.51761950371E+03  0.12318483366E+03  0.53389450085E+03  0.10100000352E+00 0. -1.
       -3    1    3    3    0  502 -0.44032646679E+02  0.51761950371E+03  0.52864130300E+03  0.74116830884E+03  0.10100000352E+00 0.  1.
</event>
<event>
 5   0  0.3621403E-04  0.1101366E+04  0.7818609E-02  0.9203862E-01
       -1   -1    0    0    0  501  0.00000000000E+00  0.00000000000E+00  0.28506673065E+03  0.28506673070E+03  0.50400001928E-02 0. -1.
        1   -1    0    0  501    0  0.00000000000E+00  0.00000000000E+00 -0.10637915203E+04  0.10637915203E+04  0.50400001928E-02 0.  1.
    10030    2    1    2    0    0  0.00000000000E+00  0.00000000000E+00 -0.77872478967E+03  0.13488582510E+04  0.11013656447E+04 0.  0.
        3    1    3    3  502    0 -0.39359706072E+00  0.45401472450E+03 -0.77103736111E+03  0.89477826717E+03  0.10100000352E+00 0.  1.
       -3    1    3    3    0  502  0.39359706072E+00 -0.45401472450E+03 -0.76874285643E+01  0.45407998386E+03  0.10100000352E+00 0. -1.
</event>
<event>
 5   0  0.3523525E-04  0.1099387E+04  0.7818609E-02  0.9205790E-01
       -1   -1    0    0    0  501  0.00000000000E+00  0.00000000000E+00  0.55694473013E+03  0.55694473015E+03  0.50400001928E-02 0. -1.
        1   -1    0    0  501    0  0.00000000000E+00  0.00000000000E+00 -0.54253660441E+03  0.54253660443E+03  0.50400001928E-02 0.  1.
    10030    2    1    2    0    0  0.00000000000E+00  0.00000000000E+00  0.14408125721E+02  0.10994813346E+04  0.10993869251E+04 0.  0.
        5    1    3    3  502    0  0.30081448820E+03 -0.18391398350E+03  0.42893578579E+03  0.55526724014E+03  0.46999998093E+01 0. -1.
       -5    1    3    3    0  502 -0.30081448820E+03  0.18391398350E+03 -0.41452766007E+03  0.54421409445E+03  0.46999998093E+01 0.  1.
</event>
<event>
 5   0  0.2403875E-04  0.1103095E+04  0.7818609E-02  0.9202181E-01
        3   -1    0    0  501    0  0.00000000000E+00  0.00000000000E+00  0.90954355711E+03  0.90954356272E+03  0.10100000352E+00 0.  1.
       -3   -1    0    0    0  501  0.00000000000E+00  0.00000000000E+00 -0.33445838535E+03  0.33445840060E+03  0.10100000352E+00 0. -1.
    10030    2    1    2    0    0  0.00000000000E+00  0.00000000000E+00  0.57508517176E+03  0.12440019633E+04  0.11030947058E+04 0.  0.
        2    1    3    3  502    0  0.33812388367E+01  0.53913661249E+03  0.15639113671E+03  0.56137145221E+03  0.25500000920E-02 0. -1.
       -2    1    3    3    0  502 -0.33812388367E+01 -0.53913661249E+03  0.41869403505E+03  0.68263051111E+03  0.25500000920E-02 0.  1.
</event>
<event>
 5   0  0.3642161E-04  0.1100256E+04  0.7818609E-02  0.9204943E-01
        1   -1    0    0  501    0  0.00000000000E+00  0.00000000000E+00  0.37325983253E+03  0.37325983256E+03  0.50400001928E-02 0.  1.
       -1   -1    0    0    0  501  0.00000000000E+00  0.00000000000E+00 -0.81080448066E+03  0.81080448067E+03  0.50400001928E-02 0. -1.
    10030    2    1    2    0    0  0.00000000000E+00  0.00000000000E+00 -0.43754464813E+03  0.11840643132E+04  0.11002558697E+04 0.  0.
        2    1    3    3  502    0  0.31702581682E+03  0.30874217747E+03  0.13294597454E+03  0.46206247720E+03  0.25500000920E-02 0.  1.
       -2    1    3    3    0  502 -0.31702581682E+03 -0.30874217747E+03 -0.57049062267E+03  0.72200183604E+03  0.25500000920E-02 0. -1.
</event>
<event>
 5   0  0.5948818E-04  0.1099985E+04  0.7818609E-02  0.9205207E-01
       -2   -1    0    0    0  501  0.00000000000E+00  0.00000000000E+00  0.84981170341E+03  0.84981170342E+03  0.25500000920E-02 0.  1.
        2   -1    0    0  501    0  0.00000000000E+00  0.00000000000E+00 -0.35595143594E+03  0.35595143594E+03  0.25500000920E-02 0. -1.
    10030    2    1    2    0    0  0.00000000000E+00  0.00000000000E+00  0.49386026748E+03  0.12057631394E+04  0.10999849019E+04 0.  0.
        3    1    3    3  502    0 -0.43224458742E+02 -0.14225126909E+02 -0.35388436810E+03  0.35679807210E+03  0.10100000352E+00 0. -1.
       -3    1    3    3    0  502  0.43224458742E+02  0.14225126909E+02  0.84774463558E+03  0.84896506726E+03  0.10100000352E+00 0.  1.
</event>
<event>
 5   0  0.6412712E-04  0.1099229E+04  0.7818609E-02  0.9205943E-01
        2   -1    0    0  501    0  0.00000000000E+00  0.00000000000E+00  0.74063601385E+03  0.74063601386E+03  0.25500000920E-02 0.  1.
       -2   -1    0    0    0  501  0.00000000000E+00  0.00000000000E+00 -0.40786074049E+03  0.40786074050E+03  0.25500000920E-02 0. -1.
    10030    2    1    2    0    0  0.00000000000E+00  0.00000000000E+00  0.33277527336E+03  0.11484967544E+04  0.10992294629E+04 0.  0.
        2    1    3    3  502    0  0.43207438284E+03 -0.97041587447E+02 -0.17373454077E+03  0.47569846822E+03  0.25500000920E-02 0. -1.
       -2    1    3    3    0  502 -0.43207438284E+03  0.97041587447E+02  0.50650981414E+03  0.67279828614E+03  0.25500000920E-02 0.  1.
</event>
<event>
 5   0  0.5948818E-04  0.1099875E+04  0.7818609E-02  0.9205314E-01
        2   -1    0    0  501    0  0.00000000000E+00  0.00000000000E+00  0.18350615240E+04  0.18350615240E+04  0.25500000920E-02 0. -1.
       -2   -1    0    0    0  501  0.00000000000E+00  0.00000000000E+00 -0.16480715762E+03  0.16480715764E+03  0.25500000920E-02 0.  1.
    10030    2    1    2    0    0  0.00000000000E+00  0.00000000000E+00  0.16702543664E+04  0.19998686816E+04  0.10998750363E+04 0.  0.
        3    1    3    3  502    0 -0.17915821106E+03 -0.37940386180E+03  0.14815373064E+04  0.15398044537E+04  0.10100000352E+00 0. -1.
       -3    1    3    3    0  502  0.17915821106E+03  0.37940386180E+03  0.18871705992E+03  0.46006422796E+03  0.10100000352E+00 0.  1.
</event>
<event>
 5   0  0.6412712E-04  0.1099762E+04  0.7818609E-02  0.9205424E-01
       -2   -1    0    0    0  501  0.00000000000E+00  0.00000000000E+00  0.18198083392E+03  0.18198083393E+03  0.25500000920E-02 0.  1.
        2   -1    0    0  501    0  0.00000000000E+00  0.00000000000E+00 -0.16615435420E+04  0.16615435420E+04  0.25500000920E-02 0. -1.
    10030    2    1    2    0    0  0.00000000000E+00  0.00000000000E+00 -0.14795627080E+04  0.18435243759E+04  0.10997619367E+04 0.  0.
        2    1    3    3  502    0  0.46441594784E+03  0.22674776846E+03 -0.10546050666E+04  0.11744311685E+04  0.25500000920E-02 0.  1.
       -2    1    3    3    0  502 -0.46441594784E+03 -0.22674776846E+03 -0.42495764143E+03  0.66909320735E+03  0.25500000920E-02 0. -1.
</event>
<event>
 5   0  0.5948818E-04  0.1100933E+04  0.7818609E-02  0.9204283E-01
       -2   -1    0    0    0  501  0.00000000000E+00  0.00000000000E+00  0.12510181122E+04  0.12510181122E+04  0.25500000920E-02 0.  1.
        2   -1    0    0  501    0  0.00000000000E+00  0.00000000000E+00 -0.24221356939E+03  0.24221356941E+03  0.25500000920E-02 0. -1.
    10030    2    1    2    0    0  0.00000000000E+00  0.00000000000E+00  0.10088045429E+04  0.14932316817E+04  0.11009333538E+04 0.  0.
        3    1    3    3  502    0 -0.28714946674E+03  0.24256530859E+03 -0.41040406762E+02  0.37812308891E+03  0.10100000352E+00 0. -1.
       -3    1    3    3    0  502  0.28714946674E+03 -0.24256530859E+03  0.10498449496E+04  0.11151085927E+04  0.10100000352E+00 0.  1.
</event>
<event>
 5   0  0.6245176E-04  0.1099278E+04  0.7818609E-02  0.9205896E-01
       -2   -1    0    0    0  501  0.00000000000E+00  0.00000000000E+00  0.23210635630E+03  0.23210635632E+03  0.25500000920E-02 0. -1.
        2   -1    0    0  501    0  0.00000000000E+00  0.00000000000E+00 -0.13015707471E+04  0.13015707471E+04  0.25500000920E-02 0.  1.
    10030    2    1    2    0    0  0.00000000000E+00  0.00000000000E+00 -0.10694643908E+04  0.15336771034E+04  0.10992776603E+04 0.  0.
        5    1    3    3  502    0 -0.48903401187E+03 -0.23260654922E+03 -0.40370012100E+03  0.67546720808E+03  0.46999998093E+01 0. -1.
       -5    1    3    3    0  502  0.48903401187E+03  0.23260654922E+03 -0.66576426975E+03  0.85820989529E+03  0.46999998093E+01 0.  1.
</event>
<event>
 5   0  0.6264830E-04  0.1099244E+04  0.7818609E-02  0.9205929E-01
       -2   -1    0    0    0  501  0.00000000000E+00  0.00000000000E+00  0.37795329484E+03  0.37795329485E+03  0.25500000920E-02 0.  1.
        2   -1    0    0  501    0  0.00000000000E+00  0.00000000000E+00 -0.79926360543E+03  0.79926360544E+03  0.25500000920E-02 0. -1.
    10030    2    1    2    0    0  0.00000000000E+00  0.00000000000E+00 -0.42131031059E+03  0.11772169003E+04  0.10992439459E+04 0.  0.
        4    1    3    3  502    0  0.40322495711E+02 -0.50896980997E+03  0.72647088910E+01  0.51061782187E+03  0.12699999809E+01 0. -1.
       -4    1    3    3    0  502 -0.40322495711E+02  0.50896980997E+03 -0.42857501948E+03  0.66659907841E+03  0.12699999809E+01 0.  1.
</event>
<event>
 5   0  0.6264830E-04  0.1093593E+04  0.7818609E-02  0.9211459E-01
        2   -1    0    0  501    0  0.00000000000E+00  0.00000000000E+00  0.12103503591E+04  0.12103503591E+04  0.25500000920E-02 0.  1.
       -2   -1    0    0    0  501  0.00000000000E+00  0.00000000000E+00 -0.24702477060E+03  0.24702477062E+03  0.25500000920E-02 0. -1.
    10030    2    1    2    0    0  0.00000000000E+00  0.00000000000E+00  0.96332558845E+03  0.14573751297E+04  0.10935931964E+04 0.  0.
        4    1    3    3  502    0  0.35045324046E+03  0.32153026565E+03  0.84119570413E+03  0.96633897314E+03  0.12699999809E+01 0.  1.
       -4    1    3    3    0  502 -0.35045324046E+03 -0.32153026565E+03  0.12212988433E+03  0.49103615653E+03  0.12699999809E+01 0. -1.
</event>
<event>
 5   0  0.3423758E-04  0.1100328E+04  0.7818609E-02  0.9204872E-01
        1   -1    0    0  501    0  0.00000000000E+00  0.00000000000E+00  0.72371238603E+03  0.72371238605E+03  0.50400001928E-02 0.  1.
       -1   -1    0    0    0  501  0.00000000000E+00  0.00000000000E+00 -0.41823282780E+03  0.41823282783E+03  0.50400001928E-02 0. -1.
    10030    2    1    2    0    0  0.00000000000E+00  0.00000000000E+00  0.30547955823E+03  0.11419452139E+04  0.11003277289E+04 0.  0.
        1    1    3    3  502    0  0.97509687379E+02 -0.47399036038E+02 -0.40703597456E+03  0.42122807642E+03  0.50400001928E-02 0. -1.
       -1    1    3    3    0  502 -0.97509687379E+02  0.47399036038E+02  0.71251553279E+03  0.72071713747E+03  0.50400001928E-02 0.  1.
</event>
<event>
 5   0  0.6412712E-04  0.1099977E+04  0.7818609E-02  0.9205214E-01
       -2   -1    0    0    0  501  0.00000000000E+00  0.00000000000E+00  0.19973489084E+03  0.19973489085E+03  0.25500000920E-02 0. -1.
        2   -1    0    0  501    0  0.00000000000E+00  0.00000000000E+00 -0.15144449843E+04  0.15144449843E+04  0.25500000920E-02 0.  1.
    10030    2    1    2    0    0  0.00000000000E+00  0.00000000000E+00 -0.13147100935E+04  0.17141798752E+04  0.10999772791E+04 0.  0.
        2    1    3    3  502    0  0.12778220022E+03  0.53492731596E+03 -0.66274882929E+03  0.86122676154E+03  0.25500000920E-02 0.  1.
       -2    1    3    3    0  502 -0.12778220022E+03 -0.53492731596E+03 -0.65196126422E+03  0.85295311366E+03  0.25500000920E-02 0. -1.
</event>
<event>
 5   0  0.3523525E-04  0.1102594E+04  0.7818609E-02  0.9202667E-01
       -1   -1    0    0    0  501  0.00000000000E+00  0.00000000000E+00  0.56319455077E+03  0.56319455079E+03  0.50400001928E-02 0. -1.
        1   -1    0    0  501    0  0.00000000000E+00  0.00000000000E+00 -0.53965115610E+03  0.53965115613E+03  0.50400001928E-02 0.  1.
    10030    2    1    2    0    0  0.00000000000E+00  0.00000000000E+00  0.23543394666E+02  0.11028457069E+04  0.11025943777E+04 0.  0.
        5    1    3    3  502    0  0.14002292215E+03 -0.30597184905E+03  0.44854194397E+03  0.56074696311E+03  0.46999998093E+01 0. -1.
       -5    1    3    3    0  502 -0.14002292215E+03  0.30597184905E+03 -0.42499854930E+03  0.54209874381E+03  0.46999998093E+01 0.  1.
</event>
<event>
 5   0  0.3657529E-04  0.1103850E+04  0.7818609E-02  0.9201448E-01
        1   -1    0    0  501    0  0.00000000000E+00  0.00000000000E+00  0.22427503838E+04  0.22427503838E+04  0.50400001928E-02 0.  1.
       -1   -1    0    0    0  501  0.00000000000E+00  0.00000000000E+00 -0.13582475931E+03  0.13582475940E+03  0.50400001928E-02 0. -1.
    10030    2    1    2    0    0  0.00000000000E+00  0.00000000000E+00  0.21069256245E+04  0.23785751432E+04  0.11038496839E+04 0.  0.
        4    1    3    3  502    0 -0.24079209958E+02  0.54798060627E+03  0.92138808027E+03  0.10722966756E+04  0.12699999809E+01 0. -1.
       -4    1    3    3    0  502  0.24079209958E+02 -0.54798060627E+03  0.11855375443E+04  0.13062784676E+04  0.12699999809E+01 0.  1.
</event>
<event>
 5   0  0.3523525E-04  0.1101604E+04  0.7818609E-02  0.9203630E-01
        1   -1    0    0  501    0  0.00000000000E+00  0.00000000000E+00  0.86393468668E+03  0.86393468670E+03  0.50400001928E-02 0.  1.
       -1   -1    0    0    0  501  0.00000000000E+00  0.00000000000E+00 -0.35116386128E+03  0.35116386131E+03  0.50400001928E-02 0. -1.
    10030    2    1    2    0    0  0.00000000000E+00  0.00000000000E+00  0.51277082540E+03  0.12150985480E+04  0.11016036320E+04 0.  0.
        5    1    3    3  502    0  0.42703389561E+03 -0.94088787390E+02 -0.11300497765E+03  0.45166676088E+03  0.46999998093E+01 0. -1.
       -5    1    3    3    0  502 -0.42703389561E+03  0.94088787390E+02  0.62577580305E+03  0.76343178713E+03  0.46999998093E+01 0.  1.
</event>
<event>
 5   0  0.6109149E-04  0.1103585E+04  0.7818609E-02  0.9201705E-01
       -2   -1    0    0    0  501  0.00000000000E+00  0.00000000000E+00  0.46810319094E+03  0.46810319095E+03  0.25500000920E-02 0.  1.
        2   -1    0    0  501    0  0.00000000000E+00  0.00000000000E+00 -0.65044407543E+03  0.65044407544E+03  0.25500000920E-02 0. -1.
    10030    2    1    2    0    0  0.00000000000E+00  0.00000000000E+00 -0.18234088449E+03  0.11185472664E+04  0.11035849713E+04 0.  0.
        1    1    3    3  502    0 -0.95325412838E+02  0.39944002149E+03 -0.46472625368E+03  0.62016913498E+03  0.50400001928E-02 0. -1.
       -1    1    3    3    0  502  0.95325412838E+02 -0.39944002149E+03  0.28238536919E+03  0.49837813140E+03  0.50400001928E-02 0.  1.
</event>
<event>
 5   0  0.5948818E-04  0.1101098E+04  0.7818609E-02  0.9204122E-01
       -2   -1    0    0    0  501  0.00000000000E+00  0.00000000000E+00  0.44405102016E+03  0.44405102017E+03  0.25500000920E-02 0. -1.
        2   -1    0    0  501    0  0.00000000000E+00  0.00000000000E+00 -0.68258848925E+03  0.68258848925E+03  0.25500000920E-02 0.  1.
    10030    2    1    2    0    0  0.00000000000E+00  0.00000000000E+00 -0.23853746909E+03  0.11266395094E+04  0.11010978431E+04 0.  0.
        3    1    3    3  502    0 -0.14686805483E+03 -0.19282583242E+03 -0.62505505974E+03  0.67040723824E+03  0.10100000352E+00 0.  1.
       -3    1    3    3    0  502  0.14686805483E+03  0.19282583242E+03  0.38651759066E+03  0.45623227118E+03  0.10100000352E+00 0. -1.
</event>
<event>
 5   0  0.6245176E-04  0.1101541E+04  0.7818609E-02  0.9203691E-01
        2   -1    0    0  501    0  0.00000000000E+00  0.00000000000E+00  0.80731174862E+03  0.80731174862E+03  0.25500000920E-02 0.  1.
       -2   -1    0    0    0  501  0.00000000000E+00  0.00000000000E+00 -0.37575123550E+03  0.37575123551E+03  0.25500000920E-02 0. -1.
    10030    2    1    2    0    0  0.00000000000E+00  0.00000000000E+00  0.43156051311E+03  0.11830629841E+04  0.11015414418E+04 0.  0.
        5    1    3    3  502    0  0.39106127088E+03  0.24478940837E+03  0.53883236618E+03  0.70937520458E+03  0.46999998093E+01 0.  1.
       -5    1    3    3    0  502 -0.39106127088E+03 -0.24478940837E+03 -0.10727185306E+03  0.47368777955E+03  0.46999998093E+01 0. -1.
</event>
<event>
 5   0  0.3523525E-04  0.1103309E+04  0.7818609E-02  0.9201973E-01
        1   -1    0    0  501    0  0.00000000000E+00  0.00000000000E+00  0.13055839134E+04  0.13055839134E+04  0.50400001928E-02 0. -1.
       -1   -1    0    0    0  501  0.00000000000E+00  0.00000000000E+00 -0.23309298694E+03  0.23309298699E+03  0.50400001928E-02 0.  1.
    10030    2    1    2    0    0  0.00000000000E+00  0.00000000000E+00  0.10724909265E+04  0.15386769004E+04  0.11033085772E+04 0.  0.
        5    1    3    3  502    0  0.31901417424E+03 -0.18267541319E+03  0.11098324582E+04  0.11691409347E+04  0.46999998093E+01 0. -1.
       -5    1    3    3    0  502 -0.31901417424E+03  0.18267541319E+03 -0.37341531731E+02  0.36953596569E+03  0.46999998093E+01 0.  1.
</event>
<event>
 5   0  0.5948818E-04  0.1099792E+04  0.7818609E-02  0.9205395E-01
       -2   -1    0    0    0  501  0.00000000000E+00  0.00000000000E+00  0.30441319254E+03  0.30441319255E+03  0.25500000920E-02 0.  1.
        2   -1    0    0  501    0  0.00000000000E+00  0.00000000000E+00 -0.99333859530E+03  0.99333859531E+03  0.25500000920E-02 0. -1.
    10030    2    1    2    0    0  0.00000000000E+00  0.00000000000E+00 -0.68892540277E+03  0.12977517879E+04  0.10997915677E+04 0.  0.
        3    1    3    3  502    0 -0.40564495821E+03  0.69547990907E+02 -0.77479908214E+03  0.87732455970E+03  0.10100000352E+00 0. -1.
       -3    1    3    3    0  502  0.40564495821E+03 -0.69547990907E+02  0.85873679377E+02  0.42042722815E+03  0.10100000352E+00 0.  1.
</event>
<event>
 5   0  0.6264830E-04  0.1100534E+04  0.7818609E-02  0.9204672E-01
       -2   -1    0    0    0  501  0.00000000000E+00  0.00000000000E+00  0.12261638363E+03  0.12261638365E+03  0.25500000920E-02 0. -1.
        2   -1    0    0  501    0  0.00000000000E+00  0.00000000000E+00 -0.24694375207E+04  0.24694375207E+04  0.25500000920E-02 0.  1.
    10030    2    1    2    0    0  0.00000000000E+00  0.00000000000E+00 -0.23468211371E+04  0.25920539043E+04  0.11005335041E+04 0.  0.
        4    1    3    3  502    0  0.37861514712E+03 -0.23756396807E+03 -0.19293232579E+04  0.19804231656E+04  0.12699999809E+01 0.  1.
       -4    1    3    3    0  502 -0.37861514712E+03  0.23756396807E+03 -0.41749787918E+03  0.61163073874E+03  0.12699999809E+01 0. -1.
</event>
<event>
 5   0  0.6245176E-04  0.1126468E+04  0.7818609E-02  0.9179771E-01
        2   -1    0    0  501    0  0.00000000000E+00  0.00000000000E+00  0.70337782443E+03  0.70337782443E+03  0.25500000920E-02 0.  1.
       -2   -1    0    0    0  501  0.00000000000E+00  0.00000000000E+00 -0.45101324137E+03  0.45101324138E+03  0.25500000920E-02 0. -1.
    10030    2    1    2    0    0  0.00000000000E+00  0.00000000000E+00  0.25236458306E+03  0.11543910658E+04  0.11264683085E+04 0.  0.
        5    1    3    3  502    0  0.13405610087E+03  0.83571487190E+02  0.68018928155E+03  0.69830851375E+03  0.46999998093E+01 0.  1.
       -5    1    3    3    0  502 -0.13405610087E+03 -0.83571487190E+02 -0.42782469849E+03  0.45608255205E+03  0.46999998093E+01 0. -1.
</event>
<event>
 5   0  0.3523525E-04  0.1098953E+04  0.7818609E-02  0.9206213E-01
       -1   -1    0    0    0  501  0.00000000000E+00  0.00000000000E+00  0.17892531350E+03  0.17892531357E+03  0.50400001928E-02 0.  1.
        1   -1    0    0  501    0  0.00000000000E+00  0.00000000000E+00 -0.16874318429E+04  0.16874318429E+04  0.50400001928E-02 0. -1.
    10030    2    1    2    0    0  0.00000000000E+00  0.00000000000E+00 -0.15085065294E+04  0.18663571565E+04  0.10989527225E+04 0.  0.
        5    1    3    3  502    0 -0.31087254196E+03  0.17115463584E+03 -0.41841983354E+02  0.35736324417E+03  0.46999998093E+01 0.  1.
       -5    1    3    3    0  502  0.31087254196E+03 -0.17115463584E+03 -0.14666645460E+04  0.15089939123E+04  0.46999998093E+01 0. -1.
</event>
<event>
 5   0  0.5948818E-04  0.1095426E+04  0.7818609E-02  0.9209661E-01
       -2   -1    0    0    0  501  0.00000000000E+00  0.00000000000E+00  0.20633277733E+03  0.20633277735E+03  0.25500000920E-02 0.  1.
        2   -1    0    0  501    0  0.00000000000E+00  0.00000000000E+00 -0.14539120647E+04  0.14539120647E+04  0.25500000920E-02 0. -1.
    10030    2    1    2    0    0  0.00000000000E+00  0.00000000000E+00 -0.12475792874E+04  0.16602448421E+04  0.10954263359E+04 0.  0.
        3    1    3    3  502    0  0.34636135586E+03 -0.20908090681E+03 -0.11833548900E+04  0.12506037823E+04  0.10100000352E+00 0.  1.
       -3    1    3    3    0  502 -0.34636135586E+03  0.20908090681E+03 -0.64224397384E+02  0.40964105976E+03  0.10100000352E+00 0. -1.
</event>
<event>
 5   0  0.6109149E-04  0.1101787E+04  0.7818609E-02  0.9203452E-01
        2   -1    0    0  501    0  0.00000000000E+00  0.00000000000E+00  0.13931491872E+04  0.13931491872E+04  0.25500000920E-02 0. -1.
       -2   -1    0    0    0  501  0.00000000000E+00  0.00000000000E+00 -0.21783983671E+03  0.21783983673E+03  0.25500000920E-02 0.  1.
    10030    2    1    2    0    0  0.00000000000E+00  0.00000000000E+00  0.11753093505E+04  0.16109890240E+04  0.11017865337E+04 0.  0.
        1    1    3    3  502    0  0.37376789008E+03 -0.40449136726E+03  0.60658892885E+03  0.81930814135E+03  0.50400001928E-02 0.  1.
       -1    1    3    3    0  502 -0.37376789008E+03  0.40449136726E+03  0.56872042166E+03  0.79168088261E+03  0.50400001928E-02 0. -1.
</event>
<event>
 5   0  0.6264830E-04  0.1101635E+04  0.7818609E-02  0.9203600E-01
        2   -1    0    0  501    0  0.00000000000E+00  0.00000000000E+00  0.23658889221E+04  0.23658889221E+04  0.25500000920E-02 0. -1.
       -2   -1    0    0    0  501  0.00000000000E+00  0.00000000000E+00 -0.12823921253E+03  0.12823921256E+03  0.25500000920E-02 0.  1.
    10030    2    1    2    0    0  0.00000000000E+00  0.00000000000E+00  0.22376497095E+04  0.24941281346E+04  0.11016346624E+04 0.  0.
        4    1    3    3  502    0  0.11703448629E+03 -0.21756951850E+03  0.22334163383E+04  0.22470388781E+04  0.12699999809E+01 0. -1.
       -4    1    3    3    0  502 -0.11703448629E+03  0.21756951850E+03  0.42333711839E+01  0.24708925653E+03  0.12699999809E+01 0.  1.
</event>
<event>
 5   0  0.6109149E-04  0.1101275E+04  0.7818609E-02  0.9203950E-01
        2   -1    0    0  501    0  0.00000000000E+00  0.00000000000E+00  0.28001244661E+03  0.28001244662E+03  0.25500000920E-02 0. -1.
       -2   -1    0    0    0  501  0.00000000000E+00  0.00000000000E+00 -0.10828145436E+04  0.10828145437E+04  0.25500000920E-02 0.  1.
    10030    2    1    2    0    0  0.00000000000E+00  0.00000000000E+00 -0.80280209704E+03  0.13628269903E+04  0.11012748060E+04 0.  0.
        1    1    3    3  502    0 -0.50742861542E+03  0.17075440611E+03 -0.24214932577E+03  0.58760289562E+03  0.50400001928E-02 0. -1.
       -1    1    3    3    0  502  0.50742861542E+03 -0.17075440611E+03 -0.56065277128E+03  0.77522409464E+03  0.50400001928E-02 0.  1.
</event>
<event>
 5   0  0.5948818E-04  0.1099187E+04  0.7818609E-02  0.9205984E-01
       -2   -1    0    0    0  501  0.00000000000E+00  0.00000000000E+00  0.77949646783E+03  0.77949646783E+03  0.25500000920E-02 0.  1.
        2   -1    0    0  501    0  0.00000000000E+00  0.00000000000E+00 -0.38749777320E+03  0.38749777321E+03  0.25500000920E-02 0. -1.
    10030    2    1    2    0    0  0.00000000000E+00  0.00000000000E+00  0.39199869463E+03  0.11669942410E+04  0.10991872370E+04 0.  0.
        3    1    3    3  502    0  0.41234623284E+03 -0.17537921686E+03 -0.14185424556E+03  0.47001055587E+03  0.10100000352E+00 0. -1.
       -3    1    3    3    0  502 -0.41234623284E+03  0.17537921686E+03  0.53385294019E+03  0.69698368517E+03  0.10100000352E+00 0.  1.
</event>
<event>
 5   0  0.6412712E-04  0.1100346E+04  0.7818609E-02  0.9204855E-01
        2   -1    0    0  501    0  0.00000000000E+00  0.00000000000E+00  0.11236019390E+04  0.11236019390E+04  0.25500000920E-02 0.  1.
       -2   -1    0    0    0  501  0.00000000000E+00  0.00000000000E+00 -0.26939285595E+03  0.26939285596E+03  0.25500000920E-02 0. -1.
    10030    2    1    2    0    0  0.00000000000E+00  0.00000000000E+00  0.85420908304E+03  0.13929947950E+04  0.11003460098E+04 0.  0.
        2    1    3    3  502    0 -0.51045572484E+03 -0.71742995364E+01  0.68677717429E+03  0.85573325559E+03  0.25500000920E-02 0.  1.
       -2    1    3    3    0  502  0.51045572484E+03  0.71742995364E+01  0.16743190875E+03  0.53726153936E+03  0.25500000920E-02 0. -1.
</event>
<event>
 5   0  0.6109149E-04  0.1100444E+04  0.7818609E-02  0.9204759E-01
        2   -1    0    0  501    0  0.00000000000E+00  0.00000000000E+00  0.14498640321E+04  0.14498640321E+04  0.25500000920E-02 0. -1.
       -2   -1    0    0    0  501  0.00000000000E+00  0.00000000000E+00 -0.20880889281E+03  0.20880889282E+03  0.25500000920E-02 0.  1.
    10030    2    1    2    0    0  0.00000000000E+00  0.00000000000E+00  0.12410551393E+04  0.16586729249E+04  0.11004444616E+04 0.  0.
        1    1    3    3  502    0 -0.62567587300E+02  0.46294824011E+03  0.18235679531E+03  0.50148756398E+03  0.50400001928E-02 0.  1.
       -1    1    3    3    0  502  0.62567587300E+02 -0.46294824011E+03  0.10586983439E+04  0.11571853609E+04  0.50400001928E-02 0. -1.
</event>
<event>
 5   0  0.6412712E-04  0.1098701E+04  0.7818609E-02  0.9206459E-01
        2   -1    0    0  501    0  0.00000000000E+00  0.00000000000E+00  0.37779543707E+03  0.37779543708E+03  0.25500000920E-02 0. -1.
       -2   -1    0    0    0  501  0.00000000000E+00  0.00000000000E+00 -0.79880727302E+03  0.79880727303E+03  0.25500000920E-02 0.  1.
    10030    2    1    2    0    0  0.00000000000E+00  0.00000000000E+00 -0.42101183596E+03  0.11766027101E+04  0.10987005831E+04 0.  0.
        2    1    3    3  502    0  0.44202393864E+03 -0.31507016635E+03 -0.30094101279E+03  0.62066082947E+03  0.25500000920E-02 0. -1.
       -2    1    3    3    0  502 -0.44202393864E+03  0.31507016635E+03 -0.12007082316E+03  0.55594188063E+03  0.25500000920E-02 0.  1.
</event>
<event>
 5   0  0.3423758E-04  0.1097272E+04  0.7818609E-02  0.9207855E-01
       -1   -1    0    0    0  501  0.00000000000E+00  0.00000000000E+00  0.10885964355E+03  0.10885964367E+03  0.50400001928E-02 0.  1.
        1   -1    0    0  501    0  0.00000000000E+00  0.00000000000E+00 -0.27650428668E+04  0.27650428668E+04  0.50400001928E-02 0. -1.
    10030    2    1    2    0    0  0.00000000000E+00  0.00000000000E+00 -0.26561832233E+04  0.28739025105E+04  0.10972722198E+04 0.  0.
        1    1    3    3  502    0  0.38958839088E+03 -0.40424625810E+02 -0.23342900453E+04  0.23669227449E+04  0.50400001928E-02 0. -1.
       -1    1    3    3    0  502 -0.38958839088E+03  0.40424625810E+02 -0.32189317797E+03  0.50697976560E+03  0.50400001928E-02 0.  1.
</event>
<event>
 5   0  0.3642161E-04  0.1098997E+04  0.7818609E-02  0.9206170E-01
       -1   -1    0    0    0  501  0.00000000000E+00  0.00000000000E+00  0.69889720686E+03  0.69889720688E+03  0.50400001928E-02 0. -1.
        1   -1    0    0  501    0  0.00000000000E+00  0.00000000000E+00 -0.43203548107E+03  0.43203548110E+03  0.50400001928E-02 0.  1.
    10030    2    1    2    0    0  0.00000000000E+00  0.00000000000E+00  0.26686172579E+03  0.11309326880E+04  0.10989966169E+04 0.  0.
        2    1    3    3  502    0  0.48971213339E+03 -0.19599787190E+03 -0.25041768698E+02  0.52807218216E+03  0.25500000920E-02 0.  1.
       -2    1    3    3    0  502 -0.48971213339E+03  0.19599787190E+03  0.29190349449E+03  0.60286050582E+03  0.25500000920E-02 0. -1.
</event>
<event>
 5   0  0.3657529E-04  0.1099332E+04  0.7818609E-02  0.9205843E-01
        1   -1    0    0  501    0  0.00000000000E+00  0.00000000000E+00  0.47572029419E+03  0.47572029422E+03  0.50400001928E-02 0. -1.
       -1   -1    0    0    0  501  0.00000000000E+00  0.00000000000E+00 -0.63510574741E+03  0.63510574743E+03  0.50400001928E-02 0.  1.
    10030    2    1    2    0    0  0.00000000000E+00  0.00000000000E+00 -0.15938545322E+03  0.11108260417E+04  0.10993319663E+04 0.  0.
        4    1    3    3  502    0  0.24929029632E+03 -0.43636392035E+03  0.14528277539E+03  0.52313269879E+03  0.12699999809E+01 0. -1.
       -4    1    3    3    0  502 -0.24929029632E+03  0.43636392035E+03 -0.30466822861E+03  0.58769334286E+03  0.12699999809E+01 0.  1.
</event>
<event>
 5   0  0.3523525E-04  0.1101127E+04  0.7818609E-02  0.9204094E-01
        1   -1    0    0  501    0  0.00000000000E+00  0.00000000000E+00  0.10496372328E+04  0.10496372328E+04  0.50400001928E-02 0.  1.
       -1   -1    0    0    0  501  0.00000000000E+00  0.00000000000E+00 -0.28878590382E+03  0.28878590386E+03  0.50400001928E-02 0. -1.
    10030    2    1    2    0    0  0.00000000000E+00  0.00000000000E+00  0.76085132897E+03  0.13384231367E+04  0.11011274894E+04 0.  0.
        5    1    3    3  502    0  0.85563609738E+02  0.47675303807E+03  0.69851537244E+03  0.85003553229E+03  0.46999998093E+01 0.  1.
       -5    1    3    3    0  502 -0.85563609738E+02 -0.47675303807E+03  0.62335956526E+02  0.48838760436E+03  0.46999998093E+01 0. -1.
</event>
<event>
 5   0  0.5948818E-04  0.1093547E+04  0.7818609E-02  0.9211504E-01
        2   -1    0    0  501    0  0.00000000000E+00  0.00000000000E+00  0.92505975926E+03  0.92505975926E+03  0.25500000920E-02 0. -1.
       -2   -1    0    0    0  501  0.00000000000E+00  0.00000000000E+00 -0.32318068416E+03  0.32318068417E+03  0.25500000920E-02 0.  1.
    10030    2    1    2    0    0  0.00000000000E+00  0.00000000000E+00  0.60187907510E+03  0.12482404434E+04  0.10935473394E+04 0.  0.
        3    1    3    3  502    0 -0.50838840534E+03 -0.26975768385E+02  0.73290610446E+02  0.51435200645E+03  0.10100000352E+00 0.  1.
       -3    1    3    3    0  502  0.50838840534E+03  0.26975768385E+02  0.52858846466E+03  0.73388843698E+03  0.10100000352E+00 0. -1.
</event>
<event>
 5   0  0.2403875E-04  0.1102175E+04  0.7818609E-02  0.9203075E-01
        3   -1    0    0  501    0  0.00000000000E+00  0.00000000000E+00  0.16202285291E+04  0.16202285323E+04  0.10100000352E+00 0. -1.
       -3   -1    0    0    0  501  0.00000000000E+00  0.00000000000E+00 -0.18744104209E+03  0.18744106930E+03  0.10100000352E+00 0.  1.
    10030    2    1    2    0    0  0.00000000000E+00  0.00000000000E+00  0.14327874870E+04  0.18076696016E+04  0.11021748525E+04 0.  0.
        4    1    3    3  502    0 -0.21321757211E+03  0.39355543814E+03  0.18913978054E+03  0.48592497922E+03  0.12699999809E+01 0.  1.
       -4    1    3    3    0  502  0.21321757211E+03 -0.39355543814E+03  0.12436477065E+04  0.13217446223E+04  0.12699999809E+01 0. -1.
</event>
<event>
 5   0  0.5948818E-04  0.1100564E+04  0.7818609E-02  0.9204642E-01
        2   -1    0    0  501    0  0.00000000000E+00  0.00000000000E+00  0.78532058752E+03  0.78532058753E+03  0.25500000920E-02 0. -1.
       -2   -1    0    0    0  501  0.00000000000E+00  0.00000000000E+00 -0.38558810226E+03  0.38558810227E+03  0.25500000920E-02 0.  1.
    10030    2    1    2    0    0  0.00000000000E+00  0.00000000000E+00  0.39973248526E+03  0.11709086898E+04  0.11005639918E+04 0.  0.
        3    1    3    3  502    0 -0.10657260025E+03 -0.86596452545E+02 -0.36706634240E+03  0.39191118208E+03  0.10100000352E+00 0.  1.
       -3    1    3    3    0  502  0.10657260025E+03  0.86596452545E+02  0.76679882766E+03  0.77899750771E+03  0.10100000352E+00 0. -1.
</event>
<event>
 5   0  0.3621403E-04  0.1091016E+04  0.7818609E-02  0.9213992E-01
       -1   -1    0    0    0  501  0.00000000000E+00  0.00000000000E+00  0.36272158254E+03  0.36272158258E+03  0.50400001928E-02 0. -1.
        1   -1    0    0  501    0  0.00000000000E+00  0.00000000000E+00 -0.82040653966E+03  0.82040653968E+03  0.50400001928E-02 0.  1.
    10030    2    1    2    0    0  0.00000000000E+00  0.00000000000E+00 -0.45768495712E+03  0.11831281223E+04  0.10910163306E+04 0.  0.
        3    1    3    3  502    0 -0.18611519850E+03  0.40096182106E+03  0.11778421822E+03  0.45747391327E+03  0.10100000352E+00 0. -1.
       -3    1    3    3    0  502  0.18611519850E+03 -0.40096182106E+03 -0.57546917534E+03  0.72565420899E+03  0.10100000352E+00 0.  1.
</event>
<event>
 5   0  0.3657529E-04  0.1101326E+04  0.7818609E-02  0.9203900E-01
        1   -1    0    0  501    0  0.00000000000E+00  0.00000000000E+00  0.20091216317E+03  0.20091216323E+03  0.50400001928E-02 0.  1.
       -1   -1    0    0    0  501  0.00000000000E+00  0.00000000000E+00 -0.15092655375E+04  0.15092655375E+04  0.50400001928E-02 0. -1.
    10030    2    1    2    0    0  0.00000000000E+00  0.00000000000E+00 -0.13083533743E+04  0.17101777007E+04  0.11013261170E+04 0.  0.
        4    1    3    3  502    0 -0.75687533503E+02  0.11393589994E+03 -0.14824626982E+04  0.14887603086E+04  0.12699999809E+01 0. -1.
       -4    1    3    3    0  502  0.75687533503E+02 -0.11393589994E+03  0.17410932382E+03  0.22141739218E+03  0.12699999809E+01 0.  1.
</event>
<event>
 5   0  0.3523525E-04  0.1100139E+04  0.7818609E-02  0.9205057E-01
        1   -1    0    0  501    0  0.00000000000E+00  0.00000000000E+00  0.12215226956E+04  0.12215226956E+04  0.50400001928E-02 0.  1.
       -1   -1    0    0    0  501  0.00000000000E+00  0.00000000000E+00 -0.24770421206E+03  0.24770421211E+03  0.50400001928E-02 0. -1.
    10030    2    1    2    0    0  0.00000000000E+00  0.00000000000E+00  0.97381848357E+03  0.14692269078E+04  0.11001387492E+04 0.  0.
        5    1    3    3  502    0  0.38502559099E+03 -0.37501425705E+03  0.64307523621E+03  0.83812185757E+03  0.46999998093E+01 0.  1.
       -5    1    3    3    0  502 -0.38502559099E+03  0.37501425705E+03  0.33074324736E+03  0.63110505019E+03  0.46999998093E+01 0. -1.
</event>
<event>
 5   0  0.6264830E-04  0.1104186E+04  0.7818609E-02  0.9201122E-01
       -2   -1    0    0    0  501  0.00000000000E+00  0.00000000000E+00  0.33780967162E+03  0.33780967163E+03  0.25500000920E-02 0.  1.
        2   -1    0    0  501    0  0.00000000000E+00  0.00000000000E+00 -0.90230230630E+03  0.90230230630E+03  0.25500000920E-02 0. -1.
    10030    2    1    2    0    0  0.00000000000E+00  0.00000000000E+00 -0.56449263468E+03  0.12401119779E+04  0.11041855746E+04 0.  0.
        4    1    3    3  502    0 -0.92007783630E+01  0.33280653994E+03  0.21237736315E+03  0.39490581741E+03  0.12699999809E+01 0.  1.
       -4    1    3    3    0  502  0.92007783630E+01 -0.33280653994E+03 -0.77686999783E+03  0.84520616052E+03  0.12699999809E+01 0. -1.
</event>
<event>
 5   0  0.6264830E-04  0.1101581E+04  0.7818609E-02  0.9203652E-01
        2   -1    0    0  501    0  0.00000000000E+00  0.00000000000E+00  0.62512925016E+03  0.62512925016E+03  0.25500000920E-02 0.  1.
       -2   -1    0    0    0  501  0.00000000000E+00  0.00000000000E+00 -0.48529180070E+03  0.48529180071E+03  0.25500000920E-02 0. -1.
    10030    2    1    2    0    0  0.00000000000E+00  0.00000000000E+00  0.13983744945E+03  0.11104210509E+04  0.11015808631E+04 0.  0.
        4    1    3    3  502    0  0.38673343397E+03  0.77644175400E+02 -0.31758412654E+03  0.50641154929E+03  0.12699999809E+01 0. -1.
       -4    1    3    3    0  502 -0.38673343397E+03 -0.77644175400E+02  0.45742157600E+03  0.60400950159E+03  0.12699999809E+01 0.  1.
</event>
<event>
 5   0  0.5948818E-04  0.1099542E+04  0.7818609E-02  0.9205639E-01
        2   -1    0    0  501    0  0.00000000000E+00  0.00000000000E+00  0.87378740208E+03  0.87378740209E+03  0.25500000920E-02 0.  1.
       -2   -1    0    0    0  501  0.00000000000E+00  0.00000000000E+00 -0.34590564094E+03  0.34590564095E+03  0.25500000920E-02 0. -1.
    10030    2    1    2    0    0  0.00000000000E+00  0.00000000000E+00  0.52788176114E+03  0.12196930430E+04  0.10995417070E+04 0.  0.
        3    1    3    3  502    0 -0.45871199865E+03 -0.79893299952E+02  0.58819885450E+03  0.75018500366E+03  0.10100000352E+00 0. -1.
       -3    1    3    3    0  502  0.45871199865E+03  0.79893299952E+02 -0.60317093363E+02  0.46950803937E+03  0.10100000352E+00 0.  1.
</event>
<event>
 5   0  0.3423758E-04  0.1100455E+04  0.7818609E-02  0.9204748E-01
       -1   -1    0    0    0  501  0.00000000000E+00  0.00000000000E+00  0.23686101036E+03  0.23686101041E+03  0.50400001928E-02 0. -1.
        1   -1    0    0  501    0  0.00000000000E+00  0.00000000000E+00 -0.12781781567E+04  0.12781781567E+04  0.50400001928E-02 0.  1.
    10030    2    1    2    0    0  0.00000000000E+00  0.00000000000E+00 -0.10413171463E+04  0.15150391671E+04  0.11004554869E+04 0.  0.
        1    1    3    3  502    0  0.33032426028E+03 -0.22763034786E+03 -0.21911610821E+01  0.40116641611E+03  0.50400001928E-02 0. -1.
       -1    1    3    3    0  502 -0.33032426028E+03  0.22763034786E+03 -0.10391259852E+04  0.11138727510E+04  0.50400001928E-02 0.  1.
</event>
<event>
 5   0  0.6264830E-04  0.1097550E+04  0.7818609E-02  0.9207583E-01
        2   -1    0    0  501    0  0.00000000000E+00  0.00000000000E+00  0.90886068115E+03  0.90886068115E+03  0.25500000920E-02 0. -1.
       -2   -1    0    0    0  501  0.00000000000E+00  0.00000000000E+00 -0.33135329712E+03  0.33135329712E+03  0.25500000920E-02 0.  1.
    10030    2    1    2    0    0  0.00000000000E+00  0.00000000000E+00  0.57750738403E+03  0.12402139783E+04  0.10975499685E+04 0.  0.
        4    1    3    3  502    0  0.15058560951E+03 -0.29177696347E+03  0.78561598516E+03  0.85147161505E+03  0.12699999809E+01 0. -1.
       -4    1    3    3    0  502 -0.15058560951E+03  0.29177696347E+03 -0.20810860112E+03  0.38874236323E+03  0.12699999809E+01 0.  1.
</event>
<event>
 5   0  0.3657529E-04  0.1099267E+04  0.7818609E-02  0.9205906E-01
        1   -1    0    0  501    0  0.00000000000E+00  0.00000000000E+00  0.17634814218E+04  0.17634814218E+04  0.50400001928E-02 0. -1.
       -1   -1    0    0    0  501  0.00000000000E+00  0.00000000000E+00 -0.17130729561E+03  0.17130729568E+03  0.50400001928E-02 0.  1.
    10030    2    1    2    0    0  0.00000000000E+00  0.00000000000E+00  0.15921741262E+04  0.19347887175E+04  0.10992674530E+04 0.  0.
        4    1    3    3  502    0  0.29997407954E+03 -0.15368932650E+03  0.31943053783E+02  0.33856584154E+03  0.12699999809E+01 0.  1.
       -4    1    3    3    0  502 -0.29997407954E+03  0.15368932650E+03  0.15602310724E+04  0.15962228759E+04  0.12699999809E+01 0. -1.
</event>
<event>
 5   0  0.6109149E-04  0.1100698E+04  0.7818609E-02  0.9204512E-01
       -2   -1    0    0    0  501  0.00000000000E+00  0.00000000000E+00  0.37050399567E+03  0.37050399568E+03  0.25500000920E-02 0. -1.
        2   -1    0    0  501    0  0.00000000000E+00  0.00000000000E+00 -0.81749126420E+03  0.81749126420E+03  0.25500000920E-02 0.  1.
    10030    2    1    2    0    0  0.00000000000E+00  0.00000000000E+00 -0.44698726853E+03  0.11879952599E+04  0.11006975603E+04 0.  0.
        1    1    3    3  502    0 -0.27143078977E+03 -0.23354593605E+03 -0.67457007789E+03  0.76371668038E+03  0.50400001928E-02 0.  1.
       -1    1    3    3    0  502  0.27143078977E+03  0.23354593605E+03  0.22758280936E+03  0.42427857950E+03  0.50400001928E-02 0. -1.
</event>
<event>
 5   0  0.6245176E-04  0.1098432E+04  0.7818609E-02  0.9206722E-01
        2   -1    0    0  501    0  0.00000000000E+00  0.00000000000E+00  0.13422667205E+04  0.13422667205E+04  0.25500000920E-02 0. -1.
       -2   -1    0    0    0  501  0.00000000000E+00  0.00000000000E+00 -0.22472289010E+03  0.22472289011E+03  0.25500000920E-02 0.  1.
    10030    2    1    2    0    0  0.00000000000E+00  0.00000000000E+00  0.11175438304E+04  0.15669896106E+04  0.10984317124E+04 0.  0.
        5    1    3    3  502    0 -0.18470311945E+03  0.46070155361E+03  0.89410628726E+03  0.10226481833E+04  0.46999998093E+01 0. -1.
       -5    1    3    3    0  502  0.18470311945E+03 -0.46070155361E+03  0.22343754313E+03  0.54434142734E+03  0.46999998093E+01 0.  1.
</event>
<event>
 5   0  0.3657529E-04  0.1100630E+04  0.7818609E-02  0.9204578E-01
        1   -1    0    0  501    0  0.00000000000E+00  0.00000000000E+00  0.71690628076E+03  0.71690628078E+03  0.50400001928E-02 0. -1.
       -1   -1    0    0    0  501  0.00000000000E+00  0.00000000000E+00 -0.42243540616E+03  0.42243540619E+03  0.50400001928E-02 0.  1.
    10030    2    1    2    0    0  0.00000000000E+00  0.00000000000E+00  0.29447087460E+03  0.11393416870E+04  0.11006299940E+04 0.  0.
        4    1    3    3  502    0  0.53333784693E+03 -0.92450954613E+02  0.44505107643E+02  0.54311946705E+03  0.12699999809E+01 0.  1.
       -4    1    3    3    0  502 -0.53333784693E+03  0.92450954613E+02  0.24996576696E+03  0.59622221992E+03  0.12699999809E+01 0. -1.
</event>
<event>
 5   0  0.3423758E-04  0.1091393E+04  0.7818609E-02  0.9213621E-01
        1   -1    0    0  501    0  0.00000000000E+00  0.00000000000E+00  0.19664999427E+04  0.19664999427E+04  0.50400001928E-02 0.  1.
       -1   -1    0    0    0  501  0.00000000000E+00  0.00000000000E+00 -0.15142886394E+03  0.15142886402E+03  0.50400001928E-02 0. -1.
    10030    2    1    2    0    0  0.00000000000E+00  0.00000000000E+00  0.18150710788E+04  0.21179288067E+04  0.10913933340E+04 0.  0.
        1    1    3    3  502    0 -0.23375060044E+03 -0.46401661488E+03  0.58377898006E+03  0.78150410087E+03  0.50400001928E-02 0. -1.
       -1    1    3    3    0  502  0.23375060044E+03  0.46401661488E+03  0.12312920987E+04  0.13364247059E+04  0.50400001928E-02 0.  1.
</event>
<event>
 5   0  0.3657529E-04  0.1100238E+04  0.7818609E-02  0.9204959E-01
        1   -1    0    0  501    0  0.00000000000E+00  0.00000000000E+00  0.29482918807E+03  0.29482918811E+03  0.50400001928E-02 0. -1.
       -1   -1    0    0    0  501  0.00000000000E+00  0.00000000000E+00 -0.10264627103E+04  0.10264627103E+04  0.50400001928E-02 0.  1.
    10030    2    1    2    0    0  0.00000000000E+00  0.00000000000E+00 -0.73163352221E+03  0.13212918984E+04  0.11002384605E+04 0.  0.
        4    1    3    3  502    0  0.45253572803E+03  0.90792541073E+02 -0.72528484898E+03  0.85969273331E+03  0.12699999809E+01 0. -1.
       -4    1    3    3    0  502 -0.45253572803E+03 -0.90792541073E+02 -0.63486732296E+01  0.46159916509E+03  0.12699999809E+01 0.  1.
</event>
<event>
 5   0  0.6264830E-04  0.1101322E+04  0.7818609E-02  0.9203904E-01
        2   -1    0    0  501    0  0.00000000000E+00  0.00000000000E+00  0.50874316334E+03  0.50874316335E+03  0.25500000920E-02 0. -1.
       -2   -1    0    0    0  501  0.00000000000E+00  0.00000000000E+00 -0.59603263290E+03  0.59603263291E+03  0.25500000920E-02 0.  1.
    10030    2    1    2    0    0  0.00000000000E+00  0.00000000000E+00 -0.87289469562E+02  0.11047757963E+04  0.11013219822E+04 0.  0.
        4    1    3    3  502    0  0.20183087847E+03 -0.23127382312E+03  0.41495702644E+03  0.51615330228E+03  0.12699999809E+01 0. -1.
       -4    1    3    3    0  502 -0.20183087847E+03  0.23127382312E+03 -0.50224649600E+03  0.58862249398E+03  0.12699999809E+01 0.  1.
</event>
<event>
 5   0  0.3423758E-04  0.1103813E+04  0.7818609E-02  0.9201483E-01
       -1   -1    0    0    0  501  0.00000000000E+00  0.00000000000E+00  0.54443391407E+03  0.54443391409E+03  0.50400001928E-02 0.  1.
        1   -1    0    0  501    0  0.00000000000E+00  0.00000000000E+00 -0.55948212252E+03  0.55948212254E+03  0.50400001928E-02 0. -1.
    10030    2    1    2    0    0  0.00000000000E+00  0.00000000000E+00 -0.15048208448E+02  0.11039160366E+04  0.11038134658E+04 0.  0.
        1    1    3    3  502    0  0.18908806356E+03 -0.10556620084E+03  0.50016715926E+03  0.54503734346E+03  0.50400001928E-02 0.  1.
       -1    1    3    3    0  502 -0.18908806356E+03  0.10556620084E+03 -0.51521536770E+03  0.55887869317E+03  0.50400001928E-02 0. -1.
</event>
<event>
 5   0  0.6109149E-04  0.1098146E+04  0.7818609E-02  0.9207001E-01
        2   -1    0    0  501    0  0.00000000000E+00  0.00000000000E+00  0.75247923653E+03  0.75247923653E+03  0.25500000920E-02 0. -1.
       -2   -1    0    0    0  501  0.00000000000E+00  0.00000000000E+00 -0.40065033228E+03  0.40065033229E+03  0.25500000920E-02 0.  1.
    10030    2    1    2    0    0  0.00000000000E+00  0.00000000000E+00  0.35182890425E+03  0.11531295688E+04  0.10981458121E+04 0.  0.
        1    1    3    3  502    0 -0.18314634321E+02  0.44144897804E+03 -0.16639605608E+03  0.47212315507E+03  0.50400001928E-02 0.  1.
       -1    1    3    3    0  502  0.18314634321E+02 -0.44144897804E+03  0.51822496033E+03  0.68100641376E+03  0.50400001928E-02 0. -1.
</event>
<event>
 5   0  0.2403875E-04  0.1098888E+04  0.7818609E-02  0.9206277E-01
       -3   -1    0    0    0  501  0.00000000000E+00  0.00000000000E+00  0.10376194884E+04  0.10376194933E+04  0.10100000352E+00 0. -1.
        3   -1    0    0  501    0  0.00000000000E+00  0.00000000000E+00 -0.29094335565E+03  0.29094337319E+03  0.10100000352E+00 0.  1.
    10030    2    1    2    0    0  0.00000000000E+00  0.00000000000E+00  0.74667613270E+03  0.13285628665E+04  0.10988876389E+04 0.  0.
        2    1    3    3  502    0 -0.15243108236E+03 -0.30953977696E+03 -0.14362858739E+03  0.37373691216E+03  0.25500000920E-02 0.  1.
       -2    1    3    3    0  502  0.15243108236E+03  0.30953977696E+03  0.89030472009E+03  0.95482595430E+03  0.25500000920E-02 0. -1.
</event>
<event>
 5   0  0.3523525E-04  0.1097167E+04  0.7818609E-02  0.9207957E-01
        1   -1    0    0  501    0  0.00000000000E+00  0.00000000000E+00  0.61655664236E+03  0.61655664238E+03  0.50400001928E-02 0.  1.
       -1   -1    0    0    0  501  0.00000000000E+00  0.00000000000E+00 -0.48810424727E+03  0.48810424729E+03  0.50400001928E-02 0. -1.
    10030    2    1    2    0    0  0.00000000000E+00  0.00000000000E+00  0.12845239509E+03  0.11046608897E+04  0.10971671082E+04 0.  0.
        5    1    3    3  502    0  0.50760028555E+03  0.12399840167E+02 -0.14482146237E+03  0.52802192368E+03  0.46999998093E+01 0.  1.
       -5    1    3    3    0  502 -0.50760028555E+03 -0.12399840167E+02  0.27327385746E+03  0.57663896599E+03  0.46999998093E+01 0. -1.
</event>
<event>
 5   0  0.5948818E-04  0.1099204E+04  0.7818609E-02  0.9205968E-01
        2   -1    0    0  501    0  0.00000000000E+00  0.00000000000E+00  0.52366225009E+03  0.52366225010E+03  0.25500000920E-02 0. -1.
       -2   -1    0    0    0  501  0.00000000000E+00  0.00000000000E+00 -0.57682645036E+03  0.57682645036E+03  0.25500000920E-02 0.  1.
    10030    2    1    2    0    0  0.00000000000E+00  0.00000000000E+00 -0.53164200266E+02  0.11004887005E+04  0.10992037789E+04 0.  0.
        3    1    3    3  502    0 -0.20340264866E+03  0.81758773699E+02  0.47799621995E+03  0.52586835905E+03  0.10100000352E+00 0. -1.
       -3    1    3    3    0  502  0.20340264866E+03 -0.81758773699E+02 -0.53116042021E+03  0.57462034141E+03  0.10100000352E+00 0.  1.
</event>
<event>
 5   0  0.3423758E-04  0.1099166E+04  0.7818609E-02  0.9206006E-01
       -1   -1    0    0    0  501  0.00000000000E+00  0.00000000000E+00  0.75588058601E+03  0.75588058603E+03  0.50400001928E-02 0. -1.
        1   -1    0    0  501    0  0.00000000000E+00  0.00000000000E+00 -0.39958851684E+03  0.39958851687E+03  0.50400001928E-02 0.  1.
    10030    2    1    2    0    0  0.00000000000E+00  0.00000000000E+00  0.35629206918E+03  0.11554691029E+04  0.10991655058E+04 0.  0.
        1    1    3    3  502    0  0.26215910950E+03 -0.39633062472E+03 -0.11210571057E+03  0.48823462920E+03  0.50400001928E-02 0.  1.
       -1    1    3    3    0  502 -0.26215910950E+03  0.39633062472E+03  0.46839777975E+03  0.66723447369E+03  0.50400001928E-02 0. -1.
</event>
<event>
 5   0  0.3523525E-04  0.1097426E+04  0.7818609E-02  0.9207704E-01
       -1   -1    0    0    0  501  0.00000000000E+00  0.00000000000E+00  0.82969679622E+03  0.82969679624E+03  0.50400001928E-02 0.  1.
        1   -1    0    0  501    0  0.00000000000E+00  0.00000000000E+00 -0.36288676228E+03  0.36288676232E+03  0.50400001928E-02 0. -1.
    10030    2    1    2    0    0  0.00000000000E+00  0.00000000000E+00  0.46681003394E+03  0.11925835586E+04  0.10974260505E+04 0.  0.
        5    1    3    3  502    0 -0.40493173207E+03 -0.22127432268E+03 -0.89206614817E+02  0.47001270583E+03  0.46999998093E+01 0. -1.
       -5    1    3    3    0  502  0.40493173207E+03  0.22127432268E+03  0.55601664876E+03  0.72257085273E+03  0.46999998093E+01 0.  1.
</event>
<event>
 5   0  0.2403875E-04  0.1107989E+04  0.7818609E-02  0.9197440E-01
        3   -1    0    0  501    0  0.00000000000E+00  0.00000000000E+00  0.11731046198E+04  0.11731046241E+04  0.10100000352E+00 0.  1.
       -3   -1    0    0    0  501  0.00000000000E+00  0.00000000000E+00 -0.26162191169E+03  0.26162193119E+03  0.10100000352E+00 0. -1.
    10030    2    1    2    0    0  0.00000000000E+00  0.00000000000E+00  0.91148270809E+03  0.14347265553E+04  0.11079889717E+04 0.  0.
        1    1    3    3  502    0 -0.49996836459E+03 -0.16526118144E+03  0.67863694549E+03  0.85896899100E+03  0.50400001928E-02 0. -1.
       -1    1    3    3    0  502  0.49996836459E+03  0.16526118144E+03  0.23284576259E+03  0.57575756432E+03  0.50400001928E-02 0.  1.
</event>
<event>
 5   0  0.6245176E-04  0.1099416E+04  0.7818609E-02  0.9205762E-01
       -2   -1    0    0    0  501  0.00000000000E+00  0.00000000000E+00  0.48491898535E+03  0.48491898535E+03  0.25500000920E-02 0. -1.
        2   -1    0    0  501    0  0.00000000000E+00  0.00000000000E+00 -0.62315278005E+03  0.62315278005E+03  0.25500000920E-02 0.  1.
    10030    2    1    2    0    0  0.00000000000E+00  0.00000000000E+00 -0.13823379470E+03  0.11080717654E+04  0.10994155062E+04 0.  0.
        5    1    3    3  502    0  0.13426953906E+03  0.15215005675E+03 -0.58399978550E+03  0.61826837890E+03  0.46999998093E+01 0.  1.
       -5    1    3    3    0  502 -0.13426953906E+03 -0.15215005675E+03  0.44576599079E+03  0.48980338651E+03  0.46999998093E+01 0. -1.
</event>
<event>
 5   0  0.3423758E-04  0.1098572E+04  0.7818609E-02  0.9206584E-01
       -1   -1    0    0    0  501  0.00000000000E+00  0.00000000000E+00  0.43293712266E+03  0.43293712269E+03  0.50400001928E-02 0. -1.
        1   -1    0    0  501    0  0.00000000000E+00  0.00000000000E+00 -0.69690336699E+03  0.69690336701E+03  0.50400001928E-02 0.  1.
    10030    2    1    2    0    0  0.00000000000E+00  0.00000000000E+00 -0.26396624433E+03  0.11298404897E+04  0.10985724164E+04 0.  0.
        1    1    3    3  502    0  0.72242076934E+02 -0.28867642179E+03 -0.60681917697E+03  0.67585686927E+03  0.50400001928E-02 0.  1.
       -1    1    3    3    0  502 -0.72242076934E+02  0.28867642179E+03  0.34285293264E+03  0.45398362043E+03  0.50400001928E-02 0. -1.
</event>
<event>
 5   0  0.3523525E-04  0.1100885E+04  0.7818609E-02  0.9204330E-01
        1   -1    0    0  501    0  0.00000000000E+00  0.00000000000E+00  0.64751920171E+03  0.64751920173E+03  0.50400001928E-02 0. -1.
       -1   -1    0    0    0  501  0.00000000000E+00  0.00000000000E+00 -0.46791939998E+03  0.46791940001E+03  0.50400001928E-02 0.  1.
    10030    2    1    2    0    0  0.00000000000E+00  0.00000000000E+00  0.17959980173E+03  0.11154386017E+04  0.11008847285E+04 0.  0.
        5    1    3    3  502    0  0.17010344493E+03  0.52338050964E+03  0.79548509955E+02  0.55606869655E+03  0.46999998093E+01 0.  1.
       -5    1    3    3    0  502 -0.17010344493E+03 -0.52338050964E+03  0.10005129178E+03  0.55936990519E+03  0.46999998093E+01 0. -1.
</event>
<event>
 5   0  0.3621403E-04  0.1101161E+04  0.7818609E-02  0.9204061E-01
       -1   -1    0    0    0  501  0.00000000000E+00  0.00000000000E+00  0.30146039502E+03  0.30146039506E+03  0.50400001928E-02 0. -1.
        1   -1    0    0  501    0  0.00000000000E+00  0.00000000000E+00 -0.10055677591E+04  0.10055677591E+04  0.50400001928E-02 0.  1.
    10030    2    1    2    0    0  0.00000000000E+00  0.00000000000E+00 -0.70410736408E+03  0.13070281542E+04  0.11011609399E+04 0.  0.
        3    1    3    3  502    0  0.54293203100E+03 -0.27798209197E+02 -0.45546811414E+03  0.70922432553E+03  0.10100000352E+00 0. -1.
       -3    1    3    3    0  502 -0.54293203100E+03  0.27798209197E+02 -0.24863924993E+03  0.59780382864E+03  0.10100000352E+00 0.  1.
</event>
<event>
 5   0  0.6264830E-04  0.1100549E+04  0.7818609E-02  0.9204657E-01
       -2   -1    0    0    0  501  0.00000000000E+00  0.00000000000E+00  0.87255319473E+03  0.87255319474E+03  0.25500000920E-02 0.  1.
        2   -1    0    0  501    0  0.00000000000E+00  0.00000000000E+00 -0.34702987284E+03  0.34702987285E+03  0.25500000920E-02 0. -1.
    10030    2    1    2    0    0  0.00000000000E+00  0.00000000000E+00  0.52552332190E+03  0.12195830676E+04  0.11005489979E+04 0.  0.
        4    1    3    3  502    0  0.46597578142E+03 -0.21493778749E+03  0.48291667411E+03  0.70465722759E+03  0.12699999809E+01 0.  1.
       -4    1    3    3    0  502 -0.46597578142E+03  0.21493778749E+03  0.42606647785E+02  0.51492584000E+03  0.12699999809E+01 0. -1.
</event>
<event>
 5   0  0.3642161E-04  0.1099694E+04  0.7818609E-02  0.9205490E-01
        1   -1    0    0  501    0  0.00000000000E+00  0.00000000000E+00  0.11734280803E+04  0.11734280803E+04  0.50400001928E-02 0.  1.
       -1   -1    0    0    0  501  0.00000000000E+00  0.00000000000E+00 -0.25764823115E+03  0.25764823120E+03  0.50400001928E-02 0. -1.
    10030    2    1    2    0    0  0.00000000000E+00  0.00000000000E+00  0.91577984912E+03  0.14310763115E+04  0.10996939016E+04 0.  0.
        2    1    3    3  502    0  0.11266681780E+03  0.21110465359E+03 -0.18633634299E+03  0.30328240853E+03  0.25500000920E-02 0. -1.
       -2    1    3    3    0  502 -0.11266681780E+03 -0.21110465359E+03  0.11021161921E+04  0.11277939029E+04  0.25500000920E-02 0.  1.
</event>
<event>
 5   0  0.3523525E-04  0.1100380E+04  0.7818609E-02  0.9204821E-01
        1   -1    0    0  501    0  0.00000000000E+00  0.00000000000E+00  0.13211510449E+04  0.13211510449E+04  0.50400001928E-02 0.  1.
       -1   -1    0    0    0  501  0.00000000000E+00  0.00000000000E+00 -0.22912543467E+03  0.22912543472E+03  0.50400001928E-02 0. -1.
    10030    2    1    2    0    0  0.00000000000E+00  0.00000000000E+00  0.10920256102E+04  0.15502764796E+04  0.11003804932E+04 0.  0.
        5    1    3    3  502    0  0.38982459553E+02  0.52742599578E+03  0.33239859772E+03  0.62466689599E+03  0.46999998093E+01 0.  1.
       -5    1    3    3    0  502 -0.38982459553E+02 -0.52742599578E+03  0.75962701249E+03  0.92560958362E+03  0.46999998093E+01 0. -1.
</event>
<event>
 5   0  0.6109149E-04  0.1102839E+04  0.7818609E-02  0.9202429E-01
       -2   -1    0    0    0  501  0.00000000000E+00  0.00000000000E+00  0.28518510786E+03  0.28518510787E+03  0.25500000920E-02 0.  1.
        2   -1    0    0  501    0  0.00000000000E+00  0.00000000000E+00 -0.10661962867E+04  0.10661962867E+04  0.25500000920E-02 0. -1.
    10030    2    1    2    0    0  0.00000000000E+00  0.00000000000E+00 -0.78101117885E+03  0.13513813946E+04  0.11028387063E+04 0.  0.
        1    1    3    3  502    0 -0.10403186958E+03  0.18372859514E+03 -0.10147025161E+04  0.10364362126E+04  0.50400001928E-02 0. -1.
       -1    1    3    3    0  502  0.10403186958E+03 -0.18372859514E+03  0.23369133723E+03  0.31494518202E+03  0.50400001928E-02 0.  1.
</event>
<event>
 5   0  0.6264830E-04  0.1100845E+04  0.7818609E-02  0.9204369E-01
        2   -1    0    0  501    0  0.00000000000E+00  0.00000000000E+00  0.77981603895E+03  0.77981603896E+03  0.25500000920E-02 0. -1.
       -2   -1    0    0    0  501  0.00000000000E+00  0.00000000000E+00 -0.38850786409E+03  0.38850786410E+03  0.25500000920E-02 0.  1.
    10030    2    1    2    0    0  0.00000000000E+00  0.00000000000E+00  0.39130817486E+03  0.11683239031E+04  0.11008445189E+04 0.  0.
        4    1    3    3  502    0  0.11612094004E+03 -0.28782251375E+02  0.76584918628E+03  0.77513810366E+03  0.12699999809E+01 0. -1.
       -4    1    3    3    0  502 -0.11612094004E+03  0.28782251375E+02 -0.37454101143E+03  0.39318579940E+03  0.12699999809E+01 0.  1.
</event>
<event>
 5   0  0.6264830E-04  0.1100289E+04  0.7818609E-02  0.9204910E-01
       -2   -1    0    0    0  501  0.00000000000E+00  0.00000000000E+00  0.25045080270E+03  0.25045080272E+03  0.25500000920E-02 0.  1.
        2   -1    0    0  501    0  0.00000000000E+00  0.00000000000E+00 -0.12084565551E+04  0.12084565551E+04  0.25500000920E-02 0. -1.
    10030    2    1    2    0    0  0.00000000000E+00  0.00000000000E+00 -0.95800575241E+03  0.14589073578E+04  0.11002888971E+04 0.  0.
        4    1    3    3  502    0  0.47939070766E+03  0.21166817413E+03 -0.70102582555E+03  0.87524721508E+03  0.12699999809E+01 0. -1.
       -4    1    3    3    0  502 -0.47939070766E+03 -0.21166817413E+03 -0.25697992686E+03  0.58366014275E+03  0.12699999809E+01 0.  1.
</event>
<event>
 5   0  0.6264830E-04  0.1099262E+04  0.7818609E-02  0.9205911E-01
       -2   -1    0    0    0  501  0.00000000000E+00  0.00000000000E+00  0.27651354338E+03  0.27651354340E+03  0.25500000920E-02 0. -1.
        2   -1    0    0  501    0  0.00000000000E+00  0.00000000000E+00 -0.10925116558E+04  0.10925116558E+04  0.25500000920E-02 0.  1.
    10030    2    1    2    0    0  0.00000000000E+00  0.00000000000E+00 -0.81599811244E+03  0.13690251992E+04  0.10992620600E+04 0.  0.
        4    1    3    3  502    0 -0.19035580614E+03 -0.21286282467E+03 -0.99287064561E+03  0.10331213128E+04  0.12699999809E+01 0.  1.
       -4    1    3    3    0  502  0.19035580614E+03  0.21286282467E+03  0.17687253316E+03  0.33590388647E+03  0.12699999809E+01 0. -1.
</event>
<event>
 5   0  0.5948818E-04  0.1098768E+04  0.7818609E-02  0.9206394E-01
        2   -1    0    0  501    0  0.00000000000E+00  0.00000000000E+00  0.14879133191E+04  0.14879133191E+04  0.25500000920E-02 0.  1.
       -2   -1    0    0    0  501  0.00000000000E+00  0.00000000000E+00 -0.20284964612E+03  0.20284964614E+03  0.25500000920E-02 0. -1.
    10030    2    1    2    0    0  0.00000000000E+00  0.00000000000E+00  0.12850636730E+04  0.16907629652E+04  0.10987678376E+04 0.  0.
        3    1    3    3  502    0  0.33398714371E+03 -0.35722879584E+03  0.25733573956E+03  0.55261335289E+03  0.10100000352E+00 0. -1.
       -3    1    3    3    0  502 -0.33398714371E+03  0.35722879584E+03  0.10277279334E+04  0.11381496123E+04  0.10100000352E+00 0.  1.
</event>
<event>
 5   0  0.3621403E-04  0.1100829E+04  0.7818609E-02  0.9204384E-01
        1   -1    0    0  501    0  0.00000000000E+00  0.00000000000E+00  0.10669273211E+04  0.10669273211E+04  0.50400001928E-02 0. -1.
       -1   -1    0    0    0  501  0.00000000000E+00  0.00000000000E+00 -0.28395194727E+03  0.28395194732E+03  0.50400001928E-02 0.  1.
    10030    2    1    2    0    0  0.00000000000E+00  0.00000000000E+00  0.78297537378E+03  0.13508792684E+04  0.11008289430E+04 0.  0.
        3    1    3    3  502    0  0.54204784242E+03  0.69760480525E+02  0.47171057887E+03  0.72193716384E+03  0.10100000352E+00 0.  1.
       -3    1    3    3    0  502 -0.54204784242E+03 -0.69760480525E+02  0.31126479491E+03  0.62894210454E+03  0.10100000352E+00 0. -1.
</event>
<event>
 5   0  0.3657529E-04  0.1099056E+04  0.7818609E-02  0.9206113E-01
        1   -1    0    0  501    0  0.00000000000E+00  0.00000000000E+00  0.57591424388E+03  0.57591424390E+03  0.50400001928E-02 0. -1.
       -1   -1    0    0    0  501  0.00000000000E+00  0.00000000000E+00 -0.52435033556E+03  0.52435033559E+03  0.50400001928E-02 0.  1.
    10030    2    1    2    0    0  0.00000000000E+00  0.00000000000E+00  0.51563908314E+02  0.11002645795E+04  0.10990556438E+04 0.  0.
        4    1    3    3  502    0 -0.97797569222E+02  0.97874833530E+02 -0.50662572182E+03  0.52518099975E+03  0.12699999809E+01 0.  1.
       -4    1    3    3    0  502  0.97797569222E+02 -0.97874833530E+02  0.55818963014E+03  0.57508357973E+03  0.12699999809E+01 0. -1.
</event>
<event>
 5   0  0.5948818E-04  0.1099374E+04  0.7818609E-02  0.9205802E-01
       -2   -1    0    0    0  501  0.00000000000E+00  0.00000000000E+00  0.38297760989E+03  0.38297760990E+03  0.25500000920E-02 0. -1.
        2   -1    0    0  501    0  0.00000000000E+00  0.00000000000E+00 -0.78896524249E+03  0.78896524249E+03  0.25500000920E-02 0.  1.
    10030    2    1    2    0    0  0.00000000000E+00  0.00000000000E+00 -0.40598763260E+03  0.11719428524E+04  0.10993744091E+04 0.  0.
        3    1    3    3  502    0 -0.39901736913E+03 -0.98595918955E+01  0.19990103915E+03  0.44639949381E+03  0.10100000352E+00 0. -1.
       -3    1    3    3    0  502  0.39901736913E+03  0.98595918955E+01 -0.60588867175E+03  0.72554335858E+03  0.10100000352E+00 0.  1.
</event>
<event>
 5   0  0.6412712E-04  0.1099704E+04  0.7818609E-02  0.9205481E-01
        2   -1    0    0  501    0  0.00000000000E+00  0.00000000000E+00  0.11784321290E+04  0.11784321291E+04  0.25500000920E-02 0. -1.
       -2   -1    0    0    0  501  0.00000000000E+00  0.00000000000E+00 -0.25655869400E+03  0.25655869401E+03  0.25500000920E-02 0.  1.
    10030    2    1    2    0    0  0.00000000000E+00  0.00000000000E+00  0.92187343505E+03  0.14349908231E+04  0.10997036110E+04 0.  0.
        2    1    3    3  502    0 -0.44823773407E+03  0.49608565873E+02  0.87142519635E+03  0.98120331680E+03  0.25500000920E-02 0. -1.
       -2    1    3    3    0  502  0.44823773407E+03 -0.49608565873E+02  0.50448238698E+02  0.45378750627E+03  0.25500000920E-02 0.  1.
</event>
<event>
 5   0  0.3423758E-04  0.1104745E+04  0.7818609E-02  0.9200579E-01
        1   -1    0    0  501    0  0.00000000000E+00  0.00000000000E+00  0.10946426538E+04  0.10946426538E+04  0.50400001928E-02 0. -1.
       -1   -1    0    0    0  501  0.00000000000E+00  0.00000000000E+00 -0.27873538648E+03  0.27873538653E+03  0.50400001928E-02 0.  1.
    10030    2    1    2    0    0  0.00000000000E+00  0.00000000000E+00  0.81590726734E+03  0.13733780404E+04  0.11047454788E+04 0.  0.
        1    1    3    3  502    0  0.17973498325E+03 -0.58639504351E+01  0.10572327234E+04  0.10724178671E+04  0.50400001928E-02 0. -1.
       -1    1    3    3    0  502 -0.17973498325E+03  0.58639504351E+01 -0.24132545609E+03  0.30096017328E+03  0.50400001928E-02 0.  1.
</event>
<event>
 5   0  0.6109149E-04  0.1098167E+04  0.7818609E-02  0.9206980E-01
        2   -1    0    0  501    0  0.00000000000E+00  0.00000000000E+00  0.66194615955E+03  0.66194615955E+03  0.25500000920E-02 0.  1.
       -2   -1    0    0    0  501  0.00000000000E+00  0.00000000000E+00 -0.45546400807E+03  0.45546400807E+03  0.25500000920E-02 0. -1.
    10030    2    1    2    0    0  0.00000000000E+00  0.00000000000E+00  0.20648215148E+03  0.11174101676E+04  0.10981669289E+04 0.  0.
        1    1    3    3  502    0  0.14599607809E+03  0.46512103451E+03 -0.15385262944E+03  0.51119767524E+03  0.50400001928E-02 0. -1.
       -1    1    3    3    0  502 -0.14599607809E+03 -0.46512103451E+03  0.36033478092E+03  0.60621249239E+03  0.50400001928E-02 0.  1.
</event>
<event>
 5   0  0.3642161E-04  0.1100375E+04  0.7818609E-02  0.9204827E-01
        1   -1    0    0  501    0  0.00000000000E+00  0.00000000000E+00  0.12482905910E+04  0.12482905911E+04  0.50400001928E-02 0. -1.
       -1   -1    0    0    0  501  0.00000000000E+00  0.00000000000E+00 -0.24249662158E+03  0.24249662163E+03  0.50400001928E-02 0.  1.
    10030    2    1    2    0    0  0.00000000000E+00  0.00000000000E+00  0.10057939695E+04  0.14907872127E+04  0.11003749382E+04 0.  0.
        2    1    3    3  502    0 -0.23176190316E+03 -0.13711860201E+03  0.11529058644E+04  0.11839370857E+04  0.25500000920E-02 0. -1.
       -2    1    3    3    0  502  0.23176190316E+03  0.13711860201E+03 -0.14711189494E+03  0.30685012696E+03  0.25500000920E-02 0.  1.
</event>
<event>
 5   0  0.6245176E-04  0.1101097E+04  0.7818609E-02  0.9204123E-01
       -2   -1    0    0    0  501  0.00000000000E+00  0.00000000000E+00  0.55236280451E+03  0.55236280451E+03  0.25500000920E-02 0. -1.
        2   -1    0    0  501    0  0.00000000000E+00  0.00000000000E+00 -0.54874046321E+03  0.54874046321E+03  0.25500000920E-02 0.  1.
    10030    2    1    2    0    0  0.00000000000E+00  0.00000000000E+00  0.36223413009E+01  0.11011032677E+04  0.11010973094E+04 0.  0.
        5    1    3    3  502    0  0.63109393609E+02  0.26089299284E+03 -0.47885116644E+03  0.54897038069E+03  0.46999998093E+01 0.  1.
       -5    1    3    3    0  502 -0.63109393609E+02 -0.26089299284E+03  0.48247350774E+03  0.55213288703E+03  0.46999998093E+01 0. -1.
</event>
<event>
 5   0  0.3642161E-04  0.1100526E+04  0.7818609E-02  0.9204679E-01
       -1   -1    0    0    0  501  0.00000000000E+00  0.00000000000E+00  0.58936186914E+03  0.58936186916E+03  0.50400001928E-02 0.  1.
        1   -1    0    0  501    0  0.00000000000E+00  0.00000000000E+00 -0.51375802668E+03  0.51375802670E+03  0.50400001928E-02 0. -1.
    10030    2    1    2    0    0  0.00000000000E+00  0.00000000000E+00  0.75603842464E+02  0.11031198959E+04  0.11005260395E+04 0.  0.
        2    1    3    3  502    0  0.34991150646E+03  0.32058782555E+03  0.31698086262E+03  0.57069386146E+03  0.25500000920E-02 0.  1.
       -2    1    3    3    0  502 -0.34991150646E+03 -0.32058782555E+03 -0.24137702015E+03  0.53242603440E+03  0.25500000920E-02 0. -1.
</event>
<event>
 5   0  0.3423758E-04  0.1099964E+04  0.7818609E-02  0.9205227E-01
       -1   -1    0    0    0  501  0.00000000000E+00  0.00000000000E+00  0.39652811147E+03  0.39652811151E+03  0.50400001928E-02 0. -1.
        1   -1    0    0  501    0  0.00000000000E+00  0.00000000000E+00 -0.76282176296E+03  0.76282176298E+03  0.50400001928E-02 0.  1.
    10030    2    1    2    0    0  0.00000000000E+00  0.00000000000E+00 -0.36629365149E+03  0.11593498745E+04  0.10999641323E+04 0.  0.
        1    1    3    3  502    0  0.65190033477E+01  0.13322259366E+03 -0.74551629190E+03  0.75735414330E+03  0.50400001928E-02 0.  1.
       -1    1    3    3    0  502 -0.65190033477E+01 -0.13322259366E+03  0.37922264041E+03  0.40199573118E+03  0.50400001928E-02 0. -1.
</event>
<event>
 5   0  0.3523525E-04  0.1101559E+04  0.7818609E-02  0.9203674E-01
        1   -1    0    0  501    0  0.00000000000E+00  0.00000000000E+00  0.10697501455E+04  0.10697501455E+04  0.50400001928E-02 0.  1.
       -1   -1    0    0    0  501  0.00000000000E+00  0.00000000000E+00 -0.28357844473E+03  0.28357844478E+03  0.50400001928E-02 0. -1.
    10030    2    1    2    0    0  0.00000000000E+00  0.00000000000E+00  0.78617170079E+03  0.13533285903E+04  0.11015590453E+04 0.  0.
        5    1    3    3  502    0  0.38296252477E+03 -0.33478432626E+03  0.13364443773E+03  0.52595034578E+03  0.46999998093E+01 0. -1.
       -5    1    3    3    0  502 -0.38296252477E+03  0.33478432626E+03  0.65252726305E+03  0.82737824453E+03  0.46999998093E+01 0.  1.
</event>
<event>
 5   0  0.6109149E-04  0.1099122E+04  0.7818609E-02  0.9206048E-01
        2   -1    0    0  501    0  0.00000000000E+00  0.00000000000E+00  0.10891484035E+04  0.10891484035E+04  0.25500000920E-02 0. -1.
       -2   -1    0    0    0  501  0.00000000000E+00  0.00000000000E+00 -0.27729689850E+03  0.27729689851E+03  0.25500000920E-02 0.  1.
    10030    2    1    2    0    0  0.00000000000E+00  0.00000000000E+00  0.81185150503E+03  0.13664453020E+04  0.10991223304E+04 0.  0.
        1    1    3    3  502    0 -0.35970736437E+03  0.28342028518E+03  0.78362793131E+03  0.90762832745E+03  0.50400001928E-02 0. -1.
       -1    1    3    3    0  502  0.35970736437E+03 -0.28342028518E+03  0.28223573717E+02  0.45881697460E+03  0.50400001928E-02 0.  1.
</event>
<event>
 5   0  0.3621403E-04  0.1100281E+04  0.7818609E-02  0.9204918E-01
        1   -1    0    0  501    0  0.00000000000E+00  0.00000000000E+00  0.49356763032E+03  0.49356763035E+03  0.50400001928E-02 0.  1.
       -1   -1    0    0    0  501  0.00000000000E+00  0.00000000000E+00 -0.61319815595E+03  0.61319815597E+03  0.50400001928E-02 0. -1.
    10030    2    1    2    0    0  0.00000000000E+00  0.00000000000E+00 -0.11963052563E+03  0.11067657863E+04  0.11002813473E+04 0.  0.
        3    1    3    3  502    0  0.19396778358E+03  0.46403819718E+03 -0.28406363535E+03  0.57762194266E+03  0.10100000352E+00 0. -1.
       -3    1    3    3    0  502 -0.19396778358E+03 -0.46403819718E+03  0.16443310972E+03  0.52914384366E+03  0.10100000352E+00 0.  1.
</event>
<event>
 5   0  0.6412712E-04  0.1103600E+04  0.7818609E-02  0.9201690E-01
       -2   -1    0    0    0  501  0.00000000000E+00  0.00000000000E+00  0.29815482714E+03  0.29815482715E+03  0.25500000920E-02 0. -1.
        2   -1    0    0  501    0  0.00000000000E+00  0.00000000000E+00 -0.10212255992E+04  0.10212255992E+04  0.25500000920E-02 0.  1.
    10030    2    1    2    0    0  0.00000000000E+00  0.00000000000E+00 -0.72307077203E+03  0.13193804263E+04  0.11036001848E+04 0.  0.
        2    1    3    3  502    0  0.26987939569E+03  0.11714439817E+03  0.19656515183E+03  0.35382984210E+03  0.25500000920E-02 0. -1.
       -2    1    3    3    0  502 -0.26987939569E+03 -0.11714439817E+03 -0.91963592385E+03  0.96555058422E+03  0.25500000920E-02 0.  1.
</event>
<event>
 5   0  0.3657529E-04  0.1100471E+04  0.7818609E-02  0.9204733E-01
       -1   -1    0    0    0  501  0.00000000000E+00  0.00000000000E+00  0.57232246735E+03  0.57232246737E+03  0.50400001928E-02 0.  1.
        1   -1    0    0  501    0  0.00000000000E+00  0.00000000000E+00 -0.52900053847E+03  0.52900053849E+03  0.50400001928E-02 0. -1.
    10030    2    1    2    0    0  0.00000000000E+00  0.00000000000E+00  0.43321928877E+02  0.11013230059E+04  0.11004706147E+04 0.  0.
        4    1    3    3  502    0  0.37571696819E+03 -0.51997168330E+02 -0.37725829235E+03  0.53496951105E+03  0.12699999809E+01 0. -1.
       -4    1    3    3    0  502 -0.37571696819E+03  0.51997168330E+02  0.42058022123E+03  0.56635349482E+03  0.12699999809E+01 0.  1.
</event>
<event>
 5   0  0.3523525E-04  0.1102164E+04  0.7818609E-02  0.9203085E-01
       -1   -1    0    0    0  501  0.00000000000E+00  0.00000000000E+00  0.41557997775E+03  0.41557997778E+03  0.50400001928E-02 0. -1.
        1   -1    0    0  501    0  0.00000000000E+00  0.00000000000E+00 -0.73076535773E+03  0.73076535774E+03  0.50400001928E-02 0.  1.
    10030    2    1    2    0    0  0.00000000000E+00  0.00000000000E+00 -0.31518537998E+03  0.11463453355E+04  0.11021641459E+04 0.  0.
        5    1    3    3  502    0  0.36043093943E+03  0.38497114828E+03  0.86783440577E+01  0.52745677620E+03  0.46999998093E+01 0.  1.
       -5    1    3    3    0  502 -0.36043093943E+03 -0.38497114828E+03 -0.32386372404E+03  0.61888855932E+03  0.46999998093E+01 0. -1.
</event>
<event>
 5   0  0.6245176E-04  0.1081944E+04  0.7818609E-02  0.9222971E-01
        2   -1    0    0  501    0  0.00000000000E+00  0.00000000000E+00  0.21920673069E+04  0.21920673069E+04  0.25500000920E-02 0.  1.
       -2   -1    0    0    0  501  0.00000000000E+00  0.00000000000E+00 -0.13350443733E+03  0.13350443735E+03  0.25500000920E-02 0. -1.
    10030    2    1    2    0    0  0.00000000000E+00  0.00000000000E+00  0.20585628696E+04  0.23255717443E+04  0.10819440141E+04 0.  0.
        5    1    3    3  502    0 -0.64323222529E+02  0.52843754037E+03  0.82261196266E+03  0.97984500924E+03  0.46999998093E+01 0.  1.
       -5    1    3    3    0  502  0.64323222529E+02 -0.52843754037E+03  0.12359509069E+04  0.13457267350E+04  0.46999998093E+01 0. -1.
</event>
<event>
 5   0  0.3523525E-04  0.1103182E+04  0.7818609E-02  0.9202096E-01
       -1   -1    0    0    0  501  0.00000000000E+00  0.00000000000E+00  0.50895696795E+03  0.50895696797E+03  0.50400001928E-02 0.  1.
        1   -1    0    0  501    0  0.00000000000E+00  0.00000000000E+00 -0.59779641146E+03  0.59779641148E+03  0.50400001928E-02 0. -1.
    10030    2    1    2    0    0  0.00000000000E+00  0.00000000000E+00 -0.88839443512E+02  0.11067533795E+04  0.11031820322E+04 0.  0.
        5    1    3    3  502    0  0.40238698442E+03 -0.37722739787E+03 -0.48274570725E+02  0.55368611967E+03  0.46999998093E+01 0.  1.
       -5    1    3    3    0  502 -0.40238698442E+03  0.37722739787E+03 -0.40564872787E+02  0.55306725978E+03  0.46999998093E+01 0. -1.
</event>
<event>
 5   0  0.3642161E-04  0.1099515E+04  0.7818609E-02  0.9205665E-01
        1   -1    0    0  501    0  0.00000000000E+00  0.00000000000E+00  0.64310664601E+03  0.64310664603E+03  0.50400001928E-02 0. -1.
       -1   -1    0    0    0  501  0.00000000000E+00  0.00000000000E+00 -0.46995844118E+03  0.46995844121E+03  0.50400001928E-02 0.  1.
    10030    2    1    2    0    0  0.00000000000E+00  0.00000000000E+00  0.17314820482E+03  0.11130650872E+04  0.10995151602E+04 0.  0.
        2    1    3    3  502    0  0.30333362936E+02  0.76498082948E+02 -0.46368807345E+03  0.47093385849E+03  0.25500000920E-02 0.  1.
       -2    1    3    3    0  502 -0.30333362936E+02 -0.76498082948E+02  0.63683627828E+03  0.64213122875E+03  0.25500000920E-02 0. -1.
</event>
<event>
 5   0  0.6109149E-04  0.1099703E+04  0.7818609E-02  0.9205481E-01
       -2   -1    0    0    0  501  0.00000000000E+00  0.00000000000E+00  0.26843703233E+03  0.26843703234E+03  0.25500000920E-02 0. -1.
        2   -1    0    0  501    0  0.00000000000E+00  0.00000000000E+00 -0.11262860044E+04  0.11262860044E+04  0.25500000920E-02 0.  1.
    10030    2    1    2    0    0  0.00000000000E+00  0.00000000000E+00 -0.85784897211E+03  0.13947230368E+04  0.10997033647E+04 0.  0.
        1    1    3    3  502    0  0.23812426808E+03  0.30330785525E+02  0.19847131182E+03  0.31147068119E+03  0.50400001928E-02 0. -1.
       -1    1    3    3    0  502 -0.23812426808E+03 -0.30330785525E+02 -0.10563202839E+04  0.10832523556E+04  0.50400001928E-02 0.  1.
</event>
<event>
 5   0  0.3657529E-04  0.1105934E+04  0.7818609E-02  0.9199428E-01
        1   -1    0    0  501    0  0.00000000000E+00  0.00000000000E+00  0.12892983010E+04  0.12892983010E+04  0.50400001928E-02 0.  1.
       -1   -1    0    0    0  501  0.00000000000E+00  0.00000000000E+00 -0.23716187205E+03  0.23716187211E+03  0.50400001928E-02 0. -1.
    10030    2    1    2    0    0  0.00000000000E+00  0.00000000000E+00  0.10521364289E+04  0.15264601731E+04  0.11059338113E+04 0.  0.
        4    1    3    3  502    0  0.25389201969E+03 -0.25449603590E+03  0.11060036151E+04  0.11629595863E+04  0.12699999809E+01 0.  1.
       -4    1    3    3    0  502 -0.25389201969E+03  0.25449603590E+03 -0.53867186140E+02  0.36350058678E+03  0.12699999809E+01 0. -1.
</event>
<event>
 5   0  0.6109149E-04  0.1099969E+04  0.7818609E-02  0.9205222E-01
       -2   -1    0    0    0  501  0.00000000000E+00  0.00000000000E+00  0.40041278371E+03  0.40041278372E+03  0.25500000920E-02 0. -1.
        2   -1    0    0  501    0  0.00000000000E+00  0.00000000000E+00 -0.75542832164E+03  0.75542832164E+03  0.25500000920E-02 0.  1.
    10030    2    1    2    0    0  0.00000000000E+00  0.00000000000E+00 -0.35501553793E+03  0.11558411054E+04  0.10999693762E+04 0.  0.
        1    1    3    3  502    0 -0.60386868564E+02 -0.32203422127E+03 -0.64168108246E+03  0.72049096121E+03  0.50400001928E-02 0.  1.
       -1    1    3    3    0  502  0.60386868564E+02  0.32203422127E+03  0.28666554453E+03  0.43535014415E+03  0.50400001928E-02 0. -1.
</event>
<event>
 5   0  0.6109149E-04  0.1099999E+04  0.7818609E-02  0.9205192E-01
        2   -1    0    0  501    0  0.00000000000E+00  0.00000000000E+00  0.59341870759E+03  0.59341870759E+03  0.25500000920E-02 0.  1.
       -2   -1    0    0    0  501  0.00000000000E+00  0.00000000000E+00 -0.50975759958E+03  0.50975759958E+03  0.25500000920E-02 0. -1.
    10030    2    1    2    0    0  0.00000000000E+00  0.00000000000E+00  0.83661108009E+02  0.11031763072E+04  0.10999994471E+04 0.  0.
        1    1    3    3  502    0  0.17100288636E+03 -0.24301844163E+03 -0.42232327193E+03  0.51638831915E+03  0.50400001928E-02 0. -1.
       -1    1    3    3    0  502 -0.17100288636E+03  0.24301844163E+03  0.50598437994E+03  0.58678798802E+03  0.50400001928E-02 0.  1.
</event>
<event>
 5   0  0.3657529E-04  0.1100087E+04  0.7818609E-02  0.9205107E-01
       -1   -1    0    0    0  501  0.00000000000E+00  0.00000000000E+00  0.37890355690E+03  0.37890355693E+03  0.50400001928E-02 0.  1.
        1   -1    0    0  501    0  0.00000000000E+00  0.00000000000E+00 -0.79848234068E+03  0.79848234070E+03  0.50400001928E-02 0. -1.
    10030    2    1    2    0    0  0.00000000000E+00  0.00000000000E+00 -0.41957878378E+03  0.11773858976E+04  0.11000869039E+04 0.  0.
        4    1    3    3  502    0  0.27999343966E+03 -0.29122040422E+03 -0.60930207716E+03  0.73106517098E+03  0.12699999809E+01 0. -1.
       -4    1    3    3    0  502 -0.27999343966E+03  0.29122040422E+03  0.18972329337E+03  0.44632072665E+03  0.12699999809E+01 0.  1.
</event>
<event>
 5   0  0.3621403E-04  0.1100284E+04  0.7818609E-02  0.9204915E-01
       -1   -1    0    0    0  501  0.00000000000E+00  0.00000000000E+00  0.79921363766E+03  0.79921363768E+03  0.50400001928E-02 0.  1.
        1   -1    0    0  501    0  0.00000000000E+00  0.00000000000E+00 -0.37869277277E+03  0.37869277280E+03  0.50400001928E-02 0. -1.
    10030    2    1    2    0    0  0.00000000000E+00  0.00000000000E+00  0.42052086490E+03  0.11779064105E+04  0.11002843787E+04 0.  0.
        3    1    3    3  502    0  0.24114516779E+03  0.26780932173E+03  0.65525743880E+03  0.74782026320E+03  0.10100000352E+00 0.  1.
       -3    1    3    3    0  502 -0.24114516779E+03 -0.26780932173E+03 -0.23473657390E+03  0.43008614728E+03  0.10100000352E+00 0. -1.
</event>
<event>
 5   0  0.2403875E-04  0.1099488E+04  0.7818609E-02  0.9205691E-01
       -3   -1    0    0    0  501  0.00000000000E+00  0.00000000000E+00  0.87056785109E+03  0.87056785695E+03  0.10100000352E+00 0. -1.
        3   -1    0    0  501    0  0.00000000000E+00  0.00000000000E+00 -0.34715111953E+03  0.34715113423E+03  0.10100000352E+00 0.  1.
    10030    2    1    2    0    0  0.00000000000E+00  0.00000000000E+00  0.52341673156E+03  0.12177189912E+04  0.10994882749E+04 0.  0.
        5    1    3    3  502    0  0.24577992231E+03 -0.20903915736E+03  0.75464293206E+03  0.82073941323E+03  0.46999998093E+01 0. -1.
       -5    1    3    3    0  502 -0.24577992231E+03  0.20903915736E+03 -0.23122620050E+03  0.39697957795E+03  0.46999998093E+01 0.  1.
</event>
<event>
 5   0  0.6264830E-04  0.1101648E+04  0.7818609E-02  0.9203588E-01
       -2   -1    0    0    0  501  0.00000000000E+00  0.00000000000E+00  0.63736055221E+03  0.63736055221E+03  0.25500000920E-02 0.  1.
        2   -1    0    0  501    0  0.00000000000E+00  0.00000000000E+00 -0.47603641832E+03  0.47603641832E+03  0.25500000920E-02 0. -1.
    10030    2    1    2    0    0  0.00000000000E+00  0.00000000000E+00  0.16132413389E+03  0.11133969705E+04  0.11016475561E+04 0.  0.
        4    1    3    3  502    0  0.12655496293E+02  0.79529252630E+02 -0.47005330807E+03  0.47690333291E+03  0.12699999809E+01 0. -1.
       -4    1    3    3    0  502 -0.12655496293E+02 -0.79529252630E+02  0.63137744197E+03  0.63649363762E+03  0.12699999809E+01 0.  1.
</event>
<event>
 5   0  0.3657529E-04  0.1099249E+04  0.7818609E-02  0.9205924E-01
       -1   -1    0    0    0  501  0.00000000000E+00  0.00000000000E+00  0.91547467706E+03  0.91547467707E+03  0.50400001928E-02 0.  1.
        1   -1    0    0  501    0  0.00000000000E+00  0.00000000000E+00 -0.32997885242E+03  0.32997885246E+03  0.50400001928E-02 0. -1.
    10030    2    1    2    0    0  0.00000000000E+00  0.00000000000E+00  0.58549582464E+03  0.12454535295E+04  0.10992493500E+04 0.  0.
        4    1    3    3  502    0 -0.45651893851E+03  0.22423717181E+03  0.56729843727E+02  0.51177313188E+03  0.12699999809E+01 0. -1.
       -4    1    3    3    0  502  0.45651893851E+03 -0.22423717181E+03  0.52876598091E+03  0.73368039766E+03  0.12699999809E+01 0.  1.
</event>
<event>
 5   0  0.3423758E-04  0.1098343E+04  0.7818609E-02  0.9206808E-01
        1   -1    0    0  501    0  0.00000000000E+00  0.00000000000E+00  0.54561080177E+03  0.54561080179E+03  0.50400001928E-02 0. -1.
       -1   -1    0    0    0  501  0.00000000000E+00  0.00000000000E+00 -0.55275579880E+03  0.55275579883E+03  0.50400001928E-02 0.  1.
    10030    2    1    2    0    0  0.00000000000E+00  0.00000000000E+00 -0.71449970327E+01  0.10983666006E+04  0.10983433609E+04 0.  0.
        1    1    3    3  502    0  0.41580095146E+02  0.54672058065E+03  0.27367402271E+02  0.54898203281E+03  0.50400001928E-02 0.  1.
       -1    1    3    3    0  502 -0.41580095146E+02 -0.54672058065E+03 -0.34512399303E+02  0.54938456781E+03  0.50400001928E-02 0. -1.
</event>
<event>
 5   0  0.3523525E-04  0.1099808E+04  0.7818609E-02  0.9205379E-01
        1   -1    0    0  501    0  0.00000000000E+00  0.00000000000E+00  0.55442945641E+03  0.55442945644E+03  0.50400001928E-02 0. -1.
       -1   -1    0    0    0  501  0.00000000000E+00  0.00000000000E+00 -0.54541549370E+03  0.54541549372E+03  0.50400001928E-02 0.  1.
    10030    2    1    2    0    0  0.00000000000E+00  0.00000000000E+00  0.90139627146E+01  0.10998449502E+04  0.10998080118E+04 0.  0.
        5    1    3    3  502    0 -0.32700807985E+03  0.42922903491E+03  0.11034284201E+03  0.55078987053E+03  0.46999998093E+01 0.  1.
       -5    1    3    3    0  502  0.32700807985E+03 -0.42922903491E+03 -0.10132887929E+03  0.54905507963E+03  0.46999998093E+01 0. -1.
</event>
<event>
 5   0  0.6264830E-04  0.1096550E+04  0.7818609E-02  0.9208561E-01
        2   -1    0    0  501    0  0.00000000000E+00  0.00000000000E+00  0.10896528585E+04  0.10896528585E+04  0.25500000920E-02 0. -1.
       -2   -1    0    0    0  501  0.00000000000E+00  0.00000000000E+00 -0.27587289880E+03  0.27587289881E+03  0.25500000920E-02 0.  1.
    10030    2    1    2    0    0  0.00000000000E+00  0.00000000000E+00  0.81377995967E+03  0.13655257573E+04  0.10965503960E+04 0.  0.
        4    1    3    3  502    0 -0.13649356911E+03 -0.80481993153E+02 -0.24673574100E+03  0.29323707885E+03  0.12699999809E+01 0.  1.
       -4    1    3    3    0  502  0.13649356911E+03  0.80481993153E+02  0.10605157007E+04  0.10722886784E+04  0.12699999809E+01 0. -1.
</event>
<event>
 5   0  0.6412712E-04  0.1103368E+04  0.7818609E-02  0.9201915E-01
        2   -1    0    0  501    0  0.00000000000E+00  0.00000000000E+00  0.41928169934E+03  0.41928169935E+03  0.25500000920E-02 0.  1.
       -2   -1    0    0    0  501  0.00000000000E+00  0.00000000000E+00 -0.72589667157E+03  0.72589667158E+03  0.25500000920E-02 0. -1.
    10030    2    1    2    0    0  0.00000000000E+00  0.00000000000E+00 -0.30661497223E+03  0.11451783709E+04  0.11033679169E+04 0.  0.
        2    1    3    3  502    0 -0.23425520550E+03  0.24521603989E+03  0.29832382524E+03  0.45166747972E+03  0.25500000920E-02 0.  1.
       -2    1    3    3    0  502  0.23425520550E+03 -0.24521603989E+03 -0.60493879748E+03  0.69351089120E+03  0.25500000920E-02 0. -1.
</event>
<event>
 5   0  0.3523525E-04  0.1099248E+04  0.7818609E-02  0.9205925E-01
        1   -1    0    0  501    0  0.00000000000E+00  0.00000000000E+00  0.59578988639E+03  0.59578988642E+03  0.50400001928E-02 0.  1.
       -1   -1    0    0    0  501  0.00000000000E+00  0.00000000000E+00 -0.50703534636E+03  0.50703534639E+03  0.50400001928E-02 0. -1.
    10030    2    1    2    0    0  0.00000000000E+00  0.00000000000E+00  0.88754540033E+02  0.11028252328E+04  0.10992479819E+04 0.  0.
        5    1    3    3  502    0  0.87037047465E+02 -0.11860569415E+03  0.57564912999E+03  0.59416897358E+03  0.46999998093E+01 0.  1.
       -5    1    3    3    0  502 -0.87037047465E+02  0.11860569415E+03 -0.48689458996E+03  0.50865625922E+03  0.46999998093E+01 0. -1.
</event>
<event>
 5   0  0.3423758E-04  0.1098152E+04  0.7818609E-02  0.9206995E-01
        1   -1    0    0  501    0  0.00000000000E+00  0.00000000000E+00  0.12876452375E+04  0.12876452375E+04  0.50400001928E-02 0.  1.
       -1   -1    0    0    0  501  0.00000000000E+00  0.00000000000E+00 -0.23413622834E+03  0.23413622839E+03  0.50400001928E-02 0. -1.
    10030    2    1    2    0    0  0.00000000000E+00  0.00000000000E+00  0.10535090092E+04  0.15217814659E+04  0.10981519010E+04 0.  0.
        1    1    3    3  502    0 -0.28423467998E+03 -0.46410723221E+03  0.62763524623E+03  0.83072912470E+03  0.50400001928E-02 0.  1.
       -1    1    3    3    0  502  0.28423467998E+03  0.46410723221E+03  0.42587376294E+03  0.69105234120E+03  0.50400001928E-02 0. -1.
</event>
<event>
 5   0  0.5948818E-04  0.1100149E+04  0.7818609E-02  0.9205046E-01
        2   -1    0    0  501    0  0.00000000000E+00  0.00000000000E+00  0.40245488215E+03  0.40245488216E+03  0.25500000920E-02 0. -1.
       -2   -1    0    0    0  501  0.00000000000E+00  0.00000000000E+00 -0.75184126546E+03  0.75184126547E+03  0.25500000920E-02 0.  1.
    10030    2    1    2    0    0  0.00000000000E+00  0.00000000000E+00 -0.34938638331E+03  0.11542961476E+04  0.11001494224E+04 0.  0.
        3    1    3    3  502    0  0.22290183057E+03  0.24488549140E+03 -0.63554707986E+03  0.71664093582E+03  0.10100000352E+00 0.  1.
       -3    1    3    3    0  502 -0.22290183057E+03 -0.24488549140E+03  0.28616069655E+03  0.43765521181E+03  0.10100000352E+00 0. -1.
</event>
<event>
 5   0  0.6264830E-04  0.1099936E+04  0.7818609E-02  0.9205254E-01
       -2   -1    0    0    0  501  0.00000000000E+00  0.00000000000E+00  0.34813121794E+03  0.34813121795E+03  0.25500000920E-02 0.  1.
        2   -1    0    0  501    0  0.00000000000E+00  0.00000000000E+00 -0.86882404948E+03  0.86882404948E+03  0.25500000920E-02 0. -1.
    10030    2    1    2    0    0  0.00000000000E+00  0.00000000000E+00 -0.52069283154E+03  0.12169552674E+04  0.10999359518E+04 0.  0.
        4    1    3    3  502    0  0.18077293281E+03 -0.50842977694E+03 -0.14282187502E+03  0.55819297039E+03  0.12699999809E+01 0.  1.
       -4    1    3    3    0  502 -0.18077293281E+03  0.50842977694E+03 -0.37787095652E+03  0.65876229704E+03  0.12699999809E+01 0. -1.
</event>
<event>
 5   0  0.6264830E-04  0.1089353E+04  0.7818609E-02  0.9215631E-01
        2   -1    0    0  501    0  0.00000000000E+00  0.00000000000E+00  0.10438655780E+04  0.10438655781E+04  0.25500000920E-02 0. -1.
       -2   -1    0    0    0  501  0.00000000000E+00  0.00000000000E+00 -0.28420589726E+03  0.28420589727E+03  0.25500000920E-02 0.  1.
    10030    2    1    2    0    0  0.00000000000E+00  0.00000000000E+00  0.75965968079E+03  0.13280714753E+04  0.10893534839E+04 0.  0.
        4    1    3    3  502    0  0.31498846724E+03 -0.44198674800E+03  0.43571263239E+03  0.69600081237E+03  0.12699999809E+01 0.  1.
       -4    1    3    3    0  502 -0.31498846724E+03  0.44198674800E+03  0.32394704840E+03  0.63207066295E+03  0.12699999809E+01 0. -1.
</event>
<event>
 5   0  0.3621403E-04  0.1102687E+04  0.7818609E-02  0.9202577E-01
       -1   -1    0    0    0  501  0.00000000000E+00  0.00000000000E+00  0.52918682097E+03  0.52918682099E+03  0.50400001928E-02 0.  1.
        1   -1    0    0  501    0  0.00000000000E+00  0.00000000000E+00 -0.57442738438E+03  0.57442738440E+03  0.50400001928E-02 0. -1.
    10030    2    1    2    0    0  0.00000000000E+00  0.00000000000E+00 -0.45240563413E+02  0.11036142054E+04  0.11026865401E+04 0.  0.
        3    1    3    3  502    0  0.32891043323E+03  0.15235666148E+03 -0.43840300301E+03  0.56885132384E+03  0.10100000352E+00 0. -1.
       -3    1    3    3    0  502 -0.32891043323E+03 -0.15235666148E+03  0.39316243959E+03  0.53476288156E+03  0.10100000352E+00 0.  1.
</event>
<event>
 5   0  0.3621403E-04  0.1101034E+04  0.7818609E-02  0.9204185E-01
        1   -1    0    0  501    0  0.00000000000E+00  0.00000000000E+00  0.40266231433E+03  0.40266231436E+03  0.50400001928E-02 0. -1.
       -1   -1    0    0    0  501  0.00000000000E+00  0.00000000000E+00 -0.75266273137E+03  0.75266273139E+03  0.50400001928E-02 0.  1.
    10030    2    1    2    0    0  0.00000000000E+00  0.00000000000E+00 -0.35000041704E+03  0.11553250458E+04  0.11010339093E+04 0.  0.
        3    1    3    3  502    0  0.30559733998E+03  0.23407722475E+03 -0.58796308669E+03  0.70276773038E+03  0.10100000352E+00 0.  1.
       -3    1    3    3    0  502 -0.30559733998E+03 -0.23407722475E+03  0.23796266965E+03  0.45255731537E+03  0.10100000352E+00 0. -1.
</event>
<event>
 5   0  0.3423758E-04  0.1106305E+04  0.7818609E-02  0.9199068E-01
        1   -1    0    0  501    0  0.00000000000E+00  0.00000000000E+00  0.67806651146E+03  0.67806651148E+03  0.50400001928E-02 0. -1.
       -1   -1    0    0    0  501  0.00000000000E+00  0.00000000000E+00 -0.45125042624E+03  0.45125042626E+03  0.50400001928E-02 0.  1.
    10030    2    1    2    0    0  0.00000000000E+00  0.00000000000E+00  0.22681608522E+03  0.11293169377E+04  0.11063052062E+04 0.  0.
        1    1    3    3  502    0  0.46531483356E+03  0.20052534803E+03 -0.11313032497E+03  0.51915968640E+03  0.50400001928E-02 0.  1.
       -1    1    3    3    0  502 -0.46531483356E+03 -0.20052534803E+03  0.33994641019E+03  0.61015725134E+03  0.50400001928E-02 0. -1.
</event>
<event>
 5   0  0.2403875E-04  0.1099907E+04  0.7818609E-02  0.9205283E-01
       -4   -1    0    0    0  501  0.00000000000E+00  0.00000000000E+00  0.41085097793E+03  0.41085294081E+03  0.12699999809E+01 0. -1.
        4   -1    0    0  501    0  0.00000000000E+00  0.00000000000E+00 -0.73614776553E+03  0.73614886102E+03  0.12699999809E+01 0.  1.
    10030    2    1    2    0    0  0.00000000000E+00  0.00000000000E+00 -0.32529678759E+03  0.11470018018E+04  0.10999068749E+04 0.  0.
        5    1    3    3  502    0  0.42203520725E+03  0.18345160411E+03 -0.47663593428E+03  0.66254970459E+03  0.46999998093E+01 0.  1.
       -5    1    3    3    0  502 -0.42203520725E+03 -0.18345160411E+03  0.15133914669E+03  0.48445209724E+03  0.46999998093E+01 0. -1.
</event>
<event>
 5   0  0.5948818E-04  0.1102198E+04  0.7818609E-02  0.9203052E-01
       -2   -1    0    0    0  501  0.00000000000E+00  0.00000000000E+00  0.37439199196E+03  0.37439199197E+03  0.25500000920E-02 0. -1.
        2   -1    0    0  501    0  0.00000000000E+00  0.00000000000E+00 -0.81120891998E+03  0.81120891998E+03  0.25500000920E-02 0.  1.
    10030    2    1    2    0    0  0.00000000000E+00  0.00000000000E+00 -0.43681692802E+03  0.11856009120E+04  0.11021980284E+04 0.  0.
        3    1    3    3  502    0 -0.26063007504E+03  0.19729494772E+03 -0.69566741717E+03  0.76863938094E+03  0.10100000352E+00 0.  1.
       -3    1    3    3    0  502  0.26063007504E+03 -0.19729494772E+03  0.25885048916E+03  0.41696153101E+03  0.10100000352E+00 0. -1.
</event>
<event>
 5   0  0.5948818E-04  0.1101205E+04  0.7818609E-02  0.9204018E-01
       -2   -1    0    0    0  501  0.00000000000E+00  0.00000000000E+00  0.20843527408E+03  0.20843527409E+03  0.25500000920E-02 0. -1.
        2   -1    0    0  501    0  0.00000000000E+00  0.00000000000E+00 -0.14544721040E+04  0.14544721040E+04  0.25500000920E-02 0.  1.
    10030    2    1    2    0    0  0.00000000000E+00  0.00000000000E+00 -0.12460368299E+04  0.16629073781E+04  0.11012053245E+04 0.  0.
        3    1    3    3  502    0 -0.19850250099E+02  0.37647341036E+03 -0.17032373288E+02  0.37738093894E+03  0.10100000352E+00 0. -1.
       -3    1    3    3    0  502  0.19850250099E+02 -0.37647341036E+03 -0.12290044567E+04  0.12855264392E+04  0.10100000352E+00 0.  1.
</event>
<event>
 5   0  0.3621403E-04  0.1099005E+04  0.7818609E-02  0.9206162E-01
        1   -1    0    0  501    0  0.00000000000E+00  0.00000000000E+00  0.71866035756E+03  0.71866035757E+03  0.50400001928E-02 0.  1.
       -1   -1    0    0    0  501  0.00000000000E+00  0.00000000000E+00 -0.42016085783E+03  0.42016085786E+03  0.50400001928E-02 0. -1.
    10030    2    1    2    0    0  0.00000000000E+00  0.00000000000E+00  0.29849949973E+03  0.11388212154E+04  0.10990049178E+04 0.  0.
        3    1    3    3  502    0  0.46849088609E+03 -0.93262141741E+02  0.43069889890E+03  0.64318200313E+03  0.10100000352E+00 0.  1.
       -3    1    3    3    0  502 -0.46849088609E+03  0.93262141741E+02 -0.13219939917E+03  0.49563921231E+03  0.10100000352E+00 0. -1.
</event>
<event>
 5   0  0.6412712E-04  0.1100755E+04  0.7818609E-02  0.9204456E-01
        2   -1    0    0  501    0  0.00000000000E+00  0.00000000000E+00  0.17547602269E+04  0.17547602269E+04  0.25500000920E-02 0. -1.
       -2   -1    0    0    0  501  0.00000000000E+00  0.00000000000E+00 -0.17262498773E+03  0.17262498775E+03  0.25500000920E-02 0.  1.
    10030    2    1    2    0    0  0.00000000000E+00  0.00000000000E+00  0.15821352391E+04  0.19273852146E+04  0.11007551275E+04 0.  0.
        2    1    3    3  502    0  0.27721996721E+03  0.22763639476E+03  0.60165041127E+02  0.36371564528E+03  0.25500000920E-02 0.  1.
       -2    1    3    3    0  502 -0.27721996721E+03 -0.22763639476E+03  0.15219701980E+04  0.15636695693E+04  0.25500000920E-02 0. -1.
</event>
<event>
 5   0  0.6109149E-04  0.1120395E+04  0.7818609E-02  0.9185538E-01
       -2   -1    0    0    0  501  0.00000000000E+00  0.00000000000E+00  0.85526070894E+03  0.85526070894E+03  0.25500000920E-02 0. -1.
        2   -1    0    0  501    0  0.00000000000E+00  0.00000000000E+00 -0.36693068261E+03  0.36693068262E+03  0.25500000920E-02 0.  1.
    10030    2    1    2    0    0  0.00000000000E+00  0.00000000000E+00  0.48833002633E+03  0.12221913916E+04  0.11203952798E+04 0.  0.
        1    1    3    3  502    0 -0.23399470004E+02  0.17124498150E+03  0.82544869941E+03  0.84334923624E+03  0.50400001928E-02 0. -1.
       -1    1    3    3    0  502  0.23399470004E+02 -0.17124498150E+03 -0.33711867308E+03  0.37884215532E+03  0.50400001928E-02 0.  1.
</event>
<event>
 5   0  0.6264830E-04  0.1098368E+04  0.7818609E-02  0.9206784E-01
        2   -1    0    0  501    0  0.00000000000E+00  0.00000000000E+00  0.74899653978E+03  0.74899653979E+03  0.25500000920E-02 0. -1.
       -2   -1    0    0    0  501  0.00000000000E+00  0.00000000000E+00 -0.40267603808E+03  0.40267603809E+03  0.25500000920E-02 0.  1.
    10030    2    1    2    0    0  0.00000000000E+00  0.00000000000E+00  0.34632050170E+03  0.11516725779E+04  0.10983678058E+04 0.  0.
        4    1    3    3  502    0 -0.14137513316E+03  0.51517172001E+03  0.39652508410E+02  0.53568905505E+03  0.12699999809E+01 0.  1.
       -4    1    3    3    0  502  0.14137513316E+03 -0.51517172001E+03  0.30666799329E+03  0.61598352282E+03  0.12699999809E+01 0. -1.
</event>
<event>
 5   0  0.3523525E-04  0.1099795E+04  0.7818609E-02  0.9205392E-01
        1   -1    0    0  501    0  0.00000000000E+00  0.00000000000E+00  0.51952001572E+03  0.51952001574E+03  0.50400001928E-02 0.  1.
       -1   -1    0    0    0  501  0.00000000000E+00  0.00000000000E+00 -0.58205094736E+03  0.58205094738E+03  0.50400001928E-02 0. -1.
    10030    2    1    2    0    0  0.00000000000E+00  0.00000000000E+00 -0.62530931644E+02  0.11015709631E+04  0.10997947397E+04 0.  0.
        5    1    3    3  502    0 -0.52645173634E+03  0.41222814983E+02  0.12232584569E+03  0.54206683508E+03  0.46999998093E+01 0.  1.
       -5    1    3    3    0  502  0.52645173634E+03 -0.41222814983E+02 -0.18485677733E+03  0.55950412804E+03  0.46999998093E+01 0. -1.
</event>
<event>
 5   0  0.6109149E-04  0.1103833E+04  0.7818609E-02  0.9201464E-01
        2   -1    0    0  501    0  0.00000000000E+00  0.00000000000E+00  0.22947760572E+04  0.22947760572E+04  0.25500000920E-02 0. -1.
       -2   -1    0    0    0  501  0.00000000000E+00  0.00000000000E+00 -0.13274141754E+03  0.13274141757E+03  0.25500000920E-02 0.  1.
    10030    2    1    2    0    0  0.00000000000E+00  0.00000000000E+00  0.21620346397E+04  0.24275174748E+04  0.11038330070E+04 0.  0.
        1    1    3    3  502    0  0.28043140409E+03  0.21871446614E+03  0.15283681283E+03  0.38708769224E+03  0.50400001928E-02 0.  1.
       -1    1    3    3    0  502 -0.28043140409E+03 -0.21871446614E+03  0.20091978269E+04  0.20404297826E+04  0.50400001928E-02 0. -1.
</event>
<event>
 5   0  0.5948818E-04  0.1104522E+04  0.7818609E-02  0.9200796E-01
       -2   -1    0    0    0  501  0.00000000000E+00  0.00000000000E+00  0.43916453282E+03  0.43916453283E+03  0.25500000920E-02 0. -1.
        2   -1    0    0  501    0  0.00000000000E+00  0.00000000000E+00 -0.69448289320E+03  0.69448289320E+03  0.25500000920E-02 0.  1.
    10030    2    1    2    0    0  0.00000000000E+00  0.00000000000E+00 -0.25531836037E+03  0.11336474260E+04  0.11045220783E+04 0.  0.
        3    1    3    3  502    0  0.52428860598E+03  0.59176678456E+02  0.39773767131E+02  0.52911471761E+03  0.10100000352E+00 0. -1.
       -3    1    3    3    0  502 -0.52428860598E+03 -0.59176678456E+02 -0.29509212751E+03  0.60453270842E+03  0.10100000352E+00 0.  1.
</event>
<event>
 5   0  0.3657529E-04  0.1100186E+04  0.7818609E-02  0.9205011E-01
        1   -1    0    0  501    0  0.00000000000E+00  0.00000000000E+00  0.16048048840E+04  0.16048048840E+04  0.50400001928E-02 0.  1.
       -1   -1    0    0    0  501  0.00000000000E+00  0.00000000000E+00 -0.18856003189E+03  0.18856003196E+03  0.50400001928E-02 0. -1.
    10030    2    1    2    0    0  0.00000000000E+00  0.00000000000E+00  0.14162448521E+04  0.17933649159E+04  0.11001855483E+04 0.  0.
        4    1    3    3  502    0  0.28112513227E+03  0.18379678258E+03  0.14182509155E+04  0.14574806584E+04  0.12699999809E+01 0.  1.
       -4    1    3    3    0  502 -0.28112513227E+03 -0.18379678258E+03 -0.20060634433E+01  0.33588425755E+03  0.12699999809E+01 0. -1.
</event>
<event>
 5   0  0.6245176E-04  0.1098809E+04  0.7818609E-02  0.9206353E-01
        2   -1    0    0  501    0  0.00000000000E+00  0.00000000000E+00  0.64158227293E+03  0.64158227294E+03  0.25500000920E-02 0. -1.
       -2   -1    0    0    0  501  0.00000000000E+00  0.00000000000E+00 -0.47047055000E+03  0.47047055001E+03  0.25500000920E-02 0.  1.
    10030    2    1    2    0    0  0.00000000000E+00  0.00000000000E+00  0.17111172293E+03  0.11120528229E+04  0.10988094736E+04 0.  0.
        5    1    3    3  502    0  0.22888679958E+02  0.47932960763E+03 -0.18514255578E+03  0.51437400826E+03  0.46999998093E+01 0.  1.
       -5    1    3    3    0  502 -0.22888679958E+02 -0.47932960763E+03  0.35625427872E+03  0.59767881468E+03  0.46999998093E+01 0. -1.
</event>
<event>
 5   0  0.6412712E-04  0.1101378E+04  0.7818609E-02  0.9203850E-01
       -2   -1    0    0    0  501  0.00000000000E+00  0.00000000000E+00  0.18700342021E+03  0.18700342023E+03  0.25500000920E-02 0.  1.
        2   -1    0    0  501    0  0.00000000000E+00  0.00000000000E+00 -0.16216718670E+04  0.16216718670E+04  0.25500000920E-02 0. -1.
    10030    2    1    2    0    0  0.00000000000E+00  0.00000000000E+00 -0.14346684468E+04  0.18086752872E+04  0.11013776566E+04 0.  0.
        2    1    3    3  502    0 -0.37550488705E+02  0.15798543400E+03  0.14679162736E+03  0.21890001925E+03  0.25500000920E-02 0.  1.
       -2    1    3    3    0  502  0.37550488705E+02 -0.15798543400E+03 -0.15814600741E+04  0.15897752680E+04  0.25500000920E-02 0. -1.
</event>
<event>
 5   0  0.6412712E-04  0.1100390E+04  0.7818609E-02  0.9204811E-01
       -2   -1    0    0    0  501  0.00000000000E+00  0.00000000000E+00  0.49773324536E+03  0.49773324536E+03  0.25500000920E-02 0. -1.
        2   -1    0    0  501    0  0.00000000000E+00  0.00000000000E+00 -0.60818679004E+03  0.60818679005E+03  0.25500000920E-02 0.  1.
    10030    2    1    2    0    0  0.00000000000E+00  0.00000000000E+00 -0.11045354469E+03  0.11059200354E+04  0.11003904485E+04 0.  0.
        2    1    3    3  502    0  0.40170467105E+03 -0.32139143323E+03 -0.25128573790E+03  0.57254136809E+03  0.25500000920E-02 0.  1.
       -2    1    3    3    0  502 -0.40170467105E+03  0.32139143323E+03  0.14083219321E+03  0.53337866732E+03  0.25500000920E-02 0. -1.
</event>
<event>
 5   0  0.3621403E-04  0.1099888E+04  0.7818609E-02  0.9205301E-01
       -1   -1    0    0    0  501  0.00000000000E+00  0.00000000000E+00  0.48798201085E+03  0.48798201087E+03  0.50400001928E-02 0.  1.
        1   -1    0    0  501    0  0.00000000000E+00  0.00000000000E+00 -0.61977327696E+03  0.61977327698E+03  0.50400001928E-02 0. -1.
    10030    2    1    2    0    0  0.00000000000E+00  0.00000000000E+00 -0.13179126611E+03  0.11077552879E+04  0.10998876488E+04 0.  0.
        3    1    3    3  502    0  0.51231839108E+03  0.13033265810E+03 -0.21857640743E+03  0.57204229887E+03  0.10100000352E+00 0. -1.
       -3    1    3    3    0  502 -0.51231839108E+03 -0.13033265810E+03  0.86785141316E+02  0.53571298898E+03  0.10100000352E+00 0.  1.
</event>
<event>
 5   0  0.3642161E-04  0.1100456E+04  0.7818609E-02  0.9204748E-01
       -1   -1    0    0    0  501  0.00000000000E+00  0.00000000000E+00  0.27134262665E+03  0.27134262670E+03  0.50400001928E-02 0.  1.
        1   -1    0    0  501    0  0.00000000000E+00  0.00000000000E+00 -0.11157509175E+04  0.11157509175E+04  0.50400001928E-02 0. -1.
    10030    2    1    2    0    0  0.00000000000E+00  0.00000000000E+00 -0.84440829082E+03  0.13870935442E+04  0.11004558777E+04 0.  0.
        2    1    3    3  502    0  0.22892624101E+03  0.38180498971E+03 -0.82980358419E+03  0.94167736637E+03  0.25500000920E-02 0. -1.
       -2    1    3    3    0  502 -0.22892624101E+03 -0.38180498971E+03 -0.14604706630E+02  0.44541617781E+03  0.25500000920E-02 0.  1.
</event>
<event>
 5   0  0.6109149E-04  0.1103901E+04  0.7818609E-02  0.9201398E-01
        2   -1    0    0  501    0  0.00000000000E+00  0.00000000000E+00  0.88274990080E+03  0.88274990081E+03  0.25500000920E-02 0.  1.
       -2   -1    0    0    0  501  0.00000000000E+00  0.00000000000E+00 -0.34511419958E+03  0.34511419959E+03  0.25500000920E-02 0. -1.
    10030    2    1    2    0    0  0.00000000000E+00  0.00000000000E+00  0.53763570122E+03  0.12278641004E+04  0.11039013098E+04 0.  0.
        1    1    3    3  502    0  0.41769994307E+03  0.13816890915E+03  0.63954040191E+03  0.77625757039E+03  0.50400001928E-02 0.  1.
       -1    1    3    3    0  502 -0.41769994307E+03 -0.13816890915E+03 -0.10190470068E+03  0.45160653000E+03  0.50400001928E-02 0. -1.
</event>
<event>
 5   0  0.2403875E-04  0.1099996E+04  0.7818609E-02  0.9205196E-01
        4   -1    0    0  501    0  0.00000000000E+00  0.00000000000E+00  0.76599227398E+03  0.76599332679E+03  0.12699999809E+01 0. -1.
       -4   -1    0    0    0  501  0.00000000000E+00  0.00000000000E+00 -0.39490706318E+03  0.39490910530E+03  0.12699999809E+01 0.  1.
    10030    2    1    2    0    0  0.00000000000E+00  0.00000000000E+00  0.37108521079E+03  0.11609024321E+04  0.10999955560E+04 0.  0.
        1    1    3    3  502    0 -0.19163559325E+03 -0.22031476660E+01  0.72961481598E+03  0.75436518623E+03  0.50400001928E-02 0. -1.
       -1    1    3    3    0  502  0.19163559325E+03  0.22031476660E+01 -0.35852960519E+03  0.40653724587E+03  0.50400001928E-02 0.  1.
</event>
<event>
 5   0  0.3523525E-04  0.1098142E+04  0.7818609E-02  0.9207005E-01
        1   -1    0    0  501    0  0.00000000000E+00  0.00000000000E+00  0.37986015477E+03  0.37986015480E+03  0.50400001928E-02 0.  1.
       -1   -1    0    0    0  501  0.00000000000E+00  0.00000000000E+00 -0.79365712697E+03  0.79365712698E+03  0.50400001928E-02 0. -1.
    10030    2    1    2    0    0  0.00000000000E+00  0.00000000000E+00 -0.41379697220E+03  0.11735172818E+04  0.10981415557E+04 0.  0.
        5    1    3    3  502    0  0.54868431926E+03 -0.18273229423E+02 -0.19807098169E+03  0.58364595167E+03  0.46999998093E+01 0. -1.
       -5    1    3    3    0  502 -0.54868431926E+03  0.18273229423E+02 -0.21572599051E+03  0.58987133012E+03  0.46999998093E+01 0.  1.
</event>
<event>
 5   0  0.6245176E-04  0.1100088E+04  0.7818609E-02  0.9205107E-01
        2   -1    0    0  501    0  0.00000000000E+00  0.00000000000E+00  0.38294358204E+03  0.38294358205E+03  0.25500000920E-02 0. -1.
       -2   -1    0    0    0  501  0.00000000000E+00  0.00000000000E+00 -0.79005933912E+03  0.79005933912E+03  0.25500000920E-02 0.  1.
    10030    2    1    2    0    0  0.00000000000E+00  0.00000000000E+00 -0.40711575708E+03  0.11730029212E+04  0.11000875481E+04 0.  0.
        5    1    3    3  502    0 -0.29903193935E+03  0.42840962878E+03 -0.20197299915E+02  0.52286224926E+03  0.46999998093E+01 0. -1.
       -5    1    3    3    0  502  0.29903193935E+03 -0.42840962878E+03 -0.38691845717E+03  0.65014067191E+03  0.46999998093E+01 0.  1.
</event>
<event>
 5   0  0.2403875E-04  0.1098565E+04  0.7818609E-02  0.9206591E-01
       -4   -1    0    0    0  501  0.00000000000E+00  0.00000000000E+00  0.66749549870E+03  0.66749670687E+03  0.12699999809E+01 0. -1.
        4   -1    0    0  501    0  0.00000000000E+00  0.00000000000E+00 -0.45200280379E+03  0.45200458796E+03  0.12699999809E+01 0.  1.
    10030    2    1    2    0    0  0.00000000000E+00  0.00000000000E+00  0.21549269491E+03  0.11195012948E+04  0.10985654498E+04 0.  0.
        5    1    3    3  502    0 -0.22698685617E+03 -0.39356245031E+03  0.42229520523E+03  0.62029812633E+03  0.46999998093E+01 0. -1.
       -5    1    3    3    0  502  0.22698685617E+03  0.39356245031E+03 -0.20680251032E+03  0.49920316850E+03  0.46999998093E+01 0.  1.
</event>
<event>
 5   0  0.3621403E-04  0.1087976E+04  0.7818609E-02  0.9216991E-01
        1   -1    0    0  501    0  0.00000000000E+00  0.00000000000E+00  0.76625504893E+03  0.76625504895E+03  0.50400001928E-02 0.  1.
       -1   -1    0    0    0  501  0.00000000000E+00  0.00000000000E+00 -0.38619401800E+03  0.38619401804E+03  0.50400001928E-02 0. -1.
    10030    2    1    2    0    0  0.00000000000E+00  0.00000000000E+00  0.38006103093E+03  0.11524490670E+04  0.10879763163E+04 0.  0.
        3    1    3    3  502    0  0.36376244119E+03  0.33304036381E+03  0.43316251215E+03  0.65640594885E+03  0.10100000352E+00 0. -1.
       -3    1    3    3    0  502 -0.36376244119E+03 -0.33304036381E+03 -0.53101481225E+02  0.49604311814E+03  0.10100000352E+00 0.  1.
</event>
<event>
 5   0  0.3621403E-04  0.1101420E+04  0.7818609E-02  0.9203809E-01
       -1   -1    0    0    0  501  0.00000000000E+00  0.00000000000E+00  0.47611969987E+03  0.47611969989E+03  0.50400001928E-02 0.  1.
        1   -1    0    0  501    0  0.00000000000E+00  0.00000000000E+00 -0.63698543140E+03  0.63698543142E+03  0.50400001928E-02 0. -1.
    10030    2    1    2    0    0  0.00000000000E+00  0.00000000000E+00 -0.16086573153E+03  0.11131051313E+04  0.11014196520E+04 0.  0.
        3    1    3    3  502    0  0.32921657914E+03  0.44071683326E+03 -0.10652184546E+03  0.56032293980E+03  0.10100000352E+00 0. -1.
       -3    1    3    3    0  502 -0.32921657914E+03 -0.44071683326E+03 -0.54343886076E+02  0.55278219151E+03  0.10100000352E+00 0.  1.
</event>
<event>
 5   0  0.6412712E-04  0.1109683E+04  0.7818609E-02  0.9195805E-01
        2   -1    0    0  501    0  0.00000000000E+00  0.00000000000E+00  0.50041916329E+03  0.50041916329E+03  0.25500000920E-02 0.  1.
       -2   -1    0    0    0  501  0.00000000000E+00  0.00000000000E+00 -0.61518229321E+03  0.61518229322E+03  0.25500000920E-02 0. -1.
    10030    2    1    2    0    0  0.00000000000E+00  0.00000000000E+00 -0.11476312993E+03  0.11156014565E+04  0.11096828528E+04 0.  0.
        2    1    3    3  502    0  0.21713961513E+03  0.42993017732E+03 -0.33427649865E+03  0.58628520993E+03  0.25500000920E-02 0. -1.
       -2    1    3    3    0  502 -0.21713961513E+03 -0.42993017732E+03  0.21951336873E+03  0.52931624657E+03  0.25500000920E-02 0.  1.
</event>
<event>
 5   0  0.5948818E-04  0.1099023E+04  0.7818609E-02  0.9206145E-01
        2   -1    0    0  501    0  0.00000000000E+00  0.00000000000E+00  0.23980120768E+04  0.23980120768E+04  0.25500000920E-02 0.  1.
       -2   -1    0    0    0  501  0.00000000000E+00  0.00000000000E+00 -0.12592217481E+03  0.12592217483E+03  0.25500000920E-02 0. -1.
    10030    2    1    2    0    0  0.00000000000E+00  0.00000000000E+00  0.22720899020E+04  0.25239342516E+04  0.10990230133E+04 0.  0.
        3    1    3    3  502    0  0.41805801186E+03 -0.10184670184E+03  0.35112484579E+03  0.55536827375E+03  0.10100000352E+00 0. -1.
       -3    1    3    3    0  502 -0.41805801186E+03  0.10184670184E+03  0.19209650562E+04  0.19685659779E+04  0.10100000352E+00 0.  1.
</event>
<event>
 5   0  0.3423758E-04  0.1100105E+04  0.7818609E-02  0.9205089E-01
        1   -1    0    0  501    0  0.00000000000E+00  0.00000000000E+00  0.13381972593E+04  0.13381972593E+04  0.50400001928E-02 0.  1.
       -1   -1    0    0    0  501  0.00000000000E+00  0.00000000000E+00 -0.22609371427E+03  0.22609371433E+03  0.50400001928E-02 0. -1.
    10030    2    1    2    0    0  0.00000000000E+00  0.00000000000E+00  0.11121035450E+04  0.15642909736E+04  0.11001054292E+04 0.  0.
        1    1    3    3  502    0 -0.51445960454E+03 -0.18744111681E+03  0.48141472982E+03  0.72908367084E+03  0.50400001928E-02 0. -1.
       -1    1    3    3    0  502  0.51445960454E+03  0.18744111681E+03  0.63068881517E+03  0.83520730276E+03  0.50400001928E-02 0.  1.
</event>
<event>
 5   0  0.6109149E-04  0.1122982E+04  0.7818609E-02  0.9183077E-01
        2   -1    0    0  501    0  0.00000000000E+00  0.00000000000E+00  0.12117705957E+04  0.12117705957E+04  0.25500000920E-02 0.  1.
       -2   -1    0    0    0  501  0.00000000000E+00  0.00000000000E+00 -0.26017486687E+03  0.26017486688E+03  0.25500000920E-02 0. -1.
    10030    2    1    2    0    0  0.00000000000E+00  0.00000000000E+00  0.95159572886E+03  0.14719454626E+04  0.11229821965E+04 0.  0.
        1    1    3    3  502    0  0.47952260373E+03 -0.28259746655E+02  0.94706873536E+02  0.48960181034E+03  0.50400001928E-02 0. -1.
       -1    1    3    3    0  502 -0.47952260373E+03  0.28259746655E+02  0.85688885533E+03  0.98234365228E+03  0.50400001928E-02 0.  1.
</event>
<event>
 5   0  0.6109149E-04  0.1099705E+04  0.7818609E-02  0.9205480E-01
       -2   -1    0    0    0  501  0.00000000000E+00  0.00000000000E+00  0.36455065282E+03  0.36455065283E+03  0.25500000920E-02 0. -1.
        2   -1    0    0  501    0  0.00000000000E+00  0.00000000000E+00 -0.82934337879E+03  0.82934337880E+03  0.25500000920E-02 0.  1.
    10030    2    1    2    0    0  0.00000000000E+00  0.00000000000E+00 -0.46479272597E+03  0.11938940316E+04  0.10997048152E+04 0.  0.
        1    1    3    3  502    0 -0.43657396579E+03  0.30882863678E+03 -0.37128194235E+03  0.65101630950E+03  0.50400001928E-02 0.  1.
       -1    1    3    3    0  502  0.43657396579E+03 -0.30882863678E+03 -0.93510783627E+02  0.54287772213E+03  0.50400001928E-02 0. -1.
</event>
<event>
 5   0  0.6245176E-04  0.1099425E+04  0.7818609E-02  0.9205752E-01
       -2   -1    0    0    0  501  0.00000000000E+00  0.00000000000E+00  0.20853043705E+03  0.20853043706E+03  0.25500000920E-02 0.  1.
        2   -1    0    0  501    0  0.00000000000E+00  0.00000000000E+00 -0.14491120190E+04  0.14491120190E+04  0.25500000920E-02 0. -1.
    10030    2    1    2    0    0  0.00000000000E+00  0.00000000000E+00 -0.12405815820E+04  0.16576424561E+04  0.10994252365E+04 0.  0.
        5    1    3    3  502    0  0.18304687055E+03  0.82049297748E+02  0.15134524118E+03  0.25132790554E+03  0.46999998093E+01 0.  1.
       -5    1    3    3    0  502 -0.18304687055E+03 -0.82049297748E+02 -0.13919268231E+04  0.14063145505E+04  0.46999998093E+01 0. -1.
</event>
<event>
 5   0  0.5948818E-04  0.1100058E+04  0.7818609E-02  0.9205135E-01
        2   -1    0    0  501    0  0.00000000000E+00  0.00000000000E+00  0.66863016326E+03  0.66863016326E+03  0.25500000920E-02 0.  1.
       -2   -1    0    0    0  501  0.00000000000E+00  0.00000000000E+00 -0.45246548345E+03  0.45246548346E+03  0.25500000920E-02 0. -1.
    10030    2    1    2    0    0  0.00000000000E+00  0.00000000000E+00  0.21616467981E+03  0.11210956467E+04  0.11000583077E+04 0.  0.
        3    1    3    3  502    0 -0.47328760367E+03  0.93183889981E+02  0.37742361545E+03  0.61248101101E+03  0.10100000352E+00 0.  1.
       -3    1    3    3    0  502  0.47328760367E+03 -0.93183889981E+02 -0.16125893564E+03  0.50861463572E+03  0.10100000352E+00 0. -1.
</event>
<event>
 5   0  0.3657529E-04  0.1092547E+04  0.7818609E-02  0.9212487E-01
       -1   -1    0    0    0  501  0.00000000000E+00  0.00000000000E+00  0.79359938349E+03  0.79359938350E+03  0.50400001928E-02 0. -1.
        1   -1    0    0  501    0  0.00000000000E+00  0.00000000000E+00 -0.37602677604E+03  0.37602677607E+03  0.50400001928E-02 0.  1.
    10030    2    1    2    0    0  0.00000000000E+00  0.00000000000E+00  0.41757260745E+03  0.11696261596E+04  0.10925467819E+04 0.  0.
        4    1    3    3  502    0  0.27053714715E+03  0.35496890949E+03  0.54600065679E+03  0.70520323653E+03  0.12699999809E+01 0. -1.
       -4    1    3    3    0  502 -0.27053714715E+03 -0.35496890949E+03 -0.12842804934E+03  0.46442292305E+03  0.12699999809E+01 0.  1.
</event>
<event>
 5   0  0.3423758E-04  0.1099938E+04  0.7818609E-02  0.9205253E-01
        1   -1    0    0  501    0  0.00000000000E+00  0.00000000000E+00  0.41075430817E+03  0.41075430820E+03  0.50400001928E-02 0. -1.
       -1   -1    0    0    0  501  0.00000000000E+00  0.00000000000E+00 -0.73636636466E+03  0.73636636468E+03  0.50400001928E-02 0.  1.
    10030    2    1    2    0    0  0.00000000000E+00  0.00000000000E+00 -0.32561205649E+03  0.11471206729E+04  0.10999375559E+04 0.  0.
        1    1    3    3  502    0 -0.48575249641E+03 -0.24050893333E+02 -0.43059228832E+03  0.64957189905E+03  0.50400001928E-02 0.  1.
       -1    1    3    3    0  502  0.48575249641E+03  0.24050893333E+02  0.10498023184E+03  0.49754877383E+03  0.50400001928E-02 0. -1.
</event>
<event>
 5   0  0.3423758E-04  0.1099743E+04  0.7818609E-02  0.9205442E-01
       -1   -1    0    0    0  501  0.00000000000E+00  0.00000000000E+00  0.36722472007E+03  0.36722472011E+03  0.50400001928E-02 0.  1.
        1   -1    0    0  501    0  0.00000000000E+00  0.00000000000E+00 -0.82336172272E+03  0.82336172273E+03  0.50400001928E-02 0. -1.
    10030    2    1    2    0    0  0.00000000000E+00  0.00000000000E+00 -0.45613700264E+03  0.11905864428E+04  0.10997432031E+04 0.  0.
        1    1    3    3  502    0  0.43132905641E+03 -0.15630078015E+03  0.10009464296E+03  0.46956748860E+03  0.50400001928E-02 0.  1.
       -1    1    3    3    0  502 -0.43132905641E+03  0.15630078015E+03 -0.55623164560E+03  0.72101895424E+03  0.50400001928E-02 0. -1.
</event>
<event>
 5   0  0.6245176E-04  0.1100566E+04  0.7818609E-02  0.9204640E-01
       -2   -1    0    0    0  501  0.00000000000E+00  0.00000000000E+00  0.40450649264E+03  0.40450649265E+03  0.25500000920E-02 0.  1.
        2   -1    0    0  501    0  0.00000000000E+00  0.00000000000E+00 -0.74859465736E+03  0.74859465736E+03  0.25500000920E-02 0. -1.
    10030    2    1    2    0    0  0.00000000000E+00  0.00000000000E+00 -0.34408816471E+03  0.11531011500E+04  0.11005660348E+04 0.  0.
        5    1    3    3  502    0 -0.40634231116E+01 -0.14428894475E+03 -0.72838377119E+03  0.74256368017E+03  0.46999998093E+01 0. -1.
       -5    1    3    3    0  502  0.40634231116E+01  0.14428894475E+03  0.38429560648E+03  0.41053746984E+03  0.46999998093E+01 0.  1.
</event>
<event>
 5   0  0.6109149E-04  0.1099647E+04  0.7818609E-02  0.9205536E-01
        2   -1    0    0  501    0  0.00000000000E+00  0.00000000000E+00  0.18961011770E+04  0.18961011770E+04  0.25500000920E-02 0.  1.
       -2   -1    0    0    0  501  0.00000000000E+00  0.00000000000E+00 -0.15943547759E+03  0.15943547761E+03  0.25500000920E-02 0. -1.
    10030    2    1    2    0    0  0.00000000000E+00  0.00000000000E+00  0.17366656994E+04  0.20555366546E+04  0.10996468465E+04 0.  0.
        1    1    3    3  502    0 -0.50421772277E+03  0.12653536968E+03  0.12030265622E+04  0.13105417281E+04  0.50400001928E-02 0.  1.
       -1    1    3    3    0  502  0.50421772277E+03 -0.12653536968E+03  0.53363913723E+03  0.74499492652E+03  0.50400001928E-02 0. -1.
</event>
<event>
 5   0  0.3621403E-04  0.1098897E+04  0.7818609E-02  0.9206268E-01
       -1   -1    0    0    0  501  0.00000000000E+00  0.00000000000E+00  0.16487972064E+03  0.16487972072E+03  0.50400001928E-02 0.  1.
        1   -1    0    0  501    0  0.00000000000E+00  0.00000000000E+00 -0.18309927036E+04  0.18309927036E+04  0.50400001928E-02 0. -1.
    10030    2    1    2    0    0  0.00000000000E+00  0.00000000000E+00 -0.16661129830E+04  0.19958724243E+04  0.10988968387E+04 0.  0.
        3    1    3    3  502    0  0.10991728450E+03 -0.35383716525E+03 -0.96162035914E+02  0.38279197522E+03  0.10100000352E+00 0.  1.
       -3    1    3    3    0  502 -0.10991728450E+03  0.35383716525E+03 -0.15699509471E+04  0.16130804491E+04  0.10100000352E+00 0. -1.
</event>
<event>
 5   0  0.3621403E-04  0.1104766E+04  0.7818609E-02  0.9200559E-01
       -1   -1    0    0    0  501  0.00000000000E+00  0.00000000000E+00  0.43661197420E+03  0.43661197422E+03  0.50400001928E-02 0. -1.
        1   -1    0    0  501    0  0.00000000000E+00  0.00000000000E+00 -0.69885180603E+03  0.69885180605E+03  0.50400001928E-02 0.  1.
    10030    2    1    2    0    0  0.00000000000E+00  0.00000000000E+00 -0.26223983183E+03  0.11354637803E+04  0.11047661594E+04 0.  0.
        3    1    3    3  502    0 -0.15271552020E+03 -0.52882897264E+03 -0.83519481861E+02  0.55673838243E+03  0.10100000352E+00 0.  1.
       -3    1    3    3    0  502  0.15271552020E+03  0.52882897264E+03 -0.17872034997E+03  0.57872539785E+03  0.10100000352E+00 0. -1.
</event>
<event>
 5   0  0.6109149E-04  0.1098887E+04  0.7818609E-02  0.9206277E-01
        2   -1    0    0  501    0  0.00000000000E+00  0.00000000000E+00  0.15327844596E+04  0.15327844596E+04  0.25500000920E-02 0. -1.
       -2   -1    0    0    0  501  0.00000000000E+00  0.00000000000E+00 -0.19695423054E+03  0.19695423056E+03  0.25500000920E-02 0.  1.
    10030    2    1    2    0    0  0.00000000000E+00  0.00000000000E+00  0.13358302291E+04  0.17297386902E+04  0.10988874080E+04 0.  0.
        1    1    3    3  502    0  0.49397060207E+03  0.16129578917E+03  0.38692895927E+03  0.64787136598E+03  0.50400001928E-02 0.  1.
       -1    1    3    3    0  502 -0.49397060207E+03 -0.16129578917E+03  0.94890126979E+03  0.10818673242E+04  0.50400001928E-02 0. -1.
</event>
<event>
 5   0  0.3423758E-04  0.1101193E+04  0.7818609E-02  0.9204030E-01
       -1   -1    0    0    0  501  0.00000000000E+00  0.00000000000E+00  0.41304272879E+03  0.41304272882E+03  0.50400001928E-02 0. -1.
        1   -1    0    0  501    0  0.00000000000E+00  0.00000000000E+00 -0.73395943099E+03  0.73395943101E+03  0.50400001928E-02 0.  1.
    10030    2    1    2    0    0  0.00000000000E+00  0.00000000000E+00 -0.32091670220E+03  0.11470021598E+04  0.11011931824E+04 0.  0.
        1    1    3    3  502    0  0.31331916062E+03 -0.33728347028E+03  0.15414531288E+03  0.48547895242E+03  0.50400001928E-02 0. -1.
       -1    1    3    3    0  502 -0.31331916062E+03  0.33728347028E+03 -0.47506201508E+03  0.66152320741E+03  0.50400001928E-02 0.  1.
</event>
<event>
 5   0  0.3642161E-04  0.1098985E+04  0.7818609E-02  0.9206181E-01
        1   -1    0    0  501    0  0.00000000000E+00  0.00000000000E+00  0.63028372291E+03  0.63028372293E+03  0.50400001928E-02 0. -1.
       -1   -1    0    0    0  501  0.00000000000E+00  0.00000000000E+00 -0.47905771338E+03  0.47905771340E+03  0.50400001928E-02 0.  1.
    10030    2    1    2    0    0  0.00000000000E+00  0.00000000000E+00  0.15122600953E+03  0.11093414363E+04  0.10989854942E+04 0.  0.
        2    1    3    3  502    0  0.19204938387E+03  0.35502426737E+03  0.45197638510E+03  0.60597677262E+03  0.25500000920E-02 0. -1.
       -2    1    3    3    0  502 -0.19204938387E+03 -0.35502426737E+03 -0.30075037556E+03  0.50336466371E+03  0.25500000920E-02 0.  1.
</event>
<event>
 5   0  0.3657529E-04  0.1100006E+04  0.7818609E-02  0.9205186E-01
        1   -1    0    0  501    0  0.00000000000E+00  0.00000000000E+00  0.48720098923E+03  0.48720098926E+03  0.50400001928E-02 0.  1.
       -1   -1    0    0    0  501  0.00000000000E+00  0.00000000000E+00 -0.62090063140E+03  0.62090063142E+03  0.50400001928E-02 0. -1.
    10030    2    1    2    0    0  0.00000000000E+00  0.00000000000E+00 -0.13369964217E+03  0.11081016207E+04  0.11000061852E+04 0.  0.
        4    1    3    3  502    0 -0.81933249488E+02 -0.36321899776E+03 -0.47462600212E+03  0.60325164939E+03  0.12699999809E+01 0. -1.
       -4    1    3    3    0  502  0.81933249488E+02  0.36321899776E+03  0.34092635995E+03  0.50484997129E+03  0.12699999809E+01 0.  1.
</event>
<event>
 5   0  0.3642161E-04  0.1099690E+04  0.7818609E-02  0.9205494E-01
       -1   -1    0    0    0  501  0.00000000000E+00  0.00000000000E+00  0.22038857793E+03  0.22038857799E+03  0.50400001928E-02 0. -1.
        1   -1    0    0  501    0  0.00000000000E+00  0.00000000000E+00 -0.13718029864E+04  0.13718029864E+04  0.50400001928E-02 0.  1.
    10030    2    1    2    0    0  0.00000000000E+00  0.00000000000E+00 -0.11514144084E+04  0.15921915644E+04  0.10996903372E+04 0.  0.
        2    1    3    3  502    0 -0.10449054528E+03 -0.18403093918E+03 -0.13104759403E+04  0.13274535211E+04  0.25500000920E-02 0.  1.
       -2    1    3    3    0  502  0.10449054528E+03  0.18403093918E+03  0.15906153184E+03  0.26473804326E+03  0.25500000920E-02 0. -1.
</event>
<event>
 5   0  0.3423758E-04  0.1100137E+04  0.7818609E-02  0.9205059E-01
        1   -1    0    0  501    0  0.00000000000E+00  0.00000000000E+00  0.65571588806E+03  0.65571588808E+03  0.50400001928E-02 0.  1.
       -1   -1    0    0    0  501  0.00000000000E+00  0.00000000000E+00 -0.46144240731E+03  0.46144240734E+03  0.50400001928E-02 0. -1.
    10030    2    1    2    0    0  0.00000000000E+00  0.00000000000E+00  0.19427348075E+03  0.11171582954E+04  0.11001365696E+04 0.  0.
        1    1    3    3  502    0  0.43610536640E+02  0.46671491392E+03  0.38942777322E+03  0.60940846758E+03  0.50400001928E-02 0.  1.
       -1    1    3    3    0  502 -0.43610536640E+02 -0.46671491392E+03 -0.19515429247E+03  0.50774982784E+03  0.50400001928E-02 0. -1.
</event>
<event>
 5   0  0.3621403E-04  0.1098718E+04  0.7818609E-02  0.9206442E-01
        1   -1    0    0  501    0  0.00000000000E+00  0.00000000000E+00  0.10218408070E+04  0.10218408070E+04  0.50400001928E-02 0. -1.
       -1   -1    0    0    0  501  0.00000000000E+00  0.00000000000E+00 -0.29534478881E+03  0.29534478885E+03  0.50400001928E-02 0.  1.
    10030    2    1    2    0    0  0.00000000000E+00  0.00000000000E+00  0.72649601822E+03  0.13171855959E+04  0.10987180847E+04 0.  0.
        3    1    3    3  502    0  0.41169896463E+03  0.53795906686E+02  0.79450559636E+03  0.89645367415E+03  0.10100000352E+00 0. -1.
       -3    1    3    3    0  502 -0.41169896463E+03 -0.53795906686E+02 -0.68009578145E+02  0.42073192174E+03  0.10100000352E+00 0.  1.
</event>
<event>
 5   0  0.3657529E-04  0.1096337E+04  0.7818609E-02  0.9208770E-01
       -1   -1    0    0    0  501  0.00000000000E+00  0.00000000000E+00  0.37020054870E+03  0.37020054873E+03  0.50400001928E-02 0.  1.
        1   -1    0    0  501    0  0.00000000000E+00  0.00000000000E+00 -0.81169137907E+03  0.81169137909E+03  0.50400001928E-02 0. -1.
    10030    2    1    2    0    0  0.00000000000E+00  0.00000000000E+00 -0.44149083038E+03  0.11818919278E+04  0.10963367985E+04 0.  0.
        4    1    3    3  502    0 -0.64532419577E+02 -0.14704218381E+03 -0.78576566017E+03  0.80200693426E+03  0.12699999809E+01 0. -1.
       -4    1    3    3    0  502  0.64532419577E+02  0.14704218381E+03  0.34427482980E+03  0.37988499356E+03  0.12699999809E+01 0.  1.
</event>
<event>
 5   0  0.5948818E-04  0.1098520E+04  0.7818609E-02  0.9206636E-01
       -2   -1    0    0    0  501  0.00000000000E+00  0.00000000000E+00  0.36847042660E+03  0.36847042661E+03  0.25500000920E-02 0.  1.
        2   -1    0    0  501    0  0.00000000000E+00  0.00000000000E+00 -0.81875340799E+03  0.81875340799E+03  0.25500000920E-02 0. -1.
    10030    2    1    2    0    0  0.00000000000E+00  0.00000000000E+00 -0.45028298139E+03  0.11872238346E+04  0.10985197632E+04 0.  0.
        3    1    3    3  502    0  0.14351279807E+03  0.10660322440E+03  0.33614724778E+03  0.38072976381E+03  0.10100000352E+00 0.  1.
       -3    1    3    3    0  502 -0.14351279807E+03 -0.10660322440E+03 -0.78643022917E+03  0.80649407079E+03  0.10100000352E+00 0. -1.
</event>
<event>
 5   0  0.3642161E-04  0.1098985E+04  0.7818609E-02  0.9206182E-01
        1   -1    0    0  501    0  0.00000000000E+00  0.00000000000E+00  0.86017829771E+03  0.86017829773E+03  0.50400001928E-02 0.  1.
       -1   -1    0    0    0  501  0.00000000000E+00  0.00000000000E+00 -0.35102248522E+03  0.35102248526E+03  0.50400001928E-02 0. -1.
    10030    2    1    2    0    0  0.00000000000E+00  0.00000000000E+00  0.50915581249E+03  0.12112007830E+04  0.10989848476E+04 0.  0.
        2    1    3    3  502    0 -0.16587454746E+03  0.23959450547E+03 -0.25884631182E+03  0.38977083741E+03  0.25500000920E-02 0. -1.
       -2    1    3    3    0  502  0.16587454746E+03 -0.23959450547E+03  0.76800212431E+03  0.82142994558E+03  0.25500000920E-02 0.  1.
</event>
<event>
 5   0  0.3621403E-04  0.1099244E+04  0.7818609E-02  0.9205929E-01
        1   -1    0    0  501    0  0.00000000000E+00  0.00000000000E+00  0.48138583572E+03  0.48138583575E+03  0.50400001928E-02 0. -1.
       -1   -1    0    0    0  501  0.00000000000E+00  0.00000000000E+00 -0.62753088634E+03  0.62753088636E+03  0.50400001928E-02 0.  1.
    10030    2    1    2    0    0  0.00000000000E+00  0.00000000000E+00 -0.14614505062E+03  0.11089167221E+04  0.10992442498E+04 0.  0.
        3    1    3    3  502    0 -0.21189998361E+03  0.38510754101E+03 -0.40593812231E+03  0.59832699298E+03  0.10100000352E+00 0.  1.
       -3    1    3    3    0  502  0.21189998361E+03 -0.38510754101E+03  0.25979307169E+03  0.51058972913E+03  0.10100000352E+00 0. -1.
</event>
<event>
 5   0  0.2403875E-04  0.1099365E+04  0.7818609E-02  0.9205811E-01
        4   -1    0    0  501    0  0.00000000000E+00  0.00000000000E+00  0.80924435707E+03  0.80924535361E+03  0.12699999809E+01 0. -1.
       -4   -1    0    0    0  501  0.00000000000E+00  0.00000000000E+00 -0.37337143924E+03  0.37337359915E+03  0.12699999809E+01 0.  1.
    10030    2    1    2    0    0  0.00000000000E+00  0.00000000000E+00  0.43587291782E+03  0.11826189528E+04  0.10993645378E+04 0.  0.
        5    1    3    3  502    0 -0.45890221055E+03  0.12732019946E+03  0.51317834437E+03  0.70012554243E+03  0.46999998093E+01 0. -1.
       -5    1    3    3    0  502  0.45890221055E+03 -0.12732019946E+03 -0.77305426544E+02  0.48249341033E+03  0.46999998093E+01 0.  1.
</event>
<event>
 5   0  0.6109149E-04  0.1100400E+04  0.7818609E-02  0.9204802E-01
       -2   -1    0    0    0  501  0.00000000000E+00  0.00000000000E+00  0.41633916139E+03  0.41633916140E+03  0.25500000920E-02 0. -1.
        2   -1    0    0  501    0  0.00000000000E+00  0.00000000000E+00 -0.72709994056E+03  0.72709994057E+03  0.25500000920E-02 0.  1.
    10030    2    1    2    0    0  0.00000000000E+00  0.00000000000E+00 -0.31076077917E+03  0.11434391020E+04  0.11004002536E+04 0.  0.
        1    1    3    3  502    0 -0.36598100658E+03 -0.33600252328E+03 -0.40101641360E+03  0.63847784365E+03  0.50400001928E-02 0.  1.
       -1    1    3    3    0  502  0.36598100658E+03  0.33600252328E+03  0.90255634426E+02  0.50496125832E+03  0.50400001928E-02 0. -1.
</event>
<event>
 5   0  0.2403875E-04  0.1098822E+04  0.7818609E-02  0.9206341E-01
       -3   -1    0    0    0  501  0.00000000000E+00  0.00000000000E+00  0.57824641643E+03  0.57824642525E+03  0.10100000352E+00 0. -1.
        3   -1    0    0  501    0  0.00000000000E+00  0.00000000000E+00 -0.52201350629E+03  0.52201351606E+03  0.10100000352E+00 0.  1.
    10030    2    1    2    0    0  0.00000000000E+00  0.00000000000E+00  0.56232910141E+02  0.11002599413E+04  0.10988220048E+04 0.  0.
        5    1    3    3  502    0  0.54075468345E+03 -0.56533932932E+02  0.10707804462E+03  0.55416559879E+03  0.46999998093E+01 0.  1.
       -5    1    3    3    0  502 -0.54075468345E+03  0.56533932932E+02 -0.50845134476E+02  0.54609434253E+03  0.46999998093E+01 0. -1.
</event>
<event>
 5   0  0.3423758E-04  0.1103943E+04  0.7818609E-02  0.9201357E-01
       -1   -1    0    0    0  501  0.00000000000E+00  0.00000000000E+00  0.24582099377E+03  0.24582099382E+03  0.50400001928E-02 0. -1.
        1   -1    0    0  501    0  0.00000000000E+00  0.00000000000E+00 -0.12394087836E+04  0.12394087836E+04  0.50400001928E-02 0.  1.
    10030    2    1    2    0    0  0.00000000000E+00  0.00000000000E+00 -0.99358778978E+03  0.14852297774E+04  0.11039432937E+04 0.  0.
        1    1    3    3  502    0  0.17807780693E+03  0.43920783026E+02 -0.11972116294E+04  0.12111797663E+04  0.50400001928E-02 0.  1.
       -1    1    3    3    0  502 -0.17807780693E+03 -0.43920783026E+02  0.20362383965E+03  0.27405001113E+03  0.50400001928E-02 0. -1.
</event>
<event>
 5   0  0.6412712E-04  0.1099953E+04  0.7818609E-02  0.9205237E-01
       -2   -1    0    0    0  501  0.00000000000E+00  0.00000000000E+00  0.46316272188E+03  0.46316272189E+03  0.25500000920E-02 0. -1.
        2   -1    0    0  501    0  0.00000000000E+00  0.00000000000E+00 -0.65306271042E+03  0.65306271043E+03  0.25500000920E-02 0.  1.
    10030    2    1    2    0    0  0.00000000000E+00  0.00000000000E+00 -0.18989998854E+03  0.11162254323E+04  0.10999532763E+04 0.  0.
        2    1    3    3  502    0 -0.44138871828E+03 -0.32696142523E+03 -0.67223126262E+02  0.55339562966E+03  0.25500000920E-02 0.  1.
       -2    1    3    3    0  502  0.44138871828E+03  0.32696142523E+03 -0.12267686228E+03  0.56282980266E+03  0.25500000920E-02 0. -1.
</event>
<event>
 5   0  0.3523525E-04  0.1100470E+04  0.7818609E-02  0.9204734E-01
        1   -1    0    0  501    0  0.00000000000E+00  0.00000000000E+00  0.89939962734E+03  0.89939962735E+03  0.50400001928E-02 0.  1.
       -1   -1    0    0    0  501  0.00000000000E+00  0.00000000000E+00 -0.33662276002E+03  0.33662276006E+03  0.50400001928E-02 0. -1.
    10030    2    1    2    0    0  0.00000000000E+00  0.00000000000E+00  0.56277686732E+03  0.12360223874E+04  0.11004696905E+04 0.  0.
        5    1    3    3  502    0 -0.46775277026E+02  0.79309555256E+02  0.89066245193E+03  0.89542147918E+03  0.46999998093E+01 0.  1.
       -5    1    3    3    0  502  0.46775277026E+02 -0.79309555256E+02 -0.32788558461E+03  0.34060090823E+03  0.46999998093E+01 0. -1.
</event>
<event>
 5   0  0.3657529E-04  0.1097729E+04  0.7818609E-02  0.9207408E-01
        1   -1    0    0  501    0  0.00000000000E+00  0.00000000000E+00  0.97846344516E+03  0.97846344518E+03  0.50400001928E-02 0. -1.
       -1   -1    0    0    0  501  0.00000000000E+00  0.00000000000E+00 -0.30788300809E+03  0.30788300813E+03  0.50400001928E-02 0.  1.
    10030    2    1    2    0    0  0.00000000000E+00  0.00000000000E+00  0.67058043708E+03  0.12863464533E+04  0.10977290537E+04 0.  0.
        4    1    3    3  502    0 -0.38210587454E+03 -0.39004254668E+03  0.40066680541E+03  0.67725444955E+03  0.12699999809E+01 0. -1.
       -4    1    3    3    0  502  0.38210587454E+03  0.39004254668E+03  0.26991363166E+03  0.60909200375E+03  0.12699999809E+01 0.  1.
</event>
<event>
 5   0  0.3621403E-04  0.1098095E+04  0.7818609E-02  0.9207051E-01
       -1   -1    0    0    0  501  0.00000000000E+00  0.00000000000E+00  0.14852394233E+03  0.14852394241E+03  0.50400001928E-02 0.  1.
        1   -1    0    0  501    0  0.00000000000E+00  0.00000000000E+00 -0.20296597678E+04  0.20296597678E+04  0.50400001928E-02 0. -1.
    10030    2    1    2    0    0  0.00000000000E+00  0.00000000000E+00 -0.18811358255E+04  0.21781837102E+04  0.10980948418E+04 0.  0.
        3    1    3    3  502    0  0.12259288747E+03  0.40230056286E+03 -0.24044247598E+03  0.48444540806E+03  0.10100000352E+00 0.  1.
       -3    1    3    3    0  502 -0.12259288747E+03 -0.40230056286E+03 -0.16406933495E+04  0.16937383022E+04  0.10100000352E+00 0. -1.
</event>
<event>
 5   0  0.2403875E-04  0.1103317E+04  0.7818609E-02  0.9201965E-01
        3   -1    0    0  501    0  0.00000000000E+00  0.00000000000E+00  0.41956136680E+03  0.41956137896E+03  0.10100000352E+00 0. -1.
       -3   -1    0    0    0  501  0.00000000000E+00  0.00000000000E+00 -0.72534548390E+03  0.72534549093E+03  0.10100000352E+00 0.  1.
    10030    2    1    2    0    0  0.00000000000E+00  0.00000000000E+00 -0.30578411709E+03  0.11449068699E+04  0.11033167335E+04 0.  0.
        4    1    3    3  502    0 -0.71851427864E+02 -0.72133374142E+02  0.40972603981E+03  0.42218821863E+03  0.12699999809E+01 0. -1.
       -4    1    3    3    0  502  0.71851427864E+02  0.72133374142E+02 -0.71551015690E+03  0.72271865126E+03  0.12699999809E+01 0.  1.
</event>
<event>
 5   0  0.5948818E-04  0.1099519E+04  0.7818609E-02  0.9205660E-01
        2   -1    0    0  501    0  0.00000000000E+00  0.00000000000E+00  0.19890260473E+04  0.19890260473E+04  0.25500000920E-02 0.  1.
       -2   -1    0    0    0  501  0.00000000000E+00  0.00000000000E+00 -0.15195162099E+03  0.15195162101E+03  0.25500000920E-02 0. -1.
    10030    2    1    2    0    0  0.00000000000E+00  0.00000000000E+00  0.18370744263E+04  0.21409776683E+04  0.10995194079E+04 0.  0.
        3    1    3    3  502    0 -0.16860215611E+03 -0.33951609365E+03  0.16938478271E+04  0.17357471984E+04  0.10100000352E+00 0.  1.
       -3    1    3    3    0  502  0.16860215611E+03  0.33951609365E+03  0.14322659922E+03  0.40523047000E+03  0.10100000352E+00 0. -1.
</event>
<event>
 5   0  0.6264830E-04  0.1096401E+04  0.7818609E-02  0.9208706E-01
        2   -1    0    0  501    0  0.00000000000E+00  0.00000000000E+00  0.89749950129E+03  0.89749950129E+03  0.25500000920E-02 0.  1.
       -2   -1    0    0    0  501  0.00000000000E+00  0.00000000000E+00 -0.33484591674E+03  0.33484591675E+03  0.25500000920E-02 0. -1.
    10030    2    1    2    0    0  0.00000000000E+00  0.00000000000E+00  0.56265358455E+03  0.12323454180E+04  0.10964014653E+04 0.  0.
        4    1    3    3  502    0  0.72832547936E+02 -0.36760117898E+03 -0.16839215325E+03  0.41084393266E+03  0.12699999809E+01 0. -1.
       -4    1    3    3    0  502 -0.72832547936E+02  0.36760117898E+03  0.73104573781E+03  0.82150148538E+03  0.12699999809E+01 0.  1.
</event>
<event>
 5   0  0.3657529E-04  0.1086740E+04  0.7818609E-02  0.9218214E-01
       -1   -1    0    0    0  501  0.00000000000E+00  0.00000000000E+00  0.68123374979E+03  0.68123374981E+03  0.50400001928E-02 0. -1.
        1   -1    0    0  501    0  0.00000000000E+00  0.00000000000E+00 -0.43340587784E+03  0.43340587787E+03  0.50400001928E-02 0.  1.
    10030    2    1    2    0    0  0.00000000000E+00  0.00000000000E+00  0.24782787195E+03  0.11146396277E+04  0.10867395481E+04 0.  0.
        4    1    3    3  502    0 -0.50820504965E+03 -0.57163176236E+02  0.31222791853E+03  0.59918935840E+03  0.12699999809E+01 0. -1.
       -4    1    3    3    0  502  0.50820504965E+03  0.57163176236E+02 -0.64400046578E+02  0.51545026929E+03  0.12699999809E+01 0.  1.
</event>
<event>
 5   0  0.3523525E-04  0.1099664E+04  0.7818609E-02  0.9205519E-01
        1   -1    0    0  501    0  0.00000000000E+00  0.00000000000E+00  0.11337935928E+04  0.11337935928E+04  0.50400001928E-02 0. -1.
       -1   -1    0    0    0  501  0.00000000000E+00  0.00000000000E+00 -0.26664063726E+03  0.26664063731E+03  0.50400001928E-02 0.  1.
    10030    2    1    2    0    0  0.00000000000E+00  0.00000000000E+00  0.86715295550E+03  0.14004342301E+04  0.10996643963E+04 0.  0.
        5    1    3    3  502    0 -0.13259244825E+02  0.23178007674E+03 -0.20113222645E+03  0.30720363615E+03  0.46999998093E+01 0.  1.
       -5    1    3    3    0  502  0.13259244825E+02 -0.23178007674E+03  0.10682851819E+04  0.10932305939E+04  0.46999998093E+01 0. -1.
</event>
<event>
 5   0  0.5948818E-04  0.1099169E+04  0.7818609E-02  0.9206003E-01
        2   -1    0    0  501    0  0.00000000000E+00  0.00000000000E+00  0.88485568329E+03  0.88485568330E+03  0.25500000920E-02 0.  1.
       -2   -1    0    0    0  501  0.00000000000E+00  0.00000000000E+00 -0.34134712519E+03  0.34134712520E+03  0.25500000920E-02 0. -1.
    10030    2    1    2    0    0  0.00000000000E+00  0.00000000000E+00  0.54350855811E+03  0.12262028085E+04  0.10991686744E+04 0.  0.
        3    1    3    3  502    0  0.50139510132E+03 -0.34291382531E+02  0.23630228848E+02  0.50312160007E+03  0.10100000352E+00 0. -1.
       -3    1    3    3    0  502 -0.50139510132E+03  0.34291382531E+02  0.51987832926E+03  0.72308120842E+03  0.10100000352E+00 0.  1.
</event>
<event>
 5   0  0.3657529E-04  0.1099933E+04  0.7818609E-02  0.9205258E-01
       -1   -1    0    0    0  501  0.00000000000E+00  0.00000000000E+00  0.27453031033E+03  0.27453031038E+03  0.50400001928E-02 0.  1.
        1   -1    0    0  501    0  0.00000000000E+00  0.00000000000E+00 -0.11017469415E+04  0.11017469415E+04  0.50400001928E-02 0. -1.
    10030    2    1    2    0    0  0.00000000000E+00  0.00000000000E+00 -0.82721663119E+03  0.13762772519E+04  0.10999325976E+04 0.  0.
        4    1    3    3  502    0 -0.26849488548E+03  0.48149272729E+01 -0.10141355051E+04  0.10490877573E+04  0.12699999809E+01 0. -1.
       -4    1    3    3    0  502  0.26849488548E+03 -0.48149272729E+01  0.18691887388E+03  0.32718949458E+03  0.12699999809E+01 0.  1.
</event>
<event>
 5   0  0.5948818E-04  0.1101034E+04  0.7818609E-02  0.9204184E-01
        2   -1    0    0  501    0  0.00000000000E+00  0.00000000000E+00  0.76607017313E+03  0.76607017313E+03  0.25500000920E-02 0. -1.
       -2   -1    0    0    0  501  0.00000000000E+00  0.00000000000E+00 -0.39561533542E+03  0.39561533543E+03  0.25500000920E-02 0.  1.
    10030    2    1    2    0    0  0.00000000000E+00  0.00000000000E+00  0.37045483771E+03  0.11616855086E+04  0.11010342565E+04 0.  0.
        3    1    3    3  502    0 -0.61292825216E+02 -0.16678575907E+03  0.73498154432E+03  0.75615618793E+03  0.10100000352E+00 0. -1.
       -3    1    3    3    0  502  0.61292825216E+02  0.16678575907E+03 -0.36452670661E+03  0.40552932063E+03  0.10100000352E+00 0.  1.
</event>
<event>
 5   0  0.3523525E-04  0.1100040E+04  0.7818609E-02  0.9205153E-01
       -1   -1    0    0    0  501  0.00000000000E+00  0.00000000000E+00  0.70603624678E+03  0.70603624680E+03  0.50400001928E-02 0. -1.
        1   -1    0    0  501    0  0.00000000000E+00  0.00000000000E+00 -0.42847923613E+03  0.42847923616E+03  0.50400001928E-02 0.  1.
    10030    2    1    2    0    0  0.00000000000E+00  0.00000000000E+00  0.27755701065E+03  0.11345154830E+04  0.11000397661E+04 0.  0.
        5    1    3    3  502    0  0.50922611552E+03  0.14201849807E+03 -0.17697595555E+02  0.52897616714E+03  0.46999998093E+01 0. -1.
       -5    1    3    3    0  502 -0.50922611552E+03 -0.14201849807E+03  0.29525460620E+03  0.60553931582E+03  0.46999998093E+01 0.  1.
</event>
<event>
 5   0  0.3642161E-04  0.1100481E+04  0.7818609E-02  0.9204723E-01
       -1   -1    0    0    0  501  0.00000000000E+00  0.00000000000E+00  0.15844301679E+03  0.15844301687E+03  0.50400001928E-02 0. -1.
        1   -1    0    0  501    0  0.00000000000E+00  0.00000000000E+00 -0.19108736400E+04  0.19108736400E+04  0.50400001928E-02 0.  1.
    10030    2    1    2    0    0  0.00000000000E+00  0.00000000000E+00 -0.17524306232E+04  0.20693166569E+04  0.11004809572E+04 0.  0.
        2    1    3    3  502    0  0.25047648181E+03 -0.31667924805E+03 -0.15791344474E+04  0.16299355255E+04  0.25500000920E-02 0.  1.
       -2    1    3    3    0  502 -0.25047648181E+03  0.31667924805E+03 -0.17329617577E+03  0.43938113140E+03  0.25500000920E-02 0. -1.
</event>
<event>
 5   0  0.6245176E-04  0.1105166E+04  0.7818609E-02  0.9200171E-01
        2   -1    0    0  501    0  0.00000000000E+00  0.00000000000E+00  0.40828558361E+03  0.40828558362E+03  0.25500000920E-02 0.  1.
       -2   -1    0    0    0  501  0.00000000000E+00  0.00000000000E+00 -0.74787888333E+03  0.74787888333E+03  0.25500000920E-02 0. -1.
    10030    2    1    2    0    0  0.00000000000E+00  0.00000000000E+00 -0.33959329972E+03  0.11561644669E+04  0.11051663519E+04 0.  0.
        5    1    3    3  502    0 -0.12824671514E+03  0.95441262929E+02 -0.72313707197E+03  0.74061161851E+03  0.46999998093E+01 0. -1.
       -5    1    3    3    0  502  0.12824671514E+03 -0.95441262929E+02  0.38354377225E+03  0.41555284844E+03  0.46999998093E+01 0.  1.
</event>
<event>
 5   0  0.3423758E-04  0.1099890E+04  0.7818609E-02  0.9205299E-01
        1   -1    0    0  501    0  0.00000000000E+00  0.00000000000E+00  0.11208044058E+04  0.11208044058E+04  0.50400001928E-02 0.  1.
       -1   -1    0    0    0  501  0.00000000000E+00  0.00000000000E+00 -0.26984143697E+03  0.26984143701E+03  0.50400001928E-02 0. -1.
    10030    2    1    2    0    0  0.00000000000E+00  0.00000000000E+00  0.85096296883E+03  0.13906458428E+04  0.10998899426E+04 0.  0.
        1    1    3    3  502    0 -0.27784662112E+03 -0.40371564130E+03  0.11001562675E+03  0.50228328865E+03  0.50400001928E-02 0. -1.
       -1    1    3    3    0  502  0.27784662112E+03  0.40371564130E+03  0.74094734208E+03  0.88836255418E+03  0.50400001928E-02 0.  1.
</event>
<event>
 5   0  0.3423758E-04  0.1099889E+04  0.7818609E-02  0.9205300E-01
        1   -1    0    0  501    0  0.00000000000E+00  0.00000000000E+00  0.51038225193E+03  0.51038225195E+03  0.50400001928E-02 0.  1.
       -1   -1    0    0    0  501  0.00000000000E+00  0.00000000000E+00 -0.59257354840E+03  0.59257354842E+03  0.50400001928E-02 0. -1.
    10030    2    1    2    0    0  0.00000000000E+00  0.00000000000E+00 -0.82191296473E+02  0.11029558004E+04  0.10998891255E+04 0.  0.
        1    1    3    3  502    0  0.51008677308E+03  0.16352078408E+03  0.83796612667E+02  0.54217103872E+03  0.50400001928E-02 0.  1.
       -1    1    3    3    0  502 -0.51008677308E+03 -0.16352078408E+03 -0.16598790914E+03  0.56078476166E+03  0.50400001928E-02 0. -1.
</event>
<event>
 5   0  0.5948818E-04  0.1098381E+04  0.7818609E-02  0.9206771E-01
       -2   -1    0    0    0  501  0.00000000000E+00  0.00000000000E+00  0.32126278964E+03  0.32126278965E+03  0.25500000920E-02 0.  1.
        2   -1    0    0  501    0  0.00000000000E+00  0.00000000000E+00 -0.93882789903E+03  0.93882789903E+03  0.25500000920E-02 0. -1.
    10030    2    1    2    0    0  0.00000000000E+00  0.00000000000E+00 -0.61756510939E+03  0.12600906887E+04  0.10983814817E+04 0.  0.
        3    1    3    3  502    0  0.35003572969E+03 -0.36913245444E+03 -0.54619626629E+03  0.74640079882E+03  0.10100000352E+00 0. -1.
       -3    1    3    3    0  502 -0.35003572969E+03  0.36913245444E+03 -0.71368843105E+02  0.51368988986E+03  0.10100000352E+00 0.  1.
</event>
<event>
 5   0  0.3657529E-04  0.1100069E+04  0.7818609E-02  0.9205124E-01
       -1   -1    0    0    0  501  0.00000000000E+00  0.00000000000E+00  0.21954087979E+03  0.21954087985E+03  0.50400001928E-02 0. -1.
        1   -1    0    0  501    0  0.00000000000E+00  0.00000000000E+00 -0.13780488423E+04  0.13780488423E+04  0.50400001928E-02 0.  1.
    10030    2    1    2    0    0  0.00000000000E+00  0.00000000000E+00 -0.11585079625E+04  0.15975897222E+04  0.11000691893E+04 0.  0.
        4    1    3    3  502    0  0.32490221965E+03  0.32611088711E+03 -0.14206088992E+03  0.48175997381E+03  0.12699999809E+01 0. -1.
       -4    1    3    3    0  502 -0.32490221965E+03 -0.32611088711E+03 -0.10164470726E+04  0.11158297484E+04  0.12699999809E+01 0.  1.
</event>
<event>
 5   0  0.3423758E-04  0.1099636E+04  0.7818609E-02  0.9205547E-01
       -1   -1    0    0    0  501  0.00000000000E+00  0.00000000000E+00  0.12021215831E+03  0.12021215842E+03  0.50400001928E-02 0. -1.
        1   -1    0    0  501    0  0.00000000000E+00  0.00000000000E+00 -0.25147181628E+04  0.25147181628E+04  0.50400001928E-02 0.  1.
    10030    2    1    2    0    0  0.00000000000E+00  0.00000000000E+00 -0.23945060045E+04  0.26349303212E+04  0.10996357543E+04 0.  0.
        1    1    3    3  502    0  0.75656297284E+02  0.67469265791E+02 -0.24921324800E+04  0.24941933115E+04  0.50400001928E-02 0.  1.
       -1    1    3    3    0  502 -0.75656297284E+02 -0.67469265791E+02  0.97626475554E+02  0.14073700970E+03  0.50400001928E-02 0. -1.
</event>
<event>
 5   0  0.6245176E-04  0.1098779E+04  0.7818609E-02  0.9206382E-01
        2   -1    0    0  501    0  0.00000000000E+00  0.00000000000E+00  0.37901058922E+03  0.37901058922E+03  0.25500000920E-02 0. -1.
       -2   -1    0    0    0  501  0.00000000000E+00  0.00000000000E+00 -0.79636041474E+03  0.79636041474E+03  0.25500000920E-02 0.  1.
    10030    2    1    2    0    0  0.00000000000E+00  0.00000000000E+00 -0.41734982552E+03  0.11753710040E+04  0.10987793774E+04 0.  0.
        5    1    3    3  502    0 -0.18007628783E+03 -0.48812219774E+03 -0.19981089176E+02  0.52068424529E+03  0.46999998093E+01 0. -1.
       -5    1    3    3    0  502  0.18007628783E+03  0.48812219774E+03 -0.39736873635E+03  0.65468675868E+03  0.46999998093E+01 0.  1.
</event>
<event>
 5   0  0.3523525E-04  0.1112956E+04  0.7818609E-02  0.9192655E-01
       -1   -1    0    0    0  501  0.00000000000E+00  0.00000000000E+00  0.25444507815E+03  0.25444507820E+03  0.50400001928E-02 0. -1.
        1   -1    0    0  501    0  0.00000000000E+00  0.00000000000E+00 -0.12170320052E+04  0.12170320052E+04  0.50400001928E-02 0.  1.
    10030    2    1    2    0    0  0.00000000000E+00  0.00000000000E+00 -0.96258692706E+03  0.14714770834E+04  0.11129560705E+04 0.  0.
        5    1    3    3  502    0 -0.14238295173E+03  0.14111392264E+03  0.20501975993E+03  0.28677732837E+03  0.46999998093E+01 0. -1.
       -5    1    3    3    0  502  0.14238295173E+03 -0.14111392264E+03 -0.11676066870E+04  0.11846997550E+04  0.46999998093E+01 0.  1.
</event>
<event>
 5   0  0.5948818E-04  0.1100476E+04  0.7818609E-02  0.9204728E-01
       -2   -1    0    0    0  501  0.00000000000E+00  0.00000000000E+00  0.24768065835E+03  0.24768065836E+03  0.25500000920E-02 0.  1.
        2   -1    0    0  501    0  0.00000000000E+00  0.00000000000E+00 -0.12223875727E+04  0.12223875727E+04  0.25500000920E-02 0. -1.
    10030    2    1    2    0    0  0.00000000000E+00  0.00000000000E+00 -0.97470691434E+03  0.14700682310E+04  0.11004758221E+04 0.  0.
        3    1    3    3  502    0 -0.87253212734E+02  0.78852319708E+02  0.23069542436E+03  0.25894246557E+03  0.10100000352E+00 0.  1.
       -3    1    3    3    0  502  0.87253212734E+02 -0.78852319708E+02 -0.12054023387E+04  0.12111257655E+04  0.10100000352E+00 0. -1.
</event>
<event>
 5   0  0.3642161E-04  0.1101743E+04  0.7818609E-02  0.9203495E-01
       -1   -1    0    0    0  501  0.00000000000E+00  0.00000000000E+00  0.80465928825E+03  0.80465928827E+03  0.50400001928E-02 0. -1.
        1   -1    0    0  501    0  0.00000000000E+00  0.00000000000E+00 -0.37712775913E+03  0.37712775916E+03  0.50400001928E-02 0.  1.
    10030    2    1    2    0    0  0.00000000000E+00  0.00000000000E+00  0.42753152912E+03  0.11817870474E+04  0.11017428997E+04 0.  0.
        2    1    3    3  502    0  0.18161356356E+03  0.34417148772E+02  0.77040030160E+03  0.79226551819E+03  0.25500000920E-02 0. -1.
       -2    1    3    3    0  502 -0.18161356356E+03 -0.34417148772E+02 -0.34286877248E+03  0.38952152924E+03  0.25500000920E-02 0.  1.
</event>
<event>
 5   0  0.3657529E-04  0.1099315E+04  0.7818609E-02  0.9205860E-01
       -1   -1    0    0    0  501  0.00000000000E+00  0.00000000000E+00  0.19381340785E+03  0.19381340792E+03  0.50400001928E-02 0. -1.
        1   -1    0    0  501    0  0.00000000000E+00  0.00000000000E+00 -0.15588356010E+04  0.15588356010E+04  0.50400001928E-02 0.  1.
    10030    2    1    2    0    0  0.00000000000E+00  0.00000000000E+00 -0.13650221931E+04  0.17526490089E+04  0.10993147687E+04 0.  0.
        4    1    3    3  502    0  0.36935697768E+03  0.23334170283E+03 -0.15074534698E+03  0.46216739368E+03  0.12699999809E+01 0. -1.
       -4    1    3    3    0  502 -0.36935697768E+03 -0.23334170283E+03 -0.12142768461E+04  0.12904816152E+04  0.12699999809E+01 0.  1.
</event>
<event>
 5   0  0.3423758E-04  0.1100458E+04  0.7818609E-02  0.9204746E-01
        1   -1    0    0  501    0  0.00000000000E+00  0.00000000000E+00  0.16236779485E+04  0.16236779485E+04  0.50400001928E-02 0.  1.
       -1   -1    0    0    0  501  0.00000000000E+00  0.00000000000E+00 -0.18646045820E+03  0.18646045827E+03  0.50400001928E-02 0. -1.
    10030    2    1    2    0    0  0.00000000000E+00  0.00000000000E+00  0.14372174903E+04  0.18101384068E+04  0.11004576036E+04 0.  0.
        1    1    3    3  502    0  0.36890422426E+02 -0.49636065227E+03  0.33278703702E+03  0.59873367403E+03  0.50400001928E-02 0. -1.
       -1    1    3    3    0  502 -0.36890422426E+02  0.49636065227E+03  0.11044304533E+04  0.12114047328E+04  0.50400001928E-02 0.  1.
</event>
<event>
 5   0  0.3657529E-04  0.1100754E+04  0.7818609E-02  0.9204458E-01
       -1   -1    0    0    0  501  0.00000000000E+00  0.00000000000E+00  0.54804083882E+03  0.54804083884E+03  0.50400001928E-02 0.  1.
        1   -1    0    0  501    0  0.00000000000E+00  0.00000000000E+00 -0.55272264215E+03  0.55272264217E+03  0.50400001928E-02 0. -1.
    10030    2    1    2    0    0  0.00000000000E+00  0.00000000000E+00 -0.46818033269E+01  0.11007634810E+04  0.11007535246E+04 0.  0.
        4    1    3    3  502    0 -0.27126384795E+03  0.14909777278E+03  0.45274424750E+03  0.54844615743E+03  0.12699999809E+01 0.  1.
       -4    1    3    3    0  502  0.27126384795E+03 -0.14909777278E+03 -0.45742605083E+03  0.55231732358E+03  0.12699999809E+01 0. -1.
</event>
<event>
 5   0  0.6412712E-04  0.1100309E+04  0.7818609E-02  0.9204891E-01
        2   -1    0    0  501    0  0.00000000000E+00  0.00000000000E+00  0.48915087244E+03  0.48915087245E+03  0.25500000920E-02 0.  1.
       -2   -1    0    0    0  501  0.00000000000E+00  0.00000000000E+00 -0.61876575112E+03  0.61876575113E+03  0.25500000920E-02 0. -1.
    10030    2    1    2    0    0  0.00000000000E+00  0.00000000000E+00 -0.12961487868E+03  0.11079166236E+04  0.11003086967E+04 0.  0.
        2    1    3    3  502    0 -0.59448252841E+02  0.29956822627E+03 -0.52556796135E+03  0.60786256585E+03  0.25500000920E-02 0. -1.
       -2    1    3    3    0  502  0.59448252841E+02 -0.29956822627E+03  0.39595308268E+03  0.50005405772E+03  0.25500000920E-02 0.  1.
</event>
<event>
 5   0  0.6109149E-04  0.1097133E+04  0.7818609E-02  0.9207991E-01
       -2   -1    0    0    0  501  0.00000000000E+00  0.00000000000E+00  0.85662889129E+03  0.85662889130E+03  0.25500000920E-02 0. -1.
        2   -1    0    0  501    0  0.00000000000E+00  0.00000000000E+00 -0.35128982996E+03  0.35128982997E+03  0.25500000920E-02 0.  1.
    10030    2    1    2    0    0  0.00000000000E+00  0.00000000000E+00  0.50533906133E+03  0.12079187213E+04  0.10971326585E+04 0.  0.
        1    1    3    3  502    0  0.32639097611E+03  0.30002542137E+02  0.73696687936E+03  0.80656766804E+03  0.50400001928E-02 0. -1.
       -1    1    3    3    0  502 -0.32639097611E+03 -0.30002542137E+02 -0.23162781803E+03  0.40135105323E+03  0.50400001928E-02 0.  1.
</event>
<event>
 5   0  0.5948818E-04  0.1100195E+04  0.7818609E-02  0.9205002E-01
        2   -1    0    0  501    0  0.00000000000E+00  0.00000000000E+00  0.61221532467E+03  0.61221532468E+03  0.25500000920E-02 0.  1.
       -2   -1    0    0    0  501  0.00000000000E+00  0.00000000000E+00 -0.49428200014E+03  0.49428200015E+03  0.25500000920E-02 0. -1.
    10030    2    1    2    0    0  0.00000000000E+00  0.00000000000E+00  0.11793332453E+03  0.11064973248E+04  0.11001945559E+04 0.  0.
        3    1    3    3  502    0 -0.18480869669E+03  0.32513839945E+02 -0.46109879115E+03  0.49781875172E+03  0.10100000352E+00 0. -1.
       -3    1    3    3    0  502  0.18480869669E+03 -0.32513839945E+02  0.57903211568E+03  0.60867857310E+03  0.10100000352E+00 0.  1.
</event>
<event>
 5   0  0.6109149E-04  0.1099814E+04  0.7818609E-02  0.9205374E-01
       -2   -1    0    0    0  501  0.00000000000E+00  0.00000000000E+00  0.27295368630E+03  0.27295368631E+03  0.25500000920E-02 0.  1.
        2   -1    0    0  501    0  0.00000000000E+00  0.00000000000E+00 -0.11078711527E+04  0.11078711527E+04  0.25500000920E-02 0. -1.
    10030    2    1    2    0    0  0.00000000000E+00  0.00000000000E+00 -0.83491746642E+03  0.13808248390E+04  0.10998136480E+04 0.  0.
        1    1    3    3  502    0 -0.18922929509E+03 -0.41225986492E+03 -0.80774121229E+03  0.92639720876E+03  0.50400001928E-02 0. -1.
       -1    1    3    3    0  502  0.18922929509E+03  0.41225986492E+03 -0.27176254134E+02  0.45442763028E+03  0.50400001928E-02 0.  1.
</event>
<event>
 5   0  0.6264830E-04  0.1095154E+04  0.7818609E-02  0.9209928E-01
       -2   -1    0    0    0  501  0.00000000000E+00  0.00000000000E+00  0.12535313649E+04  0.12535313649E+04  0.25500000920E-02 0.  1.
        2   -1    0    0  501    0  0.00000000000E+00  0.00000000000E+00 -0.23919676662E+03  0.23919676664E+03  0.25500000920E-02 0. -1.
    10030    2    1    2    0    0  0.00000000000E+00  0.00000000000E+00  0.10143345983E+04  0.14927281316E+04  0.10951541432E+04 0.  0.
        4    1    3    3  502    0  0.23290298341E+03 -0.46662843520E+03  0.73464694838E+03  0.90094042416E+03  0.12699999809E+01 0. -1.
       -4    1    3    3    0  502 -0.23290298341E+03  0.46662843520E+03  0.27968764993E+03  0.59178770742E+03  0.12699999809E+01 0.  1.
</event>
<event>
 5   0  0.3621403E-04  0.1101899E+04  0.7818609E-02  0.9203343E-01
        1   -1    0    0  501    0  0.00000000000E+00  0.00000000000E+00  0.57700858906E+03  0.57700858908E+03  0.50400001928E-02 0.  1.
       -1   -1    0    0    0  501  0.00000000000E+00  0.00000000000E+00 -0.52606758054E+03  0.52606758056E+03  0.50400001928E-02 0. -1.
    10030    2    1    2    0    0  0.00000000000E+00  0.00000000000E+00  0.50941008516E+02  0.11030761696E+04  0.11018992920E+04 0.  0.
        3    1    3    3  502    0 -0.12356345452E+03 -0.27421775772E+03  0.48757179397E+03  0.57287832077E+03  0.10100000352E+00 0.  1.
       -3    1    3    3    0  502  0.12356345452E+03  0.27421775772E+03 -0.43663078545E+03  0.53019784887E+03  0.10100000352E+00 0. -1.
</event>
<event>
 5   0  0.3423758E-04  0.1101250E+04  0.7818609E-02  0.9203975E-01
       -1   -1    0    0    0  501  0.00000000000E+00  0.00000000000E+00  0.26538671457E+03  0.26538671462E+03  0.50400001928E-02 0. -1.
        1   -1    0    0  501    0  0.00000000000E+00  0.00000000000E+00 -0.11424378191E+04  0.11424378191E+04  0.50400001928E-02 0.  1.
    10030    2    1    2    0    0  0.00000000000E+00  0.00000000000E+00 -0.87705110452E+03  0.14078245337E+04  0.11012498707E+04 0.  0.
        1    1    3    3  502    0  0.38616642537E+02 -0.60816134658E+02 -0.11363871705E+04  0.11386683663E+04  0.50400001928E-02 0.  1.
       -1    1    3    3    0  502 -0.38616642537E+02  0.60816134658E+02  0.25933606594E+03  0.26915616738E+03  0.50400001928E-02 0. -1.
</event>
<event>
 5   0  0.3523525E-04  0.1100267E+04  0.7818609E-02  0.9204932E-01
       -1   -1    0    0    0  501  0.00000000000E+00  0.00000000000E+00  0.60359699198E+03  0.60359699200E+03  0.50400001928E-02 0. -1.
        1   -1    0    0  501    0  0.00000000000E+00  0.00000000000E+00 -0.50140557658E+03  0.50140557661E+03  0.50400001928E-02 0.  1.
    10030    2    1    2    0    0  0.00000000000E+00  0.00000000000E+00  0.10219141540E+03  0.11050025686E+04  0.11002670545E+04 0.  0.
        5    1    3    3  502    0  0.39990973214E+03 -0.15822509488E+03  0.39559075615E+03  0.58436042889E+03  0.46999998093E+01 0. -1.
       -5    1    3    3    0  502 -0.39990973214E+03  0.15822509488E+03 -0.29339934075E+03  0.52064213972E+03  0.46999998093E+01 0.  1.
</event>
<event>
 5   0  0.3423758E-04  0.1094854E+04  0.7818609E-02  0.9210222E-01
        1   -1    0    0  501    0  0.00000000000E+00  0.00000000000E+00  0.56379978755E+03  0.56379978758E+03  0.50400001928E-02 0. -1.
       -1   -1    0    0    0  501  0.00000000000E+00  0.00000000000E+00 -0.53152974624E+03  0.53152974627E+03  0.50400001928E-02 0.  1.
    10030    2    1    2    0    0  0.00000000000E+00  0.00000000000E+00  0.32270041310E+02  0.10953295338E+04  0.10948540689E+04 0.  0.
        1    1    3    3  502    0  0.25065375753E+03 -0.73274980695E+02  0.49746746641E+03  0.56184553849E+03  0.50400001928E-02 0. -1.
       -1    1    3    3    0  502 -0.25065375753E+03  0.73274980695E+02 -0.46519742510E+03  0.53348399536E+03  0.50400001928E-02 0.  1.
</event>
<event>
 5   0  0.3657529E-04  0.1098771E+04  0.7818609E-02  0.9206390E-01
       -1   -1    0    0    0  501  0.00000000000E+00  0.00000000000E+00  0.19494174520E+03  0.19494174527E+03  0.50400001928E-02 0. -1.
        1   -1    0    0  501    0  0.00000000000E+00  0.00000000000E+00 -0.15482812354E+04  0.15482812354E+04  0.50400001928E-02 0.  1.
    10030    2    1    2    0    0  0.00000000000E+00  0.00000000000E+00 -0.13533394902E+04  0.17432229807E+04  0.10987713978E+04 0.  0.
        4    1    3    3  502    0 -0.50862488882E+03 -0.20720144586E+03 -0.69861405260E+03  0.88864780655E+03  0.12699999809E+01 0.  1.
       -4    1    3    3    0  502  0.50862488882E+03  0.20720144586E+03 -0.65472543757E+03  0.85457517411E+03  0.12699999809E+01 0. -1.
</event>
<event>
 5   0  0.3621403E-04  0.1100202E+04  0.7818609E-02  0.9204995E-01
        1   -1    0    0  501    0  0.00000000000E+00  0.00000000000E+00  0.11004704352E+04  0.11004704352E+04  0.50400001928E-02 0. -1.
       -1   -1    0    0    0  501  0.00000000000E+00  0.00000000000E+00 -0.27498336724E+03  0.27498336729E+03  0.50400001928E-02 0.  1.
    10030    2    1    2    0    0  0.00000000000E+00  0.00000000000E+00  0.82548706792E+03  0.13754538025E+04  0.11002019194E+04 0.  0.
        3    1    3    3  502    0  0.21828105573E+03 -0.37174647274E+03  0.83994957340E+03  0.94411723602E+03  0.10100000352E+00 0. -1.
       -3    1    3    3    0  502 -0.21828105573E+03  0.37174647274E+03 -0.14462505484E+02  0.43133656644E+03  0.10100000352E+00 0.  1.
</event>
<event>
 5   0  0.6264830E-04  0.1104067E+04  0.7818609E-02  0.9201237E-01
        2   -1    0    0  501    0  0.00000000000E+00  0.00000000000E+00  0.14128176369E+04  0.14128176369E+04  0.25500000920E-02 0. -1.
       -2   -1    0    0    0  501  0.00000000000E+00  0.00000000000E+00 -0.21569733720E+03  0.21569733722E+03  0.25500000920E-02 0.  1.
    10030    2    1    2    0    0  0.00000000000E+00  0.00000000000E+00  0.11971202997E+04  0.16285149741E+04  0.11040670310E+04 0.  0.
        4    1    3    3  502    0 -0.15419641618E+03  0.18619861896E+03  0.13305790367E+04  0.13523640953E+04  0.12699999809E+01 0. -1.
       -4    1    3    3    0  502  0.15419641618E+03 -0.18619861896E+03 -0.13345873703E+03  0.27615087879E+03  0.12699999809E+01 0.  1.
</event>
<event>
 5   0  0.3642161E-04  0.1100437E+04  0.7818609E-02  0.9204766E-01
       -1   -1    0    0    0  501  0.00000000000E+00  0.00000000000E+00  0.45545132493E+03  0.45545132496E+03  0.50400001928E-02 0.  1.
        1   -1    0    0  501    0  0.00000000000E+00  0.00000000000E+00 -0.66470430599E+03  0.66470430600E+03  0.50400001928E-02 0. -1.
    10030    2    1    2    0    0  0.00000000000E+00  0.00000000000E+00 -0.20925298106E+03  0.11201556310E+04  0.11004371075E+04 0.  0.
        2    1    3    3  502    0  0.98593093385E+02  0.52454069514E+02  0.44379320238E+03  0.45762914457E+03  0.25500000920E-02 0.  1.
       -2    1    3    3    0  502 -0.98593093385E+02 -0.52454069514E+02 -0.65304618343E+03  0.66252648640E+03  0.25500000920E-02 0. -1.
</event>
<event>
 5   0  0.3621403E-04  0.1100494E+04  0.7818609E-02  0.9204711E-01
       -1   -1    0    0    0  501  0.00000000000E+00  0.00000000000E+00  0.34615508760E+03  0.34615508763E+03  0.50400001928E-02 0.  1.
        1   -1    0    0  501    0  0.00000000000E+00  0.00000000000E+00 -0.87467013012E+03  0.87467013014E+03  0.50400001928E-02 0. -1.
    10030    2    1    2    0    0  0.00000000000E+00  0.00000000000E+00 -0.52851504252E+03  0.12208252178E+04  0.11004935539E+04 0.  0.
        3    1    3    3  502    0 -0.20284738871E+03 -0.49194126830E+02  0.30053268426E+03  0.36590576618E+03  0.10100000352E+00 0.  1.
       -3    1    3    3    0  502  0.20284738871E+03  0.49194126830E+02 -0.82904772678E+03  0.85491945159E+03  0.10100000352E+00 0. -1.
</event>
<event>
 5   0  0.6245176E-04  0.1105752E+04  0.7818609E-02  0.9199603E-01
        2   -1    0    0  501    0  0.00000000000E+00  0.00000000000E+00  0.11289560906E+04  0.11289560906E+04  0.25500000920E-02 0.  1.
       -2   -1    0    0    0  501  0.00000000000E+00  0.00000000000E+00 -0.27075639684E+03  0.27075639685E+03  0.25500000920E-02 0. -1.
    10030    2    1    2    0    0  0.00000000000E+00  0.00000000000E+00  0.85819969378E+03  0.13997124875E+04  0.11057523833E+04 0.  0.
        5    1    3    3  502    0 -0.32061546837E+03 -0.35087802095E+03  0.71646008401E+02  0.48069211005E+03  0.46999998093E+01 0. -1.
       -5    1    3    3    0  502  0.32061546837E+03  0.35087802095E+03  0.78655368538E+03  0.91902037743E+03  0.46999998093E+01 0.  1.
</event>
<event>
 5   0  0.3642161E-04  0.1101857E+04  0.7818609E-02  0.9203384E-01
        1   -1    0    0  501    0  0.00000000000E+00  0.00000000000E+00  0.13926406235E+04  0.13926406235E+04  0.50400001928E-02 0.  1.
       -1   -1    0    0    0  501  0.00000000000E+00  0.00000000000E+00 -0.21794726528E+03  0.21794726534E+03  0.50400001928E-02 0. -1.
    10030    2    1    2    0    0  0.00000000000E+00  0.00000000000E+00  0.11746933582E+04  0.16105878889E+04  0.11018570061E+04 0.  0.
        2    1    3    3  502    0 -0.78407841650E+02  0.54348471314E+03  0.65269629478E+03  0.85295713625E+03  0.25500000920E-02 0. -1.
       -2    1    3    3    0  502  0.78407841650E+02 -0.54348471314E+03  0.52199706344E+03  0.75763075261E+03  0.25500000920E-02 0.  1.
</event>
<event>
 5   0  0.3621403E-04  0.1099579E+04  0.7818609E-02  0.9205602E-01
       -1   -1    0    0    0  501  0.00000000000E+00  0.00000000000E+00  0.17377053393E+04  0.17377053393E+04  0.50400001928E-02 0. -1.
        1   -1    0    0  501    0  0.00000000000E+00  0.00000000000E+00 -0.17394703825E+03  0.17394703832E+03  0.50400001928E-02 0.  1.
    10030    2    1    2    0    0  0.00000000000E+00  0.00000000000E+00  0.15637583010E+04  0.19116523776E+04  0.10995793690E+04 0.  0.
        3    1    3    3  502    0  0.53044321558E+03  0.12267884503E+03  0.91483506706E+03  0.10645859825E+04  0.10100000352E+00 0.  1.
       -3    1    3    3    0  502 -0.53044321558E+03 -0.12267884503E+03  0.64892323398E+03  0.84706639514E+03  0.10100000352E+00 0. -1.
</event>
<event>
 5   0  0.3523525E-04  0.1106439E+04  0.7818609E-02  0.9198938E-01
       -1   -1    0    0    0  501  0.00000000000E+00  0.00000000000E+00  0.82152595640E+03  0.82152595641E+03  0.50400001928E-02 0.  1.
        1   -1    0    0  501    0  0.00000000000E+00  0.00000000000E+00 -0.37254091918E+03  0.37254091922E+03  0.50400001928E-02 0. -1.
    10030    2    1    2    0    0  0.00000000000E+00  0.00000000000E+00  0.44898503721E+03  0.11940668756E+04  0.11064393973E+04 0.  0.
        5    1    3    3  502    0 -0.17092212079E+03  0.17319759715E+03  0.76064655492E+03  0.79863449120E+03  0.46999998093E+01 0.  1.
       -5    1    3    3    0  502  0.17092212079E+03 -0.17319759715E+03 -0.31166151771E+03  0.39543238442E+03  0.46999998093E+01 0. -1.
</event>
<event>
 5   0  0.6412712E-04  0.1099963E+04  0.7818609E-02  0.9205228E-01
       -2   -1    0    0    0  501  0.00000000000E+00  0.00000000000E+00  0.29897170728E+03  0.29897170729E+03  0.25500000920E-02 0. -1.
        2   -1    0    0  501    0  0.00000000000E+00  0.00000000000E+00 -0.10117334048E+04  0.10117334048E+04  0.25500000920E-02 0.  1.
    10030    2    1    2    0    0  0.00000000000E+00  0.00000000000E+00 -0.71276169755E+03  0.13107051121E+04  0.10999630237E+04 0.  0.
        2    1    3    3  502    0  0.48400421448E+03 -0.26112445830E+03 -0.36328806461E+03  0.65910870139E+03  0.25500000920E-02 0.  1.
       -2    1    3    3    0  502 -0.48400421448E+03  0.26112445830E+03 -0.34947363294E+03  0.65159641074E+03  0.25500000920E-02 0. -1.
</event>
<event>
 5   0  0.6412712E-04  0.1099862E+04  0.7818609E-02  0.9205326E-01
       -2   -1    0    0    0  501  0.00000000000E+00  0.00000000000E+00  0.49457600318E+03  0.49457600318E+03  0.25500000920E-02 0. -1.
        2   -1    0    0  501    0  0.00000000000E+00  0.00000000000E+00 -0.61148210980E+03  0.61148210980E+03  0.25500000920E-02 0.  1.
    10030    2    1    2    0    0  0.00000000000E+00  0.00000000000E+00 -0.11690610662E+03  0.11060581130E+04  0.10998624966E+04 0.  0.
        2    1    3    3  502    0  0.69465669235E+02  0.42823141207E+03  0.28141039798E+03  0.51710679128E+03  0.25500000920E-02 0. -1.
       -2    1    3    3    0  502 -0.69465669235E+02 -0.42823141207E+03 -0.39831650460E+03  0.58895132170E+03  0.25500000920E-02 0.  1.
</event>
<event>
 5   0  0.5948818E-04  0.1100782E+04  0.7818609E-02  0.9204430E-01
        2   -1    0    0  501    0  0.00000000000E+00  0.00000000000E+00  0.88072826177E+03  0.88072826177E+03  0.25500000920E-02 0. -1.
       -2   -1    0    0    0  501  0.00000000000E+00  0.00000000000E+00 -0.34395428999E+03  0.34395429000E+03  0.25500000920E-02 0.  1.
    10030    2    1    2    0    0  0.00000000000E+00  0.00000000000E+00  0.53677397178E+03  0.12246825518E+04  0.11007820201E+04 0.  0.
        3    1    3    3  502    0  0.24839232168E+03 -0.39986479848E+03  0.58568938519E+03  0.75141377993E+03  0.10100000352E+00 0. -1.
       -3    1    3    3    0  502 -0.24839232168E+03  0.39986479848E+03 -0.48915413419E+02  0.47326877184E+03  0.10100000352E+00 0.  1.
</event>
<event>
 5   0  0.6264830E-04  0.1100437E+04  0.7818609E-02  0.9204766E-01
        2   -1    0    0  501    0  0.00000000000E+00  0.00000000000E+00  0.79587485884E+03  0.79587485885E+03  0.25500000920E-02 0.  1.
       -2   -1    0    0    0  501  0.00000000000E+00  0.00000000000E+00 -0.38038680795E+03  0.38038680796E+03  0.25500000920E-02 0. -1.
    10030    2    1    2    0    0  0.00000000000E+00  0.00000000000E+00  0.41548805089E+03  0.11762616668E+04  0.11004368171E+04 0.  0.
        4    1    3    3  502    0  0.18748449647E+03 -0.29824482197E+03  0.65952307651E+03  0.74771165003E+03  0.12699999809E+01 0.  1.
       -4    1    3    3    0  502 -0.18748449647E+03  0.29824482197E+03 -0.24403502562E+03  0.42855001677E+03  0.12699999809E+01 0. -1.
</event>
<event>
 5   0  0.3423758E-04  0.1097305E+04  0.7818609E-02  0.9207822E-01
       -1   -1    0    0    0  501  0.00000000000E+00  0.00000000000E+00  0.39691535824E+03  0.39691535827E+03  0.50400001928E-02 0.  1.
        1   -1    0    0  501    0  0.00000000000E+00  0.00000000000E+00 -0.75839786418E+03  0.75839786420E+03  0.50400001928E-02 0. -1.
    10030    2    1    2    0    0  0.00000000000E+00  0.00000000000E+00 -0.36148250594E+03  0.11553132225E+04  0.10973053540E+04 0.  0.
        1    1    3    3  502    0  0.24290429727E+03 -0.47847554583E+03 -0.30114771406E+03  0.61533022947E+03  0.50400001928E-02 0.  1.
       -1    1    3    3    0  502 -0.24290429727E+03  0.47847554583E+03 -0.60334791880E+02  0.53998299300E+03  0.50400001928E-02 0. -1.
</event>
<event>
 5   0  0.6264830E-04  0.1098273E+04  0.7818609E-02  0.9206876E-01
       -2   -1    0    0    0  501  0.00000000000E+00  0.00000000000E+00  0.60059476900E+03  0.60059476901E+03  0.25500000920E-02 0. -1.
        2   -1    0    0  501    0  0.00000000000E+00  0.00000000000E+00 -0.50208754630E+03  0.50208754630E+03  0.25500000920E-02 0.  1.
    10030    2    1    2    0    0  0.00000000000E+00  0.00000000000E+00  0.98507222706E+02  0.11026823153E+04  0.10982734703E+04 0.  0.
        4    1    3    3  502    0  0.51184331444E+03  0.19425797292E+03  0.92201519369E+02  0.55517787389E+03  0.12699999809E+01 0. -1.
       -4    1    3    3    0  502 -0.51184331444E+03 -0.19425797292E+03  0.63057033373E+01  0.54750444142E+03  0.12699999809E+01 0.  1.
</event>
<event>
 5   0  0.3657529E-04  0.1096682E+04  0.7818609E-02  0.9208431E-01
        1   -1    0    0  501    0  0.00000000000E+00  0.00000000000E+00  0.15303101290E+04  0.15303101290E+04  0.50400001928E-02 0.  1.
       -1   -1    0    0    0  501  0.00000000000E+00  0.00000000000E+00 -0.19648177591E+03  0.19648177597E+03  0.50400001928E-02 0. -1.
    10030    2    1    2    0    0  0.00000000000E+00  0.00000000000E+00  0.13338283531E+04  0.17267919050E+04  0.10966823641E+04 0.  0.
        4    1    3    3  502    0  0.50250310861E+03 -0.11174776165E+03  0.36949529217E+03  0.63366025615E+03  0.12699999809E+01 0. -1.
       -4    1    3    3    0  502 -0.50250310861E+03  0.11174776165E+03  0.96433306095E+03  0.10931316489E+04  0.12699999809E+01 0.  1.
</event>
<event>
 5   0  0.6109149E-04  0.1101057E+04  0.7818609E-02  0.9204162E-01
       -2   -1    0    0    0  501  0.00000000000E+00  0.00000000000E+00  0.22330263848E+03  0.22330263850E+03  0.25500000920E-02 0. -1.
        2   -1    0    0  501    0  0.00000000000E+00  0.00000000000E+00 -0.13572685108E+04  0.13572685108E+04  0.25500000920E-02 0.  1.
    10030    2    1    2    0    0  0.00000000000E+00  0.00000000000E+00 -0.11339658723E+04  0.15805711493E+04  0.11010570187E+04 0.  0.
        1    1    3    3  502    0 -0.38428293047E+03 -0.38854101700E+03 -0.47128590817E+03  0.72162864398E+03  0.50400001928E-02 0. -1.
       -1    1    3    3    0  502  0.38428293047E+03  0.38854101700E+03 -0.66267996414E+03  0.85894250531E+03  0.50400001928E-02 0.  1.
</event>
<event>
 5   0  0.3621403E-04  0.1093362E+04  0.7818609E-02  0.9211686E-01
        1   -1    0    0  501    0  0.00000000000E+00  0.00000000000E+00  0.36892746121E+03  0.36892746125E+03  0.50400001928E-02 0.  1.
       -1   -1    0    0    0  501  0.00000000000E+00  0.00000000000E+00 -0.81007889057E+03  0.81007889059E+03  0.50400001928E-02 0. -1.
    10030    2    1    2    0    0  0.00000000000E+00  0.00000000000E+00 -0.44115142936E+03  0.11790063518E+04  0.10933624258E+04 0.  0.
        3    1    3    3  502    0 -0.18533777675E+03 -0.16505159812E+02 -0.77488160560E+03  0.79690904417E+03  0.10100000352E+00 0. -1.
       -3    1    3    3    0  502  0.18533777675E+03  0.16505159812E+02  0.33373017624E+03  0.38209730767E+03  0.10100000352E+00 0.  1.
</event>
<event>
 5   0  0.5948818E-04  0.1100640E+04  0.7818609E-02  0.9204568E-01
       -2   -1    0    0    0  501  0.00000000000E+00  0.00000000000E+00  0.18041350573E+03  0.18041350575E+03  0.25500000920E-02 0. -1.
        2   -1    0    0  501    0  0.00000000000E+00  0.00000000000E+00 -0.16786565972E+04  0.16786565972E+04  0.25500000920E-02 0.  1.
    10030    2    1    2    0    0  0.00000000000E+00  0.00000000000E+00 -0.14982430915E+04  0.18590701030E+04  0.11006403984E+04 0.  0.
        3    1    3    3  502    0 -0.83250898832E+02  0.44400092374E+03 -0.12800002859E+04  0.13573755098E+04  0.10100000352E+00 0.  1.
       -3    1    3    3    0  502  0.83250898832E+02 -0.44400092374E+03 -0.21824280556E+03  0.50169459317E+03  0.10100000352E+00 0. -1.
</event>
<event>
 5   0  0.3523525E-04  0.1092915E+04  0.7818609E-02  0.9212125E-01
       -1   -1    0    0    0  501  0.00000000000E+00  0.00000000000E+00  0.57484510856E+03  0.57484510858E+03  0.50400001928E-02 0. -1.
        1   -1    0    0  501    0  0.00000000000E+00  0.00000000000E+00 -0.51947142890E+03  0.51947142892E+03  0.50400001928E-02 0.  1.
    10030    2    1    2    0    0  0.00000000000E+00  0.00000000000E+00  0.55373679663E+02  0.10943165375E+04  0.10929146535E+04 0.  0.
        5    1    3    3  502    0 -0.25455114885E+02 -0.18084964242E+03 -0.48798732621E+03  0.52106456085E+03  0.46999998093E+01 0.  1.
       -5    1    3    3    0  502  0.25455114885E+02  0.18084964242E+03  0.54336100587E+03  0.57325197665E+03  0.46999998093E+01 0. -1.
</event>
<event>
 5   0  0.6109149E-04  0.1099248E+04  0.7818609E-02  0.9205925E-01
        2   -1    0    0  501    0  0.00000000000E+00  0.00000000000E+00  0.81154036460E+03  0.81154036461E+03  0.25500000920E-02 0.  1.
       -2   -1    0    0    0  501  0.00000000000E+00  0.00000000000E+00 -0.37223863720E+03  0.37223863721E+03  0.25500000920E-02 0. -1.
    10030    2    1    2    0    0  0.00000000000E+00  0.00000000000E+00  0.43930172740E+03  0.11837790018E+04  0.10992482510E+04 0.  0.
        1    1    3    3  502    0 -0.71569635754E+02  0.18818821194E+03  0.77039759913E+03  0.79627223777E+03  0.50400001928E-02 0.  1.
       -1    1    3    3    0  502  0.71569635754E+02 -0.18818821194E+03 -0.33109587173E+03  0.38750676404E+03  0.50400001928E-02 0. -1.
</event>
<event>
 5   0  0.5948818E-04  0.1099793E+04  0.7818609E-02  0.9205394E-01
       -2   -1    0    0    0  501  0.00000000000E+00  0.00000000000E+00  0.19273251492E+03  0.19273251493E+03  0.25500000920E-02 0. -1.
        2   -1    0    0  501    0  0.00000000000E+00  0.00000000000E+00 -0.15689421850E+04  0.15689421851E+04  0.25500000920E-02 0.  1.
    10030    2    1    2    0    0  0.00000000000E+00  0.00000000000E+00 -0.13762096701E+04  0.17616747000E+04  0.10997930225E+04 0.  0.
        3    1    3    3  502    0 -0.34112104187E+03  0.18759436729E+03 -0.66005134893E+02  0.39485680933E+03  0.10100000352E+00 0. -1.
       -3    1    3    3    0  502  0.34112104187E+03 -0.18759436729E+03 -0.13102045352E+04  0.13668178907E+04  0.10100000352E+00 0.  1.
</event>
<event>
 5   0  0.3523525E-04  0.1099365E+04  0.7818609E-02  0.9205811E-01
        1   -1    0    0  501    0  0.00000000000E+00  0.00000000000E+00  0.20008950488E+03  0.20008950494E+03  0.50400001928E-02 0.  1.
       -1   -1    0    0    0  501  0.00000000000E+00  0.00000000000E+00 -0.15100782518E+04  0.15100782518E+04  0.50400001928E-02 0. -1.
    10030    2    1    2    0    0  0.00000000000E+00  0.00000000000E+00 -0.13099887469E+04  0.17101677567E+04  0.10993649254E+04 0.  0.
        5    1    3    3  502    0  0.52868798325E+02  0.38443824407E+03 -0.49428083247E+02  0.39122001323E+03  0.46999998093E+01 0.  1.
       -5    1    3    3    0  502 -0.52868798325E+02 -0.38443824407E+03 -0.12605606636E+04  0.13189477435E+04  0.46999998093E+01 0. -1.
</event>
<event>
 5   0  0.3657529E-04  0.1101548E+04  0.7818609E-02  0.9203685E-01
        1   -1    0    0  501    0  0.00000000000E+00  0.00000000000E+00  0.82930949971E+03  0.82930949972E+03  0.50400001928E-02 0.  1.
       -1   -1    0    0    0  501  0.00000000000E+00  0.00000000000E+00 -0.36578843986E+03  0.36578843989E+03  0.50400001928E-02 0. -1.
    10030    2    1    2    0    0  0.00000000000E+00  0.00000000000E+00  0.46352105985E+03  0.11950979396E+04  0.11015476895E+04 0.  0.
        4    1    3    3  502    0 -0.27133730064E+03  0.74341390695E+02 -0.28194903403E+03  0.39830571648E+03  0.12699999809E+01 0. -1.
       -4    1    3    3    0  502  0.27133730064E+03 -0.74341390695E+02  0.74547009388E+03  0.79679222314E+03  0.12699999809E+01 0.  1.
</event>
<event>
 5   0  0.3642161E-04  0.1102363E+04  0.7818609E-02  0.9202892E-01
        1   -1    0    0  501    0  0.00000000000E+00  0.00000000000E+00  0.17215734774E+04  0.17215734774E+04  0.50400001928E-02 0. -1.
       -1   -1    0    0    0  501  0.00000000000E+00  0.00000000000E+00 -0.17646704098E+03  0.17646704105E+03  0.50400001928E-02 0.  1.
    10030    2    1    2    0    0  0.00000000000E+00  0.00000000000E+00  0.15451064364E+04  0.18980405184E+04  0.11023628757E+04 0.  0.
        2    1    3    3  502    0  0.52502441046E+03 -0.16834147073E+02  0.10599789705E+04  0.11830001851E+04  0.25500000920E-02 0. -1.
       -2    1    3    3    0  502 -0.52502441046E+03  0.16834147073E+02  0.48512746589E+03  0.71504033330E+03  0.25500000920E-02 0.  1.
</event>
<event>
 5   0  0.6264830E-04  0.1099398E+04  0.7818609E-02  0.9205779E-01
       -2   -1    0    0    0  501  0.00000000000E+00  0.00000000000E+00  0.80463059757E+03  0.80463059757E+03  0.25500000920E-02 0. -1.
        2   -1    0    0  501    0  0.00000000000E+00  0.00000000000E+00 -0.37553758641E+03  0.37553758641E+03  0.25500000920E-02 0.  1.
    10030    2    1    2    0    0  0.00000000000E+00  0.00000000000E+00  0.42909301116E+03  0.11801681840E+04  0.10993980763E+04 0.  0.
        4    1    3    3  502    0  0.46148591448E+03 -0.37322553609E+02  0.53263579167E+03  0.70573700608E+03  0.12699999809E+01 0. -1.
       -4    1    3    3    0  502 -0.46148591448E+03  0.37322553609E+02 -0.10354278051E+03  0.47443117791E+03  0.12699999809E+01 0.  1.
</event>
<event>
 5   0  0.6109149E-04  0.1100024E+04  0.7818609E-02  0.9205169E-01
        2   -1    0    0  501    0  0.00000000000E+00  0.00000000000E+00  0.63433010018E+03  0.63433010018E+03  0.25500000920E-02 0. -1.
       -2   -1    0    0    0  501  0.00000000000E+00  0.00000000000E+00 -0.47690163369E+03  0.47690163369E+03  0.25500000920E-02 0.  1.
    10030    2    1    2    0    0  0.00000000000E+00  0.00000000000E+00  0.15742846649E+03  0.11112317339E+04  0.11000237472E+04 0.  0.
        1    1    3    3  502    0 -0.44412374565E+03  0.26720848714E+03 -0.10719011737E+03  0.52927875296E+03  0.50400001928E-02 0. -1.
       -1    1    3    3    0  502  0.44412374565E+03 -0.26720848714E+03  0.26461858386E+03  0.58195298092E+03  0.50400001928E-02 0.  1.
</event>
<event>
 5   0  0.3423758E-04  0.1099487E+04  0.7818609E-02  0.9205692E-01
       -1   -1    0    0    0  501  0.00000000000E+00  0.00000000000E+00  0.59814324826E+03  0.59814324828E+03  0.50400001928E-02 0.  1.
        1   -1    0    0  501    0  0.00000000000E+00  0.00000000000E+00 -0.50526003039E+03  0.50526003042E+03  0.50400001928E-02 0. -1.
    10030    2    1    2    0    0  0.00000000000E+00  0.00000000000E+00  0.92883217864E+02  0.11034032787E+04  0.10994869273E+04 0.  0.
        1    1    3    3  502    0 -0.49290677245E+03 -0.23940123719E+03  0.21500958590E+01  0.54797323076E+03  0.50400001928E-02 0. -1.
       -1    1    3    3    0  502  0.49290677245E+03  0.23940123719E+03  0.90733122005E+02  0.55543004794E+03  0.50400001928E-02 0.  1.
</event>
<event>
 5   0  0.6245176E-04  0.1100123E+04  0.7818609E-02  0.9205072E-01
        2   -1    0    0  501    0  0.00000000000E+00  0.00000000000E+00  0.50920284455E+03  0.50920284455E+03  0.25500000920E-02 0.  1.
       -2   -1    0    0    0  501  0.00000000000E+00  0.00000000000E+00 -0.59419907704E+03  0.59419907704E+03  0.25500000920E-02 0. -1.
    10030    2    1    2    0    0  0.00000000000E+00  0.00000000000E+00 -0.84996232488E+02  0.11034019216E+04  0.11001233754E+04 0.  0.
        5    1    3    3  502    0  0.50270214552E+03 -0.13679061042E+03 -0.21944568336E+03  0.56533142152E+03  0.46999998093E+01 0. -1.
       -5    1    3    3    0  502 -0.50270214552E+03  0.13679061042E+03  0.13444945087E+03  0.53807050008E+03  0.46999998093E+01 0.  1.
</event>
<event>
 5   0  0.3657529E-04  0.1099458E+04  0.7818609E-02  0.9205721E-01
       -1   -1    0    0    0  501  0.00000000000E+00  0.00000000000E+00  0.65341669309E+03  0.65341669311E+03  0.50400001928E-02 0.  1.
        1   -1    0    0  501    0  0.00000000000E+00  0.00000000000E+00 -0.46249480419E+03  0.46249480421E+03  0.50400001928E-02 0. -1.
    10030    2    1    2    0    0  0.00000000000E+00  0.00000000000E+00  0.19092188891E+03  0.11159114973E+04  0.10994577310E+04 0.  0.
        4    1    3    3  502    0  0.41000559025E+03  0.31023656240E+03 -0.10199848080E+03  0.52417231105E+03  0.12699999809E+01 0.  1.
       -4    1    3    3    0  502 -0.41000559025E+03 -0.31023656240E+03  0.29292036971E+03  0.59173918628E+03  0.12699999809E+01 0. -1.
</event>
<event>
 5   0  0.3621403E-04  0.1099882E+04  0.7818609E-02  0.9205307E-01
        1   -1    0    0  501    0  0.00000000000E+00  0.00000000000E+00  0.59939311135E+03  0.59939311137E+03  0.50400001928E-02 0.  1.
       -1   -1    0    0    0  501  0.00000000000E+00  0.00000000000E+00 -0.50456846983E+03  0.50456846986E+03  0.50400001928E-02 0. -1.
    10030    2    1    2    0    0  0.00000000000E+00  0.00000000000E+00  0.94824641518E+02  0.11039615812E+04  0.10998815664E+04 0.  0.
        3    1    3    3  502    0  0.51522143592E+02  0.12657807162E+03 -0.48725339261E+03  0.50605574624E+03  0.10100000352E+00 0. -1.
       -3    1    3    3    0  502 -0.51522143592E+02 -0.12657807162E+03  0.58207803413E+03  0.59790583499E+03  0.10100000352E+00 0.  1.
</event>
<event>
 5   0  0.2403875E-04  0.1096385E+04  0.7818609E-02  0.9208723E-01
        3   -1    0    0  501    0  0.00000000000E+00  0.00000000000E+00  0.11474612991E+04  0.11474613035E+04  0.10100000352E+00 0.  1.
       -3   -1    0    0    0  501  0.00000000000E+00  0.00000000000E+00 -0.26189532604E+03  0.26189534551E+03  0.10100000352E+00 0. -1.
    10030    2    1    2    0    0  0.00000000000E+00  0.00000000000E+00  0.88556597304E+03  0.14093566490E+04  0.10963845455E+04 0.  0.
        4    1    3    3  502    0 -0.24952358526E+03 -0.16943535439E+03  0.10312123966E+04  0.10744165760E+04  0.12699999809E+01 0.  1.
       -4    1    3    3    0  502  0.24952358526E+03  0.16943535439E+03 -0.14564642359E+03  0.33494007303E+03  0.12699999809E+01 0. -1.
</event>
<event>
 5   0  0.3642161E-04  0.1101436E+04  0.7818609E-02  0.9203794E-01
        1   -1    0    0  501    0  0.00000000000E+00  0.00000000000E+00  0.55660937708E+03  0.55660937711E+03  0.50400001928E-02 0. -1.
       -1   -1    0    0    0  501  0.00000000000E+00  0.00000000000E+00 -0.54488875542E+03  0.54488875544E+03  0.50400001928E-02 0.  1.
    10030    2    1    2    0    0  0.00000000000E+00  0.00000000000E+00  0.11720621665E+02  0.11014981325E+04  0.11014357735E+04 0.  0.
        2    1    3    3  502    0 -0.38706014879E+03 -0.38441746644E+03 -0.69628023800E+02  0.54994582369E+03  0.25500000920E-02 0.  1.
       -2    1    3    3    0  502  0.38706014879E+03  0.38441746644E+03  0.81348645466E+02  0.55155230886E+03  0.25500000920E-02 0. -1.
</event>
<event>
 5   0  0.2403875E-04  0.1098758E+04  0.7818609E-02  0.9206404E-01
        3   -1    0    0  501    0  0.00000000000E+00  0.00000000000E+00  0.19772095929E+03  0.19772098508E+03  0.10100000352E+00 0. -1.
       -3   -1    0    0    0  501  0.00000000000E+00  0.00000000000E+00 -0.15264796019E+04  0.15264796053E+04  0.10100000352E+00 0.  1.
    10030    2    1    2    0    0  0.00000000000E+00  0.00000000000E+00 -0.13287586426E+04  0.17242005903E+04  0.10987575462E+04 0.  0.
        3    1    3    3  502    0  0.32082083585E+03  0.43918608529E+03 -0.54276064523E+03  0.76837461856E+03  0.10100000352E+00 0. -1.
       -3    1    3    3    0  502 -0.32082083585E+03 -0.43918608529E+03 -0.78599799740E+03  0.95582597178E+03  0.10100000352E+00 0.  1.
</event>
<event>
 5   0  0.6264830E-04  0.1102390E+04  0.7818609E-02  0.9202866E-01
       -2   -1    0    0    0  501  0.00000000000E+00  0.00000000000E+00  0.46767546202E+03  0.46767546203E+03  0.25500000920E-02 0. -1.
        2   -1    0    0  501    0  0.00000000000E+00  0.00000000000E+00 -0.64962963860E+03  0.64962963860E+03  0.25500000920E-02 0.  1.
    10030    2    1    2    0    0  0.00000000000E+00  0.00000000000E+00 -0.18195417658E+03  0.11173051006E+04  0.11023898428E+04 0.  0.
        4    1    3    3  502    0 -0.15433359742E+03 -0.45600988217E+03  0.18107661714E+03  0.51434835093E+03  0.12699999809E+01 0.  1.
       -4    1    3    3    0  502  0.15433359742E+03  0.45600988217E+03 -0.36303079372E+03  0.60295674970E+03  0.12699999809E+01 0. -1.
</event>
<event>
 5   0  0.3423758E-04  0.1098088E+04  0.7818609E-02  0.9207057E-01
       -1   -1    0    0    0  501  0.00000000000E+00  0.00000000000E+00  0.12304287923E+04  0.12304287924E+04  0.50400001928E-02 0.  1.
        1   -1    0    0  501    0  0.00000000000E+00  0.00000000000E+00 -0.24499541244E+03  0.24499541249E+03  0.50400001928E-02 0. -1.
    10030    2    1    2    0    0  0.00000000000E+00  0.00000000000E+00  0.98543337990E+03  0.14754242048E+04  0.10980881741E+04 0.  0.
        1    1    3    3  502    0 -0.19210554407E+03  0.17303556733E+03  0.11435158598E+04  0.11723797888E+04  0.50400001928E-02 0.  1.
       -1    1    3    3    0  502  0.19210554407E+03 -0.17303556733E+03 -0.15808247988E+03  0.30304441604E+03  0.50400001928E-02 0. -1.
</event>
<event>
 5   0  0.3621403E-04  0.1100012E+04  0.7818609E-02  0.9205180E-01
       -1   -1    0    0    0  501  0.00000000000E+00  0.00000000000E+00  0.31512857834E+03  0.31512857838E+03  0.50400001928E-02 0.  1.
        1   -1    0    0  501    0  0.00000000000E+00  0.00000000000E+00 -0.95994682115E+03  0.95994682117E+03  0.50400001928E-02 0. -1.
    10030    2    1    2    0    0  0.00000000000E+00  0.00000000000E+00 -0.64481824281E+03  0.12750753995E+04  0.11000121401E+04 0.  0.
        3    1    3    3  502    0  0.10659491796E+03  0.71884634470E+02 -0.94228363699E+03  0.95101437421E+03  0.10100000352E+00 0. -1.
       -3    1    3    3    0  502 -0.10659491796E+03 -0.71884634470E+02  0.29746539418E+03  0.32406102534E+03  0.10100000352E+00 0.  1.
</event>
<event>
 5   0  0.6412712E-04  0.1100081E+04  0.7818609E-02  0.9205113E-01
       -2   -1    0    0    0  501  0.00000000000E+00  0.00000000000E+00  0.30811762250E+03  0.30811762251E+03  0.25500000920E-02 0. -1.
        2   -1    0    0  501    0  0.00000000000E+00  0.00000000000E+00 -0.98191268304E+03  0.98191268305E+03  0.25500000920E-02 0.  1.
    10030    2    1    2    0    0  0.00000000000E+00  0.00000000000E+00 -0.67379506054E+03  0.12900303056E+04  0.11000810905E+04 0.  0.
        2    1    3    3  502    0  0.63410432813E+02  0.45470487301E+03 -0.69213514585E+03  0.83055912772E+03  0.25500000920E-02 0.  1.
       -2    1    3    3    0  502 -0.63410432813E+02 -0.45470487301E+03  0.18340085306E+02  0.45947117783E+03  0.25500000920E-02 0. -1.
</event>
<event>
 5   0  0.6264830E-04  0.1099411E+04  0.7818609E-02  0.9205766E-01
       -2   -1    0    0    0  501  0.00000000000E+00  0.00000000000E+00  0.27366799238E+03  0.27366799240E+03  0.25500000920E-02 0. -1.
        2   -1    0    0  501    0  0.00000000000E+00  0.00000000000E+00 -0.11041712284E+04  0.11041712284E+04  0.25500000920E-02 0.  1.
    10030    2    1    2    0    0  0.00000000000E+00  0.00000000000E+00 -0.83050323597E+03  0.13778392207E+04  0.10994113394E+04 0.  0.
        4    1    3    3  502    0  0.43483945143E+03  0.13563327623E+03 -0.80090506230E+03  0.92137520363E+03  0.12699999809E+01 0.  1.
       -4    1    3    3    0  502 -0.43483945143E+03 -0.13563327623E+03 -0.29598173667E+02  0.45646401712E+03  0.12699999809E+01 0. -1.
</event>
<event>
 5   0  0.3523525E-04  0.1098355E+04  0.7818609E-02  0.9206797E-01
        1   -1    0    0  501    0  0.00000000000E+00  0.00000000000E+00  0.67983696291E+03  0.67983696293E+03  0.50400001928E-02 0.  1.
       -1   -1    0    0    0  501  0.00000000000E+00  0.00000000000E+00 -0.44362948388E+03  0.44362948391E+03  0.50400001928E-02 0. -1.
    10030    2    1    2    0    0  0.00000000000E+00  0.00000000000E+00  0.23620747903E+03  0.11234664468E+04  0.10983546258E+04 0.  0.
        5    1    3    3  502    0 -0.36283800422E+03  0.32176164049E+03  0.38166057726E+03  0.61714573387E+03  0.46999998093E+01 0.  1.
       -5    1    3    3    0  502  0.36283800422E+03 -0.32176164049E+03 -0.14545309823E+03  0.50632071297E+03  0.46999998093E+01 0. -1.
</event>
<event>
 5   0  0.6264830E-04  0.1102887E+04  0.7818609E-02  0.9202383E-01
        2   -1    0    0  501    0  0.00000000000E+00  0.00000000000E+00  0.14166874650E+04  0.14166874650E+04  0.25500000920E-02 0.  1.
       -2   -1    0    0    0  501  0.00000000000E+00  0.00000000000E+00 -0.21464855111E+03  0.21464855112E+03  0.25500000920E-02 0. -1.
    10030    2    1    2    0    0  0.00000000000E+00  0.00000000000E+00  0.12020389139E+04  0.16313360161E+04  0.11028869602E+04 0.  0.
        4    1    3    3  502    0  0.31453128372E+03  0.45287030823E+03  0.61311365891E+03  0.82457953901E+03  0.12699999809E+01 0. -1.
       -4    1    3    3    0  502 -0.31453128372E+03 -0.45287030823E+03  0.58892525500E+03  0.80675647713E+03  0.12699999809E+01 0.  1.
</event>
<event>
 5   0  0.3642161E-04  0.1100061E+04  0.7818609E-02  0.9205133E-01
       -1   -1    0    0    0  501  0.00000000000E+00  0.00000000000E+00  0.10044720140E+03  0.10044720153E+03  0.50400001928E-02 0. -1.
        1   -1    0    0  501    0  0.00000000000E+00  0.00000000000E+00 -0.30118658451E+04  0.30118658451E+04  0.50400001928E-02 0.  1.
    10030    2    1    2    0    0  0.00000000000E+00  0.00000000000E+00 -0.29114186437E+04  0.31123130466E+04  0.11000608989E+04 0.  0.
        2    1    3    3  502    0  0.12605859516E+03  0.51950084014E+03 -0.18219986960E+04  0.18988025544E+04  0.25500000920E-02 0.  1.
       -2    1    3    3    0  502 -0.12605859516E+03 -0.51950084014E+03 -0.10894199477E+04  0.12135104923E+04  0.25500000920E-02 0. -1.
</event>
<event>
 5   0  0.6245176E-04  0.1098978E+04  0.7818609E-02  0.9206189E-01
        2   -1    0    0  501    0  0.00000000000E+00  0.00000000000E+00  0.62711405864E+03  0.62711405865E+03  0.25500000920E-02 0.  1.
       -2   -1    0    0    0  501  0.00000000000E+00  0.00000000000E+00 -0.48147206325E+03  0.48147206325E+03  0.25500000920E-02 0. -1.
    10030    2    1    2    0    0  0.00000000000E+00  0.00000000000E+00  0.14564199540E+03  0.11085861219E+04  0.10989775243E+04 0.  0.
        5    1    3    3  502    0  0.48730173843E+03 -0.11198568239E+03  0.30265519214E+03  0.58448783791E+03  0.46999998093E+01 0.  1.
       -5    1    3    3    0  502 -0.48730173843E+03  0.11198568239E+03 -0.15701319674E+03  0.52409828399E+03  0.46999998093E+01 0. -1.
</event>
<event>
 5   0  0.3642161E-04  0.1098115E+04  0.7818609E-02  0.9207031E-01
       -1   -1    0    0    0  501  0.00000000000E+00  0.00000000000E+00  0.85375890875E+03  0.85375890876E+03  0.50400001928E-02 0.  1.
        1   -1    0    0  501    0  0.00000000000E+00  0.00000000000E+00 -0.35310201268E+03  0.35310201271E+03  0.50400001928E-02 0. -1.
    10030    2    1    2    0    0  0.00000000000E+00  0.00000000000E+00  0.50065689607E+03  0.12068609215E+04  0.10981147282E+04 0.  0.
        2    1    3    3  502    0  0.92366814699E+02  0.72172473979E+02  0.83984658593E+03  0.84798748951E+03  0.25500000920E-02 0.  1.
       -2    1    3    3    0  502 -0.92366814699E+02 -0.72172473979E+02 -0.33918968986E+03  0.35887343197E+03  0.25500000920E-02 0. -1.
</event>
<event>
 5   0  0.5948818E-04  0.1104684E+04  0.7818609E-02  0.9200638E-01
       -2   -1    0    0    0  501  0.00000000000E+00  0.00000000000E+00  0.79162345071E+03  0.79162345071E+03  0.25500000920E-02 0. -1.
        2   -1    0    0  501    0  0.00000000000E+00  0.00000000000E+00 -0.38538771537E+03  0.38538771538E+03  0.25500000920E-02 0.  1.
    10030    2    1    2    0    0  0.00000000000E+00  0.00000000000E+00  0.40623573534E+03  0.11770111661E+04  0.11046844855E+04 0.  0.
        3    1    3    3  502    0  0.49579496919E+02  0.32289457664E+03 -0.27142184428E+03  0.42472209961E+03  0.10100000352E+00 0.  1.
       -3    1    3    3    0  502 -0.49579496919E+02 -0.32289457664E+03  0.67765757962E+03  0.75228906649E+03  0.10100000352E+00 0. -1.
</event>
<event>
 5   0  0.2403875E-04  0.1099359E+04  0.7818609E-02  0.9205817E-01
       -4   -1    0    0    0  501  0.00000000000E+00  0.00000000000E+00  0.54047401755E+03  0.54047550966E+03  0.12699999809E+01 0. -1.
        4   -1    0    0  501    0  0.00000000000E+00  0.00000000000E+00 -0.55903847893E+03  0.55903992150E+03  0.12699999809E+01 0.  1.
    10030    2    1    2    0    0  0.00000000000E+00  0.00000000000E+00 -0.18564461385E+02  0.10995154312E+04  0.10993586968E+04 0.  0.
        4    1    3    3  502    0 -0.29037223204E+03 -0.41618842613E+03 -0.22053955442E+03  0.55332463089E+03  0.12699999809E+01 0. -1.
       -4    1    3    3    0  502  0.29037223204E+03  0.41618842613E+03  0.20197509303E+03  0.54619080027E+03  0.12699999809E+01 0.  1.
</event>
<event>
 5   0  0.6412712E-04  0.1100807E+04  0.7818609E-02  0.9204406E-01
        2   -1    0    0  501    0  0.00000000000E+00  0.00000000000E+00  0.47206869698E+03  0.47206869698E+03  0.25500000920E-02 0.  1.
       -2   -1    0    0    0  501  0.00000000000E+00  0.00000000000E+00 -0.64173696070E+03  0.64173696071E+03  0.25500000920E-02 0. -1.
    10030    2    1    2    0    0  0.00000000000E+00  0.00000000000E+00 -0.16966826373E+03  0.11138056577E+04  0.11008068511E+04 0.  0.
        2    1    3    3  502    0 -0.97600983096E+02 -0.12104325936E+03  0.44938396207E+03  0.47552430844E+03  0.25500000920E-02 0.  1.
       -2    1    3    3    0  502  0.97600983096E+02  0.12104325936E+03 -0.61905222580E+03  0.63828134926E+03  0.25500000920E-02 0. -1.
</event>
<event>
 5   0  0.3523525E-04  0.1100933E+04  0.7818609E-02  0.9204283E-01
        1   -1    0    0  501    0  0.00000000000E+00  0.00000000000E+00  0.28066648632E+03  0.28066648636E+03  0.50400001928E-02 0.  1.
       -1   -1    0    0    0  501  0.00000000000E+00  0.00000000000E+00 -0.10796215923E+04  0.10796215923E+04  0.50400001928E-02 0. -1.
    10030    2    1    2    0    0  0.00000000000E+00  0.00000000000E+00 -0.79895510601E+03  0.13602880787E+04  0.11009334202E+04 0.  0.
        5    1    3    3  502    0  0.68237244764E+02 -0.31419486997E+03  0.15255965365E+03  0.35590908363E+03  0.46999998093E+01 0.  1.
       -5    1    3    3    0  502 -0.68237244764E+02  0.31419486997E+03 -0.95151475966E+03  0.10043789951E+04  0.46999998093E+01 0. -1.
</event>
<event>
 5   0  0.6264830E-04  0.1101114E+04  0.7818609E-02  0.9204107E-01
       -2   -1    0    0    0  501  0.00000000000E+00  0.00000000000E+00  0.50789038391E+03  0.50789038392E+03  0.25500000920E-02 0. -1.
        2   -1    0    0  501    0  0.00000000000E+00  0.00000000000E+00 -0.59680763351E+03  0.59680763352E+03  0.25500000920E-02 0.  1.
    10030    2    1    2    0    0  0.00000000000E+00  0.00000000000E+00 -0.88917249601E+02  0.11046980174E+04  0.11011137237E+04 0.  0.
        4    1    3    3  502    0 -0.58123138363E+02  0.23571727380E+03  0.45128578876E+03  0.51244649322E+03  0.12699999809E+01 0. -1.
       -4    1    3    3    0  502  0.58123138363E+02 -0.23571727380E+03 -0.54020303836E+03  0.59225152421E+03  0.12699999809E+01 0.  1.
</event>
<event>
 5   0  0.6245176E-04  0.1100200E+04  0.7818609E-02  0.9204997E-01
        2   -1    0    0  501    0  0.00000000000E+00  0.00000000000E+00  0.62388480455E+03  0.62388480456E+03  0.25500000920E-02 0.  1.
       -2   -1    0    0    0  501  0.00000000000E+00  0.00000000000E+00 -0.48504162090E+03  0.48504162090E+03  0.25500000920E-02 0. -1.
    10030    2    1    2    0    0  0.00000000000E+00  0.00000000000E+00  0.13884318365E+03  0.11089264255E+04  0.11002001579E+04 0.  0.
        5    1    3    3  502    0 -0.10457746160E+03  0.69129298740E+02  0.60927474377E+03  0.62205555123E+03  0.46999998093E+01 0.  1.
       -5    1    3    3    0  502  0.10457746160E+03 -0.69129298740E+02 -0.47043156012E+03  0.48687087423E+03  0.46999998093E+01 0. -1.
</event>
<event>
 5   0  0.3657529E-04  0.1085947E+04  0.7818609E-02  0.9218998E-01
        1   -1    0    0  501    0  0.00000000000E+00  0.00000000000E+00  0.14373333664E+04  0.14373333664E+04  0.50400001928E-02 0.  1.
       -1   -1    0    0    0  501  0.00000000000E+00  0.00000000000E+00 -0.20511617754E+03  0.20511617761E+03  0.50400001928E-02 0. -1.
    10030    2    1    2    0    0  0.00000000000E+00  0.00000000000E+00  0.12322171888E+04  0.16424495440E+04  0.10859471921E+04 0.  0.
        4    1    3    3  502    0 -0.13583508500E+03  0.16845710259E+03 -0.13707385801E+03  0.25616366092E+03  0.12699999809E+01 0. -1.
       -4    1    3    3    0  502  0.13583508500E+03 -0.16845710259E+03  0.13692910468E+04  0.13862858831E+04  0.12699999809E+01 0.  1.
</event>
<event>
 5   0  0.2403875E-04  0.1102802E+04  0.7818609E-02  0.9202465E-01
       -4   -1    0    0    0  501  0.00000000000E+00  0.00000000000E+00  0.18260295186E+03  0.18260736822E+03  0.12699999809E+01 0.  1.
        4   -1    0    0  501    0  0.00000000000E+00  0.00000000000E+00 -0.16650259574E+04  0.16650264417E+04  0.12699999809E+01 0. -1.
    10030    2    1    2    0    0  0.00000000000E+00  0.00000000000E+00 -0.14824230055E+04  0.18476338099E+04  0.11028022163E+04 0.  0.
        1    1    3    3  502    0 -0.12904452107E+03 -0.20294863608E+03  0.90101434672E+02  0.25682465976E+03  0.50400001928E-02 0.  1.
       -1    1    3    3    0  502  0.12904452107E+03  0.20294863608E+03 -0.15725244402E+04  0.15908091502E+04  0.50400001928E-02 0. -1.
</event>
<event>
 5   0  0.6245176E-04  0.1097895E+04  0.7818609E-02  0.9207246E-01
       -2   -1    0    0    0  501  0.00000000000E+00  0.00000000000E+00  0.43785666243E+03  0.43785666244E+03  0.25500000920E-02 0.  1.
        2   -1    0    0  501    0  0.00000000000E+00  0.00000000000E+00 -0.68822383409E+03  0.68822383410E+03  0.25500000920E-02 0. -1.
    10030    2    1    2    0    0  0.00000000000E+00  0.00000000000E+00 -0.25036717166E+03  0.11260804965E+04  0.10978950606E+04 0.  0.
        5    1    3    3  502    0 -0.27662734851E+03  0.29349428836E+03  0.25674639859E+03  0.47812382332E+03  0.46999998093E+01 0.  1.
       -5    1    3    3    0  502  0.27662734851E+03 -0.29349428836E+03 -0.50711357024E+03  0.64795667322E+03  0.46999998093E+01 0. -1.
</event>
<event>
 5   0  0.3621403E-04  0.1100418E+04  0.7818609E-02  0.9204784E-01
        1   -1    0    0  501    0  0.00000000000E+00  0.00000000000E+00  0.11626031777E+04  0.11626031777E+04  0.50400001928E-02 0.  1.
       -1   -1    0    0    0  501  0.00000000000E+00  0.00000000000E+00 -0.26038979433E+03  0.26038979438E+03  0.50400001928E-02 0. -1.
    10030    2    1    2    0    0  0.00000000000E+00  0.00000000000E+00  0.90221338339E+03  0.14229929721E+04  0.11004181067E+04 0.  0.
        3    1    3    3  502    0  0.94903903284E+02 -0.19593765654E+03 -0.20232075906E+03  0.29720702525E+03  0.10100000352E+00 0. -1.
       -3    1    3    3    0  502 -0.94903903284E+02  0.19593765654E+03  0.11045341424E+04  0.11257859469E+04  0.10100000352E+00 0.  1.
</event>
<event>
 5   0  0.6109149E-04  0.1101891E+04  0.7818609E-02  0.9203351E-01
        2   -1    0    0  501    0  0.00000000000E+00  0.00000000000E+00  0.51960397244E+03  0.51960397245E+03  0.25500000920E-02 0. -1.
       -2   -1    0    0    0  501  0.00000000000E+00  0.00000000000E+00 -0.58417735718E+03  0.58417735719E+03  0.25500000920E-02 0.  1.
    10030    2    1    2    0    0  0.00000000000E+00  0.00000000000E+00 -0.64573384741E+02  0.11037813296E+04  0.11018908756E+04 0.  0.
        1    1    3    3  502    0 -0.36765264949E+03 -0.36223283919E+03  0.16081273873E+03  0.54059396725E+03  0.50400001928E-02 0.  1.
       -1    1    3    3    0  502  0.36765264949E+03  0.36223283919E+03 -0.22538612347E+03  0.56318736238E+03  0.50400001928E-02 0. -1.
</event>
<event>
 5   0  0.3423758E-04  0.1101234E+04  0.7818609E-02  0.9203990E-01
        1   -1    0    0  501    0  0.00000000000E+00  0.00000000000E+00  0.22711727693E+03  0.22711727699E+03  0.50400001928E-02 0.  1.
       -1   -1    0    0    0  501  0.00000000000E+00  0.00000000000E+00 -0.13349007942E+04  0.13349007942E+04  0.50400001928E-02 0. -1.
    10030    2    1    2    0    0  0.00000000000E+00  0.00000000000E+00 -0.11077835173E+04  0.15620180712E+04  0.11012339141E+04 0.  0.
        1    1    3    3  502    0  0.11486664132E+03 -0.29680918782E+02  0.20877237793E+03  0.24012748290E+03  0.50400001928E-02 0.  1.
       -1    1    3    3    0  502 -0.11486664132E+03  0.29680918782E+02 -0.13165558952E+04  0.13218905883E+04  0.50400001928E-02 0. -1.
</event>
<event>
 5   0  0.6109149E-04  0.1100536E+04  0.7818609E-02  0.9204670E-01
       -2   -1    0    0    0  501  0.00000000000E+00  0.00000000000E+00  0.19210777681E+03  0.19210777682E+03  0.25500000920E-02 0. -1.
        2   -1    0    0  501    0  0.00000000000E+00  0.00000000000E+00 -0.15761712282E+04  0.15761712282E+04  0.25500000920E-02 0.  1.
    10030    2    1    2    0    0  0.00000000000E+00  0.00000000000E+00 -0.13840634514E+04  0.17682790051E+04  0.11005357796E+04 0.  0.
        1    1    3    3  502    0  0.34160739989E+02  0.32354689848E+03 -0.14050806402E+04  0.14422555796E+04  0.50400001928E-02 0.  1.
       -1    1    3    3    0  502 -0.34160739989E+02 -0.32354689848E+03  0.21017188718E+02  0.32602342542E+03  0.50400001928E-02 0. -1.
</event>
<event>
 5   0  0.6109149E-04  0.1101462E+04  0.7818609E-02  0.9203768E-01
       -2   -1    0    0    0  501  0.00000000000E+00  0.00000000000E+00  0.22476661955E+03  0.22476661956E+03  0.25500000920E-02 0.  1.
        2   -1    0    0  501    0  0.00000000000E+00  0.00000000000E+00 -0.13494192717E+04  0.13494192717E+04  0.25500000920E-02 0. -1.
    10030    2    1    2    0    0  0.00000000000E+00  0.00000000000E+00 -0.11246526522E+04  0.15741858913E+04  0.11014615891E+04 0.  0.
        1    1    3    3  502    0  0.22758712376E+03  0.48276875061E+03 -0.75641517688E+03  0.92575670957E+03  0.50400001928E-02 0. -1.
       -1    1    3    3    0  502 -0.22758712376E+03 -0.48276875061E+03 -0.36823747529E+03  0.64842918171E+03  0.50400001928E-02 0.  1.
</event>
<event>
 5   0  0.6245176E-04  0.1098830E+04  0.7818609E-02  0.9206333E-01
        2   -1    0    0  501    0  0.00000000000E+00  0.00000000000E+00  0.34538692473E+03  0.34538692474E+03  0.25500000920E-02 0. -1.
       -2   -1    0    0    0  501  0.00000000000E+00  0.00000000000E+00 -0.87396685172E+03  0.87396685173E+03  0.25500000920E-02 0.  1.
    10030    2    1    2    0    0  0.00000000000E+00  0.00000000000E+00 -0.52857992699E+03  0.12193537765E+04  0.10988297834E+04 0.  0.
        5    1    3    3  502    0 -0.20662447939E+03  0.17845094620E+03  0.26475844185E+03  0.38033871512E+03  0.46999998093E+01 0. -1.
       -5    1    3    3    0  502  0.20662447939E+03 -0.17845094620E+03 -0.79333836885E+03  0.83901506135E+03  0.46999998093E+01 0.  1.
</event>
<event>
 5   0  0.5948818E-04  0.1100735E+04  0.7818609E-02  0.9204476E-01
        2   -1    0    0  501    0  0.00000000000E+00  0.00000000000E+00  0.66962869734E+03  0.66962869734E+03  0.25500000920E-02 0. -1.
       -2   -1    0    0    0  501  0.00000000000E+00  0.00000000000E+00 -0.45234665254E+03  0.45234665255E+03  0.25500000920E-02 0.  1.
    10030    2    1    2    0    0  0.00000000000E+00  0.00000000000E+00  0.21728204479E+03  0.11219753499E+04  0.11007348449E+04 0.  0.
        3    1    3    3  502    0  0.21360444705E+03 -0.31515099265E+03 -0.29646661055E+03  0.48253442296E+03  0.10100000352E+00 0.  1.
       -3    1    3    3    0  502 -0.21360444705E+03  0.31515099265E+03  0.51374865534E+03  0.63944092693E+03  0.10100000352E+00 0. -1.
</event>
<event>
 5   0  0.3642161E-04  0.1100474E+04  0.7818609E-02  0.9204730E-01
       -1   -1    0    0    0  501  0.00000000000E+00  0.00000000000E+00  0.48892469279E+03  0.48892469282E+03  0.50400001928E-02 0.  1.
        1   -1    0    0  501    0  0.00000000000E+00  0.00000000000E+00 -0.61923793665E+03  0.61923793667E+03  0.50400001928E-02 0. -1.
    10030    2    1    2    0    0  0.00000000000E+00  0.00000000000E+00 -0.13031324386E+03  0.11081626295E+04  0.11004739306E+04 0.  0.
        2    1    3    3  502    0 -0.26580466649E+03 -0.41093629929E+03  0.18807592218E+03  0.52430269436E+03  0.25500000920E-02 0.  1.
       -2    1    3    3    0  502  0.26580466649E+03  0.41093629929E+03 -0.31838916604E+03  0.58385993514E+03  0.25500000920E-02 0. -1.
</event>
<event>
 5   0  0.3621403E-04  0.1099315E+04  0.7818609E-02  0.9205860E-01
       -1   -1    0    0    0  501  0.00000000000E+00  0.00000000000E+00  0.99701296111E+03  0.99701296113E+03  0.50400001928E-02 0. -1.
        1   -1    0    0  501    0  0.00000000000E+00  0.00000000000E+00 -0.30302860171E+03  0.30302860175E+03  0.50400001928E-02 0.  1.
    10030    2    1    2    0    0  0.00000000000E+00  0.00000000000E+00  0.69398435941E+03  0.13000415629E+04  0.10993151387E+04 0.  0.
        3    1    3    3  502    0  0.15658345781E+03  0.10692899632E+03 -0.26312828933E+03  0.32432806903E+03  0.10100000352E+00 0.  1.
       -3    1    3    3    0  502 -0.15658345781E+03 -0.10692899632E+03  0.95711264873E+03  0.97571349385E+03  0.10100000352E+00 0. -1.
</event>
<event>
 5   0  0.2403875E-04  0.1109127E+04  0.7818609E-02  0.9196341E-01
        3   -1    0    0  501    0  0.00000000000E+00  0.00000000000E+00  0.66910054873E+03  0.66910055635E+03  0.10100000352E+00 0.  1.
       -3   -1    0    0    0  501  0.00000000000E+00  0.00000000000E+00 -0.45963303406E+03  0.45963304516E+03  0.10100000352E+00 0. -1.
    10030    2    1    2    0    0  0.00000000000E+00  0.00000000000E+00  0.20946751467E+03  0.11287336015E+04  0.11091270908E+04 0.  0.
        2    1    3    3  502    0  0.54932310835E+03 -0.79458521694E+01  0.18171291153E+03  0.57865239666E+03  0.25500000920E-02 0.  1.
       -2    1    3    3    0  502 -0.54932310835E+03  0.79458521694E+01  0.27754603143E+02  0.55008120486E+03  0.25500000920E-02 0. -1.
</event>
<event>
 5   0  0.2403875E-04  0.1098113E+04  0.7818609E-02  0.9207033E-01
        3   -1    0    0  501    0  0.00000000000E+00  0.00000000000E+00  0.69698831153E+03  0.69698831885E+03  0.10100000352E+00 0.  1.
       -3   -1    0    0    0  501  0.00000000000E+00  0.00000000000E+00 -0.43252265976E+03  0.43252267155E+03  0.10100000352E+00 0. -1.
    10030    2    1    2    0    0  0.00000000000E+00  0.00000000000E+00  0.26446565177E+03  0.11295109904E+04  0.10981133805E+04 0.  0.
        5    1    3    3  502    0 -0.50831380968E+03  0.90387957851E+02  0.32435737102E+03  0.60973986762E+03  0.46999998093E+01 0.  1.
       -5    1    3    3    0  502  0.50831380968E+03 -0.90387957851E+02 -0.59891719251E+02  0.51977112278E+03  0.46999998093E+01 0. -1.
</event>
<event>
 5   0  0.3642161E-04  0.1101022E+04  0.7818609E-02  0.9204197E-01
        1   -1    0    0  501    0  0.00000000000E+00  0.00000000000E+00  0.13397870239E+04  0.13397870239E+04  0.50400001928E-02 0. -1.
       -1   -1    0    0    0  501  0.00000000000E+00  0.00000000000E+00 -0.22620177391E+03  0.22620177397E+03  0.50400001928E-02 0.  1.
    10030    2    1    2    0    0  0.00000000000E+00  0.00000000000E+00  0.11135852500E+04  0.15659887979E+04  0.11010217101E+04 0.  0.
        2    1    3    3  502    0  0.50137705159E+03 -0.17180957897E+03  0.76854286683E+03  0.93357143136E+03  0.25500000920E-02 0. -1.
       -2    1    3    3    0  502 -0.50137705159E+03  0.17180957897E+03  0.34504238314E+03  0.63241736651E+03  0.25500000920E-02 0.  1.
</event>
<event>
 5   0  0.3423758E-04  0.1100792E+04  0.7818609E-02  0.9204420E-01
       -1   -1    0    0    0  501  0.00000000000E+00  0.00000000000E+00  0.32764748328E+03  0.32764748331E+03  0.50400001928E-02 0. -1.
        1   -1    0    0  501    0  0.00000000000E+00  0.00000000000E+00 -0.92457803637E+03  0.92457803638E+03  0.50400001928E-02 0.  1.
    10030    2    1    2    0    0  0.00000000000E+00  0.00000000000E+00 -0.59693055309E+03  0.12522255197E+04  0.11007918363E+04 0.  0.
        1    1    3    3  502    0 -0.16883775158E+03  0.42232160871E+03  0.54132970633E+02  0.45803068246E+03  0.50400001928E-02 0. -1.
       -1    1    3    3    0  502  0.16883775158E+03 -0.42232160871E+03 -0.65106352372E+03  0.79419483723E+03  0.50400001928E-02 0.  1.
</event>
<event>
 5   0  0.6109149E-04  0.1099214E+04  0.7818609E-02  0.9205959E-01
       -2   -1    0    0    0  501  0.00000000000E+00  0.00000000000E+00  0.37468098901E+03  0.37468098902E+03  0.25500000920E-02 0. -1.
        2   -1    0    0  501    0  0.00000000000E+00  0.00000000000E+00 -0.80619945351E+03  0.80619945351E+03  0.25500000920E-02 0.  1.
    10030    2    1    2    0    0  0.00000000000E+00  0.00000000000E+00 -0.43151846450E+03  0.11808804425E+04  0.10992135527E+04 0.  0.
        1    1    3    3  502    0 -0.25842153525E+03 -0.43541494060E+03 -0.44541679901E+03  0.67436190970E+03  0.50400001928E-02 0.  1.
       -1    1    3    3    0  502  0.25842153525E+03  0.43541494060E+03  0.13898334516E+02  0.50651853284E+03  0.50400001928E-02 0. -1.
</event>
<event>
 5   0  0.3621403E-04  0.1098444E+04  0.7818609E-02  0.9206710E-01
        1   -1    0    0  501    0  0.00000000000E+00  0.00000000000E+00  0.12613736713E+04  0.12613736713E+04  0.50400001928E-02 0.  1.
       -1   -1    0    0    0  501  0.00000000000E+00  0.00000000000E+00 -0.23913995467E+03  0.23913995472E+03  0.50400001928E-02 0. -1.
    10030    2    1    2    0    0  0.00000000000E+00  0.00000000000E+00  0.10222337166E+04  0.15005136260E+04  0.10984440680E+04 0.  0.
        3    1    3    3  502    0  0.97028089610E+01  0.35519362399E+03 -0.60970239399E+02  0.36051911921E+03  0.10100000352E+00 0. -1.
       -3    1    3    3    0  502 -0.97028089610E+01 -0.35519362399E+03  0.10832039560E+04  0.11399945068E+04  0.10100000352E+00 0.  1.
</event>
<event>
 5   0  0.6412712E-04  0.1085280E+04  0.7818609E-02  0.9219658E-01
       -2   -1    0    0    0  501  0.00000000000E+00  0.00000000000E+00  0.11181292957E+04  0.11181292958E+04  0.25500000920E-02 0. -1.
        2   -1    0    0  501    0  0.00000000000E+00  0.00000000000E+00 -0.26334915245E+03  0.26334915246E+03  0.25500000920E-02 0.  1.
    10030    2    1    2    0    0  0.00000000000E+00  0.00000000000E+00  0.85478014330E+03  0.13814784482E+04  0.10852804290E+04 0.  0.
        2    1    3    3  502    0 -0.43495526558E+02 -0.41402970672E+03 -0.15663845880E+02  0.41660270637E+03  0.25500000920E-02 0.  1.
       -2    1    3    3    0  502  0.43495526558E+02  0.41402970672E+03  0.87044398918E+03  0.96487574184E+03  0.25500000920E-02 0. -1.
</event>
<event>
 5   0  0.3523525E-04  0.1093836E+04  0.7818609E-02  0.9211220E-01
        1   -1    0    0  501    0  0.00000000000E+00  0.00000000000E+00  0.72014933802E+03  0.72014933804E+03  0.50400001928E-02 0.  1.
       -1   -1    0    0    0  501  0.00000000000E+00  0.00000000000E+00 -0.41535748084E+03  0.41535748087E+03  0.50400001928E-02 0. -1.
    10030    2    1    2    0    0  0.00000000000E+00  0.00000000000E+00  0.30479185719E+03  0.11355068189E+04  0.10938362124E+04 0.  0.
        5    1    3    3  502    0  0.50002702289E+03 -0.21787173311E+03  0.11084343816E+03  0.55659992229E+03  0.46999998093E+01 0.  1.
       -5    1    3    3    0  502 -0.50002702289E+03  0.21787173311E+03  0.19394841903E+03  0.57890689662E+03  0.46999998093E+01 0. -1.
</event>
<event>
 5   0  0.6264830E-04  0.1100680E+04  0.7818609E-02  0.9204529E-01
        2   -1    0    0  501    0  0.00000000000E+00  0.00000000000E+00  0.11843349907E+04  0.11843349907E+04  0.25500000920E-02 0. -1.
       -2   -1    0    0    0  501  0.00000000000E+00  0.00000000000E+00 -0.25573363510E+03  0.25573363511E+03  0.25500000920E-02 0.  1.
    10030    2    1    2    0    0  0.00000000000E+00  0.00000000000E+00  0.92860135562E+03  0.14400686258E+04  0.11006803212E+04 0.  0.
        4    1    3    3  502    0 -0.23841429048E+03 -0.12899039696E+03  0.10909316576E+04  0.11241055960E+04  0.12699999809E+01 0. -1.
       -4    1    3    3    0  502  0.23841429048E+03  0.12899039696E+03 -0.16233030197E+03  0.31596302988E+03  0.12699999809E+01 0.  1.
</event>
<event>
 5   0  0.6109149E-04  0.1100876E+04  0.7818609E-02  0.9204339E-01
        2   -1    0    0  501    0  0.00000000000E+00  0.00000000000E+00  0.22539794758E+03  0.22539794760E+03  0.25500000920E-02 0.  1.
       -2   -1    0    0    0  501  0.00000000000E+00  0.00000000000E+00 -0.13442084135E+04  0.13442084135E+04  0.25500000920E-02 0. -1.
    10030    2    1    2    0    0  0.00000000000E+00  0.00000000000E+00 -0.11188104660E+04  0.15696063611E+04  0.11008756834E+04 0.  0.
        1    1    3    3  502    0 -0.30176978600E+03  0.45427779769E+03 -0.45320141692E+03  0.70910143530E+03  0.50400001928E-02 0.  1.
       -1    1    3    3    0  502  0.30176978600E+03 -0.45427779769E+03 -0.66560904904E+03  0.86050492584E+03  0.50400001928E-02 0. -1.
</event>
<event>
 5   0  0.6109149E-04  0.1101231E+04  0.7818609E-02  0.9203993E-01
        2   -1    0    0  501    0  0.00000000000E+00  0.00000000000E+00  0.21584629375E+04  0.21584629375E+04  0.25500000920E-02 0.  1.
       -2   -1    0    0    0  501  0.00000000000E+00  0.00000000000E+00 -0.14045991936E+03  0.14045991938E+03  0.25500000920E-02 0. -1.
    10030    2    1    2    0    0  0.00000000000E+00  0.00000000000E+00  0.20180030181E+04  0.22989228569E+04  0.11012311840E+04 0.  0.
        1    1    3    3  502    0  0.69386564818E+02 -0.54266730717E+03  0.11389569762E+04  0.12635368199E+04  0.50400001928E-02 0.  1.
       -1    1    3    3    0  502 -0.69386564818E+02  0.54266730717E+03  0.87904604198E+03  0.10353860370E+04  0.50400001928E-02 0. -1.
</event>
<event>
 5   0  0.3657529E-04  0.1099881E+04  0.7818609E-02  0.9205307E-01
        1   -1    0    0  501    0  0.00000000000E+00  0.00000000000E+00  0.65237458017E+03  0.65237458019E+03  0.50400001928E-02 0.  1.
       -1   -1    0    0    0  501  0.00000000000E+00  0.00000000000E+00 -0.46359065702E+03  0.46359065704E+03  0.50400001928E-02 0. -1.
    10030    2    1    2    0    0  0.00000000000E+00  0.00000000000E+00  0.18878392316E+03  0.11159652372E+04  0.10998813759E+04 0.  0.
        4    1    3    3  502    0  0.32918563560E+02 -0.39123619133E+03 -0.29631541451E+03  0.49188802283E+03  0.12699999809E+01 0. -1.
       -4    1    3    3    0  502 -0.32918563560E+02  0.39123619133E+03  0.48509933767E+03  0.62407721440E+03  0.12699999809E+01 0.  1.
</event>
<event>
 5   0  0.6264830E-04  0.1101844E+04  0.7818609E-02  0.9203397E-01
       -2   -1    0    0    0  501  0.00000000000E+00  0.00000000000E+00  0.34086443023E+03  0.34086443024E+03  0.25500000920E-02 0.  1.
        2   -1    0    0  501    0  0.00000000000E+00  0.00000000000E+00 -0.89042728442E+03  0.89042728442E+03  0.25500000920E-02 0. -1.
    10030    2    1    2    0    0  0.00000000000E+00  0.00000000000E+00 -0.54956285418E+03  0.12312917147E+04  0.11018438891E+04 0.  0.
        4    1    3    3  502    0  0.27031252461E+03  0.39552529062E+03 -0.57877839273E+03  0.75132892748E+03  0.12699999809E+01 0. -1.
       -4    1    3    3    0  502 -0.27031252461E+03 -0.39552529062E+03  0.29215538542E+02  0.47996278718E+03  0.12699999809E+01 0.  1.
</event>
<event>
 5   0  0.6264830E-04  0.1100762E+04  0.7818609E-02  0.9204449E-01
        2   -1    0    0  501    0  0.00000000000E+00  0.00000000000E+00  0.11439178263E+04  0.11439178263E+04  0.25500000920E-02 0. -1.
       -2   -1    0    0    0  501  0.00000000000E+00  0.00000000000E+00 -0.26480874389E+03  0.26480874390E+03  0.25500000920E-02 0.  1.
    10030    2    1    2    0    0  0.00000000000E+00  0.00000000000E+00  0.87910908240E+03  0.14087265702E+04  0.11007623589E+04 0.  0.
        4    1    3    3  502    0 -0.62352042165E+02  0.35977213630E+03 -0.87479245554E+02  0.37547036970E+03  0.12699999809E+01 0.  1.
       -4    1    3    3    0  502  0.62352042165E+02 -0.35977213630E+03  0.96658832796E+03  0.10332562005E+04  0.12699999809E+01 0. -1.
</event>
<event>
 5   0  0.2403875E-04  0.1100020E+04  0.7818609E-02  0.9205173E-01
       -4   -1    0    0    0  501  0.00000000000E+00  0.00000000000E+00  0.62018500671E+03  0.62018630705E+03  0.12699999809E+01 0.  1.
        4   -1    0    0  501    0  0.00000000000E+00  0.00000000000E+00 -0.48777253649E+03  0.48777418982E+03  0.12699999809E+01 0. -1.
    10030    2    1    2    0    0  0.00000000000E+00  0.00000000000E+00  0.13241247022E+03  0.11079604969E+04  0.11000197273E+04 0.  0.
        3    1    3    3  502    0 -0.37764887582E+03  0.33653417318E+02  0.46752902237E+03  0.60194237504E+03  0.10100000352E+00 0.  1.
       -3    1    3    3    0  502  0.37764887582E+03 -0.33653417318E+02 -0.33511655215E+03  0.50601812184E+03  0.10100000352E+00 0. -1.
</event>
<event>
 5   0  0.6109149E-04  0.1103263E+04  0.7818609E-02  0.9202018E-01
       -2   -1    0    0    0  501  0.00000000000E+00  0.00000000000E+00  0.38048661282E+03  0.38048661283E+03  0.25500000920E-02 0.  1.
        2   -1    0    0  501    0  0.00000000000E+00  0.00000000000E+00 -0.79975755441E+03  0.79975755442E+03  0.25500000920E-02 0. -1.
    10030    2    1    2    0    0  0.00000000000E+00  0.00000000000E+00 -0.41927094159E+03  0.11802441672E+04  0.11032625127E+04 0.  0.
        1    1    3    3  502    0 -0.27507603278E+02  0.45747750199E+03 -0.53806676494E+03  0.70679429583E+03  0.50400001928E-02 0. -1.
       -1    1    3    3    0  502  0.27507603278E+02 -0.45747750199E+03  0.11879582334E+03  0.47344987141E+03  0.50400001928E-02 0.  1.
</event>
<event>
 5   0  0.3621403E-04  0.1099694E+04  0.7818609E-02  0.9205490E-01
        1   -1    0    0  501    0  0.00000000000E+00  0.00000000000E+00  0.91588902810E+03  0.91588902811E+03  0.50400001928E-02 0.  1.
       -1   -1    0    0    0  501  0.00000000000E+00  0.00000000000E+00 -0.33009630534E+03  0.33009630538E+03  0.50400001928E-02 0. -1.
    10030    2    1    2    0    0  0.00000000000E+00  0.00000000000E+00  0.58579272275E+03  0.12459853335E+04  0.10996937470E+04 0.  0.
        3    1    3    3  502    0 -0.32580942531E+03  0.11636367509E+03 -0.19131868102E+03  0.39534179441E+03  0.10100000352E+00 0. -1.
       -3    1    3    3    0  502  0.32580942531E+03 -0.11636367509E+03  0.77711140378E+03  0.85064353908E+03  0.10100000352E+00 0.  1.
</event>
<event>
 5   0  0.3523525E-04  0.1099866E+04  0.7818609E-02  0.9205323E-01
        1   -1    0    0  501    0  0.00000000000E+00  0.00000000000E+00  0.42247522935E+03  0.42247522938E+03  0.50400001928E-02 0. -1.
       -1   -1    0    0    0  501  0.00000000000E+00  0.00000000000E+00 -0.71584354474E+03  0.71584354476E+03  0.50400001928E-02 0.  1.
    10030    2    1    2    0    0  0.00000000000E+00  0.00000000000E+00 -0.29336831539E+03  0.11383187741E+04  0.10998657478E+04 0.  0.
        5    1    3    3  502    0 -0.24776286533E+03  0.20900509832E+02  0.36095452679E+03  0.43833038813E+03  0.46999998093E+01 0. -1.
       -5    1    3    3    0  502  0.24776286533E+03 -0.20900509832E+02 -0.65432284218E+03  0.69998838601E+03  0.46999998093E+01 0.  1.
</event>
<event>
 5   0  0.3523525E-04  0.1099497E+04  0.7818609E-02  0.9205682E-01
        1   -1    0    0  501    0  0.00000000000E+00  0.00000000000E+00  0.13424692588E+04  0.13424692589E+04  0.50400001928E-02 0.  1.
       -1   -1    0    0    0  501  0.00000000000E+00  0.00000000000E+00 -0.22512515459E+03  0.22512515464E+03  0.50400001928E-02 0. -1.
    10030    2    1    2    0    0  0.00000000000E+00  0.00000000000E+00  0.11173441043E+04  0.15675944135E+04  0.10994973387E+04 0.  0.
        5    1    3    3  502    0 -0.37116745678E+03 -0.29846616679E+03  0.95004714759E+03  0.10627600888E+04  0.46999998093E+01 0.  1.
       -5    1    3    3    0  502  0.37116745678E+03  0.29846616679E+03  0.16729695667E+03  0.50483432470E+03  0.46999998093E+01 0. -1.
</event>
<event>
 5   0  0.3642161E-04  0.1098318E+04  0.7818609E-02  0.9206833E-01
       -1   -1    0    0    0  501  0.00000000000E+00  0.00000000000E+00  0.33732910028E+03  0.33732910032E+03  0.50400001928E-02 0. -1.
        1   -1    0    0  501    0  0.00000000000E+00  0.00000000000E+00 -0.89401024858E+03  0.89401024859E+03  0.50400001928E-02 0.  1.
    10030    2    1    2    0    0  0.00000000000E+00  0.00000000000E+00 -0.55668114830E+03  0.12313393489E+04  0.10983181194E+04 0.  0.
        2    1    3    3  502    0 -0.44878633895E+03  0.71673640781E+02  0.67263271823E+02  0.45942424463E+03  0.25500000920E-02 0. -1.
       -2    1    3    3    0  502  0.44878633895E+03 -0.71673640781E+02 -0.62394442012E+03  0.77191510428E+03  0.25500000920E-02 0.  1.
</event>
<event>
 5   0  0.5948818E-04  0.1096766E+04  0.7818609E-02  0.9208350E-01
       -2   -1    0    0    0  501  0.00000000000E+00  0.00000000000E+00  0.23665535909E+03  0.23665535910E+03  0.25500000920E-02 0.  1.
        2   -1    0    0  501    0  0.00000000000E+00  0.00000000000E+00 -0.12707240875E+04  0.12707240875E+04  0.25500000920E-02 0. -1.
    10030    2    1    2    0    0  0.00000000000E+00  0.00000000000E+00 -0.10340687284E+04  0.15073794466E+04  0.10967655451E+04 0.  0.
        3    1    3    3  502    0 -0.16726217981E+03  0.25754291279E+03 -0.11414636661E+04  0.11820508872E+04  0.10100000352E+00 0. -1.
       -3    1    3    3    0  502  0.16726217981E+03 -0.25754291279E+03  0.10739493768E+03  0.32532855940E+03  0.10100000352E+00 0.  1.
</event>
<event>
 5   0  0.6245176E-04  0.1100650E+04  0.7818609E-02  0.9204558E-01
       -2   -1    0    0    0  501  0.00000000000E+00  0.00000000000E+00  0.19754806722E+03  0.19754806723E+03  0.25500000920E-02 0. -1.
        2   -1    0    0  501    0  0.00000000000E+00  0.00000000000E+00 -0.15330836261E+04  0.15330836261E+04  0.25500000920E-02 0.  1.
    10030    2    1    2    0    0  0.00000000000E+00  0.00000000000E+00 -0.13355355589E+04  0.17306316933E+04  0.11006501846E+04 0.  0.
        5    1    3    3  502    0 -0.11423608495E+03 -0.20091398289E+03  0.11750469528E+03  0.25931786486E+03  0.46999998093E+01 0. -1.
       -5    1    3    3    0  502  0.11423608495E+03  0.20091398289E+03 -0.14530402542E+04  0.14713138285E+04  0.46999998093E+01 0.  1.
</event>
<event>
 5   0  0.6412712E-04  0.1099684E+04  0.7818609E-02  0.9205500E-01
       -2   -1    0    0    0  501  0.00000000000E+00  0.00000000000E+00  0.41874584220E+03  0.41874584221E+03  0.25500000920E-02 0.  1.
        2   -1    0    0  501    0  0.00000000000E+00  0.00000000000E+00 -0.72197983132E+03  0.72197983132E+03  0.25500000920E-02 0. -1.
    10030    2    1    2    0    0  0.00000000000E+00  0.00000000000E+00 -0.30323398912E+03  0.11407256735E+04  0.10996836864E+04 0.  0.
        2    1    3    3  502    0  0.23362870111E+03 -0.47973255959E+03 -0.28923464304E+03  0.60694511898E+03  0.25500000920E-02 0. -1.
       -2    1    3    3    0  502 -0.23362870111E+03  0.47973255959E+03 -0.13999346074E+02  0.53378055454E+03  0.25500000920E-02 0.  1.
</event>
<event>
 5   0  0.3642161E-04  0.1096882E+04  0.7818609E-02  0.9208236E-01
       -1   -1    0    0    0  501  0.00000000000E+00  0.00000000000E+00  0.52513503287E+03  0.52513503290E+03  0.50400001928E-02 0.  1.
        1   -1    0    0  501    0  0.00000000000E+00  0.00000000000E+00 -0.57278117823E+03  0.57278117825E+03  0.50400001928E-02 0. -1.
    10030    2    1    2    0    0  0.00000000000E+00  0.00000000000E+00 -0.47646145352E+02  0.10979162111E+04  0.10968818767E+04 0.  0.
        2    1    3    3  502    0  0.31028425607E+03 -0.44671346679E+03 -0.94304114691E+02  0.55201676336E+03  0.25500000920E-02 0. -1.
       -2    1    3    3    0  502 -0.31028425607E+03  0.44671346679E+03  0.46657969339E+02  0.54589944778E+03  0.25500000920E-02 0.  1.
</event>
<event>
 5   0  0.6109149E-04  0.1099871E+04  0.7818609E-02  0.9205318E-01
        2   -1    0    0  501    0  0.00000000000E+00  0.00000000000E+00  0.83199576938E+03  0.83199576939E+03  0.25500000920E-02 0. -1.
       -2   -1    0    0    0  501  0.00000000000E+00  0.00000000000E+00 -0.36349819627E+03  0.36349819628E+03  0.25500000920E-02 0.  1.
    10030    2    1    2    0    0  0.00000000000E+00  0.00000000000E+00  0.46849757311E+03  0.11954939657E+04  0.10998708315E+04 0.  0.
        1    1    3    3  502    0 -0.71495999228E+02  0.23502176223E+03  0.76904337268E+03  0.80732559461E+03  0.50400001928E-02 0. -1.
       -1    1    3    3    0  502  0.71495999228E+02 -0.23502176223E+03 -0.30054579957E+03  0.38816837106E+03  0.50400001928E-02 0.  1.
</event>
<event>
 5   0  0.2403875E-04  0.1097484E+04  0.7818609E-02  0.9207648E-01
        3   -1    0    0  501    0  0.00000000000E+00  0.00000000000E+00  0.71393786459E+03  0.71393787174E+03  0.10100000352E+00 0. -1.
       -3   -1    0    0    0  501  0.00000000000E+00  0.00000000000E+00 -0.42177007382E+03  0.42177008591E+03  0.10100000352E+00 0.  1.
    10030    2    1    2    0    0  0.00000000000E+00  0.00000000000E+00  0.29216779078E+03  0.11357079576E+04  0.10974837343E+04 0.  0.
        2    1    3    3  502    0  0.98497513047E+02 -0.29483628578E+03  0.61403653008E+03  0.68823764484E+03  0.25500000920E-02 0. -1.
       -2    1    3    3    0  502 -0.98497513047E+02  0.29483628578E+03 -0.32186873931E+03  0.44747031280E+03  0.25500000920E-02 0.  1.
</event>
<event>
 5   0  0.2403875E-04  0.1098773E+04  0.7818609E-02  0.9206388E-01
       -4   -1    0    0    0  501  0.00000000000E+00  0.00000000000E+00  0.63772506067E+03  0.63772632525E+03  0.12699999809E+01 0. -1.
        4   -1    0    0  501    0  0.00000000000E+00  0.00000000000E+00 -0.47328229504E+03  0.47328399899E+03  0.12699999809E+01 0.  1.
    10030    2    1    2    0    0  0.00000000000E+00  0.00000000000E+00  0.16444276564E+03  0.11110103242E+04  0.10987731874E+04 0.  0.
        1    1    3    3  502    0  0.49682118277E+03 -0.13533109955E+03 -0.11143139421E+03  0.52684224375E+03  0.50400001928E-02 0.  1.
       -1    1    3    3    0  502 -0.49682118277E+03  0.13533109955E+03  0.27587415985E+03  0.58416808048E+03  0.50400001928E-02 0. -1.
</event>
<event>
 5   0  0.3423758E-04  0.1100126E+04  0.7818609E-02  0.9205070E-01
       -1   -1    0    0    0  501  0.00000000000E+00  0.00000000000E+00  0.42041125888E+03  0.42041125891E+03  0.50400001928E-02 0. -1.
        1   -1    0    0  501    0  0.00000000000E+00  0.00000000000E+00 -0.71969776158E+03  0.71969776160E+03  0.50400001928E-02 0.  1.
    10030    2    1    2    0    0  0.00000000000E+00  0.00000000000E+00 -0.29928650270E+03  0.11401090205E+04  0.11001255237E+04 0.  0.
        1    1    3    3  502    0 -0.24819710083E+03  0.16364069714E+03 -0.62926921580E+03  0.69595964294E+03  0.50400001928E-02 0.  1.
       -1    1    3    3    0  502  0.24819710083E+03 -0.16364069714E+03  0.32998271310E+03  0.44414937757E+03  0.50400001928E-02 0. -1.
</event>
<event>
 5   0  0.3621403E-04  0.1104825E+04  0.7818609E-02  0.9200502E-01
       -1   -1    0    0    0  501  0.00000000000E+00  0.00000000000E+00  0.62272046797E+03  0.62272046799E+03  0.50400001928E-02 0. -1.
        1   -1    0    0  501    0  0.00000000000E+00  0.00000000000E+00 -0.49004252697E+03  0.49004252700E+03  0.50400001928E-02 0.  1.
    10030    2    1    2    0    0  0.00000000000E+00  0.00000000000E+00  0.13267794100E+03  0.11127629950E+04  0.11048248943E+04 0.  0.
        3    1    3    3  502    0  0.26978216906E+03  0.13432581134E+03  0.53262715698E+03  0.61197838270E+03  0.10100000352E+00 0. -1.
       -3    1    3    3    0  502 -0.26978216906E+03 -0.13432581134E+03 -0.39994921598E+03  0.50078461229E+03  0.10100000352E+00 0.  1.
</event>
<event>
 5   0  0.3642161E-04  0.1101715E+04  0.7818609E-02  0.9203522E-01
        1   -1    0    0  501    0  0.00000000000E+00  0.00000000000E+00  0.92318981848E+03  0.92318981850E+03  0.50400001928E-02 0. -1.
       -1   -1    0    0    0  501  0.00000000000E+00  0.00000000000E+00 -0.32869096659E+03  0.32869096662E+03  0.50400001928E-02 0.  1.
    10030    2    1    2    0    0  0.00000000000E+00  0.00000000000E+00  0.59449885190E+03  0.12518807851E+04  0.11017153059E+04 0.  0.
        2    1    3    3  502    0  0.23473870161E+03 -0.45797752743E+03  0.74005992825E+02  0.51992553375E+03  0.25500000920E-02 0.  1.
       -2    1    3    3    0  502 -0.23473870161E+03  0.45797752743E+03  0.52049285907E+03  0.73195525137E+03  0.25500000920E-02 0. -1.
</event>
<event>
 5   0  0.3621403E-04  0.1097605E+04  0.7818609E-02  0.9207529E-01
       -1   -1    0    0    0  501  0.00000000000E+00  0.00000000000E+00  0.18300997490E+03  0.18300997497E+03  0.50400001928E-02 0. -1.
        1   -1    0    0  501    0  0.00000000000E+00  0.00000000000E+00 -0.16457266805E+04  0.16457266805E+04  0.50400001928E-02 0.  1.
    10030    2    1    2    0    0  0.00000000000E+00  0.00000000000E+00 -0.14627167056E+04  0.18287366554E+04  0.10976053909E+04 0.  0.
        3    1    3    3  502    0  0.25930713623E+03 -0.48353100564E+03 -0.71150681736E+03  0.89849005875E+03  0.10100000352E+00 0.  1.
       -3    1    3    3    0  502 -0.25930713623E+03  0.48353100564E+03 -0.75120988820E+03  0.93024659668E+03  0.10100000352E+00 0. -1.
</event>
<event>
 5   0  0.3657529E-04  0.1099801E+04  0.7818609E-02  0.9205386E-01
        1   -1    0    0  501    0  0.00000000000E+00  0.00000000000E+00  0.56139482622E+03  0.56139482625E+03  0.50400001928E-02 0.  1.
       -1   -1    0    0    0  501  0.00000000000E+00  0.00000000000E+00 -0.53864166865E+03  0.53864166868E+03  0.50400001928E-02 0. -1.
    10030    2    1    2    0    0  0.00000000000E+00  0.00000000000E+00  0.22753157570E+02  0.11000364949E+04  0.10998011566E+04 0.  0.
        4    1    3    3  502    0 -0.87100450086E+02  0.13473098360E+03 -0.51471135688E+03  0.53913664330E+03  0.12699999809E+01 0. -1.
       -4    1    3    3    0  502  0.87100450086E+02 -0.13473098360E+03  0.53746451445E+03  0.56089985162E+03  0.12699999809E+01 0.  1.
</event>
<event>
 5   0  0.3642161E-04  0.1100719E+04  0.7818609E-02  0.9204492E-01
       -1   -1    0    0    0  501  0.00000000000E+00  0.00000000000E+00  0.60303891454E+03  0.60303891456E+03  0.50400001928E-02 0. -1.
        1   -1    0    0  501    0  0.00000000000E+00  0.00000000000E+00 -0.50228165448E+03  0.50228165451E+03  0.50400001928E-02 0.  1.
    10030    2    1    2    0    0  0.00000000000E+00  0.00000000000E+00  0.10075726006E+03  0.11053205691E+04  0.11007186448E+04 0.  0.
        2    1    3    3  502    0  0.74454236556E+01 -0.34586413702E+03  0.48020785089E+03  0.59184205297E+03  0.25500000920E-02 0. -1.
       -2    1    3    3    0  502 -0.74454236556E+01  0.34586413702E+03 -0.37945059082E+03  0.51347851610E+03  0.25500000920E-02 0.  1.
</event>
<event>
 5   0  0.6412712E-04  0.1099997E+04  0.7818609E-02  0.9205195E-01
        2   -1    0    0  501    0  0.00000000000E+00  0.00000000000E+00  0.85352040046E+03  0.85352040046E+03  0.25500000920E-02 0. -1.
       -2   -1    0    0    0  501  0.00000000000E+00  0.00000000000E+00 -0.35441228965E+03  0.35441228966E+03  0.25500000920E-02 0.  1.
    10030    2    1    2    0    0  0.00000000000E+00  0.00000000000E+00  0.49910811081E+03  0.12079326901E+04  0.10999965807E+04 0.  0.
        2    1    3    3  502    0 -0.26504305822E+03 -0.67798753863E+02  0.77350265652E+03  0.82045770969E+03  0.25500000920E-02 0. -1.
       -2    1    3    3    0  502  0.26504305822E+03  0.67798753863E+02 -0.27439454571E+03  0.38747498043E+03  0.25500000920E-02 0.  1.
</event>
<event>
 5   0  0.3642161E-04  0.1101276E+04  0.7818609E-02  0.9203949E-01
       -1   -1    0    0    0  501  0.00000000000E+00  0.00000000000E+00  0.95545569965E+03  0.95545569966E+03  0.50400001928E-02 0. -1.
        1   -1    0    0  501    0  0.00000000000E+00  0.00000000000E+00 -0.31733778851E+03  0.31733778855E+03  0.50400001928E-02 0.  1.
    10030    2    1    2    0    0  0.00000000000E+00  0.00000000000E+00  0.63811791114E+03  0.12727934882E+04  0.11012759850E+04 0.  0.
        2    1    3    3  502    0 -0.32386156987E+03  0.44530966582E+03  0.31455542724E+03  0.63413888993E+03  0.25500000920E-02 0.  1.
       -2    1    3    3    0  502  0.32386156987E+03 -0.44530966582E+03  0.32356248390E+03  0.63865459828E+03  0.25500000920E-02 0. -1.
</event>
<event>
 5   0  0.3523525E-04  0.1099814E+04  0.7818609E-02  0.9205373E-01
        1   -1    0    0  501    0  0.00000000000E+00  0.00000000000E+00  0.42831418603E+03  0.42831418606E+03  0.50400001928E-02 0.  1.
       -1   -1    0    0    0  501  0.00000000000E+00  0.00000000000E+00 -0.70601830209E+03  0.70601830210E+03  0.50400001928E-02 0. -1.
    10030    2    1    2    0    0  0.00000000000E+00  0.00000000000E+00 -0.27770411606E+03  0.11343324882E+04  0.10998139014E+04 0.  0.
        5    1    3    3  502    0  0.53974875816E+03 -0.10201879861E+03 -0.16492403963E+03  0.57354911390E+03  0.46999998093E+01 0. -1.
       -5    1    3    3    0  502 -0.53974875816E+03  0.10201879861E+03 -0.11278007643E+03  0.56078337426E+03  0.46999998093E+01 0.  1.
</event>
<event>
 5   0  0.3523525E-04  0.1097793E+04  0.7818609E-02  0.9207345E-01
       -1   -1    0    0    0  501  0.00000000000E+00  0.00000000000E+00  0.56247511763E+03  0.56247511766E+03  0.50400001928E-02 0.  1.
        1   -1    0    0  501    0  0.00000000000E+00  0.00000000000E+00 -0.53564600745E+03  0.53564600748E+03  0.50400001928E-02 0. -1.
    10030    2    1    2    0    0  0.00000000000E+00  0.00000000000E+00  0.26829110181E+02  0.10981211251E+04  0.10977933341E+04 0.  0.
        5    1    3    3  502    0 -0.13012766673E+02  0.23305553481E+03  0.51033370539E+03  0.56120120746E+03  0.46999998093E+01 0.  1.
       -5    1    3    3    0  502  0.13012766673E+02 -0.23305553481E+03 -0.48350459521E+03  0.53691991767E+03  0.46999998093E+01 0. -1.
</event>
<event>
 5   0  0.5948818E-04  0.1097850E+04  0.7818609E-02  0.9207290E-01
        2   -1    0    0  501    0  0.00000000000E+00  0.00000000000E+00  0.56970490087E+03  0.56970490087E+03  0.25500000920E-02 0.  1.
       -2   -1    0    0    0  501  0.00000000000E+00  0.00000000000E+00 -0.52890329059E+03  0.52890329060E+03  0.25500000920E-02 0. -1.
    10030    2    1    2    0    0  0.00000000000E+00  0.00000000000E+00  0.40801610275E+02  0.10986081915E+04  0.10978502571E+04 0.  0.
        3    1    3    3  502    0  0.55331120853E+02 -0.52673798564E+03 -0.12393589790E+03  0.54394352229E+03  0.10100000352E+00 0. -1.
       -3    1    3    3    0  502 -0.55331120853E+02  0.52673798564E+03  0.16473750817E+03  0.55466466919E+03  0.10100000352E+00 0.  1.
</event>
<event>
 5   0  0.5948818E-04  0.1102971E+04  0.7818609E-02  0.9202301E-01
       -2   -1    0    0    0  501  0.00000000000E+00  0.00000000000E+00  0.25630662476E+03  0.25630662478E+03  0.25500000920E-02 0. -1.
        2   -1    0    0  501    0  0.00000000000E+00  0.00000000000E+00 -0.11866101542E+04  0.11866101542E+04  0.25500000920E-02 0.  1.
    10030    2    1    2    0    0  0.00000000000E+00  0.00000000000E+00 -0.93030352942E+03  0.14429167790E+04  0.11029706135E+04 0.  0.
        3    1    3    3  502    0 -0.19379132956E+03  0.45913196207E+03 -0.15618489899E+03  0.52225565663E+03  0.10100000352E+00 0.  1.
       -3    1    3    3    0  502  0.19379132956E+03 -0.45913196207E+03 -0.77411863043E+03  0.92066112234E+03  0.10100000352E+00 0. -1.
</event>
<event>
 5   0  0.6264830E-04  0.1096910E+04  0.7818609E-02  0.9208209E-01
        2   -1    0    0  501    0  0.00000000000E+00  0.00000000000E+00  0.63862088824E+03  0.63862088824E+03  0.25500000920E-02 0. -1.
       -2   -1    0    0    0  501  0.00000000000E+00  0.00000000000E+00 -0.47101927032E+03  0.47101927032E+03  0.25500000920E-02 0.  1.
    10030    2    1    2    0    0  0.00000000000E+00  0.00000000000E+00  0.16760161792E+03  0.11096401586E+04  0.10969097407E+04 0.  0.
        4    1    3    3  502    0  0.30093957296E+03  0.31342943757E+03  0.42234655583E+03  0.60595450739E+03  0.12699999809E+01 0. -1.
       -4    1    3    3    0  502 -0.30093957296E+03 -0.31342943757E+03 -0.25474493791E+03  0.50368565117E+03  0.12699999809E+01 0.  1.
</event>
<event>
 5   0  0.5948818E-04  0.1100905E+04  0.7818609E-02  0.9204310E-01
       -2   -1    0    0    0  501  0.00000000000E+00  0.00000000000E+00  0.27518919910E+03  0.27518919911E+03  0.25500000920E-02 0.  1.
        2   -1    0    0  501    0  0.00000000000E+00  0.00000000000E+00 -0.11010536897E+04  0.11010536897E+04  0.25500000920E-02 0. -1.
    10030    2    1    2    0    0  0.00000000000E+00  0.00000000000E+00 -0.82586449061E+03  0.13762428888E+04  0.11009052331E+04 0.  0.
        3    1    3    3  502    0 -0.33246117854E+03 -0.40811025967E+03 -0.61417000601E+03  0.80888146584E+03  0.10100000352E+00 0. -1.
       -3    1    3    3    0  502  0.33246117854E+03  0.40811025967E+03 -0.21169448460E+03  0.56736142299E+03  0.10100000352E+00 0.  1.
</event>
<event>
 5   0  0.6109149E-04  0.1094546E+04  0.7818609E-02  0.9210524E-01
        2   -1    0    0  501    0  0.00000000000E+00  0.00000000000E+00  0.88993016616E+03  0.88993016617E+03  0.25500000920E-02 0. -1.
       -2   -1    0    0    0  501  0.00000000000E+00  0.00000000000E+00 -0.33655200348E+03  0.33655200349E+03  0.25500000920E-02 0.  1.
    10030    2    1    2    0    0  0.00000000000E+00  0.00000000000E+00  0.55337816268E+03  0.12264821697E+04  0.10945460801E+04 0.  0.
        1    1    3    3  502    0  0.17920597728E+03 -0.55196215264E+02  0.85281029816E+03  0.87318200230E+03  0.50400001928E-02 0. -1.
       -1    1    3    3    0  502 -0.17920597728E+03  0.55196215264E+02 -0.29943213548E+03  0.35330016736E+03  0.50400001928E-02 0.  1.
</event>
<event>
 5   0  0.5948818E-04  0.1094326E+04  0.7818609E-02  0.9210740E-01
        2   -1    0    0  501    0  0.00000000000E+00  0.00000000000E+00  0.12803289752E+04  0.12803289752E+04  0.25500000920E-02 0. -1.
       -2   -1    0    0    0  501  0.00000000000E+00  0.00000000000E+00 -0.23383614685E+03  0.23383614686E+03  0.25500000920E-02 0.  1.
    10030    2    1    2    0    0  0.00000000000E+00  0.00000000000E+00  0.10464928283E+04  0.15141651221E+04  0.10943257180E+04 0.  0.
        3    1    3    3  502    0  0.17319195962E+03  0.33561767462E+03 -0.24568533582E+02  0.37846836253E+03  0.10100000352E+00 0.  1.
       -3    1    3    3    0  502 -0.17319195962E+03 -0.33561767462E+03  0.10710613619E+04  0.11356967595E+04  0.10100000352E+00 0. -1.
</event>
<event>
 5   0  0.6245176E-04  0.1103040E+04  0.7818609E-02  0.9202234E-01
       -2   -1    0    0    0  501  0.00000000000E+00  0.00000000000E+00  0.73086870033E+03  0.73086870033E+03  0.25500000920E-02 0.  1.
        2   -1    0    0  501    0  0.00000000000E+00  0.00000000000E+00 -0.41618191874E+03  0.41618191875E+03  0.25500000920E-02 0. -1.
    10030    2    1    2    0    0  0.00000000000E+00  0.00000000000E+00  0.31468678159E+03  0.11470506191E+04  0.11030400501E+04 0.  0.
        5    1    3    3  502    0  0.14954420746E+03 -0.52660370690E+01  0.70933411313E+03  0.72496080941E+03  0.46999998093E+01 0.  1.
       -5    1    3    3    0  502 -0.14954420746E+03  0.52660370690E+01 -0.39464733154E+03  0.42208980967E+03  0.46999998093E+01 0. -1.
</event>
<event>
 5   0  0.3621403E-04  0.1102785E+04  0.7818609E-02  0.9202481E-01
       -1   -1    0    0    0  501  0.00000000000E+00  0.00000000000E+00  0.13267694165E+04  0.13267694165E+04  0.50400001928E-02 0.  1.
        1   -1    0    0  501    0  0.00000000000E+00  0.00000000000E+00 -0.22915352145E+03  0.22915352150E+03  0.50400001928E-02 0. -1.
    10030    2    1    2    0    0  0.00000000000E+00  0.00000000000E+00  0.10976158951E+04  0.15559229380E+04  0.11027853535E+04 0.  0.
        3    1    3    3  502    0 -0.20681787492E+03  0.35196356213E+03  0.10717599610E+04  0.11468746255E+04  0.10100000352E+00 0.  1.
       -3    1    3    3    0  502  0.20681787492E+03 -0.35196356213E+03  0.25855934088E+02  0.40904831253E+03  0.10100000352E+00 0. -1.
</event>
<event>
 5   0  0.3423758E-04  0.1105103E+04  0.7818609E-02  0.9200232E-01
        1   -1    0    0  501    0  0.00000000000E+00  0.00000000000E+00  0.87455157543E+03  0.87455157544E+03  0.50400001928E-02 0. -1.
       -1   -1    0    0    0  501  0.00000000000E+00  0.00000000000E+00 -0.34910826256E+03  0.34910826259E+03  0.50400001928E-02 0.  1.
    10030    2    1    2    0    0  0.00000000000E+00  0.00000000000E+00  0.52544331287E+03  0.12236598380E+04  0.11051030378E+04 0.  0.
        1    1    3    3  502    0  0.30493805339E+03  0.14206732619E+03 -0.22264510911E+03  0.40341193117E+03  0.50400001928E-02 0.  1.
       -1    1    3    3    0  502 -0.30493805339E+03 -0.14206732619E+03  0.74808842198E+03  0.82024790686E+03  0.50400001928E-02 0. -1.
</event>
<event>
 5   0  0.3621403E-04  0.1106283E+04  0.7818609E-02  0.9199089E-01
        1   -1    0    0  501    0  0.00000000000E+00  0.00000000000E+00  0.26112542766E+03  0.26112542771E+03  0.50400001928E-02 0.  1.
       -1   -1    0    0    0  501  0.00000000000E+00  0.00000000000E+00 -0.11717196146E+04  0.11717196146E+04  0.50400001928E-02 0. -1.
    10030    2    1    2    0    0  0.00000000000E+00  0.00000000000E+00 -0.91059418689E+03  0.14328450423E+04  0.11062834817E+04 0.  0.
        3    1    3    3  502    0  0.29027213460E+03 -0.11982147587E+03  0.13447677553E+03  0.34161251669E+03  0.10100000352E+00 0.  1.
       -3    1    3    3    0  502 -0.29027213460E+03  0.11982147587E+03 -0.10450709624E+04  0.10912325256E+04  0.10100000352E+00 0. -1.
</event>
<event>
 5   0  0.3423758E-04  0.1099800E+04  0.7818609E-02  0.9205387E-01
       -1   -1    0    0    0  501  0.00000000000E+00  0.00000000000E+00  0.50366582205E+03  0.50366582208E+03  0.50400001928E-02 0. -1.
        1   -1    0    0  501    0  0.00000000000E+00  0.00000000000E+00 -0.60037793423E+03  0.60037793425E+03  0.50400001928E-02 0.  1.
    10030    2    1    2    0    0  0.00000000000E+00  0.00000000000E+00 -0.96712112179E+02  0.11040437563E+04  0.10997997014E+04 0.  0.
        1    1    3    3  502    0 -0.36890550264E+03  0.17388391899E+03  0.32193450665E+03  0.51958513620E+03  0.50400001928E-02 0.  1.
       -1    1    3    3    0  502  0.36890550264E+03 -0.17388391899E+03 -0.41864661883E+03  0.58445862013E+03  0.50400001928E-02 0. -1.
</event>
<event>
 5   0  0.3657529E-04  0.1100022E+04  0.7818609E-02  0.9205170E-01
        1   -1    0    0  501    0  0.00000000000E+00  0.00000000000E+00  0.16647193286E+04  0.16647193286E+04  0.50400001928E-02 0.  1.
       -1   -1    0    0    0  501  0.00000000000E+00  0.00000000000E+00 -0.18171963012E+03  0.18171963019E+03  0.50400001928E-02 0. -1.
    10030    2    1    2    0    0  0.00000000000E+00  0.00000000000E+00  0.14829996984E+04  0.18464389588E+04  0.11000221465E+04 0.  0.
        4    1    3    3  502    0 -0.48411629156E+03 -0.26053163535E+03  0.71416214338E+03  0.90126272347E+03  0.12699999809E+01 0.  1.
       -4    1    3    3    0  502  0.48411629156E+03  0.26053163535E+03  0.76883755506E+03  0.94517623528E+03  0.12699999809E+01 0. -1.
</event>
<event>
 5   0  0.6264830E-04  0.1099332E+04  0.7818609E-02  0.9205844E-01
       -2   -1    0    0    0  501  0.00000000000E+00  0.00000000000E+00  0.20279592594E+03  0.20279592596E+03  0.25500000920E-02 0.  1.
        2   -1    0    0  501    0  0.00000000000E+00  0.00000000000E+00 -0.14898351544E+04  0.14898351544E+04  0.25500000920E-02 0. -1.
    10030    2    1    2    0    0  0.00000000000E+00  0.00000000000E+00 -0.12870392284E+04  0.16926310803E+04  0.10993316145E+04 0.  0.
        4    1    3    3  502    0  0.42609877733E+03  0.32752309328E+03 -0.46595816866E+03  0.71130174505E+03  0.12699999809E+01 0.  1.
       -4    1    3    3    0  502 -0.42609877733E+03 -0.32752309328E+03 -0.82108105976E+03  0.98132933527E+03  0.12699999809E+01 0. -1.
</event>
<event>
 5   0  0.6245176E-04  0.1101482E+04  0.7818609E-02  0.9203748E-01
       -2   -1    0    0    0  501  0.00000000000E+00  0.00000000000E+00  0.52647896244E+03  0.52647896244E+03  0.25500000920E-02 0. -1.
        2   -1    0    0  501    0  0.00000000000E+00  0.00000000000E+00 -0.57612129613E+03  0.57612129614E+03  0.25500000920E-02 0.  1.
    10030    2    1    2    0    0  0.00000000000E+00  0.00000000000E+00 -0.49642333694E+02  0.11026002586E+04  0.11014821691E+04 0.  0.
        5    1    3    3  502    0  0.12175117561E+03  0.53243156701E+03 -0.95511047977E+02  0.55448279739E+03  0.46999998093E+01 0.  1.
       -5    1    3    3    0  502 -0.12175117561E+03 -0.53243156701E+03  0.45868714283E+02  0.54811746119E+03  0.46999998093E+01 0. -1.
</event>
<event>
 5   0  0.3657529E-04  0.1113375E+04  0.7818609E-02  0.9192253E-01
       -1   -1    0    0    0  501  0.00000000000E+00  0.00000000000E+00  0.51389849569E+03  0.51389849571E+03  0.50400001928E-02 0.  1.
        1   -1    0    0  501    0  0.00000000000E+00  0.00000000000E+00 -0.60303891713E+03  0.60303891715E+03  0.50400001928E-02 0. -1.
    10030    2    1    2    0    0  0.00000000000E+00  0.00000000000E+00 -0.89140421437E+02  0.11169374129E+04  0.11133746762E+04 0.  0.
        4    1    3    3  502    0 -0.19869100968E+03 -0.33951216857E+03 -0.43972473393E+03  0.59000515630E+03  0.12699999809E+01 0. -1.
       -4    1    3    3    0  502  0.19869100968E+03  0.33951216857E+03  0.35058431250E+03  0.52693225656E+03  0.12699999809E+01 0.  1.
</event>
<event>
 5   0  0.5948818E-04  0.1102171E+04  0.7818609E-02  0.9203078E-01
        2   -1    0    0  501    0  0.00000000000E+00  0.00000000000E+00  0.41488363209E+03  0.41488363210E+03  0.25500000920E-02 0. -1.
       -2   -1    0    0    0  501  0.00000000000E+00  0.00000000000E+00 -0.73200147519E+03  0.73200147520E+03  0.25500000920E-02 0.  1.
    10030    2    1    2    0    0  0.00000000000E+00  0.00000000000E+00 -0.31711784310E+03  0.11468851073E+04  0.11021713673E+04 0.  0.
        3    1    3    3  502    0 -0.87644203708E+02 -0.54116900197E+03 -0.10015690861E+03  0.55729418773E+03  0.10100000352E+00 0. -1.
       -3    1    3    3    0  502  0.87644203708E+02  0.54116900197E+03 -0.21696093449E+03  0.58959091957E+03  0.10100000352E+00 0.  1.
</event>
<event>
 5   0  0.6109149E-04  0.1098990E+04  0.7818609E-02  0.9206177E-01
        2   -1    0    0  501    0  0.00000000000E+00  0.00000000000E+00  0.77857082759E+03  0.77857082759E+03  0.25500000920E-02 0.  1.
       -2   -1    0    0    0  501  0.00000000000E+00  0.00000000000E+00 -0.38781899294E+03  0.38781899295E+03  0.25500000920E-02 0. -1.
    10030    2    1    2    0    0  0.00000000000E+00  0.00000000000E+00  0.39075183465E+03  0.11663898205E+04  0.10989896347E+04 0.  0.
        1    1    3    3  502    0 -0.48713499825E+03 -0.25321637521E+03  0.17104588347E+03  0.57504411437E+03  0.50400001928E-02 0.  1.
       -1    1    3    3    0  502  0.48713499825E+03  0.25321637521E+03  0.21970595118E+03  0.59134570617E+03  0.50400001928E-02 0. -1.
</event>
<event>
 5   0  0.6412712E-04  0.1100426E+04  0.7818609E-02  0.9204777E-01
       -2   -1    0    0    0  501  0.00000000000E+00  0.00000000000E+00  0.27675347764E+03  0.27675347765E+03  0.25500000920E-02 0.  1.
        2   -1    0    0  501    0  0.00000000000E+00  0.00000000000E+00 -0.10938777498E+04  0.10938777498E+04  0.25500000920E-02 0. -1.
    10030    2    1    2    0    0  0.00000000000E+00  0.00000000000E+00 -0.81712427211E+03  0.13706312274E+04  0.11004262290E+04 0.  0.
        2    1    3    3  502    0 -0.16023263131E+02  0.42631780847E+03 -0.84134377039E+03  0.94332547870E+03  0.25500000920E-02 0. -1.
       -2    1    3    3    0  502  0.16023263131E+02 -0.42631780847E+03  0.24219498278E+02  0.42730574871E+03  0.25500000920E-02 0.  1.
</event>
<event>
 5   0  0.2403875E-04  0.1100726E+04  0.7818609E-02  0.9204485E-01
       -4   -1    0    0    0  501  0.00000000000E+00  0.00000000000E+00  0.27506092376E+03  0.27506385564E+03  0.12699999809E+01 0. -1.
        4   -1    0    0  501    0  0.00000000000E+00  0.00000000000E+00 -0.11011989749E+04  0.11011997072E+04  0.12699999809E+01 0.  1.
    10030    2    1    2    0    0  0.00000000000E+00  0.00000000000E+00 -0.82613805112E+03  0.13762635628E+04  0.11007258128E+04 0.  0.
        1    1    3    3  502    0  0.18947399626E+03  0.40583964482E+03 -0.13174310022E+02  0.44808456237E+03  0.50400001928E-02 0. -1.
       -1    1    3    3    0  502 -0.18947399626E+03 -0.40583964482E+03 -0.81296374109E+03  0.92817900048E+03  0.50400001928E-02 0.  1.
</event>
<event>
 5   0  0.3657529E-04  0.1100131E+04  0.7818609E-02  0.9205064E-01
        1   -1    0    0  501    0  0.00000000000E+00  0.00000000000E+00  0.10860259974E+04  0.10860259975E+04  0.50400001928E-02 0. -1.
       -1   -1    0    0    0  501  0.00000000000E+00  0.00000000000E+00 -0.27860470520E+03  0.27860470525E+03  0.50400001928E-02 0.  1.
    10030    2    1    2    0    0  0.00000000000E+00  0.00000000000E+00  0.80742129224E+03  0.13646307027E+04  0.11001308157E+04 0.  0.
        4    1    3    3  502    0 -0.48233249349E+03  0.25350457069E+03  0.49704095281E+03  0.73753679455E+03  0.12699999809E+01 0.  1.
       -4    1    3    3    0  502  0.48233249349E+03 -0.25350457069E+03  0.31038033943E+03  0.62709390815E+03  0.12699999809E+01 0. -1.
</event>
<event>
 5   0  0.6245176E-04  0.1100380E+04  0.7818609E-02  0.9204822E-01
       -2   -1    0    0    0  501  0.00000000000E+00  0.00000000000E+00  0.22847290405E+03  0.22847290407E+03  0.25500000920E-02 0.  1.
        2   -1    0    0  501    0  0.00000000000E+00  0.00000000000E+00 -0.13249230612E+04  0.13249230613E+04  0.25500000920E-02 0. -1.
    10030    2    1    2    0    0  0.00000000000E+00  0.00000000000E+00 -0.10964501572E+04  0.15533959653E+04  0.11003799698E+04 0.  0.
        5    1    3    3  502    0  0.64127650831E+02 -0.50917336432E+03 -0.26830760600E+03  0.57912082675E+03  0.46999998093E+01 0.  1.
       -5    1    3    3    0  502 -0.64127650831E+02  0.50917336432E+03 -0.82814255119E+03  0.97427513857E+03  0.46999998093E+01 0. -1.
</event>
<event>
 5   0  0.2403875E-04  0.1099826E+04  0.7818609E-02  0.9205361E-01
       -4   -1    0    0    0  501  0.00000000000E+00  0.00000000000E+00  0.15441584940E+04  0.15441590163E+04  0.12699999809E+01 0. -1.
        4   -1    0    0  501    0  0.00000000000E+00  0.00000000000E+00 -0.19583507170E+03  0.19583918967E+03  0.12699999809E+01 0.  1.
    10030    2    1    2    0    0  0.00000000000E+00  0.00000000000E+00  0.13483234223E+04  0.17399982059E+04  0.10998262160E+04 0.  0.
        4    1    3    3  502    0 -0.23705443560E+03 -0.26533552526E+03  0.13375081883E+04  0.13840258354E+04  0.12699999809E+01 0. -1.
       -4    1    3    3    0  502  0.23705443560E+03  0.26533552526E+03  0.10815234025E+02  0.35597237054E+03  0.12699999809E+01 0.  1.
</event>
<event>
 5   0  0.3523525E-04  0.1098417E+04  0.7818609E-02  0.9206736E-01
        1   -1    0    0  501    0  0.00000000000E+00  0.00000000000E+00  0.24371947311E+03  0.24371947316E+03  0.50400001928E-02 0.  1.
       -1   -1    0    0    0  501  0.00000000000E+00  0.00000000000E+00 -0.12376122255E+04  0.12376122255E+04  0.50400001928E-02 0. -1.
    10030    2    1    2    0    0  0.00000000000E+00  0.00000000000E+00 -0.99389275240E+03  0.14813316987E+04  0.10984174062E+04 0.  0.
        5    1    3    3  502    0  0.10041842558E+03 -0.49653062429E+03 -0.78297026307E+03  0.93257227275E+03  0.46999998093E+01 0. -1.
       -5    1    3    3    0  502 -0.10041842558E+03  0.49653062429E+03 -0.21092248933E+03  0.54875942594E+03  0.46999998093E+01 0.  1.
</event>
<event>
 5   0  0.3657529E-04  0.1100733E+04  0.7818609E-02  0.9204478E-01
       -1   -1    0    0    0  501  0.00000000000E+00  0.00000000000E+00  0.92097008116E+03  0.92097008118E+03  0.50400001928E-02 0.  1.
        1   -1    0    0  501    0  0.00000000000E+00  0.00000000000E+00 -0.32889574975E+03  0.32889574979E+03  0.50400001928E-02 0. -1.
    10030    2    1    2    0    0  0.00000000000E+00  0.00000000000E+00  0.59207433141E+03  0.12498658310E+04  0.11007327475E+04 0.  0.
        4    1    3    3  502    0 -0.18825268824E+03 -0.31009783910E+03 -0.17392452362E+03  0.40230721751E+03  0.12699999809E+01 0. -1.
       -4    1    3    3    0  502  0.18825268824E+03  0.31009783910E+03  0.76599885503E+03  0.84755861346E+03  0.12699999809E+01 0.  1.
</event>
<event>
 5   0  0.3621403E-04  0.1098327E+04  0.7818609E-02  0.9206824E-01
       -1   -1    0    0    0  501  0.00000000000E+00  0.00000000000E+00  0.84430362431E+03  0.84430362432E+03  0.50400001928E-02 0.  1.
        1   -1    0    0  501    0  0.00000000000E+00  0.00000000000E+00 -0.35719438143E+03  0.35719438147E+03  0.50400001928E-02 0. -1.
    10030    2    1    2    0    0  0.00000000000E+00  0.00000000000E+00  0.48710924287E+03  0.12014980058E+04  0.10983269292E+04 0.  0.
        3    1    3    3  502    0 -0.20480525344E+03 -0.16744179336E+03 -0.28289806326E+03  0.38731546625E+03  0.10100000352E+00 0. -1.
       -3    1    3    3    0  502  0.20480525344E+03  0.16744179336E+03  0.77000730613E+03  0.81418253954E+03  0.10100000352E+00 0.  1.
</event>
<event>
 5   0  0.2403875E-04  0.1100265E+04  0.7818609E-02  0.9204934E-01
        3   -1    0    0  501    0  0.00000000000E+00  0.00000000000E+00  0.22292199144E+03  0.22292201432E+03  0.10100000352E+00 0. -1.
       -3   -1    0    0    0  501  0.00000000000E+00  0.00000000000E+00 -0.13576301334E+04  0.13576301372E+04  0.10100000352E+00 0.  1.
    10030    2    1    2    0    0  0.00000000000E+00  0.00000000000E+00 -0.11347081420E+04  0.15805521515E+04  0.11002647573E+04 0.  0.
        1    1    3    3  502    0  0.25802395363E+03  0.27499739800E+03  0.80536369461E+01  0.37718005070E+03  0.50400001928E-02 0. -1.
       -1    1    3    3    0  502 -0.25802395363E+03 -0.27499739800E+03 -0.11427617789E+04  0.12033721008E+04  0.50400001928E-02 0.  1.
</event>
<event>
 5   0  0.3523525E-04  0.1099554E+04  0.7818609E-02  0.9205627E-01
        1   -1    0    0  501    0  0.00000000000E+00  0.00000000000E+00  0.36548152046E+03  0.36548152050E+03  0.50400001928E-02 0. -1.
       -1   -1    0    0    0  501  0.00000000000E+00  0.00000000000E+00 -0.82700425363E+03  0.82700425364E+03  0.50400001928E-02 0.  1.
    10030    2    1    2    0    0  0.00000000000E+00  0.00000000000E+00 -0.46152273317E+03  0.11924857741E+04  0.10995540406E+04 0.  0.
        5    1    3    3  502    0 -0.68249168478E+02  0.16878119436E+03 -0.79334035016E+03  0.81397545525E+03  0.46999998093E+01 0.  1.
       -5    1    3    3    0  502  0.68249168478E+02 -0.16878119436E+03  0.33181761699E+03  0.37851031889E+03  0.46999998093E+01 0. -1.
</event>
<event>
 5   0  0.3423758E-04  0.1098029E+04  0.7818609E-02  0.9207115E-01
       -1   -1    0    0    0  501  0.00000000000E+00  0.00000000000E+00  0.82263247511E+03  0.82263247513E+03  0.50400001928E-02 0. -1.
        1   -1    0    0  501    0  0.00000000000E+00  0.00000000000E+00 -0.36640504349E+03  0.36640504352E+03  0.50400001928E-02 0.  1.
    10030    2    1    2    0    0  0.00000000000E+00  0.00000000000E+00  0.45622743162E+03  0.11890375186E+04  0.10980285749E+04 0.  0.
        1    1    3    3  502    0 -0.44344218964E+03  0.11406337551E+03 -0.99921948165E+02  0.46865320327E+03  0.50400001928E-02 0.  1.
       -1    1    3    3    0  502  0.44344218964E+03 -0.11406337551E+03  0.55614937979E+03  0.72038431538E+03  0.50400001928E-02 0. -1.
</event>
<event>
 5   0  0.2403875E-04  0.1100288E+04  0.7818609E-02  0.9204912E-01
       -3   -1    0    0    0  501  0.00000000000E+00  0.00000000000E+00  0.17796559225E+03  0.17796562091E+03  0.10100000352E+00 0.  1.
        3   -1    0    0  501    0  0.00000000000E+00  0.00000000000E+00 -0.17006554519E+04  0.17006554549E+04  0.10100000352E+00 0. -1.
    10030    2    1    2    0    0  0.00000000000E+00  0.00000000000E+00 -0.15226898597E+04  0.18786210758E+04  0.11002875705E+04 0.  0.
        2    1    3    3  502    0 -0.47895876053E+03 -0.27044890742E+03 -0.77958116347E+03  0.95409166030E+03  0.25500000920E-02 0. -1.
       -2    1    3    3    0  502  0.47895876053E+03  0.27044890742E+03 -0.74310869619E+03  0.92452941553E+03  0.25500000920E-02 0.  1.
</event>
<event>
 5   0  0.6109149E-04  0.1101347E+04  0.7818609E-02  0.9203880E-01
       -2   -1    0    0    0  501  0.00000000000E+00  0.00000000000E+00  0.36544103450E+03  0.36544103451E+03  0.25500000920E-02 0. -1.
        2   -1    0    0  501    0  0.00000000000E+00  0.00000000000E+00 -0.82979514319E+03  0.82979514320E+03  0.25500000920E-02 0.  1.
    10030    2    1    2    0    0  0.00000000000E+00  0.00000000000E+00 -0.46435410870E+03  0.11952361777E+04  0.11013468038E+04 0.  0.
        1    1    3    3  502    0 -0.39501283398E+03 -0.36787478027E+03 -0.35043541681E+03  0.64356194290E+03  0.50400001928E-02 0. -1.
       -1    1    3    3    0  502  0.39501283398E+03  0.36787478027E+03 -0.11391869188E+03  0.55167423481E+03  0.50400001928E-02 0.  1.
</event>
<event>
 5   0  0.3423758E-04  0.1099927E+04  0.7818609E-02  0.9205263E-01
        1   -1    0    0  501    0  0.00000000000E+00  0.00000000000E+00  0.57359756576E+03  0.57359756579E+03  0.50400001928E-02 0. -1.
       -1   -1    0    0    0  501  0.00000000000E+00  0.00000000000E+00 -0.52730278350E+03  0.52730278352E+03  0.50400001928E-02 0.  1.
    10030    2    1    2    0    0  0.00000000000E+00  0.00000000000E+00  0.46294782268E+02  0.11009003493E+04  0.10999265304E+04 0.  0.
        1    1    3    3  502    0 -0.41603904299E+03  0.32619200290E+03  0.17483976314E+03  0.55682910381E+03  0.50400001928E-02 0. -1.
       -1    1    3    3    0  502  0.41603904299E+03 -0.32619200290E+03 -0.12854498087E+03  0.54407124550E+03  0.50400001928E-02 0.  1.
</event>
<event>
 5   0  0.6264830E-04  0.1096271E+04  0.7818609E-02  0.9208834E-01
        2   -1    0    0  501    0  0.00000000000E+00  0.00000000000E+00  0.11345920925E+04  0.11345920925E+04  0.25500000920E-02 0.  1.
       -2   -1    0    0    0  501  0.00000000000E+00  0.00000000000E+00 -0.26481104898E+03  0.26481104899E+03  0.25500000920E-02 0. -1.
    10030    2    1    2    0    0  0.00000000000E+00  0.00000000000E+00  0.86978104356E+03  0.13994031415E+04  0.10962709924E+04 0.  0.
        4    1    3    3  502    0  0.30848742742E+03  0.20000976399E+03  0.95385588423E+03  0.10222578243E+04  0.12699999809E+01 0.  1.
       -4    1    3    3    0  502 -0.30848742742E+03 -0.20000976399E+03 -0.84074840670E+02  0.37714531722E+03  0.12699999809E+01 0. -1.
</event>
<event>
 5   0  0.6245176E-04  0.1076162E+04  0.7818609E-02  0.9228743E-01
       -2   -1    0    0    0  501  0.00000000000E+00  0.00000000000E+00  0.74690874255E+03  0.74690874255E+03  0.25500000920E-02 0.  1.
        2   -1    0    0  501    0  0.00000000000E+00  0.00000000000E+00 -0.38763913326E+03  0.38763913326E+03  0.25500000920E-02 0. -1.
    10030    2    1    2    0    0  0.00000000000E+00  0.00000000000E+00  0.35926960929E+03  0.11345478758E+04  0.10761618049E+04 0.  0.
        5    1    3    3  502    0 -0.37757647577E+03 -0.21976711016E+03 -0.15148720731E+03  0.46241976789E+03  0.46999998093E+01 0. -1.
       -5    1    3    3    0  502  0.37757647577E+03  0.21976711016E+03  0.51075681660E+03  0.67212810792E+03  0.46999998093E+01 0.  1.
</event>
<event>
 5   0  0.3642161E-04  0.1096637E+04  0.7818609E-02  0.9208476E-01
        1   -1    0    0  501    0  0.00000000000E+00  0.00000000000E+00  0.18009126235E+04  0.18009126235E+04  0.50400001928E-02 0. -1.
       -1   -1    0    0    0  501  0.00000000000E+00  0.00000000000E+00 -0.16694490580E+03  0.16694490588E+03  0.50400001928E-02 0.  1.
    10030    2    1    2    0    0  0.00000000000E+00  0.00000000000E+00  0.16339677177E+04  0.19678575294E+04  0.10966370199E+04 0.  0.
        2    1    3    3  502    0  0.44218853961E+03  0.20077335519E+03  0.12738198200E+04  0.13632525733E+04  0.25500000920E-02 0. -1.
       -2    1    3    3    0  502 -0.44218853961E+03 -0.20077335519E+03  0.36014789768E+03  0.60460495609E+03  0.25500000920E-02 0.  1.
</event>
<event>
 5   0  0.3423758E-04  0.1101653E+04  0.7818609E-02  0.9203583E-01
       -1   -1    0    0    0  501  0.00000000000E+00  0.00000000000E+00  0.18433116736E+03  0.18433116743E+03  0.50400001928E-02 0. -1.
        1   -1    0    0  501    0  0.00000000000E+00  0.00000000000E+00 -0.16460025550E+04  0.16460025550E+04  0.50400001928E-02 0.  1.
    10030    2    1    2    0    0  0.00000000000E+00  0.00000000000E+00 -0.14616713876E+04  0.18303337224E+04  0.11016525269E+04 0.  0.
        1    1    3    3  502    0  0.47328389297E+03  0.25428881404E+03 -0.93261137475E+03  0.10763012685E+04  0.50400001928E-02 0. -1.
       -1    1    3    3    0  502 -0.47328389297E+03 -0.25428881404E+03 -0.52906001287E+03  0.75403245390E+03  0.50400001928E-02 0.  1.
</event>
<event>
 5   0  0.6412712E-04  0.1100378E+04  0.7818609E-02  0.9204823E-01
        2   -1    0    0  501    0  0.00000000000E+00  0.00000000000E+00  0.87007823200E+03  0.87007823200E+03  0.25500000920E-02 0. -1.
       -2   -1    0    0    0  501  0.00000000000E+00  0.00000000000E+00 -0.34790898137E+03  0.34790898138E+03  0.25500000920E-02 0.  1.
    10030    2    1    2    0    0  0.00000000000E+00  0.00000000000E+00  0.52216925063E+03  0.12179872134E+04  0.11003781739E+04 0.  0.
        2    1    3    3  502    0 -0.31272962490E+03 -0.31860688141E+03  0.61700803561E+03  0.76158327134E+03  0.25500000920E-02 0. -1.
       -2    1    3    3    0  502  0.31272962490E+03  0.31860688141E+03 -0.94838784977E+02  0.45640394204E+03  0.25500000920E-02 0.  1.
</event>
<event>
 5   0  0.3621403E-04  0.1099197E+04  0.7818609E-02  0.9205975E-01
       -1   -1    0    0    0  501  0.00000000000E+00  0.00000000000E+00  0.60573602858E+03  0.60573602860E+03  0.50400001928E-02 0.  1.
        1   -1    0    0  501    0  0.00000000000E+00  0.00000000000E+00 -0.49866385791E+03  0.49866385793E+03  0.50400001928E-02 0. -1.
    10030    2    1    2    0    0  0.00000000000E+00  0.00000000000E+00  0.10707217068E+03  0.11043998865E+04  0.10991972797E+04 0.  0.
        3    1    3    3  502    0  0.35997223409E+03 -0.38295199755E+03 -0.10793053457E+03  0.53654566650E+03  0.10100000352E+00 0. -1.
       -3    1    3    3    0  502 -0.35997223409E+03  0.38295199755E+03  0.21500270525E+03  0.56785422004E+03  0.10100000352E+00 0.  1.
</event>
<event>
 5   0  0.3621403E-04  0.1098781E+04  0.7818609E-02  0.9206381E-01
       -1   -1    0    0    0  501  0.00000000000E+00  0.00000000000E+00  0.71922863416E+03  0.71922863418E+03  0.50400001928E-02 0. -1.
        1   -1    0    0  501    0  0.00000000000E+00  0.00000000000E+00 -0.41965754706E+03  0.41965754709E+03  0.50400001928E-02 0.  1.
    10030    2    1    2    0    0  0.00000000000E+00  0.00000000000E+00  0.29957108710E+03  0.11388861813E+04  0.10987806413E+04 0.  0.
        3    1    3    3  502    0 -0.15174324606E+03 -0.33420267096E+03  0.57350021451E+03  0.68089642696E+03  0.10100000352E+00 0. -1.
       -3    1    3    3    0  502  0.15174324606E+03  0.33420267096E+03 -0.27392912741E+03  0.45798975431E+03  0.10100000352E+00 0.  1.
</event>
<event>
 5   0  0.6412712E-04  0.1100568E+04  0.7818609E-02  0.9204638E-01
       -2   -1    0    0    0  501  0.00000000000E+00  0.00000000000E+00  0.90555655608E+03  0.90555655608E+03  0.25500000920E-02 0. -1.
        2   -1    0    0  501    0  0.00000000000E+00  0.00000000000E+00 -0.33439393009E+03  0.33439393010E+03  0.25500000920E-02 0.  1.
    10030    2    1    2    0    0  0.00000000000E+00  0.00000000000E+00  0.57116262599E+03  0.12399504862E+04  0.11005682454E+04 0.  0.
        2    1    3    3  502    0 -0.30292838059E+03  0.25453066299E+03 -0.14529424850E+03  0.42149956207E+03  0.25500000920E-02 0.  1.
       -2    1    3    3    0  502  0.30292838059E+03 -0.25453066299E+03  0.71645687449E+03  0.81845092411E+03  0.25500000920E-02 0. -1.
</event>
<event>
 5   0  0.3621403E-04  0.1102305E+04  0.7818609E-02  0.9202949E-01
       -1   -1    0    0    0  501  0.00000000000E+00  0.00000000000E+00  0.12375963217E+04  0.12375963217E+04  0.50400001928E-02 0. -1.
        1   -1    0    0  501    0  0.00000000000E+00  0.00000000000E+00 -0.24545068021E+03  0.24545068026E+03  0.50400001928E-02 0.  1.
    10030    2    1    2    0    0  0.00000000000E+00  0.00000000000E+00  0.99214564148E+03  0.14830470020E+04  0.11023046022E+04 0.  0.
        3    1    3    3  502    0 -0.19797596977E+03 -0.28196714705E+03  0.10748614724E+04  0.11287281124E+04  0.10100000352E+00 0. -1.
       -3    1    3    3    0  502  0.19797596977E+03  0.28196714705E+03 -0.82715830930E+02  0.35431888957E+03  0.10100000352E+00 0.  1.
</event>
<event>
 5   0  0.5948818E-04  0.1098690E+04  0.7818609E-02  0.9206470E-01
        2   -1    0    0  501    0  0.00000000000E+00  0.00000000000E+00  0.20374942262E+03  0.20374942263E+03  0.25500000920E-02 0. -1.
       -2   -1    0    0    0  501  0.00000000000E+00  0.00000000000E+00 -0.14811325581E+04  0.14811325581E+04  0.25500000920E-02 0.  1.
    10030    2    1    2    0    0  0.00000000000E+00  0.00000000000E+00 -0.12773831355E+04  0.16848819807E+04  0.10986899536E+04 0.  0.
        3    1    3    3  502    0  0.96252084018E+01 -0.54182699348E+03 -0.50058159170E+03  0.73773374307E+03  0.10100000352E+00 0. -1.
       -3    1    3    3    0  502 -0.96252084018E+01  0.54182699348E+03 -0.77680154379E+03  0.94714823768E+03  0.10100000352E+00 0.  1.
</event>
<event>
 5   0  0.5948818E-04  0.1100621E+04  0.7818609E-02  0.9204587E-01
        2   -1    0    0  501    0  0.00000000000E+00  0.00000000000E+00  0.12140442879E+04  0.12140442879E+04  0.25500000920E-02 0. -1.
       -2   -1    0    0    0  501  0.00000000000E+00  0.00000000000E+00 -0.24944854658E+03  0.24944854660E+03  0.25500000920E-02 0.  1.
    10030    2    1    2    0    0  0.00000000000E+00  0.00000000000E+00  0.96459574134E+03  0.14634928345E+04  0.11006208850E+04 0.  0.
        3    1    3    3  502    0 -0.36542065574E+03  0.40784189299E+03  0.40977987510E+03  0.68394942909E+03  0.10100000352E+00 0. -1.
       -3    1    3    3    0  502  0.36542065574E+03 -0.40784189299E+03  0.55481586624E+03  0.77954340543E+03  0.10100000352E+00 0.  1.
</event>
<event>
 5   0  0.6412712E-04  0.1103909E+04  0.7818609E-02  0.9201391E-01
       -2   -1    0    0    0  501  0.00000000000E+00  0.00000000000E+00  0.23319683316E+03  0.23319683318E+03  0.25500000920E-02 0.  1.
        2   -1    0    0  501    0  0.00000000000E+00  0.00000000000E+00 -0.13064225335E+04  0.13064225335E+04  0.25500000920E-02 0. -1.
    10030    2    1    2    0    0  0.00000000000E+00  0.00000000000E+00 -0.10732257003E+04  0.15396193667E+04  0.11039086875E+04 0.  0.
        2    1    3    3  502    0 -0.48982372691E+03  0.20620446044E+03 -0.74444643120E+03  0.91468467347E+03  0.25500000920E-02 0. -1.
       -2    1    3    3    0  502  0.48982372691E+03 -0.20620446044E+03 -0.32877926913E+03  0.62493469320E+03  0.25500000920E-02 0.  1.
</event>
<event>
 5   0  0.3657529E-04  0.1100821E+04  0.7818609E-02  0.9204392E-01
        1   -1    0    0  501    0  0.00000000000E+00  0.00000000000E+00  0.10710687056E+04  0.10710687056E+04  0.50400001928E-02 0. -1.
       -1   -1    0    0    0  501  0.00000000000E+00  0.00000000000E+00 -0.28284978502E+03  0.28284978506E+03  0.50400001928E-02 0.  1.
    10030    2    1    2    0    0  0.00000000000E+00  0.00000000000E+00  0.78821892057E+03  0.13539184907E+04  0.11008206996E+04 0.  0.
        4    1    3    3  502    0 -0.52390297061E+03 -0.10095512011E+03  0.22780352302E+03  0.58013991148E+03  0.12699999809E+01 0. -1.
       -4    1    3    3    0  502  0.52390297061E+03  0.10095512011E+03  0.56041539755E+03  0.77377857919E+03  0.12699999809E+01 0.  1.
</event>
<event>
 5   0  0.6109149E-04  0.1100605E+04  0.7818609E-02  0.9204603E-01
       -2   -1    0    0    0  501  0.00000000000E+00  0.00000000000E+00  0.18031781171E+03  0.18031781172E+03  0.25500000920E-02 0.  1.
        2   -1    0    0  501    0  0.00000000000E+00  0.00000000000E+00 -0.16794384083E+04  0.16794384083E+04  0.25500000920E-02 0. -1.
    10030    2    1    2    0    0  0.00000000000E+00  0.00000000000E+00 -0.14991205966E+04  0.18597562201E+04  0.11006046678E+04 0.  0.
        1    1    3    3  502    0 -0.16623349538E+03  0.25290907470E+03  0.27059974266E+02  0.30385657354E+03  0.50400001928E-02 0.  1.
       -1    1    3    3    0  502  0.16623349538E+03 -0.25290907470E+03 -0.15261805709E+04  0.15558996465E+04  0.50400001928E-02 0. -1.
</event>
<event>
 5   0  0.6412712E-04  0.1099285E+04  0.7818609E-02  0.9205889E-01
        2   -1    0    0  501    0  0.00000000000E+00  0.00000000000E+00  0.15441486971E+04  0.15441486971E+04  0.25500000920E-02 0.  1.
       -2   -1    0    0    0  501  0.00000000000E+00  0.00000000000E+00 -0.19564625460E+03  0.19564625462E+03  0.25500000920E-02 0. -1.
    10030    2    1    2    0    0  0.00000000000E+00  0.00000000000E+00  0.13485024425E+04  0.17397949517E+04  0.10992850570E+04 0.  0.
        2    1    3    3  502    0  0.44967565227E+03 -0.12047047306E+03  0.21178500401E+03  0.51144326671E+03  0.25500000920E-02 0. -1.
       -2    1    3    3    0  502 -0.44967565227E+03  0.12047047306E+03  0.11367174385E+04  0.12283516850E+04  0.25500000920E-02 0.  1.
</event>
<event>
 5   0  0.6109149E-04  0.1083048E+04  0.7818609E-02  0.9221874E-01
        2   -1    0    0  501    0  0.00000000000E+00  0.00000000000E+00  0.11038952639E+04  0.11038952639E+04  0.25500000920E-02 0.  1.
       -2   -1    0    0    0  501  0.00000000000E+00  0.00000000000E+00 -0.26564849451E+03  0.26564849452E+03  0.25500000920E-02 0. -1.
    10030    2    1    2    0    0  0.00000000000E+00  0.00000000000E+00  0.83824676935E+03  0.13695437584E+04  0.10830477643E+04 0.  0.
        1    1    3    3  502    0  0.45343705463E+03 -0.53383930005E+02  0.50902361080E+02  0.45939749334E+03  0.50400001928E-02 0. -1.
       -1    1    3    3    0  502 -0.45343705463E+03  0.53383930005E+02  0.78734440827E+03  0.91014626503E+03  0.50400001928E-02 0.  1.
</event>
<event>
 5   0  0.5948818E-04  0.1100330E+04  0.7818609E-02  0.9204870E-01
        2   -1    0    0  501    0  0.00000000000E+00  0.00000000000E+00  0.16559910778E+04  0.16559910778E+04  0.25500000920E-02 0.  1.
       -2   -1    0    0    0  501  0.00000000000E+00  0.00000000000E+00 -0.18277967325E+03  0.18277967327E+03  0.25500000920E-02 0. -1.
    10030    2    1    2    0    0  0.00000000000E+00  0.00000000000E+00  0.14732114045E+04  0.18387707510E+04  0.11003299653E+04 0.  0.
        3    1    3    3  502    0  0.99408913989E+02 -0.13268893749E+03 -0.14003846412E+03  0.21702365758E+03  0.10100000352E+00 0. -1.
       -3    1    3    3    0  502 -0.99408913989E+02  0.13268893749E+03  0.16132498686E+04  0.16217470935E+04  0.10100000352E+00 0.  1.
</event>
<event>
 5   0  0.2403875E-04  0.1099643E+04  0.7818609E-02  0.9205540E-01
        4   -1    0    0  501    0  0.00000000000E+00  0.00000000000E+00  0.15770284705E+03  0.15770796070E+03  0.12699999809E+01 0. -1.
       -4   -1    0    0    0  501  0.00000000000E+00  0.00000000000E+00 -0.19168835502E+04  0.19168839709E+04  0.12699999809E+01 0.  1.
    10030    2    1    2    0    0  0.00000000000E+00  0.00000000000E+00 -0.17591807031E+04  0.20745919316E+04  0.10996430950E+04 0.  0.
        5    1    3    3  502    0  0.41190400201E+03  0.14997606270E+03 -0.25352198614E+03  0.50641209870E+03  0.46999998093E+01 0. -1.
       -5    1    3    3    0  502 -0.41190400201E+03 -0.14997606270E+03 -0.15056587170E+04  0.15681798329E+04  0.46999998093E+01 0.  1.
</event>
<event>
 5   0  0.6109149E-04  0.1100630E+04  0.7818609E-02  0.9204578E-01
        2   -1    0    0  501    0  0.00000000000E+00  0.00000000000E+00  0.10454296407E+04  0.10454296407E+04  0.25500000920E-02 0.  1.
       -2   -1    0    0    0  501  0.00000000000E+00  0.00000000000E+00 -0.28968634766E+03  0.28968634767E+03  0.25500000920E-02 0. -1.
    10030    2    1    2    0    0  0.00000000000E+00  0.00000000000E+00  0.75574329300E+03  0.13351159883E+04  0.11006301729E+04 0.  0.
        1    1    3    3  502    0  0.40972690667E+02  0.24558690974E+03  0.97319842478E+03  0.10045431129E+04  0.50400001928E-02 0.  1.
       -1    1    3    3    0  502 -0.40972690667E+02 -0.24558690974E+03 -0.21745513178E+03  0.33057287545E+03  0.50400001928E-02 0. -1.
</event>
<event>
 5   0  0.6264830E-04  0.1100968E+04  0.7818609E-02  0.9204249E-01
        2   -1    0    0  501    0  0.00000000000E+00  0.00000000000E+00  0.65063990470E+03  0.65063990470E+03  0.25500000920E-02 0.  1.
       -2   -1    0    0    0  501  0.00000000000E+00  0.00000000000E+00 -0.46574551468E+03  0.46574551469E+03  0.25500000920E-02 0. -1.
    10030    2    1    2    0    0  0.00000000000E+00  0.00000000000E+00  0.18489439002E+03  0.11163854194E+04  0.11009679692E+04 0.  0.
        4    1    3    3  502    0  0.32595545594E+03  0.41518438894E+02 -0.35539383079E+03  0.48402182583E+03  0.12699999809E+01 0. -1.
       -4    1    3    3    0  502 -0.32595545594E+03 -0.41518438894E+02  0.54028822080E+03  0.63236359356E+03  0.12699999809E+01 0.  1.
</event>
<event>
 5   0  0.3423758E-04  0.1101540E+04  0.7818609E-02  0.9203692E-01
       -1   -1    0    0    0  501  0.00000000000E+00  0.00000000000E+00  0.29314007245E+03  0.29314007250E+03  0.50400001928E-02 0. -1.
        1   -1    0    0  501    0  0.00000000000E+00  0.00000000000E+00 -0.10348209849E+04  0.10348209849E+04  0.50400001928E-02 0.  1.
    10030    2    1    2    0    0  0.00000000000E+00  0.00000000000E+00 -0.74168091246E+03  0.13279610574E+04  0.11015398287E+04 0.  0.
        1    1    3    3  502    0 -0.10514311391E+03 -0.18330765387E+03  0.24232201578E+03  0.32152251823E+03  0.50400001928E-02 0. -1.
       -1    1    3    3    0  502  0.10514311391E+03  0.18330765387E+03 -0.98400292825E+03  0.10064385392E+04  0.50400001928E-02 0.  1.
</event>
<event>
 5   0  0.3642161E-04  0.1098928E+04  0.7818609E-02  0.9206238E-01
       -1   -1    0    0    0  501  0.00000000000E+00  0.00000000000E+00  0.27668755029E+03  0.27668755033E+03  0.50400001928E-02 0.  1.
        1   -1    0    0  501    0  0.00000000000E+00  0.00000000000E+00 -0.10911602114E+04  0.10911602114E+04  0.50400001928E-02 0. -1.
    10030    2    1    2    0    0  0.00000000000E+00  0.00000000000E+00 -0.81447266110E+03  0.13678477617E+04  0.10989275607E+04 0.  0.
        2    1    3    3  502    0  0.27607913028E+03 -0.55815093730E+02  0.17999242506E+03  0.33426379395E+03  0.25500000920E-02 0.  1.
       -2    1    3    3    0  502 -0.27607913028E+03  0.55815093730E+02 -0.99446508616E+03  0.10335839678E+04  0.25500000920E-02 0. -1.
</event>
<event>
 5   0  0.3523525E-04  0.1099218E+04  0.7818609E-02  0.9205954E-01
        1   -1    0    0  501    0  0.00000000000E+00  0.00000000000E+00  0.52401156614E+03  0.52401156616E+03  0.50400001928E-02 0.  1.
       -1   -1    0    0    0  501  0.00000000000E+00  0.00000000000E+00 -0.57645724969E+03  0.57645724972E+03  0.50400001928E-02 0. -1.
    10030    2    1    2    0    0  0.00000000000E+00  0.00000000000E+00 -0.52445683557E+02  0.11004688159E+04  0.10992183882E+04 0.  0.
        5    1    3    3  502    0  0.23220572161E+03 -0.34202092200E+03 -0.38878169320E+03  0.56751308637E+03  0.46999998093E+01 0. -1.
       -5    1    3    3    0  502 -0.23220572161E+03  0.34202092200E+03  0.33633600964E+03  0.53295572951E+03  0.46999998093E+01 0.  1.
</event>
<event>
 5   0  0.3523525E-04  0.1098921E+04  0.7818609E-02  0.9206244E-01
        1   -1    0    0  501    0  0.00000000000E+00  0.00000000000E+00  0.17762191903E+04  0.17762191903E+04  0.50400001928E-02 0.  1.
       -1   -1    0    0    0  501  0.00000000000E+00  0.00000000000E+00 -0.16997161074E+03  0.16997161082E+03  0.50400001928E-02 0. -1.
    10030    2    1    2    0    0  0.00000000000E+00  0.00000000000E+00  0.16062475795E+04  0.19461908011E+04  0.10989209924E+04 0.  0.
        5    1    3    3  502    0  0.16301036274E+03  0.16830355569E+03 -0.77023511738E+02  0.24668436630E+03  0.46999998093E+01 0. -1.
       -5    1    3    3    0  502 -0.16301036274E+03 -0.16830355569E+03  0.16832710913E+04  0.16995064348E+04  0.46999998093E+01 0.  1.
</event>
<event>
 5   0  0.3621403E-04  0.1097797E+04  0.7818609E-02  0.9207341E-01
       -1   -1    0    0    0  501  0.00000000000E+00  0.00000000000E+00  0.29449415540E+03  0.29449415544E+03  0.50400001928E-02 0. -1.
        1   -1    0    0  501    0  0.00000000000E+00  0.00000000000E+00 -0.10230756140E+04  0.10230756140E+04  0.50400001928E-02 0.  1.
    10030    2    1    2    0    0  0.00000000000E+00  0.00000000000E+00 -0.72858145856E+03  0.13175697694E+04  0.10977974110E+04 0.  0.
        3    1    3    3  502    0 -0.51127053057E+03  0.97493563210E+02 -0.15507373211E+03  0.54309338321E+03  0.10100000352E+00 0.  1.
       -3    1    3    3    0  502  0.51127053057E+03 -0.97493563210E+02 -0.57350772645E+03  0.77447638621E+03  0.10100000352E+00 0. -1.
</event>
<event>
 5   0  0.6264830E-04  0.1100593E+04  0.7818609E-02  0.9204614E-01
       -2   -1    0    0    0  501  0.00000000000E+00  0.00000000000E+00  0.35205888107E+03  0.35205888108E+03  0.25500000920E-02 0.  1.
        2   -1    0    0  501    0  0.00000000000E+00  0.00000000000E+00 -0.86015866687E+03  0.86015866687E+03  0.25500000920E-02 0. -1.
    10030    2    1    2    0    0  0.00000000000E+00  0.00000000000E+00 -0.50809978580E+03  0.12122175480E+04  0.11005934723E+04 0.  0.
        4    1    3    3  502    0  0.33081265368E+03 -0.36354495992E+03 -0.52657762828E+03  0.72033850461E+03  0.12699999809E+01 0. -1.
       -4    1    3    3    0  502 -0.33081265368E+03  0.36354495992E+03  0.18477842477E+02  0.49187904335E+03  0.12699999809E+01 0.  1.
</event>
<event>
 5   0  0.3423758E-04  0.1098593E+04  0.7818609E-02  0.9206565E-01
       -1   -1    0    0    0  501  0.00000000000E+00  0.00000000000E+00  0.25976317401E+03  0.25976317406E+03  0.50400001928E-02 0. -1.
        1   -1    0    0  501    0  0.00000000000E+00  0.00000000000E+00 -0.11615446029E+04  0.11615446029E+04  0.50400001928E-02 0.  1.
    10030    2    1    2    0    0  0.00000000000E+00  0.00000000000E+00 -0.90178142891E+03  0.14213077770E+04  0.10985927596E+04 0.  0.
        1    1    3    3  502    0 -0.29306898453E+02  0.26269476373E+03  0.17207400778E+03  0.31539958365E+03  0.50400001928E-02 0. -1.
       -1    1    3    3    0  502  0.29306898453E+02 -0.26269476373E+03 -0.10738554367E+04  0.11059081934E+04  0.50400001928E-02 0.  1.
</event>
<event>
 5   0  0.6245176E-04  0.1100172E+04  0.7818609E-02  0.9205024E-01
       -2   -1    0    0    0  501  0.00000000000E+00  0.00000000000E+00  0.50782579677E+03  0.50782579678E+03  0.25500000920E-02 0.  1.
        2   -1    0    0  501    0  0.00000000000E+00  0.00000000000E+00 -0.59586339763E+03  0.59586339764E+03  0.25500000920E-02 0. -1.
    10030    2    1    2    0    0  0.00000000000E+00  0.00000000000E+00 -0.88037600863E+02  0.11036891944E+04  0.11001723586E+04 0.  0.
        5    1    3    3  502    0 -0.18035440487E+03 -0.20750249433E+03  0.43393645452E+03  0.51371970283E+03  0.46999998093E+01 0.  1.
       -5    1    3    3    0  502  0.18035440487E+03  0.20750249433E+03 -0.52197405538E+03  0.58996949159E+03  0.46999998093E+01 0. -1.
</event>
<event>
 5   0  0.6245176E-04  0.1102197E+04  0.7818609E-02  0.9203053E-01
       -2   -1    0    0    0  501  0.00000000000E+00  0.00000000000E+00  0.64660479996E+03  0.64660479996E+03  0.25500000920E-02 0.  1.
        2   -1    0    0  501    0  0.00000000000E+00  0.00000000000E+00 -0.46969875476E+03  0.46969875477E+03  0.25500000920E-02 0. -1.
    10030    2    1    2    0    0  0.00000000000E+00  0.00000000000E+00  0.17690604520E+03  0.11163035547E+04  0.11021968415E+04 0.  0.
        5    1    3    3  502    0  0.45089864972E+03 -0.31211215935E+03  0.33315576970E+02  0.54941387860E+03  0.46999998093E+01 0. -1.
       -5    1    3    3    0  502 -0.45089864972E+03  0.31211215935E+03  0.14359046823E+03  0.56688967613E+03  0.46999998093E+01 0.  1.
</event>
<event>
 5   0  0.6245176E-04  0.1101199E+04  0.7818609E-02  0.9204024E-01
       -2   -1    0    0    0  501  0.00000000000E+00  0.00000000000E+00  0.12413156059E+03  0.12413156062E+03  0.25500000920E-02 0. -1.
        2   -1    0    0  501    0  0.00000000000E+00  0.00000000000E+00 -0.24422482025E+04  0.24422482025E+04  0.25500000920E-02 0.  1.
    10030    2    1    2    0    0  0.00000000000E+00  0.00000000000E+00 -0.23181166419E+04  0.25663797632E+04  0.11011994929E+04 0.  0.
        5    1    3    3  502    0  0.44232720590E+01  0.51477058439E+03 -0.70397968505E+03  0.87213405326E+03  0.46999998093E+01 0. -1.
       -5    1    3    3    0  502 -0.44232720590E+01 -0.51477058439E+03 -0.16141369569E+04  0.16942457099E+04  0.46999998093E+01 0.  1.
</event>
<event>
 5   0  0.6412712E-04  0.1099646E+04  0.7818609E-02  0.9205537E-01
        2   -1    0    0  501    0  0.00000000000E+00  0.00000000000E+00  0.10973196083E+04  0.10973196083E+04  0.25500000920E-02 0. -1.
       -2   -1    0    0    0  501  0.00000000000E+00  0.00000000000E+00 -0.27549445473E+03  0.27549445474E+03  0.25500000920E-02 0.  1.
    10030    2    1    2    0    0  0.00000000000E+00  0.00000000000E+00  0.82182515354E+03  0.13728140630E+04  0.10996462470E+04 0.  0.
        2    1    3    3  502    0  0.53508827846E+03  0.93744496287E+02  0.51682911155E+03  0.74981319466E+03  0.25500000920E-02 0.  1.
       -2    1    3    3    0  502 -0.53508827846E+03 -0.93744496287E+02  0.30499604199E+03  0.62300086835E+03  0.25500000920E-02 0. -1.
</event>
<event>
 5   0  0.3657529E-04  0.1108433E+04  0.7818609E-02  0.9197012E-01
        1   -1    0    0  501    0  0.00000000000E+00  0.00000000000E+00  0.23320985912E+04  0.23320985912E+04  0.50400001928E-02 0.  1.
       -1   -1    0    0    0  501  0.00000000000E+00  0.00000000000E+00 -0.13170787257E+03  0.13170787266E+03  0.50400001928E-02 0. -1.
    10030    2    1    2    0    0  0.00000000000E+00  0.00000000000E+00  0.22003907186E+04  0.24638064638E+04  0.11084326668E+04 0.  0.
        4    1    3    3  502    0  0.14227780916E+03 -0.38283275183E+03  0.19329246756E+04  0.19756020109E+04  0.12699999809E+01 0.  1.
       -4    1    3    3    0  502 -0.14227780916E+03  0.38283275183E+03  0.26746604301E+03  0.48820445299E+03  0.12699999809E+01 0. -1.
</event>
<event>
 5   0  0.6109149E-04  0.1103127E+04  0.7818609E-02  0.9202149E-01
        2   -1    0    0  501    0  0.00000000000E+00  0.00000000000E+00  0.36099688134E+03  0.36099688135E+03  0.25500000920E-02 0. -1.
       -2   -1    0    0    0  501  0.00000000000E+00  0.00000000000E+00 -0.84272862714E+03  0.84272862715E+03  0.25500000920E-02 0.  1.
    10030    2    1    2    0    0  0.00000000000E+00  0.00000000000E+00 -0.48173174580E+03  0.12037255085E+04  0.11031272025E+04 0.  0.
        1    1    3    3  502    0  0.28316522984E+03 -0.37342561657E+03 -0.55823853427E+03  0.72887550354E+03  0.50400001928E-02 0.  1.
       -1    1    3    3    0  502 -0.28316522984E+03  0.37342561657E+03  0.76506788468E+02  0.47485000496E+03  0.50400001928E-02 0. -1.
</event>
<event>
 5   0  0.6245176E-04  0.1098823E+04  0.7818609E-02  0.9206340E-01
        2   -1    0    0  501    0  0.00000000000E+00  0.00000000000E+00  0.61724835607E+03  0.61724835608E+03  0.25500000920E-02 0. -1.
       -2   -1    0    0    0  501  0.00000000000E+00  0.00000000000E+00 -0.48903032001E+03  0.48903032002E+03  0.25500000920E-02 0.  1.
    10030    2    1    2    0    0  0.00000000000E+00  0.00000000000E+00  0.12821803606E+03  0.11062786761E+04  0.10988232999E+04 0.  0.
        5    1    3    3  502    0  0.10443727833E+03 -0.21975325468E+03  0.56002842969E+03  0.61061654916E+03  0.46999998093E+01 0. -1.
       -5    1    3    3    0  502 -0.10443727833E+03  0.21975325468E+03 -0.43181039362E+03  0.49566212694E+03  0.46999998093E+01 0.  1.
</event>
<event>
 5   0  0.6264830E-04  0.1100115E+04  0.7818609E-02  0.9205080E-01
       -2   -1    0    0    0  501  0.00000000000E+00  0.00000000000E+00  0.37969712071E+03  0.37969712072E+03  0.25500000920E-02 0.  1.
        2   -1    0    0  501    0  0.00000000000E+00  0.00000000000E+00 -0.79685430996E+03  0.79685430997E+03  0.25500000920E-02 0. -1.
    10030    2    1    2    0    0  0.00000000000E+00  0.00000000000E+00 -0.41715718925E+03  0.11765514307E+04  0.11001150615E+04 0.  0.
        4    1    3    3  502    0  0.34365087195E+03 -0.42772143390E+03 -0.25027636201E+03  0.60306004435E+03  0.12699999809E+01 0.  1.
       -4    1    3    3    0  502 -0.34365087195E+03  0.42772143390E+03 -0.16688082724E+03  0.57349138634E+03  0.12699999809E+01 0. -1.
</event>
<event>
 5   0  0.5948818E-04  0.1102285E+04  0.7818609E-02  0.9202967E-01
       -2   -1    0    0    0  501  0.00000000000E+00  0.00000000000E+00  0.16356947658E+03  0.16356947660E+03  0.25500000920E-02 0.  1.
        2   -1    0    0  501    0  0.00000000000E+00  0.00000000000E+00 -0.18570587635E+04  0.18570587635E+04  0.25500000920E-02 0. -1.
    10030    2    1    2    0    0  0.00000000000E+00  0.00000000000E+00 -0.16934892869E+04  0.20206282401E+04  0.11022851354E+04 0.  0.
        3    1    3    3  502    0  0.53771898982E+03  0.10116253462E+03 -0.72539014679E+03  0.90860687081E+03  0.10100000352E+00 0.  1.
       -3    1    3    3    0  502 -0.53771898982E+03 -0.10116253462E+03 -0.96809914009E+03  0.11120213692E+04  0.10100000352E+00 0. -1.
</event>
<event>
 5   0  0.6245176E-04  0.1102875E+04  0.7818609E-02  0.9202394E-01
        2   -1    0    0  501    0  0.00000000000E+00  0.00000000000E+00  0.15115050506E+04  0.15115050506E+04  0.25500000920E-02 0.  1.
       -2   -1    0    0    0  501  0.00000000000E+00  0.00000000000E+00 -0.20117907045E+03  0.20117907047E+03  0.25500000920E-02 0. -1.
    10030    2    1    2    0    0  0.00000000000E+00  0.00000000000E+00  0.13103259801E+04  0.17126841210E+04  0.11028747546E+04 0.  0.
        5    1    3    3  502    0  0.14911476338E+03  0.36976371258E+03  0.63620707994E+02  0.40376986054E+03  0.46999998093E+01 0. -1.
       -5    1    3    3    0  502 -0.14911476338E+03 -0.36976371258E+03  0.12467052721E+04  0.13089142605E+04  0.46999998093E+01 0.  1.
</event>
<event>
 5   0  0.3657529E-04  0.1102609E+04  0.7818609E-02  0.9202653E-01
        1   -1    0    0  501    0  0.00000000000E+00  0.00000000000E+00  0.47199567228E+03  0.47199567230E+03  0.50400001928E-02 0. -1.
       -1   -1    0    0    0  501  0.00000000000E+00  0.00000000000E+00 -0.64393919758E+03  0.64393919760E+03  0.50400001928E-02 0.  1.
    10030    2    1    2    0    0  0.00000000000E+00  0.00000000000E+00 -0.17194352531E+03  0.11159348699E+04  0.11026087511E+04 0.  0.
        4    1    3    3  502    0  0.30856693696E+02 -0.49372282083E+03 -0.33226563279E+03  0.59591645638E+03  0.12699999809E+01 0.  1.
       -4    1    3    3    0  502 -0.30856693696E+02  0.49372282083E+03  0.16032210748E+03  0.52001841352E+03  0.12699999809E+01 0. -1.
</event>
<event>
 5   0  0.3621403E-04  0.1100250E+04  0.7818609E-02  0.9204949E-01
       -1   -1    0    0    0  501  0.00000000000E+00  0.00000000000E+00  0.25822677302E+03  0.25822677307E+03  0.50400001928E-02 0.  1.
        1   -1    0    0  501    0  0.00000000000E+00  0.00000000000E+00 -0.11719826706E+04  0.11719826706E+04  0.50400001928E-02 0. -1.
    10030    2    1    2    0    0  0.00000000000E+00  0.00000000000E+00 -0.91375589755E+03  0.14302094437E+04  0.11002496137E+04 0.  0.
        3    1    3    3  502    0  0.39440812439E+03  0.35003249715E+03 -0.25317651568E+03  0.58496057640E+03  0.10100000352E+00 0. -1.
       -3    1    3    3    0  502 -0.39440812439E+03 -0.35003249715E+03 -0.66057938187E+03  0.84524886726E+03  0.10100000352E+00 0.  1.
</event>
<event>
 5   0  0.3523525E-04  0.1091434E+04  0.7818609E-02  0.9213581E-01
        1   -1    0    0  501    0  0.00000000000E+00  0.00000000000E+00  0.98881276955E+03  0.98881276956E+03  0.50400001928E-02 0.  1.
       -1   -1    0    0    0  501  0.00000000000E+00  0.00000000000E+00 -0.30117639982E+03  0.30117639986E+03  0.50400001928E-02 0. -1.
    10030    2    1    2    0    0  0.00000000000E+00  0.00000000000E+00  0.68763636973E+03  0.12899891694E+04  0.10914340476E+04 0.  0.
        5    1    3    3  502    0  0.77605094640E+01 -0.49519855576E+03  0.72997878150E+02  0.50063221565E+03  0.46999998093E+01 0. -1.
       -5    1    3    3    0  502 -0.77605094640E+01  0.49519855576E+03  0.61463849158E+03  0.78935695377E+03  0.46999998093E+01 0.  1.
</event>
<event>
 5   0  0.6109149E-04  0.1116084E+04  0.7818609E-02  0.9189656E-01
       -2   -1    0    0    0  501  0.00000000000E+00  0.00000000000E+00  0.23287542701E+03  0.23287542702E+03  0.25500000920E-02 0.  1.
        2   -1    0    0  501    0  0.00000000000E+00  0.00000000000E+00 -0.13372424682E+04  0.13372424682E+04  0.25500000920E-02 0. -1.
    10030    2    1    2    0    0  0.00000000000E+00  0.00000000000E+00 -0.11043670412E+04  0.15701178952E+04  0.11160840664E+04 0.  0.
        1    1    3    3  502    0 -0.34180850917E+03 -0.27199190850E+03 -0.10407299779E+04  0.11286857588E+04  0.50400001928E-02 0. -1.
       -1    1    3    3    0  502  0.34180850917E+03  0.27199190850E+03 -0.63637063317E+02  0.44143213644E+03  0.50400001928E-02 0.  1.
</event>
<event>
 5   0  0.6245176E-04  0.1099683E+04  0.7818609E-02  0.9205501E-01
        2   -1    0    0  501    0  0.00000000000E+00  0.00000000000E+00  0.12152916268E+04  0.12152916268E+04  0.25500000920E-02 0.  1.
       -2   -1    0    0    0  501  0.00000000000E+00  0.00000000000E+00 -0.24876785101E+03  0.24876785102E+03  0.25500000920E-02 0. -1.
    10030    2    1    2    0    0  0.00000000000E+00  0.00000000000E+00  0.96652377583E+03  0.14640594779E+04  0.10996826567E+04 0.  0.
        5    1    3    3  502    0  0.48315994696E+03  0.88765228937E+02  0.15449567609E+03  0.51498913012E+03  0.46999998093E+01 0. -1.
       -5    1    3    3    0  502 -0.48315994696E+03 -0.88765228937E+02  0.81202809974E+03  0.94907034774E+03  0.46999998093E+01 0.  1.
</event>
<event>
 5   0  0.3523525E-04  0.1097286E+04  0.7818609E-02  0.9207842E-01
       -1   -1    0    0    0  501  0.00000000000E+00  0.00000000000E+00  0.89324935981E+03  0.89324935983E+03  0.50400001928E-02 0.  1.
        1   -1    0    0  501    0  0.00000000000E+00  0.00000000000E+00 -0.33698196368E+03  0.33698196372E+03  0.50400001928E-02 0. -1.
    10030    2    1    2    0    0  0.00000000000E+00  0.00000000000E+00  0.55626739614E+03  0.12302313235E+04  0.10972856025E+04 0.  0.
        5    1    3    3  502    0  0.23332506642E+03 -0.45601039054E+03  0.49840863539E+03  0.71471625190E+03  0.46999998093E+01 0.  1.
       -5    1    3    3    0  502 -0.23332506642E+03  0.45601039054E+03  0.57858760745E+02  0.51551507164E+03  0.46999998093E+01 0. -1.
</event>
<event>
 5   0  0.3423758E-04  0.1099575E+04  0.7818609E-02  0.9205606E-01
       -1   -1    0    0    0  501  0.00000000000E+00  0.00000000000E+00  0.25586235063E+03  0.25586235068E+03  0.50400001928E-02 0. -1.
        1   -1    0    0  501    0  0.00000000000E+00  0.00000000000E+00 -0.11813638293E+04  0.11813638293E+04  0.50400001928E-02 0.  1.
    10030    2    1    2    0    0  0.00000000000E+00  0.00000000000E+00 -0.92550147865E+03  0.14372261800E+04  0.10995754205E+04 0.  0.
        1    1    3    3  502    0  0.40455322606E+03 -0.66993747760E+02 -0.94142365677E+03  0.10268544086E+04  0.50400001928E-02 0.  1.
       -1    1    3    3    0  502 -0.40455322606E+03  0.66993747760E+02  0.15922178114E+02  0.41037177136E+03  0.50400001928E-02 0. -1.
</event>
<event>
 5   0  0.6264830E-04  0.1105665E+04  0.7818609E-02  0.9199688E-01
        2   -1    0    0  501    0  0.00000000000E+00  0.00000000000E+00  0.11153295347E+04  0.11153295347E+04  0.25500000920E-02 0. -1.
       -2   -1    0    0    0  501  0.00000000000E+00  0.00000000000E+00 -0.27402101024E+03  0.27402101025E+03  0.25500000920E-02 0.  1.
    10030    2    1    2    0    0  0.00000000000E+00  0.00000000000E+00  0.84130852444E+03  0.13893505449E+04  0.11056649146E+04 0.  0.
        4    1    3    3  502    0 -0.83606650517E+02  0.22410024689E+03  0.10469418777E+04  0.10739180140E+04  0.12699999809E+01 0. -1.
       -4    1    3    3    0  502  0.83606650517E+02 -0.22410024689E+03 -0.20563335327E+03  0.31543253089E+03  0.12699999809E+01 0.  1.
</event>
<event>
 5   0  0.3423758E-04  0.1100330E+04  0.7818609E-02  0.9204870E-01
       -1   -1    0    0    0  501  0.00000000000E+00  0.00000000000E+00  0.30914197407E+03  0.30914197412E+03  0.50400001928E-02 0. -1.
        1   -1    0    0  501    0  0.00000000000E+00  0.00000000000E+00 -0.97910254617E+03  0.97910254619E+03  0.50400001928E-02 0.  1.
    10030    2    1    2    0    0  0.00000000000E+00  0.00000000000E+00 -0.66996057210E+03  0.12882445203E+04  0.11003303031E+04 0.  0.
        1    1    3    3  502    0 -0.11760178325E+03 -0.13270579733E+02 -0.96402298068E+03  0.97126031269E+03  0.50400001928E-02 0.  1.
       -1    1    3    3    0  502  0.11760178325E+03  0.13270579733E+02  0.29406240858E+03  0.31698420761E+03  0.50400001928E-02 0. -1.
</event>
<event>
 5   0  0.6264830E-04  0.1106245E+04  0.7818609E-02  0.9199127E-01
        2   -1    0    0  501    0  0.00000000000E+00  0.00000000000E+00  0.14694404465E+04  0.14694404465E+04  0.25500000920E-02 0. -1.
       -2   -1    0    0    0  501  0.00000000000E+00  0.00000000000E+00 -0.20820470043E+03  0.20820470045E+03  0.25500000920E-02 0.  1.
    10030    2    1    2    0    0  0.00000000000E+00  0.00000000000E+00  0.12612357461E+04  0.16776451469E+04  0.11062448336E+04 0.  0.
        4    1    3    3  502    0  0.47885129692E+03  0.20483056738E+03  0.91306858170E+03  0.10511660067E+04  0.12699999809E+01 0.  1.
       -4    1    3    3    0  502 -0.47885129692E+03 -0.20483056738E+03  0.34816716435E+03  0.62647914021E+03  0.12699999809E+01 0. -1.
</event>
<event>
 5   0  0.6109149E-04  0.1101333E+04  0.7818609E-02  0.9203893E-01
       -2   -1    0    0    0  501  0.00000000000E+00  0.00000000000E+00  0.62440736979E+03  0.62440736979E+03  0.25500000920E-02 0. -1.
        2   -1    0    0  501    0  0.00000000000E+00  0.00000000000E+00 -0.48563448654E+03  0.48563448654E+03  0.25500000920E-02 0.  1.
    10030    2    1    2    0    0  0.00000000000E+00  0.00000000000E+00  0.13877288325E+03  0.11100418563E+04  0.11013332873E+04 0.  0.
        1    1    3    3  502    0  0.33031769884E+03 -0.26228252496E+03  0.42620818416E+03  0.59962931995E+03  0.50400001928E-02 0. -1.
       -1    1    3    3    0  502 -0.33031769884E+03  0.26228252496E+03 -0.28743530091E+03  0.51041253639E+03  0.50400001928E-02 0.  1.
</event>
<event>
 5   0  0.2403875E-04  0.1102008E+04  0.7818609E-02  0.9203237E-01
       -4   -1    0    0    0  501  0.00000000000E+00  0.00000000000E+00  0.29012619056E+03  0.29012897020E+03  0.12699999809E+01 0.  1.
        4   -1    0    0  501    0  0.00000000000E+00  0.00000000000E+00 -0.10464519623E+04  0.10464527330E+04  0.12699999809E+01 0. -1.
    10030    2    1    2    0    0  0.00000000000E+00  0.00000000000E+00 -0.75632577175E+03  0.13365817032E+04  0.11020081561E+04 0.  0.
        2    1    3    3  502    0 -0.14202432184E+03 -0.49839867167E+03 -0.60517630905E+03  0.79674996640E+03  0.25500000920E-02 0.  1.
       -2    1    3    3    0  502  0.14202432184E+03  0.49839867167E+03 -0.15114946270E+03  0.53983173675E+03  0.25500000920E-02 0. -1.
</event>
<event>
 5   0  0.3423758E-04  0.1099428E+04  0.7818609E-02  0.9205749E-01
       -1   -1    0    0    0  501  0.00000000000E+00  0.00000000000E+00  0.60594001810E+03  0.60594001812E+03  0.50400001928E-02 0.  1.
        1   -1    0    0  501    0  0.00000000000E+00  0.00000000000E+00 -0.49870543560E+03  0.49870543563E+03  0.50400001928E-02 0. -1.
    10030    2    1    2    0    0  0.00000000000E+00  0.00000000000E+00  0.10723458250E+03  0.11046454537E+04  0.10994281799E+04 0.  0.
        1    1    3    3  502    0  0.47697662263E+03  0.27127884250E+03  0.86738428032E+02  0.55553799496E+03  0.50400001928E-02 0.  1.
       -1    1    3    3    0  502 -0.47697662263E+03 -0.27127884250E+03  0.20496154467E+02  0.54910745879E+03  0.50400001928E-02 0. -1.
</event>
<event>
 5   0  0.3523525E-04  0.1097410E+04  0.7818609E-02  0.9207720E-01
       -1   -1    0    0    0  501  0.00000000000E+00  0.00000000000E+00  0.21732915390E+03  0.21732915396E+03  0.50400001928E-02 0.  1.
        1   -1    0    0  501    0  0.00000000000E+00  0.00000000000E+00 -0.13853520494E+04  0.13853520494E+04  0.50400001928E-02 0. -1.
    10030    2    1    2    0    0  0.00000000000E+00  0.00000000000E+00 -0.11680228955E+04  0.16026812033E+04  0.10974103859E+04 0.  0.
        5    1    3    3  502    0  0.24621059965E+02 -0.54462004368E+03 -0.49353473796E+03  0.73540180591E+03  0.46999998093E+01 0.  1.
       -5    1    3    3    0  502 -0.24621059965E+02  0.54462004368E+03 -0.67448815749E+03  0.86727939741E+03  0.46999998093E+01 0. -1.
</event>
<event>
 5   0  0.6264830E-04  0.1099582E+04  0.7818609E-02  0.9205600E-01
       -2   -1    0    0    0  501  0.00000000000E+00  0.00000000000E+00  0.35051244315E+03  0.35051244316E+03  0.25500000920E-02 0. -1.
        2   -1    0    0  501    0  0.00000000000E+00  0.00000000000E+00 -0.86236577882E+03  0.86236577883E+03  0.25500000920E-02 0.  1.
    10030    2    1    2    0    0  0.00000000000E+00  0.00000000000E+00 -0.51185333567E+03  0.12128782220E+04  0.10995816223E+04 0.  0.
        4    1    3    3  502    0 -0.48283486579E+03  0.22347604953E+03 -0.40875696973E+03  0.67093585798E+03  0.12699999809E+01 0. -1.
       -4    1    3    3    0  502  0.48283486579E+03 -0.22347604953E+03 -0.10309636595E+03  0.54194236400E+03  0.12699999809E+01 0.  1.
</event>
<event>
 5   0  0.3657529E-04  0.1100593E+04  0.7818609E-02  0.9204614E-01
       -1   -1    0    0    0  501  0.00000000000E+00  0.00000000000E+00  0.20888828546E+03  0.20888828552E+03  0.50400001928E-02 0.  1.
        1   -1    0    0  501    0  0.00000000000E+00  0.00000000000E+00 -0.14497049993E+04  0.14497049993E+04  0.50400001928E-02 0. -1.
    10030    2    1    2    0    0  0.00000000000E+00  0.00000000000E+00 -0.12408167139E+04  0.16585932849E+04  0.11005932796E+04 0.  0.
        4    1    3    3  502    0  0.10742072844E+03  0.46378495775E+03 -0.10363758644E+04  0.11404877225E+04  0.12699999809E+01 0. -1.
       -4    1    3    3    0  502 -0.10742072844E+03 -0.46378495775E+03 -0.20444084948E+03  0.51810556238E+03  0.12699999809E+01 0.  1.
</event>
<event>
 5   0  0.6264830E-04  0.1099397E+04  0.7818609E-02  0.9205780E-01
       -2   -1    0    0    0  501  0.00000000000E+00  0.00000000000E+00  0.56067034509E+03  0.56067034510E+03  0.25500000920E-02 0.  1.
        2   -1    0    0  501    0  0.00000000000E+00  0.00000000000E+00 -0.53894105078E+03  0.53894105079E+03  0.25500000920E-02 0. -1.
    10030    2    1    2    0    0  0.00000000000E+00  0.00000000000E+00  0.21729294312E+02  0.10996113959E+04  0.10993966799E+04 0.  0.
        4    1    3    3  502    0  0.25411878548E+03  0.39444379968E+02 -0.47506399111E+03  0.54020331802E+03  0.12699999809E+01 0. -1.
       -4    1    3    3    0  502 -0.25411878548E+03 -0.39444379968E+02  0.49679328542E+03  0.55940807787E+03  0.12699999809E+01 0.  1.
</event>
<event>
 5   0  0.3642161E-04  0.1106576E+04  0.7818609E-02  0.9198806E-01
        1   -1    0    0  501    0  0.00000000000E+00  0.00000000000E+00  0.33375355036E+03  0.33375355040E+03  0.50400001928E-02 0. -1.
       -1   -1    0    0    0  501  0.00000000000E+00  0.00000000000E+00 -0.91722623621E+03  0.91722623623E+03  0.50400001928E-02 0.  1.
    10030    2    1    2    0    0  0.00000000000E+00  0.00000000000E+00 -0.58347268585E+03  0.12509797866E+04  0.11065758227E+04 0.  0.
        2    1    3    3  502    0  0.18063617125E+03  0.31829998686E+03 -0.76083534467E+03  0.84428356001E+03  0.25500000920E-02 0.  1.
       -2    1    3    3    0  502 -0.18063617125E+03 -0.31829998686E+03  0.17736265882E+03  0.40669622662E+03  0.25500000920E-02 0. -1.
</event>
<event>
 5   0  0.6109149E-04  0.1098158E+04  0.7818609E-02  0.9206989E-01
       -2   -1    0    0    0  501  0.00000000000E+00  0.00000000000E+00  0.14752362468E+03  0.14752362470E+03  0.25500000920E-02 0. -1.
        2   -1    0    0  501    0  0.00000000000E+00  0.00000000000E+00 -0.20436587590E+04  0.20436587590E+04  0.25500000920E-02 0.  1.
    10030    2    1    2    0    0  0.00000000000E+00  0.00000000000E+00 -0.18961351344E+04  0.21911823837E+04  0.10981583634E+04 0.  0.
        1    1    3    3  502    0 -0.28507018817E+03  0.45370771882E+03 -0.11872756257E+04  0.13025893895E+04  0.50400001928E-02 0.  1.
       -1    1    3    3    0  502  0.28507018817E+03 -0.45370771882E+03 -0.70885950863E+03  0.88859299418E+03  0.50400001928E-02 0. -1.
</event>
<event>
 5   0  0.3423758E-04  0.1091824E+04  0.7818609E-02  0.9213197E-01
        1   -1    0    0  501    0  0.00000000000E+00  0.00000000000E+00  0.55091641149E+03  0.55091641151E+03  0.50400001928E-02 0.  1.
       -1   -1    0    0    0  501  0.00000000000E+00  0.00000000000E+00 -0.54095348764E+03  0.54095348767E+03  0.50400001928E-02 0. -1.
    10030    2    1    2    0    0  0.00000000000E+00  0.00000000000E+00  0.99629238471E+01  0.10918698992E+04  0.10918244442E+04 0.  0.
        1    1    3    3  502    0  0.13535128130E+03 -0.41388482788E+03  0.33423601405E+03  0.54893928008E+03  0.50400001928E-02 0.  1.
       -1    1    3    3    0  502 -0.13535128130E+03  0.41388482788E+03 -0.32427309020E+03  0.54293061910E+03  0.50400001928E-02 0. -1.
</event>
<event>
 5   0  0.3423758E-04  0.1098416E+04  0.7818609E-02  0.9206737E-01
        1   -1    0    0  501    0  0.00000000000E+00  0.00000000000E+00  0.50544512645E+03  0.50544512647E+03  0.50400001928E-02 0.  1.
       -1   -1    0    0    0  501  0.00000000000E+00  0.00000000000E+00 -0.59675970960E+03  0.59675970962E+03  0.50400001928E-02 0. -1.
    10030    2    1    2    0    0  0.00000000000E+00  0.00000000000E+00 -0.91314583156E+02  0.11022048361E+04  0.10984157444E+04 0.  0.
        1    1    3    3  502    0 -0.19525554079E+02 -0.50914430696E+03  0.16003791804E+03  0.53406114613E+03  0.50400001928E-02 0.  1.
       -1    1    3    3    0  502  0.19525554079E+02  0.50914430696E+03 -0.25135250119E+03  0.56814368997E+03  0.50400001928E-02 0. -1.
</event>
<event>
 5   0  0.3621403E-04  0.1099693E+04  0.7818609E-02  0.9205491E-01
       -1   -1    0    0    0  501  0.00000000000E+00  0.00000000000E+00  0.26070312201E+03  0.26070312206E+03  0.50400001928E-02 0. -1.
        1   -1    0    0  501    0  0.00000000000E+00  0.00000000000E+00 -0.11596762899E+04  0.11596762899E+04  0.50400001928E-02 0.  1.
    10030    2    1    2    0    0  0.00000000000E+00  0.00000000000E+00 -0.89897316793E+03  0.14203794120E+04  0.10996931015E+04 0.  0.
        3    1    3    3  502    0 -0.37580369520E+03  0.27225973382E+02 -0.96671572848E+03  0.10375495077E+04  0.10100000352E+00 0.  1.
       -3    1    3    3    0  502  0.37580369520E+03 -0.27225973382E+02  0.67742560552E+02  0.38282990434E+03  0.10100000352E+00 0. -1.
</event>
<event>
 5   0  0.5948818E-04  0.1097846E+04  0.7818609E-02  0.9207294E-01
       -2   -1    0    0    0  501  0.00000000000E+00  0.00000000000E+00  0.61692856915E+03  0.61692856915E+03  0.25500000920E-02 0.  1.
        2   -1    0    0  501    0  0.00000000000E+00  0.00000000000E+00 -0.48841392194E+03  0.48841392195E+03  0.25500000920E-02 0. -1.
    10030    2    1    2    0    0  0.00000000000E+00  0.00000000000E+00  0.12851464720E+03  0.11053424911E+04  0.10978460767E+04 0.  0.
        3    1    3    3  502    0  0.45909846236E+03 -0.15880656189E+03  0.32159123052E+03  0.58259063843E+03  0.10100000352E+00 0.  1.
       -3    1    3    3    0  502 -0.45909846236E+03  0.15880656189E+03 -0.19307658331E+03  0.52275185267E+03  0.10100000352E+00 0. -1.
</event>
<event>
 5   0  0.6412712E-04  0.1099158E+04  0.7818609E-02  0.9206013E-01
       -2   -1    0    0    0  501  0.00000000000E+00  0.00000000000E+00  0.32761359944E+03  0.32761359945E+03  0.25500000920E-02 0. -1.
        2   -1    0    0  501    0  0.00000000000E+00  0.00000000000E+00 -0.92193059863E+03  0.92193059864E+03  0.25500000920E-02 0.  1.
    10030    2    1    2    0    0  0.00000000000E+00  0.00000000000E+00 -0.59431699919E+03  0.12495441981E+04  0.10991578628E+04 0.  0.
        2    1    3    3  502    0 -0.51432061057E+03  0.64176518700E+01 -0.51721496001E+03  0.72943690034E+03  0.25500000920E-02 0.  1.
       -2    1    3    3    0  502  0.51432061057E+03 -0.64176518700E+01 -0.77102039186E+02  0.52010729774E+03  0.25500000920E-02 0. -1.
</event>
<event>
 5   0  0.3642161E-04  0.1083701E+04  0.7818609E-02  0.9221225E-01
        1   -1    0    0  501    0  0.00000000000E+00  0.00000000000E+00  0.65499772274E+03  0.65499772276E+03  0.50400001928E-02 0.  1.
       -1   -1    0    0    0  501  0.00000000000E+00  0.00000000000E+00 -0.44824905888E+03  0.44824905891E+03  0.50400001928E-02 0. -1.
    10030    2    1    2    0    0  0.00000000000E+00  0.00000000000E+00  0.20674866386E+03  0.11032467817E+04  0.10837012740E+04 0.  0.
        2    1    3    3  502    0  0.10006006738E+03 -0.51094280184E+02  0.64300966781E+03  0.65275115891E+03  0.25500000920E-02 0.  1.
       -2    1    3    3    0  502 -0.10006006738E+03  0.51094280184E+02 -0.43626100395E+03  0.45049562276E+03  0.25500000920E-02 0. -1.
</event>
<event>
 5   0  0.6109149E-04  0.1085465E+04  0.7818609E-02  0.9219476E-01
       -2   -1    0    0    0  501  0.00000000000E+00  0.00000000000E+00  0.23385002057E+03  0.23385002059E+03  0.25500000920E-02 0.  1.
        2   -1    0    0  501    0  0.00000000000E+00  0.00000000000E+00 -0.12596042906E+04  0.12596042906E+04  0.25500000920E-02 0. -1.
    10030    2    1    2    0    0  0.00000000000E+00  0.00000000000E+00 -0.10257542701E+04  0.14934543112E+04  0.10854648576E+04 0.  0.
        1    1    3    3  502    0 -0.39914228515E+03 -0.53680395768E+02 -0.10134397289E+04  0.10905302531E+04  0.50400001928E-02 0. -1.
       -1    1    3    3    0  502  0.39914228515E+03  0.53680395768E+02 -0.12314541124E+02  0.40292405814E+03  0.50400001928E-02 0.  1.
</event>
<event>
 5   0  0.6245176E-04  0.1108411E+04  0.7818609E-02  0.9197032E-01
       -2   -1    0    0    0  501  0.00000000000E+00  0.00000000000E+00  0.33713947601E+03  0.33713947602E+03  0.25500000920E-02 0.  1.
        2   -1    0    0  501    0  0.00000000000E+00  0.00000000000E+00 -0.91102929196E+03  0.91102929197E+03  0.25500000920E-02 0. -1.
    10030    2    1    2    0    0  0.00000000000E+00  0.00000000000E+00 -0.57388981595E+03  0.12481687680E+04  0.11084113643E+04 0.  0.
        5    1    3    3  502    0 -0.38356042113E+03 -0.57892045603E+02  0.15875237265E+03  0.41915926737E+03  0.46999998093E+01 0. -1.
       -5    1    3    3    0  502  0.38356042113E+03  0.57892045603E+02 -0.73264218860E+03  0.82900950062E+03  0.46999998093E+01 0.  1.
</event>
<event>
 5   0  0.3657529E-04  0.1100884E+04  0.7818609E-02  0.9204331E-01
       -1   -1    0    0    0  501  0.00000000000E+00  0.00000000000E+00  0.25904708974E+03  0.25904708978E+03  0.50400001928E-02 0. -1.
        1   -1    0    0  501    0  0.00000000000E+00  0.00000000000E+00 -0.11696182523E+04  0.11696182523E+04  0.50400001928E-02 0.  1.
    10030    2    1    2    0    0  0.00000000000E+00  0.00000000000E+00 -0.91057116254E+03  0.14286653421E+04  0.11008836531E+04 0.  0.
        4    1    3    3  502    0 -0.40162568170E+03 -0.34005905998E+03 -0.66470642658E+03  0.84780870420E+03  0.12699999809E+01 0.  1.
       -4    1    3    3    0  502  0.40162568170E+03  0.34005905998E+03 -0.24586473596E+03  0.58085663787E+03  0.12699999809E+01 0. -1.
</event>
<event>
 5   0  0.6109149E-04  0.1101004E+04  0.7818609E-02  0.9204214E-01
        2   -1    0    0  501    0  0.00000000000E+00  0.00000000000E+00  0.25554868824E+04  0.25554868824E+04  0.25500000920E-02 0. -1.
       -2   -1    0    0    0  501  0.00000000000E+00  0.00000000000E+00 -0.11858887249E+03  0.11858887251E+03  0.25500000920E-02 0.  1.
    10030    2    1    2    0    0  0.00000000000E+00  0.00000000000E+00  0.24368980099E+04  0.26740757549E+04  0.11010037386E+04 0.  0.
        1    1    3    3  502    0  0.10452042927E+03 -0.53854800801E+03  0.11073127587E+04  0.12357588853E+04  0.50400001928E-02 0. -1.
       -1    1    3    3    0  502 -0.10452042927E+03  0.53854800801E+03  0.13295852513E+04  0.14383168696E+04  0.50400001928E-02 0.  1.
</event>
<event>
 5   0  0.3423758E-04  0.1094740E+04  0.7818609E-02  0.9210334E-01
       -1   -1    0    0    0  501  0.00000000000E+00  0.00000000000E+00  0.59692206364E+03  0.59692206366E+03  0.50400001928E-02 0.  1.
        1   -1    0    0  501    0  0.00000000000E+00  0.00000000000E+00 -0.50193093513E+03  0.50193093516E+03  0.50400001928E-02 0. -1.
    10030    2    1    2    0    0  0.00000000000E+00  0.00000000000E+00  0.94991128504E+02  0.10988529988E+04  0.10947395117E+04 0.  0.
        1    1    3    3  502    0  0.95979688219E+02 -0.12223170451E+03 -0.47932028542E+03  0.50388552885E+03  0.50400001928E-02 0. -1.
       -1    1    3    3    0  502 -0.95979688219E+02  0.12223170451E+03  0.57431141393E+03  0.59496746997E+03  0.50400001928E-02 0.  1.
</event>
<event>
 5   0  0.6109149E-04  0.1100738E+04  0.7818609E-02  0.9204473E-01
       -2   -1    0    0    0  501  0.00000000000E+00  0.00000000000E+00  0.34965605423E+03  0.34965605424E+03  0.25500000920E-02 0. -1.
        2   -1    0    0  501    0  0.00000000000E+00  0.00000000000E+00 -0.86629758156E+03  0.86629758156E+03  0.25500000920E-02 0.  1.
    10030    2    1    2    0    0  0.00000000000E+00  0.00000000000E+00 -0.51664152733E+03  0.12159536358E+04  0.11007382871E+04 0.  0.
        1    1    3    3  502    0  0.27211758769E+03 -0.47826648497E+03 -0.24625090204E+03  0.60284850415E+03  0.50400001928E-02 0.  1.
       -1    1    3    3    0  502 -0.27211758769E+03  0.47826648497E+03 -0.27039062529E+03  0.61310513164E+03  0.50400001928E-02 0. -1.
</event>
<event>
 5   0  0.3657529E-04  0.1100934E+04  0.7818609E-02  0.9204282E-01
        1   -1    0    0  501    0  0.00000000000E+00  0.00000000000E+00  0.10544739077E+04  0.10544739077E+04  0.50400001928E-02 0. -1.
       -1   -1    0    0    0  501  0.00000000000E+00  0.00000000000E+00 -0.28736050489E+03  0.28736050494E+03  0.50400001928E-02 0.  1.
    10030    2    1    2    0    0  0.00000000000E+00  0.00000000000E+00  0.76711340282E+03  0.13418344127E+04  0.11009344296E+04 0.  0.
        4    1    3    3  502    0 -0.50990809957E+03 -0.11599903664E+03  0.17403941864E+03  0.55113825729E+03  0.12699999809E+01 0.  1.
       -4    1    3    3    0  502  0.50990809957E+03  0.11599903664E+03  0.59307398418E+03  0.79069615537E+03  0.12699999809E+01 0. -1.
</event>
<event>
 5   0  0.6412712E-04  0.1100228E+04  0.7818609E-02  0.9204969E-01
        2   -1    0    0  501    0  0.00000000000E+00  0.00000000000E+00  0.74632205343E+03  0.74632205344E+03  0.25500000920E-02 0.  1.
       -2   -1    0    0    0  501  0.00000000000E+00  0.00000000000E+00 -0.40548920866E+03  0.40548920867E+03  0.25500000920E-02 0. -1.
    10030    2    1    2    0    0  0.00000000000E+00  0.00000000000E+00  0.34083284477E+03  0.11518112621E+04  0.11002282288E+04 0.  0.
        2    1    3    3  502    0  0.44627953606E+03 -0.23307224910E+03  0.40247883652E+03  0.64457529541E+03  0.25500000920E-02 0.  1.
       -2    1    3    3    0  502 -0.44627953606E+03  0.23307224910E+03 -0.61645991747E+02  0.50723596670E+03  0.25500000920E-02 0. -1.
</event>
<event>
 5   0  0.6412712E-04  0.1129498E+04  0.7818609E-02  0.9176909E-01
        2   -1    0    0  501    0  0.00000000000E+00  0.00000000000E+00  0.83886805283E+03  0.83886805283E+03  0.25500000920E-02 0.  1.
       -2   -1    0    0    0  501  0.00000000000E+00  0.00000000000E+00 -0.38020444147E+03  0.38020444148E+03  0.25500000920E-02 0. -1.
    10030    2    1    2    0    0  0.00000000000E+00  0.00000000000E+00  0.45866361135E+03  0.12190724943E+04  0.11294978699E+04 0.  0.
        2    1    3    3  502    0 -0.37218378079E+03  0.32192699239E+02 -0.22779452555E+03  0.43754712026E+03  0.25500000920E-02 0. -1.
       -2    1    3    3    0  502  0.37218378079E+03 -0.32192699239E+02  0.68645813691E+03  0.78152537406E+03  0.25500000920E-02 0.  1.
</event>
<event>
 5   0  0.3657529E-04  0.1099640E+04  0.7818609E-02  0.9205542E-01
        1   -1    0    0  501    0  0.00000000000E+00  0.00000000000E+00  0.36006130392E+03  0.36006130395E+03  0.50400001928E-02 0.  1.
       -1   -1    0    0    0  501  0.00000000000E+00  0.00000000000E+00 -0.83958542098E+03  0.83958542099E+03  0.50400001928E-02 0. -1.
    10030    2    1    2    0    0  0.00000000000E+00  0.00000000000E+00 -0.47952411706E+03  0.11996467249E+04  0.10996403439E+04 0.  0.
        4    1    3    3  502    0 -0.54899810021E+03  0.88645708604E+01 -0.27106121825E+03  0.61233429725E+03  0.12699999809E+01 0. -1.
       -4    1    3    3    0  502  0.54899810021E+03 -0.88645708604E+01 -0.20846289881E+03  0.58731242770E+03  0.12699999809E+01 0.  1.
</event>
<event>
 5   0  0.3523525E-04  0.1098430E+04  0.7818609E-02  0.9206723E-01
       -1   -1    0    0    0  501  0.00000000000E+00  0.00000000000E+00  0.65273938199E+03  0.65273938201E+03  0.50400001928E-02 0. -1.
        1   -1    0    0  501    0  0.00000000000E+00  0.00000000000E+00 -0.46210996123E+03  0.46210996126E+03  0.50400001928E-02 0.  1.
    10030    2    1    2    0    0  0.00000000000E+00  0.00000000000E+00  0.19062942076E+03  0.11148493433E+04  0.10984304630E+04 0.  0.
        5    1    3    3  502    0 -0.54414814181E+03 -0.10140478158E+02  0.17000306797E+03  0.57019572311E+03  0.46999998093E+01 0. -1.
       -5    1    3    3    0  502  0.54414814181E+03  0.10140478158E+02  0.20626352790E+02  0.54465362016E+03  0.46999998093E+01 0.  1.
</event>
<event>
 5   0  0.2403875E-04  0.1102320E+04  0.7818609E-02  0.9202933E-01
       -4   -1    0    0    0  501  0.00000000000E+00  0.00000000000E+00  0.72763436429E+03  0.72763547261E+03  0.12699999809E+01 0.  1.
        4   -1    0    0  501    0  0.00000000000E+00  0.00000000000E+00 -0.41748408239E+03  0.41748601407E+03  0.12699999809E+01 0. -1.
    10030    2    1    2    0    0  0.00000000000E+00  0.00000000000E+00  0.31015028191E+03  0.11451214867E+04  0.11023202901E+04 0.  0.
        5    1    3    3  502    0 -0.43641501249E+03  0.11968473176E+03  0.48189011598E+03  0.66107690326E+03  0.46999998093E+01 0.  1.
       -5    1    3    3    0  502  0.43641501249E+03 -0.11968473176E+03 -0.17173983407E+03  0.48404458343E+03  0.46999998093E+01 0. -1.
</event>
<event>
 5   0  0.5948818E-04  0.1095509E+04  0.7818609E-02  0.9209581E-01
        2   -1    0    0  501    0  0.00000000000E+00  0.00000000000E+00  0.16880872074E+04  0.16880872074E+04  0.25500000920E-02 0. -1.
       -2   -1    0    0    0  501  0.00000000000E+00  0.00000000000E+00 -0.17773654261E+03  0.17773654263E+03  0.25500000920E-02 0.  1.
    10030    2    1    2    0    0  0.00000000000E+00  0.00000000000E+00  0.15103506648E+04  0.18658237500E+04  0.10955086196E+04 0.  0.
        3    1    3    3  502    0 -0.35500153432E+03 -0.20478807926E+03  0.13622218856E+03  0.43188047146E+03  0.10100000352E+00 0.  1.
       -3    1    3    3    0  502  0.35500153432E+03  0.20478807926E+03  0.13741284762E+04  0.14339432786E+04  0.10100000352E+00 0. -1.
</event>
<event>
 5   0  0.3642161E-04  0.1099817E+04  0.7818609E-02  0.9205370E-01
       -1   -1    0    0    0  501  0.00000000000E+00  0.00000000000E+00  0.23072588213E+03  0.23072588218E+03  0.50400001928E-02 0. -1.
        1   -1    0    0  501    0  0.00000000000E+00  0.00000000000E+00 -0.13106431143E+04  0.13106431143E+04  0.50400001928E-02 0.  1.
    10030    2    1    2    0    0  0.00000000000E+00  0.00000000000E+00 -0.10799172321E+04  0.15413689964E+04  0.10998168734E+04 0.  0.
        2    1    3    3  502    0 -0.43769643048E+02 -0.52999306524E+02  0.22468156510E+03  0.23496066446E+03  0.25500000920E-02 0. -1.
       -2    1    3    3    0  502  0.43769643048E+02  0.52999306524E+02 -0.13045987972E+04  0.13064083320E+04  0.25500000920E-02 0.  1.
</event>
<event>
 5   0  0.3423758E-04  0.1101113E+04  0.7818609E-02  0.9204108E-01
        1   -1    0    0  501    0  0.00000000000E+00  0.00000000000E+00  0.72253219112E+03  0.72253219113E+03  0.50400001928E-02 0.  1.
       -1   -1    0    0    0  501  0.00000000000E+00  0.00000000000E+00 -0.41951417456E+03  0.41951417459E+03  0.50400001928E-02 0. -1.
    10030    2    1    2    0    0  0.00000000000E+00  0.00000000000E+00  0.30301801656E+03  0.11420463657E+04  0.11011130655E+04 0.  0.
        1    1    3    3  502    0 -0.18562838399E+02 -0.44229850967E+03  0.49099943333E+03  0.66109983677E+03  0.50400001928E-02 0. -1.
       -1    1    3    3    0  502  0.18562838399E+02  0.44229850967E+03 -0.18798141677E+03  0.48094652895E+03  0.50400001928E-02 0.  1.
</event>
<event>
 5   0  0.6109149E-04  0.1100858E+04  0.7818609E-02  0.9204356E-01
       -2   -1    0    0    0  501  0.00000000000E+00  0.00000000000E+00  0.61872908496E+03  0.61872908497E+03  0.25500000920E-02 0.  1.
        2   -1    0    0  501    0  0.00000000000E+00  0.00000000000E+00 -0.48966832567E+03  0.48966832568E+03  0.25500000920E-02 0. -1.
    10030    2    1    2    0    0  0.00000000000E+00  0.00000000000E+00  0.12906075929E+03  0.11083974106E+04  0.11008579111E+04 0.  0.
        1    1    3    3  502    0 -0.14887119930E+03 -0.58472802803E+02  0.59481605460E+03  0.61594467405E+03  0.50400001928E-02 0.  1.
       -1    1    3    3    0  502  0.14887119930E+03  0.58472802803E+02 -0.46575529531E+03  0.49245273660E+03  0.50400001928E-02 0. -1.
</event>
<event>
 5   0  0.3523525E-04  0.1102011E+04  0.7818609E-02  0.9203234E-01
        1   -1    0    0  501    0  0.00000000000E+00  0.00000000000E+00  0.64706312748E+03  0.64706312750E+03  0.50400001928E-02 0. -1.
       -1   -1    0    0    0  501  0.00000000000E+00  0.00000000000E+00 -0.46920803914E+03  0.46920803917E+03  0.50400001928E-02 0.  1.
    10030    2    1    2    0    0  0.00000000000E+00  0.00000000000E+00  0.17785508834E+03  0.11162711667E+04  0.11020112908E+04 0.  0.
        5    1    3    3  502    0  0.35752742106E+03  0.10242155947E+03  0.50072104885E+03  0.62374649611E+03  0.46999998093E+01 0. -1.
       -5    1    3    3    0  502 -0.35752742106E+03 -0.10242155947E+03 -0.32286596051E+03  0.49252467056E+03  0.46999998093E+01 0.  1.
</event>
<event>
 5   0  0.3523525E-04  0.1100802E+04  0.7818609E-02  0.9204410E-01
        1   -1    0    0  501    0  0.00000000000E+00  0.00000000000E+00  0.84637849681E+03  0.84637849683E+03  0.50400001928E-02 0. -1.
       -1   -1    0    0    0  501  0.00000000000E+00  0.00000000000E+00 -0.35792660195E+03  0.35792660198E+03  0.50400001928E-02 0.  1.
    10030    2    1    2    0    0  0.00000000000E+00  0.00000000000E+00  0.48845189486E+03  0.12043050988E+04  0.11008022154E+04 0.  0.
        5    1    3    3  502    0 -0.11387930231E+03 -0.20140431302E+03  0.79056748391E+03  0.82374221053E+03  0.46999998093E+01 0. -1.
       -5    1    3    3    0  502  0.11387930231E+03  0.20140431302E+03 -0.30211558904E+03  0.38056288828E+03  0.46999998093E+01 0.  1.
</event>
<event>
 5   0  0.6412712E-04  0.1096158E+04  0.7818609E-02  0.9208944E-01
       -2   -1    0    0    0  501  0.00000000000E+00  0.00000000000E+00  0.26561618848E+03  0.26561618849E+03  0.25500000920E-02 0.  1.
        2   -1    0    0  501    0  0.00000000000E+00  0.00000000000E+00 -0.11309201001E+04  0.11309201001E+04  0.25500000920E-02 0. -1.
    10030    2    1    2    0    0  0.00000000000E+00  0.00000000000E+00 -0.86530391165E+03  0.13965362886E+04  0.10961581756E+04 0.  0.
        2    1    3    3  502    0 -0.19027767897E+03  0.33995627793E+03  0.58493418817E+02  0.39395094373E+03  0.25500000920E-02 0.  1.
       -2    1    3    3    0  502  0.19027767897E+03 -0.33995627793E+03 -0.92379733046E+03  0.10025853449E+04  0.25500000920E-02 0. -1.
</event>
<event>
 5   0  0.6412712E-04  0.1102406E+04  0.7818609E-02  0.9202850E-01
       -2   -1    0    0    0  501  0.00000000000E+00  0.00000000000E+00  0.32555220396E+03  0.32555220397E+03  0.25500000920E-02 0.  1.
        2   -1    0    0  501    0  0.00000000000E+00  0.00000000000E+00 -0.93325892317E+03  0.93325892318E+03  0.25500000920E-02 0. -1.
    10030    2    1    2    0    0  0.00000000000E+00  0.00000000000E+00 -0.60770671922E+03  0.12588111271E+04  0.11024055503E+04 0.  0.
        2    1    3    3  502    0  0.25557152305E+03 -0.24344742187E+03  0.17958145188E+03  0.39602139902E+03  0.25500000920E-02 0.  1.
       -2    1    3    3    0  502 -0.25557152305E+03  0.24344742187E+03 -0.78728817109E+03  0.86278972813E+03  0.25500000920E-02 0. -1.
</event>
<event>
 5   0  0.3621403E-04  0.1101147E+04  0.7818609E-02  0.9204075E-01
       -1   -1    0    0    0  501  0.00000000000E+00  0.00000000000E+00  0.50679473899E+03  0.50679473902E+03  0.50400001928E-02 0.  1.
        1   -1    0    0  501    0  0.00000000000E+00  0.00000000000E+00 -0.59813390266E+03  0.59813390268E+03  0.50400001928E-02 0. -1.
    10030    2    1    2    0    0  0.00000000000E+00  0.00000000000E+00 -0.91339163667E+02  0.11049286417E+04  0.11011468841E+04 0.  0.
        3    1    3    3  502    0 -0.17649159807E+03  0.29647206758E+03 -0.47619571213E+03  0.58805385595E+03  0.10100000352E+00 0. -1.
       -3    1    3    3    0  502  0.17649159807E+03 -0.29647206758E+03  0.38485654847E+03  0.51687478575E+03  0.10100000352E+00 0.  1.
</event>
<event>
 5   0  0.6245176E-04  0.1100853E+04  0.7818609E-02  0.9204361E-01
        2   -1    0    0  501    0  0.00000000000E+00  0.00000000000E+00  0.11762996723E+04  0.11762996723E+04  0.25500000920E-02 0. -1.
       -2   -1    0    0    0  501  0.00000000000E+00  0.00000000000E+00 -0.25756122020E+03  0.25756122022E+03  0.25500000920E-02 0.  1.
    10030    2    1    2    0    0  0.00000000000E+00  0.00000000000E+00  0.91873845207E+03  0.14338608925E+04  0.11008527221E+04 0.  0.
        5    1    3    3  502    0  0.41951135339E+03  0.25164901778E+03  0.13081349167E+03  0.50641017305E+03  0.46999998093E+01 0.  1.
       -5    1    3    3    0  502 -0.41951135339E+03 -0.25164901778E+03  0.78792496040E+03  0.92745071944E+03  0.46999998093E+01 0. -1.
</event>
<event>
 5   0  0.3657529E-04  0.1092239E+04  0.7818609E-02  0.9212789E-01
        1   -1    0    0  501    0  0.00000000000E+00  0.00000000000E+00  0.88314971396E+03  0.88314971397E+03  0.50400001928E-02 0. -1.
       -1   -1    0    0    0  501  0.00000000000E+00  0.00000000000E+00 -0.33770780550E+03  0.33770780554E+03  0.50400001928E-02 0.  1.
    10030    2    1    2    0    0  0.00000000000E+00  0.00000000000E+00  0.54544190846E+03  0.12208575195E+04  0.10922390798E+04 0.  0.
        4    1    3    3  502    0  0.15953105738E+03  0.86996952470E+02  0.84836706326E+03  0.86760988637E+03  0.12699999809E+01 0. -1.
       -4    1    3    3    0  502 -0.15953105738E+03 -0.86996952470E+02 -0.30292515480E+03  0.35324763314E+03  0.12699999809E+01 0.  1.
</event>
<event>
 5   0  0.6412712E-04  0.1098102E+04  0.7818609E-02  0.9207043E-01
       -2   -1    0    0    0  501  0.00000000000E+00  0.00000000000E+00  0.41399911068E+03  0.41399911069E+03  0.25500000920E-02 0.  1.
        2   -1    0    0  501    0  0.00000000000E+00  0.00000000000E+00 -0.72815922734E+03  0.72815922734E+03  0.25500000920E-02 0. -1.
    10030    2    1    2    0    0  0.00000000000E+00  0.00000000000E+00 -0.31416011665E+03  0.11421583380E+04  0.10981024953E+04 0.  0.
        2    1    3    3  502    0  0.48383825783E+03 -0.24336613182E+03 -0.63291807066E+02  0.54528193322E+03  0.25500000920E-02 0.  1.
       -2    1    3    3    0  502 -0.48383825783E+03  0.24336613182E+03 -0.25086830959E+03  0.59687640481E+03  0.25500000920E-02 0. -1.
</event>
<event>
 5   0  0.3621403E-04  0.1100976E+04  0.7818609E-02  0.9204241E-01
       -1   -1    0    0    0  501  0.00000000000E+00  0.00000000000E+00  0.13977103937E+03  0.13977103946E+03  0.50400001928E-02 0.  1.
        1   -1    0    0  501    0  0.00000000000E+00  0.00000000000E+00 -0.21680968195E+04  0.21680968195E+04  0.50400001928E-02 0. -1.
    10030    2    1    2    0    0  0.00000000000E+00  0.00000000000E+00 -0.20283257801E+04  0.23078678589E+04  0.11009761960E+04 0.  0.
        3    1    3    3  502    0  0.24190607455E+02  0.22292826810E+03 -0.20680226788E+04  0.20801442278E+04  0.10100000352E+00 0. -1.
       -3    1    3    3    0  502 -0.24190607455E+02 -0.22292826810E+03  0.39696898704E+02  0.22772363113E+03  0.10100000352E+00 0.  1.
</event>
<event>
 5   0  0.3523525E-04  0.1100299E+04  0.7818609E-02  0.9204901E-01
        1   -1    0    0  501    0  0.00000000000E+00  0.00000000000E+00  0.77956224861E+03  0.77956224863E+03  0.50400001928E-02 0. -1.
       -1   -1    0    0    0  501  0.00000000000E+00  0.00000000000E+00 -0.38824903607E+03  0.38824903610E+03  0.50400001928E-02 0.  1.
    10030    2    1    2    0    0  0.00000000000E+00  0.00000000000E+00  0.39131321254E+03  0.11678112847E+04  0.11002986715E+04 0.  0.
        5    1    3    3  502    0 -0.12714796035E+03 -0.28046211723E+03  0.67949708050E+03  0.74603215442E+03  0.46999998093E+01 0. -1.
       -5    1    3    3    0  502  0.12714796035E+03  0.28046211723E+03 -0.28818386795E+03  0.42177913031E+03  0.46999998093E+01 0.  1.
</event>
<event>
 5   0  0.3642161E-04  0.1100665E+04  0.7818609E-02  0.9204544E-01
        1   -1    0    0  501    0  0.00000000000E+00  0.00000000000E+00  0.69667430692E+03  0.69667430693E+03  0.50400001928E-02 0. -1.
       -1   -1    0    0    0  501  0.00000000000E+00  0.00000000000E+00 -0.43473055828E+03  0.43473055831E+03  0.50400001928E-02 0.  1.
    10030    2    1    2    0    0  0.00000000000E+00  0.00000000000E+00  0.26194374864E+03  0.11314048652E+04  0.11006645455E+04 0.  0.
        2    1    3    3  502    0 -0.12531746675E+03  0.44394599873E+03 -0.17753198627E+03  0.49427737498E+03  0.25500000920E-02 0. -1.
       -2    1    3    3    0  502  0.12531746675E+03 -0.44394599873E+03  0.43947573491E+03  0.63712749026E+03  0.25500000920E-02 0.  1.
</event>
<event>
 5   0  0.3523525E-04  0.1099544E+04  0.7818609E-02  0.9205636E-01
        1   -1    0    0  501    0  0.00000000000E+00  0.00000000000E+00  0.47944607567E+03  0.47944607569E+03  0.50400001928E-02 0.  1.
       -1   -1    0    0    0  501  0.00000000000E+00  0.00000000000E+00 -0.63041381440E+03  0.63041381442E+03  0.50400001928E-02 0. -1.
    10030    2    1    2    0    0  0.00000000000E+00  0.00000000000E+00 -0.15096773873E+03  0.11098598901E+04  0.10995443227E+04 0.  0.
        5    1    3    3  502    0  0.33049341391E+03  0.32868882230E+03  0.21873851087E+03  0.51490859838E+03  0.46999998093E+01 0.  1.
       -5    1    3    3    0  502 -0.33049341391E+03 -0.32868882230E+03 -0.36970624960E+03  0.59495129174E+03  0.46999998093E+01 0. -1.
</event>
<event>
 5   0  0.6412712E-04  0.1100491E+04  0.7818609E-02  0.9204714E-01
       -2   -1    0    0    0  501  0.00000000000E+00  0.00000000000E+00  0.68970542132E+03  0.68970542132E+03  0.25500000920E-02 0. -1.
        2   -1    0    0  501    0  0.00000000000E+00  0.00000000000E+00 -0.43898449142E+03  0.43898449142E+03  0.25500000920E-02 0.  1.
    10030    2    1    2    0    0  0.00000000000E+00  0.00000000000E+00  0.25072092990E+03  0.11286899127E+04  0.11004907698E+04 0.  0.
        2    1    3    3  502    0 -0.35971845529E+03  0.13982465078E+02 -0.30144844767E+03  0.46953598692E+03  0.25500000920E-02 0.  1.
       -2    1    3    3    0  502  0.35971845529E+03 -0.13982465078E+02  0.55216937757E+03  0.65915392583E+03  0.25500000920E-02 0. -1.
</event>
<event>
 5   0  0.6412712E-04  0.1099035E+04  0.7818609E-02  0.9206133E-01
        2   -1    0    0  501    0  0.00000000000E+00  0.00000000000E+00  0.13089480254E+04  0.13089480254E+04  0.25500000920E-02 0. -1.
       -2   -1    0    0    0  501  0.00000000000E+00  0.00000000000E+00 -0.23069640011E+03  0.23069640012E+03  0.25500000920E-02 0.  1.
    10030    2    1    2    0    0  0.00000000000E+00  0.00000000000E+00  0.10782516252E+04  0.15396444255E+04  0.10990352085E+04 0.  0.
        2    1    3    3  502    0 -0.28390193814E+02 -0.13019780421E+02 -0.22945193252E+03  0.23156793200E+03  0.25500000920E-02 0.  1.
       -2    1    3    3    0  502  0.28390193814E+02  0.13019780421E+02  0.13077035578E+04  0.13080764935E+04  0.25500000920E-02 0. -1.
</event>
<event>
 5   0  0.3642161E-04  0.1101016E+04  0.7818609E-02  0.9204202E-01
       -1   -1    0    0    0  501  0.00000000000E+00  0.00000000000E+00  0.27274042840E+03  0.27274042844E+03  0.50400001928E-02 0. -1.
        1   -1    0    0  501    0  0.00000000000E+00  0.00000000000E+00 -0.11111635963E+04  0.11111635964E+04  0.50400001928E-02 0.  1.
    10030    2    1    2    0    0  0.00000000000E+00  0.00000000000E+00 -0.83842316795E+03  0.13839040248E+04  0.11010163220E+04 0.  0.
        2    1    3    3  502    0  0.32155349842E+03  0.42347754971E+03 -0.59842641159E+03  0.80052736215E+03  0.25500000920E-02 0.  1.
       -2    1    3    3    0  502 -0.32155349842E+03 -0.42347754971E+03 -0.23999675636E+03  0.58337666265E+03  0.25500000920E-02 0. -1.
</event>
<event>
 5   0  0.6264830E-04  0.1101287E+04  0.7818609E-02  0.9203938E-01
       -2   -1    0    0    0  501  0.00000000000E+00  0.00000000000E+00  0.23575583009E+03  0.23575583011E+03  0.25500000920E-02 0. -1.
        2   -1    0    0  501    0  0.00000000000E+00  0.00000000000E+00 -0.12861119147E+04  0.12861119147E+04  0.25500000920E-02 0.  1.
    10030    2    1    2    0    0  0.00000000000E+00  0.00000000000E+00 -0.10503560846E+04  0.15218677448E+04  0.11012872142E+04 0.  0.
        4    1    3    3  502    0 -0.33430832978E+03  0.28514611591E+03 -0.66569902876E+02  0.44441369426E+03  0.12699999809E+01 0. -1.
       -4    1    3    3    0  502  0.33430832978E+03 -0.28514611591E+03 -0.98378618176E+03  0.10774540506E+04  0.12699999809E+01 0.  1.
</event>
<event>
 5   0  0.3523525E-04  0.1097021E+04  0.7818609E-02  0.9208101E-01
       -1   -1    0    0    0  501  0.00000000000E+00  0.00000000000E+00  0.21988343796E+03  0.21988343801E+03  0.50400001928E-02 0. -1.
        1   -1    0    0  501    0  0.00000000000E+00  0.00000000000E+00 -0.13682868640E+04  0.13682868640E+04  0.50400001928E-02 0.  1.
    10030    2    1    2    0    0  0.00000000000E+00  0.00000000000E+00 -0.11484034260E+04  0.15881703020E+04  0.10970207287E+04 0.  0.
        5    1    3    3  502    0  0.89086656502E+02 -0.46669711092E+03 -0.17746806417E+03  0.50720767887E+03  0.46999998093E+01 0. -1.
       -5    1    3    3    0  502 -0.89086656502E+02  0.46669711092E+03 -0.97093536183E+03  0.10809626231E+04  0.46999998093E+01 0.  1.
</event>
<event>
 5   0  0.3523525E-04  0.1100294E+04  0.7818609E-02  0.9204905E-01
       -1   -1    0    0    0  501  0.00000000000E+00  0.00000000000E+00  0.29100924498E+03  0.29100924502E+03  0.50400001928E-02 0. -1.
        1   -1    0    0  501    0  0.00000000000E+00  0.00000000000E+00 -0.10400419838E+04  0.10400419838E+04  0.50400001928E-02 0.  1.
    10030    2    1    2    0    0  0.00000000000E+00  0.00000000000E+00 -0.74903273884E+03  0.13310512289E+04  0.11002942016E+04 0.  0.
        5    1    3    3  502    0  0.17635338062E+03 -0.50690667956E+03 -0.22842085962E+03  0.58331215978E+03  0.46999998093E+01 0. -1.
       -5    1    3    3    0  502 -0.17635338062E+03  0.50690667956E+03 -0.52061187922E+03  0.74773906907E+03  0.46999998093E+01 0.  1.
</event>
<event>
 5   0  0.3621403E-04  0.1099388E+04  0.7818609E-02  0.9205788E-01
        1   -1    0    0  501    0  0.00000000000E+00  0.00000000000E+00  0.90644924914E+03  0.90644924915E+03  0.50400001928E-02 0.  1.
       -1   -1    0    0    0  501  0.00000000000E+00  0.00000000000E+00 -0.33334862209E+03  0.33334862213E+03  0.50400001928E-02 0. -1.
    10030    2    1    2    0    0  0.00000000000E+00  0.00000000000E+00  0.57310062704E+03  0.12397978713E+04  0.10993882085E+04 0.  0.
        3    1    3    3  502    0 -0.56472622159E+02 -0.48201814038E+03 -0.45511192583E+01  0.48533634482E+03  0.10100000352E+00 0. -1.
       -3    1    3    3    0  502  0.56472622159E+02  0.48201814038E+03  0.57765174630E+03  0.75446152647E+03  0.10100000352E+00 0.  1.
</event>
<event>
 5   0  0.6412712E-04  0.1100779E+04  0.7818609E-02  0.9204433E-01
        2   -1    0    0  501    0  0.00000000000E+00  0.00000000000E+00  0.49122866678E+03  0.49122866679E+03  0.25500000920E-02 0.  1.
       -2   -1    0    0    0  501  0.00000000000E+00  0.00000000000E+00 -0.61667515446E+03  0.61667515446E+03  0.25500000920E-02 0. -1.
    10030    2    1    2    0    0  0.00000000000E+00  0.00000000000E+00 -0.12544648768E+03  0.11079038212E+04  0.11007788406E+04 0.  0.
        2    1    3    3  502    0  0.39943031713E+03  0.18108655133E+03 -0.39742889998E+03  0.59185019039E+03  0.25500000920E-02 0. -1.
       -2    1    3    3    0  502 -0.39943031713E+03 -0.18108655133E+03  0.27198241230E+03  0.51605363086E+03  0.25500000920E-02 0.  1.
</event>
<event>
 5   0  0.3423758E-04  0.1099006E+04  0.7818609E-02  0.9206162E-01
        1   -1    0    0  501    0  0.00000000000E+00  0.00000000000E+00  0.67488971135E+03  0.67488971137E+03  0.50400001928E-02 0. -1.
       -1   -1    0    0    0  501  0.00000000000E+00  0.00000000000E+00 -0.44741139986E+03  0.44741139989E+03  0.50400001928E-02 0.  1.
    10030    2    1    2    0    0  0.00000000000E+00  0.00000000000E+00  0.22747831149E+03  0.11223011113E+04  0.10990056424E+04 0.  0.
        1    1    3    3  502    0 -0.15456720166E+03 -0.18228003249E+03 -0.39155862727E+03  0.45873215354E+03  0.50400001928E-02 0.  1.
       -1    1    3    3    0  502  0.15456720166E+03  0.18228003249E+03  0.61903693876E+03  0.66356895772E+03  0.50400001928E-02 0. -1.
</event>
<event>
 5   0  0.6412712E-04  0.1100218E+04  0.7818609E-02  0.9204979E-01
       -2   -1    0    0    0  501  0.00000000000E+00  0.00000000000E+00  0.39540836500E+03  0.39540836501E+03  0.25500000920E-02 0.  1.
        2   -1    0    0  501    0  0.00000000000E+00  0.00000000000E+00 -0.76533544585E+03  0.76533544586E+03  0.25500000920E-02 0. -1.
    10030    2    1    2    0    0  0.00000000000E+00  0.00000000000E+00 -0.36992708085E+03  0.11607438109E+04  0.11002182280E+04 0.  0.
        2    1    3    3  502    0 -0.22497811541E+03 -0.35869586602E+03  0.18555787689E+03  0.46228735912E+03  0.25500000920E-02 0.  1.
       -2    1    3    3    0  502  0.22497811541E+03  0.35869586602E+03 -0.55548495774E+03  0.69845645175E+03  0.25500000920E-02 0. -1.
</event>
<event>
 5   0  0.6412712E-04  0.1106345E+04  0.7818609E-02  0.9199030E-01
        2   -1    0    0  501    0  0.00000000000E+00  0.00000000000E+00  0.11656113232E+04  0.11656113232E+04  0.25500000920E-02 0.  1.
       -2   -1    0    0    0  501  0.00000000000E+00  0.00000000000E+00 -0.26252301852E+03  0.26252301853E+03  0.25500000920E-02 0. -1.
    10030    2    1    2    0    0  0.00000000000E+00  0.00000000000E+00  0.90308830470E+03  0.14281343418E+04  0.11063449787E+04 0.  0.
        2    1    3    3  502    0 -0.34273550642E+03  0.36532983529E+03  0.14862872610E+03  0.52251699891E+03  0.25500000920E-02 0. -1.
       -2    1    3    3    0  502  0.34273550642E+03 -0.36532983529E+03  0.75445957860E+03  0.90561734285E+03  0.25500000920E-02 0.  1.
</event>
<event>
 5   0  0.3621403E-04  0.1098147E+04  0.7818609E-02  0.9207000E-01
       -1   -1    0    0    0  501  0.00000000000E+00  0.00000000000E+00  0.15841962677E+03  0.15841962685E+03  0.50400001928E-02 0.  1.
        1   -1    0    0  501    0  0.00000000000E+00  0.00000000000E+00 -0.19030568281E+04  0.19030568281E+04  0.50400001928E-02 0. -1.
    10030    2    1    2    0    0  0.00000000000E+00  0.00000000000E+00 -0.17446372013E+04  0.20614764549E+04  0.10981467161E+04 0.  0.
        3    1    3    3  502    0  0.49966855699E+03  0.62363450820E+02 -0.12832724672E+04  0.13785304140E+04  0.10100000352E+00 0. -1.
       -3    1    3    3    0  502 -0.49966855699E+03 -0.62363450820E+02 -0.46136473406E+03  0.68294604097E+03  0.10100000352E+00 0.  1.
</event>
<event>
 5   0  0.3423758E-04  0.1099859E+04  0.7818609E-02  0.9205329E-01
        1   -1    0    0  501    0  0.00000000000E+00  0.00000000000E+00  0.48926309092E+03  0.48926309094E+03  0.50400001928E-02 0.  1.
       -1   -1    0    0    0  501  0.00000000000E+00  0.00000000000E+00 -0.61811833035E+03  0.61811833037E+03  0.50400001928E-02 0. -1.
    10030    2    1    2    0    0  0.00000000000E+00  0.00000000000E+00 -0.12885523944E+03  0.11073814213E+04  0.10998590544E+04 0.  0.
        1    1    3    3  502    0  0.35858399625E+03 -0.38460189810E+03 -0.22652995771E+03  0.57255298807E+03  0.50400001928E-02 0.  1.
       -1    1    3    3    0  502 -0.35858399625E+03  0.38460189810E+03  0.97674718273E+02  0.53482843324E+03  0.50400001928E-02 0. -1.
</event>
<event>
 5   0  0.3621403E-04  0.1100201E+04  0.7818609E-02  0.9204996E-01
        1   -1    0    0  501    0  0.00000000000E+00  0.00000000000E+00  0.40363539414E+03  0.40363539417E+03  0.50400001928E-02 0. -1.
       -1   -1    0    0    0  501  0.00000000000E+00  0.00000000000E+00 -0.74971309098E+03  0.74971309100E+03  0.50400001928E-02 0.  1.
    10030    2    1    2    0    0  0.00000000000E+00  0.00000000000E+00 -0.34607769685E+03  0.11533484852E+04  0.11002013252E+04 0.  0.
        3    1    3    3  502    0 -0.72710841536E+02  0.10226532381E+03 -0.73451029046E+03  0.74515128661E+03  0.10100000352E+00 0.  1.
       -3    1    3    3    0  502  0.72710841536E+02 -0.10226532381E+03  0.38843259362E+03  0.40819719857E+03  0.10100000352E+00 0. -1.
</event>
<event>
 5   0  0.3523525E-04  0.1100909E+04  0.7818609E-02  0.9204306E-01
       -1   -1    0    0    0  501  0.00000000000E+00  0.00000000000E+00  0.39351282147E+03  0.39351282150E+03  0.50400001928E-02 0. -1.
        1   -1    0    0  501    0  0.00000000000E+00  0.00000000000E+00 -0.76998847285E+03  0.76998847287E+03  0.50400001928E-02 0.  1.
    10030    2    1    2    0    0  0.00000000000E+00  0.00000000000E+00 -0.37647565138E+03  0.11635012944E+04  0.11009093268E+04 0.  0.
        5    1    3    3  502    0  0.50741823032E+01 -0.11230176260E+03  0.38123022587E+03  0.39748711719E+03  0.46999998093E+01 0. -1.
       -5    1    3    3    0  502 -0.50741823032E+01  0.11230176260E+03 -0.75770587726E+03  0.76601417718E+03  0.46999998093E+01 0.  1.
</event>
<event>
 5   0  0.3657529E-04  0.1102466E+04  0.7818609E-02  0.9202792E-01
        1   -1    0    0  501    0  0.00000000000E+00  0.00000000000E+00  0.80684716406E+03  0.80684716407E+03  0.50400001928E-02 0.  1.
       -1   -1    0    0    0  501  0.00000000000E+00  0.00000000000E+00 -0.37659890011E+03  0.37659890014E+03  0.50400001928E-02 0. -1.
    10030    2    1    2    0    0  0.00000000000E+00  0.00000000000E+00  0.43024826394E+03  0.11834460642E+04  0.11024658808E+04 0.  0.
        4    1    3    3  502    0  0.39631702186E+03 -0.24370320560E+03 -0.10222208989E+03  0.47635008428E+03  0.12699999809E+01 0. -1.
       -4    1    3    3    0  502 -0.39631702186E+03  0.24370320560E+03  0.53247035383E+03  0.70709597994E+03  0.12699999809E+01 0.  1.
</event>
<event>
 5   0  0.3657529E-04  0.1091806E+04  0.7818609E-02  0.9213215E-01
        1   -1    0    0  501    0  0.00000000000E+00  0.00000000000E+00  0.12209719916E+04  0.12209719916E+04  0.50400001928E-02 0.  1.
       -1   -1    0    0    0  501  0.00000000000E+00  0.00000000000E+00 -0.24407606544E+03  0.24407606549E+03  0.50400001928E-02 0. -1.
    10030    2    1    2    0    0  0.00000000000E+00  0.00000000000E+00  0.97689592619E+03  0.14650480571E+04  0.10918059164E+04 0.  0.
        4    1    3    3  502    0 -0.35201682125E+03  0.10163677322E+03  0.10314653363E+04  0.10946087105E+04  0.12699999809E+01 0.  1.
       -4    1    3    3    0  502  0.35201682125E+03 -0.10163677322E+03 -0.54569410148E+02  0.37043934664E+03  0.12699999809E+01 0. -1.
</event>
<event>
 5   0  0.6109149E-04  0.1099947E+04  0.7818609E-02  0.9205243E-01
       -2   -1    0    0    0  501  0.00000000000E+00  0.00000000000E+00  0.63809356863E+03  0.63809356864E+03  0.25500000920E-02 0.  1.
        2   -1    0    0  501    0  0.00000000000E+00  0.00000000000E+00 -0.47402285338E+03  0.47402285339E+03  0.25500000920E-02 0. -1.
    10030    2    1    2    0    0  0.00000000000E+00  0.00000000000E+00  0.16407071525E+03  0.11121164220E+04  0.10999471517E+04 0.  0.
        1    1    3    3  502    0 -0.90678863335E+02 -0.21931958956E+03 -0.41958583952E+03  0.48205395483E+03  0.50400001928E-02 0. -1.
       -1    1    3    3    0  502  0.90678863335E+02  0.21931958956E+03  0.58365655477E+03  0.63006246720E+03  0.50400001928E-02 0.  1.
</event>
<event>
 5   0  0.5948818E-04  0.1099269E+04  0.7818609E-02  0.9205904E-01
       -2   -1    0    0    0  501  0.00000000000E+00  0.00000000000E+00  0.57775137583E+03  0.57775137584E+03  0.25500000920E-02 0. -1.
        2   -1    0    0  501    0  0.00000000000E+00  0.00000000000E+00 -0.52288627232E+03  0.52288627232E+03  0.25500000920E-02 0.  1.
    10030    2    1    2    0    0  0.00000000000E+00  0.00000000000E+00  0.54865103513E+02  0.11006376482E+04  0.10992693269E+04 0.  0.
        3    1    3    3  502    0 -0.91498094090E+02  0.33110482868E+03  0.45703066428E+03  0.57173363299E+03  0.10100000352E+00 0. -1.
       -3    1    3    3    0  502  0.91498094090E+02 -0.33110482868E+03 -0.40216556077E+03  0.52890401517E+03  0.10100000352E+00 0.  1.
</event>
<event>
 5   0  0.3523525E-04  0.1098936E+04  0.7818609E-02  0.9206230E-01
       -1   -1    0    0    0  501  0.00000000000E+00  0.00000000000E+00  0.48007796728E+03  0.48007796731E+03  0.50400001928E-02 0.  1.
        1   -1    0    0  501    0  0.00000000000E+00  0.00000000000E+00 -0.62888734189E+03  0.62888734191E+03  0.50400001928E-02 0. -1.
    10030    2    1    2    0    0  0.00000000000E+00  0.00000000000E+00 -0.14880937461E+03  0.11089653092E+04  0.10989357702E+04 0.  0.
        5    1    3    3  502    0  0.36975555612E+03  0.16452740277E+03  0.30061101676E+03  0.50416020365E+03  0.46999998093E+01 0.  1.
       -5    1    3    3    0  502 -0.36975555612E+03 -0.16452740277E+03 -0.44942039137E+03  0.60480510557E+03  0.46999998093E+01 0. -1.
</event>
<event>
 5   0  0.6412712E-04  0.1117172E+04  0.7818609E-02  0.9188614E-01
       -2   -1    0    0    0  501  0.00000000000E+00  0.00000000000E+00  0.20416336631E+03  0.20416336633E+03  0.25500000920E-02 0. -1.
        2   -1    0    0  501    0  0.00000000000E+00  0.00000000000E+00 -0.15282782161E+04  0.15282782161E+04  0.25500000920E-02 0.  1.
    10030    2    1    2    0    0  0.00000000000E+00  0.00000000000E+00 -0.13241148497E+04  0.17324415824E+04  0.11171721895E+04 0.  0.
        2    1    3    3  502    0 -0.31918042580E+03  0.21803576678E+03 -0.36737394734E+02  0.38828517353E+03  0.25500000920E-02 0. -1.
       -2    1    3    3    0  502  0.31918042580E+03 -0.21803576678E+03 -0.12873774550E+04  0.13441564089E+04  0.25500000920E-02 0.  1.
</event>
<event>
 5   0  0.6264830E-04  0.1115526E+04  0.7818609E-02  0.9190190E-01
        2   -1    0    0  501    0  0.00000000000E+00  0.00000000000E+00  0.84752382373E+03  0.84752382374E+03  0.25500000920E-02 0. -1.
       -2   -1    0    0    0  501  0.00000000000E+00  0.00000000000E+00 -0.36706906897E+03  0.36706906898E+03  0.25500000920E-02 0.  1.
    10030    2    1    2    0    0  0.00000000000E+00  0.00000000000E+00  0.48045475476E+03  0.12145928927E+04  0.11155263886E+04 0.  0.
        4    1    3    3  502    0 -0.86806006084E+02 -0.39386129663E+03  0.65971654336E+03  0.77323316933E+03  0.12699999809E+01 0. -1.
       -4    1    3    3    0  502  0.86806006084E+02  0.39386129663E+03 -0.17926178860E+03  0.44135972338E+03  0.12699999809E+01 0.  1.
</event>
<event>
 5   0  0.3657529E-04  0.1114425E+04  0.7818609E-02  0.9191245E-01
       -1   -1    0    0    0  501  0.00000000000E+00  0.00000000000E+00  0.13864245205E+03  0.13864245214E+03  0.50400001928E-02 0. -1.
        1   -1    0    0  501    0  0.00000000000E+00  0.00000000000E+00 -0.22394721373E+04  0.22394721373E+04  0.50400001928E-02 0.  1.
    10030    2    1    2    0    0  0.00000000000E+00  0.00000000000E+00 -0.21008296852E+04  0.23781145894E+04  0.11144252483E+04 0.  0.
        4    1    3    3  502    0  0.37441111939E+03 -0.10147224920E+02 -0.17005828155E+03  0.41134910298E+03  0.12699999809E+01 0. -1.
       -4    1    3    3    0  502 -0.37441111939E+03  0.10147224920E+02 -0.19307714037E+04  0.19667654865E+04  0.12699999809E+01 0.  1.
</event>
<event>
 5   0  0.6245176E-04  0.1100174E+04  0.7818609E-02  0.9205023E-01
        2   -1    0    0  501    0  0.00000000000E+00  0.00000000000E+00  0.10386306666E+04  0.10386306666E+04  0.25500000920E-02 0.  1.
       -2   -1    0    0    0  501  0.00000000000E+00  0.00000000000E+00 -0.29134087787E+03  0.29134087788E+03  0.25500000920E-02 0. -1.
    10030    2    1    2    0    0  0.00000000000E+00  0.00000000000E+00  0.74728978878E+03  0.13299715445E+04  0.11001737503E+04 0.  0.
        5    1    3    3  502    0 -0.10322130628E+03  0.47815151000E+03  0.69522406455E+02  0.49410419912E+03  0.46999998093E+01 0. -1.
       -5    1    3    3    0  502  0.10322130628E+03 -0.47815151000E+03  0.67776738232E+03  0.83586734541E+03  0.46999998093E+01 0.  1.
</event>
<event>
 5   0  0.5948818E-04  0.1100494E+04  0.7818609E-02  0.9204710E-01
        2   -1    0    0  501    0  0.00000000000E+00  0.00000000000E+00  0.14901054700E+04  0.14901054700E+04  0.25500000920E-02 0. -1.
       -2   -1    0    0    0  501  0.00000000000E+00  0.00000000000E+00 -0.20318826029E+03  0.20318826031E+03  0.25500000920E-02 0.  1.
    10030    2    1    2    0    0  0.00000000000E+00  0.00000000000E+00  0.12869172097E+04  0.16932937303E+04  0.11004943219E+04 0.  0.
        3    1    3    3  502    0  0.16434361059E+03  0.35963490554E+03  0.54678187979E+02  0.39916888915E+03  0.10100000352E+00 0.  1.
       -3    1    3    3    0  502 -0.16434361059E+03 -0.35963490554E+03  0.12322390218E+04  0.12941248412E+04  0.10100000352E+00 0. -1.
</event>
<event>
 5   0  0.3657529E-04  0.1101299E+04  0.7818609E-02  0.9203927E-01
        1   -1    0    0  501    0  0.00000000000E+00  0.00000000000E+00  0.10971440843E+04  0.10971440843E+04  0.50400001928E-02 0. -1.
       -1   -1    0    0    0  501  0.00000000000E+00  0.00000000000E+00 -0.27636717721E+03  0.27636717726E+03  0.50400001928E-02 0.  1.
    10030    2    1    2    0    0  0.00000000000E+00  0.00000000000E+00  0.82077690710E+03  0.13735112616E+04  0.11012985310E+04 0.  0.
        4    1    3    3  502    0 -0.17147522721E+03 -0.59068075888E+02  0.10588234148E+04  0.10742445847E+04  0.12699999809E+01 0. -1.
       -4    1    3    3    0  502  0.17147522721E+03  0.59068075888E+02 -0.23804650772E+03  0.29926667685E+03  0.12699999809E+01 0.  1.
</event>
<event>
 5   0  0.2403875E-04  0.1099747E+04  0.7818609E-02  0.9205439E-01
       -3   -1    0    0    0  501  0.00000000000E+00  0.00000000000E+00  0.85956484311E+03  0.85956484904E+03  0.10100000352E+00 0. -1.
        3   -1    0    0  501    0  0.00000000000E+00  0.00000000000E+00 -0.35176014128E+03  0.35176015578E+03  0.10100000352E+00 0.  1.
    10030    2    1    2    0    0  0.00000000000E+00  0.00000000000E+00  0.50780470182E+03  0.12113250048E+04  0.10997466309E+04 0.  0.
        3    1    3    3  502    0  0.39403220521E+03 -0.37223088411E+03  0.35571096025E+03  0.64834212209E+03  0.10100000352E+00 0. -1.
       -3    1    3    3    0  502 -0.39403220521E+03  0.37223088411E+03  0.15209374157E+03  0.56298288274E+03  0.10100000352E+00 0.  1.
</event>
<event>
 5   0  0.3423758E-04  0.1099421E+04  0.7818609E-02  0.9205756E-01
       -1   -1    0    0    0  501  0.00000000000E+00  0.00000000000E+00  0.50870724376E+03  0.50870724379E+03  0.50400001928E-02 0.  1.
        1   -1    0    0  501    0  0.00000000000E+00  0.00000000000E+00 -0.59401911591E+03  0.59401911594E+03  0.50400001928E-02 0. -1.
    10030    2    1    2    0    0  0.00000000000E+00  0.00000000000E+00 -0.85311872149E+02  0.11027263597E+04  0.10994213518E+04 0.  0.
        1    1    3    3  502    0  0.75272107392E+02 -0.43929397728E+03 -0.36539447550E+03  0.57633168521E+03  0.50400001928E-02 0. -1.
       -1    1    3    3    0  502 -0.75272107392E+02  0.43929397728E+03  0.28008260335E+03  0.52639467451E+03  0.50400001928E-02 0.  1.
</event>
<event>
 5   0  0.6264830E-04  0.1097452E+04  0.7818609E-02  0.9207679E-01
       -2   -1    0    0    0  501  0.00000000000E+00  0.00000000000E+00  0.10485545385E+04  0.10485545385E+04  0.25500000920E-02 0. -1.
        2   -1    0    0  501    0  0.00000000000E+00  0.00000000000E+00 -0.28715720300E+03  0.28715720301E+03  0.25500000920E-02 0.  1.
    10030    2    1    2    0    0  0.00000000000E+00  0.00000000000E+00  0.76139733548E+03  0.13357117415E+04  0.10974515725E+04 0.  0.
        4    1    3    3  502    0  0.22035939309E+03 -0.10220089322E+03  0.97955186150E+03  0.10092208613E+04  0.12699999809E+01 0. -1.
       -4    1    3    3    0  502 -0.22035939309E+03  0.10220089322E+03 -0.21815452603E+03  0.32649088015E+03  0.12699999809E+01 0.  1.
</event>
<event>
 5   0  0.5948818E-04  0.1100698E+04  0.7818609E-02  0.9204511E-01
       -2   -1    0    0    0  501  0.00000000000E+00  0.00000000000E+00  0.26453389334E+03  0.26453389336E+03  0.25500000920E-02 0. -1.
        2   -1    0    0  501    0  0.00000000000E+00  0.00000000000E+00 -0.11449734664E+04  0.11449734664E+04  0.25500000920E-02 0.  1.
    10030    2    1    2    0    0  0.00000000000E+00  0.00000000000E+00 -0.88043957305E+03  0.14095073598E+04  0.11006984852E+04 0.  0.
        3    1    3    3  502    0  0.17063131958E+03  0.24843729936E+03 -0.10298995344E+04  0.10730932858E+04  0.10100000352E+00 0.  1.
       -3    1    3    3    0  502 -0.17063131958E+03 -0.24843729936E+03  0.14945996130E+03  0.33641407397E+03  0.10100000352E+00 0. -1.
</event>
<event>
 5   0  0.6412712E-04  0.1100078E+04  0.7818609E-02  0.9205116E-01
        2   -1    0    0  501    0  0.00000000000E+00  0.00000000000E+00  0.10594389081E+04  0.10594389081E+04  0.25500000920E-02 0.  1.
       -2   -1    0    0    0  501  0.00000000000E+00  0.00000000000E+00 -0.28556878850E+03  0.28556878851E+03  0.25500000920E-02 0. -1.
    10030    2    1    2    0    0  0.00000000000E+00  0.00000000000E+00  0.77387011963E+03  0.13450076966E+04  0.11000776072E+04 0.  0.
        2    1    3    3  502    0  0.10270049010E+03  0.52029828030E+03  0.56531179656E+03  0.77513554846E+03  0.25500000920E-02 0.  1.
       -2    1    3    3    0  502 -0.10270049010E+03 -0.52029828030E+03  0.20855832308E+03  0.56987214819E+03  0.25500000920E-02 0. -1.
</event>
<event>
 5   0  0.6412712E-04  0.1100780E+04  0.7818609E-02  0.9204432E-01
        2   -1    0    0  501    0  0.00000000000E+00  0.00000000000E+00  0.76796315175E+03  0.76796315175E+03  0.25500000920E-02 0.  1.
       -2   -1    0    0    0  501  0.00000000000E+00  0.00000000000E+00 -0.39445788125E+03  0.39445788126E+03  0.25500000920E-02 0. -1.
    10030    2    1    2    0    0  0.00000000000E+00  0.00000000000E+00  0.37350527050E+03  0.11624210330E+04  0.11007799375E+04 0.  0.
        2    1    3    3  502    0 -0.35534361617E+03  0.75694890240E+02  0.62334134574E+03  0.72149375277E+03  0.25500000920E-02 0.  1.
       -2    1    3    3    0  502  0.35534361617E+03 -0.75694890240E+02 -0.24983607524E+03  0.44092728024E+03  0.25500000920E-02 0. -1.
</event>
<event>
 5   0  0.6264830E-04  0.1097056E+04  0.7818609E-02  0.9208066E-01
        2   -1    0    0  501    0  0.00000000000E+00  0.00000000000E+00  0.48479594223E+03  0.48479594224E+03  0.25500000920E-02 0. -1.
       -2   -1    0    0    0  501  0.00000000000E+00  0.00000000000E+00 -0.62063889077E+03  0.62063889078E+03  0.25500000920E-02 0.  1.
    10030    2    1    2    0    0  0.00000000000E+00  0.00000000000E+00 -0.13584294854E+03  0.11054348330E+04  0.10970564541E+04 0.  0.
        4    1    3    3  502    0 -0.33304394250E+03  0.15676955096E+03  0.34186194781E+03  0.50236059161E+03  0.12699999809E+01 0. -1.
       -4    1    3    3    0  502  0.33304394250E+03 -0.15676955096E+03 -0.47770489635E+03  0.60307424140E+03  0.12699999809E+01 0.  1.
</event>
<event>
 5   0  0.6245176E-04  0.1104074E+04  0.7818609E-02  0.9201230E-01
        2   -1    0    0  501    0  0.00000000000E+00  0.00000000000E+00  0.53540385336E+03  0.53540385336E+03  0.25500000920E-02 0. -1.
       -2   -1    0    0    0  501  0.00000000000E+00  0.00000000000E+00 -0.56918709142E+03  0.56918709143E+03  0.25500000920E-02 0.  1.
    10030    2    1    2    0    0  0.00000000000E+00  0.00000000000E+00 -0.33783238065E+02  0.11045909448E+04  0.11040742041E+04 0.  0.
        5    1    3    3  502    0 -0.20698472082E+03  0.64109870318E+02  0.49105667270E+03  0.53676018474E+03  0.46999998093E+01 0. -1.
       -5    1    3    3    0  502  0.20698472082E+03 -0.64109870318E+02 -0.52483991076E+03  0.56783076005E+03  0.46999998093E+01 0.  1.
</event>
<event>
 5   0  0.6245176E-04  0.1098563E+04  0.7818609E-02  0.9206593E-01
        2   -1    0    0  501    0  0.00000000000E+00  0.00000000000E+00  0.55288276773E+03  0.55288276774E+03  0.25500000920E-02 0. -1.
       -2   -1    0    0    0  501  0.00000000000E+00  0.00000000000E+00 -0.54570410352E+03  0.54570410352E+03  0.25500000920E-02 0.  1.
    10030    2    1    2    0    0  0.00000000000E+00  0.00000000000E+00  0.71786642146E+01  0.10985868713E+04  0.10985634167E+04 0.  0.
        5    1    3    3  502    0 -0.23565465998E+03 -0.10424045441E+03  0.48866578080E+03  0.55246314486E+03  0.46999998093E+01 0. -1.
       -5    1    3    3    0  502  0.23565465998E+03  0.10424045441E+03 -0.48148711659E+03  0.54612372640E+03  0.46999998093E+01 0.  1.
</event>
<event>
 5   0  0.5948818E-04  0.1098733E+04  0.7818609E-02  0.9206428E-01
        2   -1    0    0  501    0  0.00000000000E+00  0.00000000000E+00  0.82260697785E+03  0.82260697786E+03  0.25500000920E-02 0.  1.
       -2   -1    0    0    0  501  0.00000000000E+00  0.00000000000E+00 -0.36688677499E+03  0.36688677500E+03  0.25500000920E-02 0. -1.
    10030    2    1    2    0    0  0.00000000000E+00  0.00000000000E+00  0.45572020286E+03  0.11894937529E+04  0.10987331272E+04 0.  0.
        3    1    3    3  502    0 -0.26111570688E+03  0.45711082053E+03  0.39790797785E+03  0.65989581273E+03  0.10100000352E+00 0. -1.
       -3    1    3    3    0  502  0.26111570688E+03 -0.45711082053E+03  0.57812225009E+02  0.52959794013E+03  0.10100000352E+00 0.  1.
</event>
<event>
 5   0  0.3423758E-04  0.1098560E+04  0.7818609E-02  0.9206596E-01
       -1   -1    0    0    0  501  0.00000000000E+00  0.00000000000E+00  0.58969909129E+03  0.58969909131E+03  0.50400001928E-02 0. -1.
        1   -1    0    0  501    0  0.00000000000E+00  0.00000000000E+00 -0.51163157565E+03  0.51163157567E+03  0.50400001928E-02 0.  1.
    10030    2    1    2    0    0  0.00000000000E+00  0.00000000000E+00  0.78067515641E+02  0.11013306670E+04  0.10985602856E+04 0.  0.
        1    1    3    3  502    0 -0.25461608974E+03  0.29277495026E+03 -0.35074248846E+03  0.52303615352E+03  0.50400001928E-02 0.  1.
       -1    1    3    3    0  502  0.25461608974E+03 -0.29277495026E+03  0.42881000410E+03  0.57829451346E+03  0.50400001928E-02 0. -1.
</event>
<event>
 5   0  0.3423758E-04  0.1097777E+04  0.7818609E-02  0.9207361E-01
       -1   -1    0    0    0  501  0.00000000000E+00  0.00000000000E+00  0.44046233786E+03  0.44046233789E+03  0.50400001928E-02 0.  1.
        1   -1    0    0  501    0  0.00000000000E+00  0.00000000000E+00 -0.68400578607E+03  0.68400578609E+03  0.50400001928E-02 0. -1.
    10030    2    1    2    0    0  0.00000000000E+00  0.00000000000E+00 -0.24354344821E+03  0.11244681240E+04  0.10977773684E+04 0.  0.
        1    1    3    3  502    0 -0.30210068661E+03 -0.19127680418E+03 -0.54834281082E+03  0.65462315791E+03  0.50400001928E-02 0. -1.
       -1    1    3    3    0  502  0.30210068661E+03  0.19127680418E+03  0.30479936261E+03  0.46984496607E+03  0.50400001928E-02 0.  1.
</event>
<event>
 5   0  0.6412712E-04  0.1101316E+04  0.7818609E-02  0.9203910E-01
       -2   -1    0    0    0  501  0.00000000000E+00  0.00000000000E+00  0.33372000447E+03  0.33372000448E+03  0.25500000920E-02 0. -1.
        2   -1    0    0  501    0  0.00000000000E+00  0.00000000000E+00 -0.90861944357E+03  0.90861944357E+03  0.25500000920E-02 0.  1.
    10030    2    1    2    0    0  0.00000000000E+00  0.00000000000E+00 -0.57489943909E+03  0.12423394481E+04  0.11013164573E+04 0.  0.
        2    1    3    3  502    0 -0.73628526317E+02  0.52486263168E+02 -0.90018779002E+03  0.90471764934E+03  0.25500000920E-02 0.  1.
       -2    1    3    3    0  502  0.73628526317E+02 -0.52486263168E+02  0.32528835093E+03  0.33762179872E+03  0.25500000920E-02 0. -1.
</event>
<event>
 5   0  0.6264830E-04  0.1100603E+04  0.7818609E-02  0.9204604E-01
       -2   -1    0    0    0  501  0.00000000000E+00  0.00000000000E+00  0.31331579856E+03  0.31331579857E+03  0.25500000920E-02 0.  1.
        2   -1    0    0  501    0  0.00000000000E+00  0.00000000000E+00 -0.96653846139E+03  0.96653846139E+03  0.25500000920E-02 0. -1.
    10030    2    1    2    0    0  0.00000000000E+00  0.00000000000E+00 -0.65322266283E+03  0.12798542600E+04  0.11006030527E+04 0.  0.
        4    1    3    3  502    0 -0.40941146959E+02 -0.40362061451E+03  0.10575667096E+03  0.41925155256E+03  0.12699999809E+01 0.  1.
       -4    1    3    3    0  502  0.40941146959E+02  0.40362061451E+03 -0.75897933379E+03  0.86060270740E+03  0.12699999809E+01 0. -1.
</event>
<event>
 5   0  0.3523525E-04  0.1101207E+04  0.7818609E-02  0.9204016E-01
       -1   -1    0    0    0  501  0.00000000000E+00  0.00000000000E+00  0.13588418916E+03  0.13588418925E+03  0.50400001928E-02 0.  1.
        1   -1    0    0  501    0  0.00000000000E+00  0.00000000000E+00 -0.22310481660E+04  0.22310481660E+04  0.50400001928E-02 0. -1.
    10030    2    1    2    0    0  0.00000000000E+00  0.00000000000E+00 -0.20951639768E+04  0.23669323553E+04  0.11012069217E+04 0.  0.
        5    1    3    3  502    0  0.18527736130E+03  0.51752020470E+03 -0.11151161482E+04  0.12432461450E+04  0.46999998093E+01 0.  1.
       -5    1    3    3    0  502 -0.18527736130E+03 -0.51752020470E+03 -0.98004782861E+03  0.11236862103E+04  0.46999998093E+01 0. -1.
</event>
<event>
 5   0  0.2403875E-04  0.1100111E+04  0.7818609E-02  0.9205084E-01
       -3   -1    0    0    0  501  0.00000000000E+00  0.00000000000E+00  0.10560977378E+04  0.10560977426E+04  0.10100000352E+00 0. -1.
        3   -1    0    0  501    0  0.00000000000E+00  0.00000000000E+00 -0.28648939106E+03  0.28648940886E+03  0.10100000352E+00 0.  1.
    10030    2    1    2    0    0  0.00000000000E+00  0.00000000000E+00  0.76960834673E+03  0.13425871515E+04  0.11001105635E+04 0.  0.
        4    1    3    3  502    0 -0.34809042670E+03  0.32931727550E+03  0.55197392737E+02  0.48235378942E+03  0.12699999809E+01 0.  1.
       -4    1    3    3    0  502  0.34809042670E+03 -0.32931727550E+03  0.71441095399E+03  0.86023336205E+03  0.12699999809E+01 0. -1.
</event>
<event>
 5   0  0.6109149E-04  0.1114052E+04  0.7818609E-02  0.9191603E-01
        2   -1    0    0  501    0  0.00000000000E+00  0.00000000000E+00  0.13389618441E+04  0.13389618441E+04  0.25500000920E-02 0.  1.
       -2   -1    0    0    0  501  0.00000000000E+00  0.00000000000E+00 -0.23173032002E+03  0.23173032004E+03  0.25500000920E-02 0. -1.
    10030    2    1    2    0    0  0.00000000000E+00  0.00000000000E+00  0.11072315241E+04  0.15706921641E+04  0.11140521651E+04 0.  0.
        1    1    3    3  502    0  0.29851172675E+03  0.41511772845E+03  0.24201364786E+03  0.56568771001E+03  0.50400001928E-02 0.  1.
       -1    1    3    3    0  502 -0.29851172675E+03 -0.41511772845E+03  0.86521787622E+03  0.10050044541E+04  0.50400001928E-02 0. -1.
</event>
<event>
 5   0  0.3523525E-04  0.1097972E+04  0.7818609E-02  0.9207170E-01
       -1   -1    0    0    0  501  0.00000000000E+00  0.00000000000E+00  0.31003906776E+03  0.31003906780E+03  0.50400001928E-02 0. -1.
        1   -1    0    0  501    0  0.00000000000E+00  0.00000000000E+00 -0.97208985273E+03  0.97208985274E+03  0.50400001928E-02 0.  1.
    10030    2    1    2    0    0  0.00000000000E+00  0.00000000000E+00 -0.66205078497E+03  0.12821289205E+04  0.10979723708E+04 0.  0.
        5    1    3    3  502    0  0.43058544781E+03  0.24379214225E+03 -0.53398365093E+02  0.49770665244E+03  0.46999998093E+01 0. -1.
       -5    1    3    3    0  502 -0.43058544781E+03 -0.24379214225E+03 -0.60865241987E+03  0.78442226811E+03  0.46999998093E+01 0.  1.
</event>
<event>
 5   0  0.3657529E-04  0.1100634E+04  0.7818609E-02  0.9204574E-01
       -1   -1    0    0    0  501  0.00000000000E+00  0.00000000000E+00  0.31107185159E+03  0.31107185163E+03  0.50400001928E-02 0.  1.
        1   -1    0    0  501    0  0.00000000000E+00  0.00000000000E+00 -0.97356579131E+03  0.97356579133E+03  0.50400001928E-02 0. -1.
    10030    2    1    2    0    0  0.00000000000E+00  0.00000000000E+00 -0.66249393972E+03  0.12846376430E+04  0.11006342051E+04 0.  0.
        4    1    3    3  502    0  0.43448785137E+03 -0.33109770922E+03 -0.25345715586E+03  0.60220223247E+03  0.12699999809E+01 0.  1.
       -4    1    3    3    0  502 -0.43448785137E+03  0.33109770922E+03 -0.40903678386E+03  0.68243541049E+03  0.12699999809E+01 0. -1.
</event>
<event>
 5   0  0.3423758E-04  0.1098855E+04  0.7818609E-02  0.9206309E-01
        1   -1    0    0  501    0  0.00000000000E+00  0.00000000000E+00  0.21306108608E+04  0.21306108608E+04  0.50400001928E-02 0. -1.
       -1   -1    0    0    0  501  0.00000000000E+00  0.00000000000E+00 -0.14168257458E+03  0.14168257467E+03  0.50400001928E-02 0.  1.
    10030    2    1    2    0    0  0.00000000000E+00  0.00000000000E+00  0.19889282862E+04  0.22722934355E+04  0.10988547353E+04 0.  0.
        1    1    3    3  502    0  0.41976560953E+03 -0.33957092992E+03  0.12049291406E+04  0.13203657892E+04  0.50400001928E-02 0.  1.
       -1    1    3    3    0  502 -0.41976560953E+03  0.33957092992E+03  0.78399914557E+03  0.95192764624E+03  0.50400001928E-02 0. -1.
</event>
<event>
 5   0  0.3423758E-04  0.1098648E+04  0.7818609E-02  0.9206510E-01
        1   -1    0    0  501    0  0.00000000000E+00  0.00000000000E+00  0.12022576792E+04  0.12022576793E+04  0.50400001928E-02 0. -1.
       -1   -1    0    0    0  501  0.00000000000E+00  0.00000000000E+00 -0.25099205925E+03  0.25099205930E+03  0.50400001928E-02 0.  1.
    10030    2    1    2    0    0  0.00000000000E+00  0.00000000000E+00  0.95126561999E+03  0.14532497386E+04  0.10986484983E+04 0.  0.
        1    1    3    3  502    0  0.15234326724E+03  0.80156712923E+02 -0.21439176743E+03  0.27494981299E+03  0.50400001928E-02 0.  1.
       -1    1    3    3    0  502 -0.15234326724E+03 -0.80156712923E+02  0.11656573874E+04  0.11782999256E+04  0.50400001928E-02 0. -1.
</event>
<event>
 5   0  0.3423758E-04  0.1100512E+04  0.7818609E-02  0.9204693E-01
       -1   -1    0    0    0  501  0.00000000000E+00  0.00000000000E+00  0.19837916622E+03  0.19837916628E+03  0.50400001928E-02 0.  1.
        1   -1    0    0  501    0  0.00000000000E+00  0.00000000000E+00 -0.15262774489E+04  0.15262774489E+04  0.50400001928E-02 0. -1.
    10030    2    1    2    0    0  0.00000000000E+00  0.00000000000E+00 -0.13278982826E+04  0.17246566152E+04  0.11005119677E+04 0.  0.
        1    1    3    3  502    0  0.16706904648E+03  0.10515246875E+03  0.14097617383E+03  0.24257656439E+03  0.50400001928E-02 0.  1.
       -1    1    3    3    0  502 -0.16706904648E+03 -0.10515246875E+03 -0.14688744565E+04  0.14820800508E+04  0.50400001928E-02 0. -1.
</event>
<event>
 5   0  0.2403875E-04  0.1100632E+04  0.7818609E-02  0.9204576E-01
       -4   -1    0    0    0  501  0.00000000000E+00  0.00000000000E+00  0.48846819664E+03  0.48846984761E+03  0.12699999809E+01 0. -1.
        4   -1    0    0  501    0  0.00000000000E+00  0.00000000000E+00 -0.61999113682E+03  0.61999243756E+03  0.12699999809E+01 0.  1.
    10030    2    1    2    0    0  0.00000000000E+00  0.00000000000E+00 -0.13152294018E+03  0.11084622852E+04  0.11006317976E+04 0.  0.
        3    1    3    3  502    0  0.34651557005E+03  0.22019716740E+03  0.30329859735E+03  0.51044087040E+03  0.10100000352E+00 0. -1.
       -3    1    3    3    0  502 -0.34651557005E+03 -0.22019716740E+03 -0.43482153753E+03  0.59802141477E+03  0.10100000352E+00 0.  1.
</event>
<event>
 5   0  0.3523525E-04  0.1095226E+04  0.7818609E-02  0.9209857E-01
        1   -1    0    0  501    0  0.00000000000E+00  0.00000000000E+00  0.14962032830E+04  0.14962032830E+04  0.50400001928E-02 0. -1.
       -1   -1    0    0    0  501  0.00000000000E+00  0.00000000000E+00 -0.20042742809E+03  0.20042742816E+03  0.50400001928E-02 0.  1.
    10030    2    1    2    0    0  0.00000000000E+00  0.00000000000E+00  0.12957758549E+04  0.16966307112E+04  0.10952263254E+04 0.  0.
        5    1    3    3  502    0 -0.11896685534E+03  0.11528672176E+03  0.14564216117E+04  0.14658206377E+04  0.46999998093E+01 0. -1.
       -5    1    3    3    0  502  0.11896685534E+03 -0.11528672176E+03 -0.16064575674E+03  0.23081007352E+03  0.46999998093E+01 0.  1.
</event>
<event>
 5   0  0.5948818E-04  0.1098592E+04  0.7818609E-02  0.9206565E-01
        2   -1    0    0  501    0  0.00000000000E+00  0.00000000000E+00  0.11884607185E+04  0.11884607185E+04  0.25500000920E-02 0.  1.
       -2   -1    0    0    0  501  0.00000000000E+00  0.00000000000E+00 -0.25387974125E+03  0.25387974126E+03  0.25500000920E-02 0. -1.
    10030    2    1    2    0    0  0.00000000000E+00  0.00000000000E+00  0.93458097723E+03  0.14423404597E+04  0.10985920074E+04 0.  0.
        3    1    3    3  502    0 -0.51335428304E+03 -0.63244010221E+02  0.71006560775E+03  0.87847914161E+03  0.10100000352E+00 0.  1.
       -3    1    3    3    0  502  0.51335428304E+03  0.63244010221E+02  0.22451536948E+03  0.56386131812E+03  0.10100000352E+00 0. -1.
</event>
<event>
 5   0  0.3621403E-04  0.1099598E+04  0.7818609E-02  0.9205584E-01
       -1   -1    0    0    0  501  0.00000000000E+00  0.00000000000E+00  0.26732057968E+03  0.26732057973E+03  0.50400001928E-02 0. -1.
        1   -1    0    0  501    0  0.00000000000E+00  0.00000000000E+00 -0.11307729852E+04  0.11307729852E+04  0.50400001928E-02 0.  1.
    10030    2    1    2    0    0  0.00000000000E+00  0.00000000000E+00 -0.86345240554E+03  0.13980935650E+04  0.10995979082E+04 0.  0.
        3    1    3    3  502    0 -0.26954243840E+03 -0.34581873883E+03 -0.99636097744E+01  0.43856927610E+03  0.10100000352E+00 0. -1.
       -3    1    3    3    0  502  0.26954243840E+03  0.34581873883E+03 -0.85348879577E+03  0.95952428887E+03  0.10100000352E+00 0.  1.
</event>
<event>
 5   0  0.3642161E-04  0.1099591E+04  0.7818609E-02  0.9205590E-01
        1   -1    0    0  501    0  0.00000000000E+00  0.00000000000E+00  0.29566971005E+03  0.29566971010E+03  0.50400001928E-02 0.  1.
       -1   -1    0    0    0  501  0.00000000000E+00  0.00000000000E+00 -0.10223407256E+04  0.10223407256E+04  0.50400001928E-02 0. -1.
    10030    2    1    2    0    0  0.00000000000E+00  0.00000000000E+00 -0.72667101557E+03  0.13180104357E+04  0.10995911712E+04 0.  0.
        2    1    3    3  502    0  0.24309107033E+02  0.43015342531E+03  0.46051662190E+02  0.43329396210E+03  0.25500000920E-02 0.  1.
       -2    1    3    3    0  502 -0.24309107033E+02 -0.43015342531E+03 -0.77272267776E+03  0.88471647363E+03  0.25500000920E-02 0. -1.
</event>
<event>
 5   0  0.6245176E-04  0.1099754E+04  0.7818609E-02  0.9205432E-01
        2   -1    0    0  501    0  0.00000000000E+00  0.00000000000E+00  0.69751209867E+03  0.69751209868E+03  0.25500000920E-02 0. -1.
       -2   -1    0    0    0  501  0.00000000000E+00  0.00000000000E+00 -0.43348992429E+03  0.43348992430E+03  0.25500000920E-02 0.  1.
    10030    2    1    2    0    0  0.00000000000E+00  0.00000000000E+00  0.26402217438E+03  0.11310020230E+04  0.10997535485E+04 0.  0.
        5    1    3    3  502    0  0.52594808194E+01 -0.46151257203E+03 -0.17534686863E+03  0.49375108164E+03  0.46999998093E+01 0.  1.
       -5    1    3    3    0  502 -0.52594808194E+01  0.46151257203E+03  0.43936904301E+03  0.63725094134E+03  0.46999998093E+01 0. -1.
</event>
<event>
 5   0  0.5948818E-04  0.1098877E+04  0.7818609E-02  0.9206287E-01
       -2   -1    0    0    0  501  0.00000000000E+00  0.00000000000E+00  0.37662407674E+03  0.37662407675E+03  0.25500000920E-02 0.  1.
        2   -1    0    0  501    0  0.00000000000E+00  0.00000000000E+00 -0.80154934942E+03  0.80154934942E+03  0.25500000920E-02 0. -1.
    10030    2    1    2    0    0  0.00000000000E+00  0.00000000000E+00 -0.42492527268E+03  0.11781734262E+04  0.10988772155E+04 0.  0.
        3    1    3    3  502    0  0.52904204491E+03 -0.14778300254E+03 -0.22591697150E+03  0.59393921350E+03  0.10100000352E+00 0. -1.
       -3    1    3    3    0  502 -0.52904204491E+03  0.14778300254E+03 -0.19900830118E+03  0.58423421267E+03  0.10100000352E+00 0.  1.
</event>
<event>
 5   0  0.3423758E-04  0.1100392E+04  0.7818609E-02  0.9204810E-01
       -1   -1    0    0    0  501  0.00000000000E+00  0.00000000000E+00  0.52563183567E+03  0.52563183570E+03  0.50400001928E-02 0. -1.
        1   -1    0    0  501    0  0.00000000000E+00  0.00000000000E+00 -0.57590805161E+03  0.57590805163E+03  0.50400001928E-02 0.  1.
    10030    2    1    2    0    0  0.00000000000E+00  0.00000000000E+00 -0.50276215940E+02  0.11015398873E+04  0.11003919418E+04 0.  0.
        1    1    3    3  502    0 -0.29292183620E+02 -0.39288729935E+03  0.35931611216E+03  0.53322277754E+03  0.50400001928E-02 0. -1.
       -1    1    3    3    0  502  0.29292183620E+02  0.39288729935E+03 -0.40959232810E+03  0.56831710978E+03  0.50400001928E-02 0.  1.
</event>
<event>
 5   0  0.6264830E-04  0.1099250E+04  0.7818609E-02  0.9205923E-01
        2   -1    0    0  501    0  0.00000000000E+00  0.00000000000E+00  0.33341233958E+03  0.33341233959E+03  0.25500000920E-02 0.  1.
       -2   -1    0    0    0  501  0.00000000000E+00  0.00000000000E+00 -0.90604879660E+03  0.90604879660E+03  0.25500000920E-02 0. -1.
    10030    2    1    2    0    0  0.00000000000E+00  0.00000000000E+00 -0.57263645702E+03  0.12394611362E+04  0.10992503792E+04 0.  0.
        4    1    3    3  502    0  0.24746727157E+03 -0.38961300156E+03  0.50153142485E+02  0.46427932550E+03  0.12699999809E+01 0. -1.
       -4    1    3    3    0  502 -0.24746727157E+03  0.38961300156E+03 -0.62278959950E+03  0.77518181069E+03  0.12699999809E+01 0.  1.
</event>
<event>
 5   0  0.6109149E-04  0.1101220E+04  0.7818609E-02  0.9204004E-01
       -2   -1    0    0    0  501  0.00000000000E+00  0.00000000000E+00  0.20706321579E+03  0.20706321580E+03  0.25500000920E-02 0.  1.
        2   -1    0    0  501    0  0.00000000000E+00  0.00000000000E+00 -0.14641482849E+04  0.14641482849E+04  0.25500000920E-02 0. -1.
    10030    2    1    2    0    0  0.00000000000E+00  0.00000000000E+00 -0.12570850691E+04  0.16712115007E+04  0.11012197824E+04 0.  0.
        1    1    3    3  502    0  0.31156733988E+02 -0.54936673821E+03 -0.65876897004E+03  0.85834207111E+03  0.50400001928E-02 0. -1.
       -1    1    3    3    0  502 -0.31156733988E+02  0.54936673821E+03 -0.59831609904E+03  0.81286942957E+03  0.50400001928E-02 0.  1.
</event>
<event>
 5   0  0.5948818E-04  0.1101199E+04  0.7818609E-02  0.9204024E-01
       -2   -1    0    0    0  501  0.00000000000E+00  0.00000000000E+00  0.47844652325E+03  0.47844652326E+03  0.25500000920E-02 0.  1.
        2   -1    0    0  501    0  0.00000000000E+00  0.00000000000E+00 -0.63363329390E+03  0.63363329391E+03  0.25500000920E-02 0. -1.
    10030    2    1    2    0    0  0.00000000000E+00  0.00000000000E+00 -0.15518677065E+03  0.11120798172E+04  0.11011987041E+04 0.  0.
        3    1    3    3  502    0  0.13906753723E+02 -0.53872310329E+03 -0.19159665182E+03  0.57194865766E+03  0.10100000352E+00 0. -1.
       -3    1    3    3    0  502 -0.13906753723E+02  0.53872310329E+03  0.36409881167E+02  0.54013115950E+03  0.10100000352E+00 0.  1.
</event>
<event>
 5   0  0.3523525E-04  0.1097517E+04  0.7818609E-02  0.9207615E-01
        1   -1    0    0  501    0  0.00000000000E+00  0.00000000000E+00  0.81815356976E+03  0.81815356978E+03  0.50400001928E-02 0.  1.
       -1   -1    0    0    0  501  0.00000000000E+00  0.00000000000E+00 -0.36806769596E+03  0.36806769599E+03  0.50400001928E-02 0. -1.
    10030    2    1    2    0    0  0.00000000000E+00  0.00000000000E+00  0.45008587380E+03  0.11862212658E+04  0.10975170147E+04 0.  0.
        5    1    3    3  502    0  0.37396048898E+03 -0.24436991265E+03  0.56946893153E+03  0.72379558959E+03  0.46999998093E+01 0.  1.
       -5    1    3    3    0  502 -0.37396048898E+03  0.24436991265E+03 -0.11938305773E+03  0.46242567619E+03  0.46999998093E+01 0. -1.
</event>
<event>
 5   0  0.3642161E-04  0.1104106E+04  0.7818609E-02  0.9201199E-01
       -1   -1    0    0    0  501  0.00000000000E+00  0.00000000000E+00  0.40988673878E+03  0.40988673881E+03  0.50400001928E-02 0. -1.
        1   -1    0    0  501    0  0.00000000000E+00  0.00000000000E+00 -0.74352920334E+03  0.74352920336E+03  0.50400001928E-02 0.  1.
    10030    2    1    2    0    0  0.00000000000E+00  0.00000000000E+00 -0.33364246456E+03  0.11534159422E+04  0.11041064448E+04 0.  0.
        2    1    3    3  502    0 -0.40300970687E+03  0.19457000596E+03  0.17086172838E+03  0.47902822598E+03  0.25500000920E-02 0. -1.
       -2    1    3    3    0  502  0.40300970687E+03 -0.19457000596E+03 -0.50450419293E+03  0.67438771619E+03  0.25500000920E-02 0.  1.
</event>
<event>
 5   0  0.3423758E-04  0.1100083E+04  0.7818609E-02  0.9205111E-01
        1   -1    0    0  501    0  0.00000000000E+00  0.00000000000E+00  0.48941898850E+03  0.48941898852E+03  0.50400001928E-02 0.  1.
       -1   -1    0    0    0  501  0.00000000000E+00  0.00000000000E+00 -0.61817278812E+03  0.61817278814E+03  0.50400001928E-02 0. -1.
    10030    2    1    2    0    0  0.00000000000E+00  0.00000000000E+00 -0.12875379962E+03  0.11075917767E+04  0.11000827254E+04 0.  0.
        1    1    3    3  502    0  0.25533138434E+03  0.30996113064E+03  0.31405503398E+03  0.50980445539E+03  0.50400001928E-02 0.  1.
       -1    1    3    3    0  502 -0.25533138434E+03 -0.30996113064E+03 -0.44280883360E+03  0.59778732127E+03  0.50400001928E-02 0. -1.
</event>
<event>
 5   0  0.6412712E-04  0.1101328E+04  0.7818609E-02  0.9203898E-01
       -2   -1    0    0    0  501  0.00000000000E+00  0.00000000000E+00  0.27811144518E+03  0.27811144519E+03  0.25500000920E-02 0. -1.
        2   -1    0    0  501    0  0.00000000000E+00  0.00000000000E+00 -0.10903213420E+04  0.10903213420E+04  0.25500000920E-02 0.  1.
    10030    2    1    2    0    0  0.00000000000E+00  0.00000000000E+00 -0.81220989684E+03  0.13684327872E+04  0.11013280059E+04 0.  0.
        2    1    3    3  502    0 -0.33365191228E+03  0.91861915337E+02 -0.93832067306E+03  0.10001039424E+04  0.25500000920E-02 0.  1.
       -2    1    3    3    0  502  0.33365191228E+03 -0.91861915337E+02  0.12611077622E+03  0.36832884484E+03  0.25500000920E-02 0. -1.
</event>
<event>
 5   0  0.6264830E-04  0.1098997E+04  0.7818609E-02  0.9206170E-01
       -2   -1    0    0    0  501  0.00000000000E+00  0.00000000000E+00  0.54057898275E+03  0.54057898276E+03  0.25500000920E-02 0.  1.
        2   -1    0    0  501    0  0.00000000000E+00  0.00000000000E+00 -0.55856499902E+03  0.55856499902E+03  0.25500000920E-02 0. -1.
    10030    2    1    2    0    0  0.00000000000E+00  0.00000000000E+00 -0.17986016266E+02  0.10991439818E+04  0.10989968134E+04 0.  0.
        4    1    3    3  502    0  0.42298704979E+03  0.23392004236E+03 -0.27039031465E+03  0.55384940703E+03  0.12699999809E+01 0. -1.
       -4    1    3    3    0  502 -0.42298704979E+03 -0.23392004236E+03  0.25240429839E+03  0.54529457475E+03  0.12699999809E+01 0.  1.
</event>
<event>
 5   0  0.3642161E-04  0.1100099E+04  0.7818609E-02  0.9205095E-01
       -1   -1    0    0    0  501  0.00000000000E+00  0.00000000000E+00  0.21993199704E+03  0.21993199710E+03  0.50400001928E-02 0.  1.
        1   -1    0    0  501    0  0.00000000000E+00  0.00000000000E+00 -0.13756736714E+04  0.13756736714E+04  0.50400001928E-02 0. -1.
    10030    2    1    2    0    0  0.00000000000E+00  0.00000000000E+00 -0.11557416743E+04  0.15956056685E+04  0.11000993735E+04 0.  0.
        2    1    3    3  502    0 -0.46007778708E+03  0.29947779436E+03 -0.62803393713E+03  0.83413736619E+03  0.25500000920E-02 0. -1.
       -2    1    3    3    0  502  0.46007778708E+03 -0.29947779436E+03 -0.52770773718E+03  0.76146830227E+03  0.25500000920E-02 0.  1.
</event>
<event>
 5   0  0.2403875E-04  0.1100694E+04  0.7818609E-02  0.9204516E-01
       -3   -1    0    0    0  501  0.00000000000E+00  0.00000000000E+00  0.10911887851E+04  0.10911887898E+04  0.10100000352E+00 0.  1.
        3   -1    0    0  501    0  0.00000000000E+00  0.00000000000E+00 -0.27757056944E+03  0.27757058781E+03  0.10100000352E+00 0. -1.
    10030    2    1    2    0    0  0.00000000000E+00  0.00000000000E+00  0.81361821568E+03  0.13687593776E+04  0.11006941596E+04 0.  0.
        5    1    3    3  502    0  0.37786519973E+02  0.14333943396E+03 -0.25225147888E+03  0.29262076655E+03  0.46999998093E+01 0. -1.
       -5    1    3    3    0  502 -0.37786519973E+02 -0.14333943396E+03  0.10658696946E+04  0.10761386111E+04  0.46999998093E+01 0.  1.
</event>
<event>
 5   0  0.3523525E-04  0.1092244E+04  0.7818609E-02  0.9212784E-01
       -1   -1    0    0    0  501  0.00000000000E+00  0.00000000000E+00  0.20041562518E+03  0.20041562524E+03  0.50400001928E-02 0. -1.
        1   -1    0    0  501    0  0.00000000000E+00  0.00000000000E+00 -0.14881536859E+04  0.14881536859E+04  0.50400001928E-02 0.  1.
    10030    2    1    2    0    0  0.00000000000E+00  0.00000000000E+00 -0.12877380607E+04  0.16885693111E+04  0.10922440229E+04 0.  0.
        5    1    3    3  502    0  0.18792781310E+02 -0.26196586562E+03 -0.13840737968E+04  0.14087801987E+04  0.46999998093E+01 0.  1.
       -5    1    3    3    0  502 -0.18792781310E+02  0.26196586562E+03  0.96335736082E+02  0.27978911241E+03  0.46999998093E+01 0. -1.
</event>
<event>
 5   0  0.3642161E-04  0.1098145E+04  0.7818609E-02  0.9207002E-01
        1   -1    0    0  501    0  0.00000000000E+00  0.00000000000E+00  0.16968631048E+04  0.16968631048E+04  0.50400001928E-02 0.  1.
       -1   -1    0    0    0  501  0.00000000000E+00  0.00000000000E+00 -0.17766932272E+03  0.17766932279E+03  0.50400001928E-02 0. -1.
    10030    2    1    2    0    0  0.00000000000E+00  0.00000000000E+00  0.15191937820E+04  0.18745324276E+04  0.10981448331E+04 0.  0.
        2    1    3    3  502    0  0.52872266399E+03  0.84616767100E+02  0.96707186248E+03  0.11054119775E+04  0.25500000920E-02 0.  1.
       -2    1    3    3    0  502 -0.52872266399E+03 -0.84616767100E+02  0.55212191956E+03  0.76912045010E+03  0.25500000920E-02 0. -1.
</event>
<event>
 5   0  0.2403875E-04  0.1097175E+04  0.7818609E-02  0.9207949E-01
       -3   -1    0    0    0  501  0.00000000000E+00  0.00000000000E+00  0.22770813057E+03  0.22770815297E+03  0.10100000352E+00 0.  1.
        3   -1    0    0  501    0  0.00000000000E+00  0.00000000000E+00 -0.13216407436E+04  0.13216407475E+04  0.10100000352E+00 0. -1.
    10030    2    1    2    0    0  0.00000000000E+00  0.00000000000E+00 -0.10939326131E+04  0.15493489004E+04  0.10971752155E+04 0.  0.
        2    1    3    3  502    0  0.17324606408E+03 -0.27468858522E+03  0.77378910408E+02  0.33384953699E+03  0.25500000920E-02 0.  1.
       -2    1    3    3    0  502 -0.17324606408E+03  0.27468858522E+03 -0.11713115235E+04  0.12154993635E+04  0.25500000920E-02 0. -1.
</event>
<event>
 5   0  0.6412712E-04  0.1100496E+04  0.7818609E-02  0.9204708E-01
        2   -1    0    0  501    0  0.00000000000E+00  0.00000000000E+00  0.70667791868E+03  0.70667791869E+03  0.25500000920E-02 0. -1.
       -2   -1    0    0    0  501  0.00000000000E+00  0.00000000000E+00 -0.42844559411E+03  0.42844559412E+03  0.25500000920E-02 0.  1.
    10030    2    1    2    0    0  0.00000000000E+00  0.00000000000E+00  0.27823232457E+03  0.11351235128E+04  0.11004963257E+04 0.  0.
        2    1    3    3  502    0  0.30343162538E+03 -0.45798358095E+03  0.10726861962E+03  0.55975554349E+03  0.25500000920E-02 0. -1.
       -2    1    3    3    0  502 -0.30343162538E+03  0.45798358095E+03  0.17096370495E+03  0.57536796932E+03  0.25500000920E-02 0.  1.
</event>
<event>
 5   0  0.5948818E-04  0.1098826E+04  0.7818609E-02  0.9206337E-01
        2   -1    0    0  501    0  0.00000000000E+00  0.00000000000E+00  0.66986870560E+03  0.66986870561E+03  0.25500000920E-02 0. -1.
       -2   -1    0    0    0  501  0.00000000000E+00  0.00000000000E+00 -0.45061733501E+03  0.45061733502E+03  0.25500000920E-02 0.  1.
    10030    2    1    2    0    0  0.00000000000E+00  0.00000000000E+00  0.21925137059E+03  0.11204860406E+04  0.10988256476E+04 0.  0.
        3    1    3    3  502    0  0.26365687691E+03 -0.39277269475E+03 -0.17529058809E+03  0.50449196124E+03  0.10100000352E+00 0. -1.
       -3    1    3    3    0  502 -0.26365687691E+03  0.39277269475E+03  0.39454195868E+03  0.61599407939E+03  0.10100000352E+00 0.  1.
</event>
<event>
 5   0  0.6412712E-04  0.1099997E+04  0.7818609E-02  0.9205195E-01
        2   -1    0    0  501    0  0.00000000000E+00  0.00000000000E+00  0.11946446412E+04  0.11946446412E+04  0.25500000920E-02 0.  1.
       -2   -1    0    0    0  501  0.00000000000E+00  0.00000000000E+00 -0.25321196104E+03  0.25321196106E+03  0.25500000920E-02 0. -1.
    10030    2    1    2    0    0  0.00000000000E+00  0.00000000000E+00  0.94143268019E+03  0.14478566023E+04  0.10999969316E+04 0.  0.
        2    1    3    3  502    0  0.39007823083E+03 -0.60178113641E+02 -0.33448598271E+02  0.39610761198E+03  0.25500000920E-02 0. -1.
       -2    1    3    3    0  502 -0.39007823083E+03  0.60178113641E+02  0.97488127846E+03  0.10517489903E+04  0.25500000920E-02 0.  1.
</event>
<event>
 5   0  0.3621403E-04  0.1099942E+04  0.7818609E-02  0.9205248E-01
       -1   -1    0    0    0  501  0.00000000000E+00  0.00000000000E+00  0.38012096748E+03  0.38012096752E+03  0.50400001928E-02 0. -1.
        1   -1    0    0  501    0  0.00000000000E+00  0.00000000000E+00 -0.79571564555E+03  0.79571564557E+03  0.50400001928E-02 0.  1.
    10030    2    1    2    0    0  0.00000000000E+00  0.00000000000E+00 -0.41559467807E+03  0.11758366131E+04  0.10999421822E+04 0.  0.
        3    1    3    3  502    0 -0.77333097765E+02  0.18364489262E+03 -0.75576973188E+03  0.78159692453E+03  0.10100000352E+00 0.  1.
       -3    1    3    3    0  502  0.77333097765E+02 -0.18364489262E+03  0.34017505382E+03  0.39423968856E+03  0.10100000352E+00 0. -1.
</event>
<event>
 5   0  0.3523525E-04  0.1102435E+04  0.7818609E-02  0.9202822E-01
        1   -1    0    0  501    0  0.00000000000E+00  0.00000000000E+00  0.10160602890E+04  0.10160602890E+04  0.50400001928E-02 0.  1.
       -1   -1    0    0    0  501  0.00000000000E+00  0.00000000000E+00 -0.29903792190E+03  0.29903792194E+03  0.50400001928E-02 0. -1.
    10030    2    1    2    0    0  0.00000000000E+00  0.00000000000E+00  0.71702236711E+03  0.13150982110E+04  0.11024346827E+04 0.  0.
        5    1    3    3  502    0  0.71976119869E+02 -0.41660607776E+03  0.78039662225E+03  0.88757093456E+03  0.46999998093E+01 0.  1.
       -5    1    3    3    0  502 -0.71976119869E+02  0.41660607776E+03 -0.63374255143E+02  0.42752727640E+03  0.46999998093E+01 0. -1.
</event>
<event>
 5   0  0.6245176E-04  0.1087620E+04  0.7818609E-02  0.9217343E-01
       -2   -1    0    0    0  501  0.00000000000E+00  0.00000000000E+00  0.30550049901E+03  0.30550049902E+03  0.25500000920E-02 0. -1.
        2   -1    0    0  501    0  0.00000000000E+00  0.00000000000E+00 -0.96801650263E+03  0.96801650264E+03  0.25500000920E-02 0.  1.
    10030    2    1    2    0    0  0.00000000000E+00  0.00000000000E+00 -0.66251600362E+03  0.12735170017E+04  0.10876203834E+04 0.  0.
        5    1    3    3  502    0  0.26238994754E+03  0.13229297689E+03  0.20450373006E+03  0.35804159243E+03  0.46999998093E+01 0. -1.
       -5    1    3    3    0  502 -0.26238994754E+03 -0.13229297689E+03 -0.86701973368E+03  0.91547540923E+03  0.46999998093E+01 0.  1.
</event>
<event>
 5   0  0.3523525E-04  0.1099620E+04  0.7818609E-02  0.9205563E-01
       -1   -1    0    0    0  501  0.00000000000E+00  0.00000000000E+00  0.52893420756E+03  0.52893420758E+03  0.50400001928E-02 0. -1.
        1   -1    0    0  501    0  0.00000000000E+00  0.00000000000E+00 -0.57150945330E+03  0.57150945332E+03  0.50400001928E-02 0.  1.
    10030    2    1    2    0    0  0.00000000000E+00  0.00000000000E+00 -0.42575245742E+02  0.11004436609E+04  0.10996197521E+04 0.  0.
        5    1    3    3  502    0 -0.11467887203E+03  0.44755221190E+03 -0.31952867519E+03  0.56176052757E+03  0.46999998093E+01 0.  1.
       -5    1    3    3    0  502  0.11467887203E+03 -0.44755221190E+03  0.27695342944E+03  0.53868313334E+03  0.46999998093E+01 0. -1.
</event>
<event>
 5   0  0.3642161E-04  0.1098751E+04  0.7818609E-02  0.9206410E-01
        1   -1    0    0  501    0  0.00000000000E+00  0.00000000000E+00  0.74905806913E+03  0.74905806914E+03  0.50400001928E-02 0. -1.
       -1   -1    0    0    0  501  0.00000000000E+00  0.00000000000E+00 -0.40292372355E+03  0.40292372359E+03  0.50400001928E-02 0.  1.
    10030    2    1    2    0    0  0.00000000000E+00  0.00000000000E+00  0.34613434557E+03  0.11519817927E+04  0.10987506840E+04 0.  0.
        2    1    3    3  502    0 -0.48364271785E+03  0.25941542943E+03  0.19889012164E+03  0.58374988141E+03  0.25500000920E-02 0. -1.
       -2    1    3    3    0  502  0.48364271785E+03 -0.25941542943E+03  0.14724422393E+03  0.56823191132E+03  0.25500000920E-02 0.  1.
</event>
<event>
 5   0  0.6245176E-04  0.1098842E+04  0.7818609E-02  0.9206321E-01
        2   -1    0    0  501    0  0.00000000000E+00  0.00000000000E+00  0.73110634894E+03  0.73110634894E+03  0.25500000920E-02 0. -1.
       -2   -1    0    0    0  501  0.00000000000E+00  0.00000000000E+00 -0.41288586487E+03  0.41288586488E+03  0.25500000920E-02 0.  1.
    10030    2    1    2    0    0  0.00000000000E+00  0.00000000000E+00  0.31822048407E+03  0.11439922138E+04  0.10988420764E+04 0.  0.
        5    1    3    3  502    0  0.44951533867E+03 -0.25336440138E+03  0.35549786723E+03  0.62662459511E+03  0.46999998093E+01 0. -1.
       -5    1    3    3    0  502 -0.44951533867E+03  0.25336440138E+03 -0.37277383165E+02  0.51736761871E+03  0.46999998093E+01 0.  1.
</event>
<event>
 5   0  0.3423758E-04  0.1100408E+04  0.7818609E-02  0.9204794E-01
       -1   -1    0    0    0  501  0.00000000000E+00  0.00000000000E+00  0.35922830619E+03  0.35922830622E+03  0.50400001928E-02 0. -1.
        1   -1    0    0  501    0  0.00000000000E+00  0.00000000000E+00 -0.84270819513E+03  0.84270819515E+03  0.50400001928E-02 0.  1.
    10030    2    1    2    0    0  0.00000000000E+00  0.00000000000E+00 -0.48347988895E+03  0.12019365014E+04  0.11004083562E+04 0.  0.
        1    1    3    3  502    0  0.11082946571E+03  0.35176888608E+03 -0.68769962760E+03  0.78035587876E+03  0.50400001928E-02 0.  1.
       -1    1    3    3    0  502 -0.11082946571E+03 -0.35176888608E+03  0.20421973866E+03  0.42158062261E+03  0.50400001928E-02 0. -1.
</event>
<event>
 5   0  0.5948818E-04  0.1100993E+04  0.7818609E-02  0.9204225E-01
       -2   -1    0    0    0  501  0.00000000000E+00  0.00000000000E+00  0.15341678581E+03  0.15341678583E+03  0.25500000920E-02 0.  1.
        2   -1    0    0  501    0  0.00000000000E+00  0.00000000000E+00 -0.19753132921E+04  0.19753132921E+04  0.25500000920E-02 0. -1.
    10030    2    1    2    0    0  0.00000000000E+00  0.00000000000E+00 -0.18218965063E+04  0.21287300780E+04  0.11009926726E+04 0.  0.
        3    1    3    3  502    0 -0.42373487064E+03 -0.11688799405E+03 -0.15517164302E+04  0.16127733671E+04  0.10100000352E+00 0. -1.
       -3    1    3    3    0  502  0.42373487064E+03  0.11688799405E+03 -0.27018007618E+03  0.51595671089E+03  0.10100000352E+00 0.  1.
</event>
<event>
 5   0  0.6109149E-04  0.1099875E+04  0.7818609E-02  0.9205313E-01
       -2   -1    0    0    0  501  0.00000000000E+00  0.00000000000E+00  0.10246958599E+04  0.10246958599E+04  0.25500000920E-02 0.  1.
        2   -1    0    0  501    0  0.00000000000E+00  0.00000000000E+00 -0.29514261040E+03  0.29514261041E+03  0.25500000920E-02 0. -1.
    10030    2    1    2    0    0  0.00000000000E+00  0.00000000000E+00  0.72955324951E+03  0.13198384703E+04  0.10998752856E+04 0.  0.
        1    1    3    3  502    0  0.52691808242E+03 -0.54154593675E+02  0.18737281901E+03  0.56185759667E+03  0.50400001928E-02 0. -1.
       -1    1    3    3    0  502 -0.52691808242E+03  0.54154593675E+02  0.54218043050E+03  0.75798087366E+03  0.50400001928E-02 0.  1.
</event>
<event>
 5   0  0.5948818E-04  0.1101953E+04  0.7818609E-02  0.9203290E-01
       -2   -1    0    0    0  501  0.00000000000E+00  0.00000000000E+00  0.39146292474E+03  0.39146292475E+03  0.25500000920E-02 0.  1.
        2   -1    0    0  501    0  0.00000000000E+00  0.00000000000E+00 -0.77548876742E+03  0.77548876742E+03  0.25500000920E-02 0. -1.
    10030    2    1    2    0    0  0.00000000000E+00  0.00000000000E+00 -0.38402584268E+03  0.11669516922E+04  0.11019529954E+04 0.  0.
        3    1    3    3  502    0  0.27001586912E+03 -0.20934755483E+03 -0.64975926085E+03  0.73411312177E+03  0.10100000352E+00 0. -1.
       -3    1    3    3    0  502 -0.27001586912E+03  0.20934755483E+03  0.26573341817E+03  0.43283857040E+03  0.10100000352E+00 0.  1.
</event>
<event>
 5   0  0.2403875E-04  0.1103446E+04  0.7818609E-02  0.9201840E-01
        4   -1    0    0  501    0  0.00000000000E+00  0.00000000000E+00  0.45659234271E+03  0.45659410895E+03  0.12699999809E+01 0. -1.
       -4   -1    0    0    0  501  0.00000000000E+00  0.00000000000E+00 -0.66667002125E+03  0.66667123092E+03  0.12699999809E+01 0.  1.
    10030    2    1    2    0    0  0.00000000000E+00  0.00000000000E+00 -0.21007767853E+03  0.11232653399E+04  0.11034456909E+04 0.  0.
        3    1    3    3  502    0  0.27745470027E+03  0.36926994345E+03  0.20213718538E+03  0.50418335331E+03  0.10100000352E+00 0. -1.
       -3    1    3    3    0  502 -0.27745470027E+03 -0.36926994345E+03 -0.41221486391E+03  0.61908198655E+03  0.10100000352E+00 0.  1.
</event>
<event>
 5   0  0.6264830E-04  0.1098854E+04  0.7818609E-02  0.9206310E-01
       -2   -1    0    0    0  501  0.00000000000E+00  0.00000000000E+00  0.24802447810E+03  0.24802447811E+03  0.25500000920E-02 0. -1.
        2   -1    0    0  501    0  0.00000000000E+00  0.00000000000E+00 -0.12170969979E+04  0.12170969979E+04  0.25500000920E-02 0.  1.
    10030    2    1    2    0    0  0.00000000000E+00  0.00000000000E+00 -0.96907251983E+03  0.14651214760E+04  0.10988536713E+04 0.  0.
        4    1    3    3  502    0 -0.13412687036E+03  0.89041116786E+01  0.22575938359E+03  0.26275123736E+03  0.12699999809E+01 0. -1.
       -4    1    3    3    0  502  0.13412687036E+03 -0.89041116786E+01 -0.11948319034E+04  0.12023702387E+04  0.12699999809E+01 0.  1.
</event>
<event>
 5   0  0.3523525E-04  0.1101609E+04  0.7818609E-02  0.9203625E-01
       -1   -1    0    0    0  501  0.00000000000E+00  0.00000000000E+00  0.12280792358E+04  0.12280792358E+04  0.50400001928E-02 0.  1.
        1   -1    0    0  501    0  0.00000000000E+00  0.00000000000E+00 -0.24704055972E+03  0.24704055977E+03  0.50400001928E-02 0. -1.
    10030    2    1    2    0    0  0.00000000000E+00  0.00000000000E+00  0.98103867608E+03  0.14751197956E+04  0.11016086090E+04 0.  0.
        5    1    3    3  502    0  0.30160417270E+03 -0.44590285247E+03  0.64650032600E+03  0.84129613832E+03  0.46999998093E+01 0.  1.
       -5    1    3    3    0  502 -0.30160417270E+03  0.44590285247E+03  0.33453835007E+03  0.63382365726E+03  0.46999998093E+01 0. -1.
</event>
<event>
 5   0  0.2403875E-04  0.1099745E+04  0.7818609E-02  0.9205440E-01
        4   -1    0    0  501    0  0.00000000000E+00  0.00000000000E+00  0.34936514724E+03  0.34936745557E+03  0.12699999809E+01 0. -1.
       -4   -1    0    0    0  501  0.00000000000E+00  0.00000000000E+00 -0.86544945055E+03  0.86545038237E+03  0.12699999809E+01 0.  1.
    10030    2    1    2    0    0  0.00000000000E+00  0.00000000000E+00 -0.51608430330E+03  0.12148178379E+04  0.10997451392E+04 0.  0.
        4    1    3    3  502    0 -0.35083398580E+03  0.35532502360E+03 -0.51239128082E+03  0.71546264441E+03  0.12699999809E+01 0. -1.
       -4    1    3    3    0  502  0.35083398580E+03 -0.35532502360E+03 -0.36930224800E+01  0.49935519353E+03  0.12699999809E+01 0.  1.
</event>
<event>
 5   0  0.2403875E-04  0.1101230E+04  0.7818609E-02  0.9203994E-01
        3   -1    0    0  501    0  0.00000000000E+00  0.00000000000E+00  0.45610163511E+03  0.45610164630E+03  0.10100000352E+00 0.  1.
       -3   -1    0    0    0  501  0.00000000000E+00  0.00000000000E+00 -0.66471309510E+03  0.66471310278E+03  0.10100000352E+00 0. -1.
    10030    2    1    2    0    0  0.00000000000E+00  0.00000000000E+00 -0.20861145999E+03  0.11208147491E+04  0.11012297492E+04 0.  0.
        1    1    3    3  502    0 -0.20574802174E+01 -0.55046408869E+03 -0.91359687828E+02  0.55799779458E+03  0.50400001928E-02 0. -1.
       -1    1    3    3    0  502  0.20574802174E+01  0.55046408869E+03 -0.11725177216E+03  0.56281695450E+03  0.50400001928E-02 0.  1.
</event>
<event>
 5   0  0.2403875E-04  0.1099131E+04  0.7818609E-02  0.9206039E-01
       -3   -1    0    0    0  501  0.00000000000E+00  0.00000000000E+00  0.34928872898E+03  0.34928874358E+03  0.10100000352E+00 0. -1.
        3   -1    0    0  501    0  0.00000000000E+00  0.00000000000E+00 -0.86467844747E+03  0.86467845337E+03  0.10100000352E+00 0.  1.
    10030    2    1    2    0    0  0.00000000000E+00  0.00000000000E+00 -0.51538971849E+03  0.12139671969E+04  0.10991313813E+04 0.  0.
        3    1    3    3  502    0  0.30696473295E+03 -0.34867285280E+03 -0.58201000269E+03  0.74467157794E+03  0.10100000352E+00 0.  1.
       -3    1    3    3    0  502 -0.30696473295E+03  0.34867285280E+03  0.66620284199E+02  0.46929561901E+03  0.10100000352E+00 0. -1.
</event>
<event>
 5   0  0.2403875E-04  0.1098347E+04  0.7818609E-02  0.9206804E-01
        3   -1    0    0  501    0  0.00000000000E+00  0.00000000000E+00  0.58314961192E+03  0.58314962067E+03  0.10100000352E+00 0.  1.
       -3   -1    0    0    0  501  0.00000000000E+00  0.00000000000E+00 -0.51717726587E+03  0.51717727573E+03  0.10100000352E+00 0. -1.
    10030    2    1    2    0    0  0.00000000000E+00  0.00000000000E+00  0.65972346059E+02  0.11003268964E+04  0.10983473624E+04 0.  0.
        2    1    3    3  502    0  0.44042560749E+03 -0.11320742893E+03 -0.27546661001E+03  0.53166953170E+03  0.25500000920E-02 0. -1.
       -2    1    3    3    0  502 -0.44042560749E+03  0.11320742893E+03  0.34143895607E+03  0.56865736470E+03  0.25500000920E-02 0.  1.
</event>
<event>
 5   0  0.3642161E-04  0.1098140E+04  0.7818609E-02  0.9207006E-01
        1   -1    0    0  501    0  0.00000000000E+00  0.00000000000E+00  0.86301575513E+03  0.86301575515E+03  0.50400001928E-02 0. -1.
       -1   -1    0    0    0  501  0.00000000000E+00  0.00000000000E+00 -0.34933079487E+03  0.34933079491E+03  0.50400001928E-02 0.  1.
    10030    2    1    2    0    0  0.00000000000E+00  0.00000000000E+00  0.51368496026E+03  0.12123465501E+04  0.10981402092E+04 0.  0.
        2    1    3    3  502    0 -0.12006872555E+03 -0.39133850204E+03  0.66084555118E+03  0.77735395063E+03  0.25500000920E-02 0. -1.
       -2    1    3    3    0  502  0.12006872555E+03  0.39133850204E+03 -0.14716059092E+03  0.43499259943E+03  0.25500000920E-02 0.  1.
</event>
<event>
 5   0  0.3621403E-04  0.1099254E+04  0.7818609E-02  0.9205919E-01
        1   -1    0    0  501    0  0.00000000000E+00  0.00000000000E+00  0.53502087092E+03  0.53502087094E+03  0.50400001928E-02 0. -1.
       -1   -1    0    0    0  501  0.00000000000E+00  0.00000000000E+00 -0.56463197546E+03  0.56463197548E+03  0.50400001928E-02 0.  1.
    10030    2    1    2    0    0  0.00000000000E+00  0.00000000000E+00 -0.29611104541E+02  0.10996528464E+04  0.10992540949E+04 0.  0.
        3    1    3    3  502    0 -0.42994498485E+03 -0.20075869507E+03  0.26266329670E+03  0.54235482968E+03  0.10100000352E+00 0. -1.
       -3    1    3    3    0  502  0.42994498485E+03  0.20075869507E+03 -0.29227440125E+03  0.55729801674E+03  0.10100000352E+00 0.  1.
</event>
<event>
 5   0  0.3523525E-04  0.1101007E+04  0.7818609E-02  0.9204211E-01
        1   -1    0    0  501    0  0.00000000000E+00  0.00000000000E+00  0.84769022242E+03  0.84769022244E+03  0.50400001928E-02 0. -1.
       -1   -1    0    0    0  501  0.00000000000E+00  0.00000000000E+00 -0.35750589643E+03  0.35750589647E+03  0.50400001928E-02 0.  1.
    10030    2    1    2    0    0  0.00000000000E+00  0.00000000000E+00  0.49018432599E+03  0.12051961189E+04  0.11010072714E+04 0.  0.
        5    1    3    3  502    0 -0.37974537979E+02  0.23641810129E+01 -0.35604288804E+03  0.35810093969E+03  0.46999998093E+01 0.  1.
       -5    1    3    3    0  502  0.37974537979E+02 -0.23641810129E+01  0.84622721403E+03  0.84709517922E+03  0.46999998093E+01 0. -1.
</event>
<event>
 5   0  0.6245176E-04  0.1102909E+04  0.7818609E-02  0.9202361E-01
        2   -1    0    0  501    0  0.00000000000E+00  0.00000000000E+00  0.60690661334E+03  0.60690661335E+03  0.25500000920E-02 0.  1.
       -2   -1    0    0    0  501  0.00000000000E+00  0.00000000000E+00 -0.50106883061E+03  0.50106883062E+03  0.25500000920E-02 0. -1.
    10030    2    1    2    0    0  0.00000000000E+00  0.00000000000E+00  0.10583778273E+03  0.11079754440E+04  0.11029088576E+04 0.  0.
        5    1    3    3  502    0 -0.51005742855E+03 -0.13875316273E+03 -0.10486592027E+03  0.53891555166E+03  0.46999998093E+01 0. -1.
       -5    1    3    3    0  502  0.51005742855E+03  0.13875316273E+03  0.21070370300E+03  0.56905989231E+03  0.46999998093E+01 0.  1.
</event>
<event>
 5   0  0.3423758E-04  0.1099156E+04  0.7818609E-02  0.9206015E-01
       -1   -1    0    0    0  501  0.00000000000E+00  0.00000000000E+00  0.51424561421E+03  0.51424561424E+03  0.50400001928E-02 0.  1.
        1   -1    0    0  501    0  0.00000000000E+00  0.00000000000E+00 -0.58733744243E+03  0.58733744245E+03  0.50400001928E-02 0. -1.
    10030    2    1    2    0    0  0.00000000000E+00  0.00000000000E+00 -0.73091828219E+02  0.11015830567E+04  0.10991555010E+04 0.  0.
        1    1    3    3  502    0 -0.13942256858E+03  0.31562729061E+03 -0.46524812747E+03  0.57923661775E+03  0.50400001928E-02 0. -1.
       -1    1    3    3    0  502  0.13942256858E+03 -0.31562729061E+03  0.39215629925E+03  0.52234643894E+03  0.50400001928E-02 0.  1.
</event>
<event>
 5   0  0.3523525E-04  0.1101359E+04  0.7818609E-02  0.9203868E-01
       -1   -1    0    0    0  501  0.00000000000E+00  0.00000000000E+00  0.26427178800E+03  0.26427178805E+03  0.50400001928E-02 0.  1.
        1   -1    0    0  501    0  0.00000000000E+00  0.00000000000E+00 -0.11474849285E+04  0.11474849286E+04  0.50400001928E-02 0. -1.
    10030    2    1    2    0    0  0.00000000000E+00  0.00000000000E+00 -0.88321314054E+03  0.14117567166E+04  0.11013589675E+04 0.  0.
        5    1    3    3  502    0 -0.28516957154E+03 -0.43516121638E+03 -0.67283007013E+03  0.85053475063E+03  0.46999998093E+01 0. -1.
       -5    1    3    3    0  502  0.28516957154E+03  0.43516121638E+03 -0.21038307042E+03  0.56122196597E+03  0.46999998093E+01 0.  1.
</event>
<event>
 5   0  0.3657529E-04  0.1099735E+04  0.7818609E-02  0.9205450E-01
        1   -1    0    0  501    0  0.00000000000E+00  0.00000000000E+00  0.75410498542E+03  0.75410498543E+03  0.50400001928E-02 0.  1.
       -1   -1    0    0    0  501  0.00000000000E+00  0.00000000000E+00 -0.40094434750E+03  0.40094434753E+03  0.50400001928E-02 0. -1.
    10030    2    1    2    0    0  0.00000000000E+00  0.00000000000E+00  0.35316063792E+03  0.11550493330E+04  0.10997347523E+04 0.  0.
        4    1    3    3  502    0  0.39698400762E+03  0.32248346302E+03 -0.35467124215E+02  0.51269037052E+03  0.12699999809E+01 0. -1.
       -4    1    3    3    0  502 -0.39698400762E+03 -0.32248346302E+03  0.38862776213E+03  0.64235896244E+03  0.12699999809E+01 0.  1.
</event>
<event>
 5   0  0.3642161E-04  0.1099794E+04  0.7818609E-02  0.9205393E-01
       -1   -1    0    0    0  501  0.00000000000E+00  0.00000000000E+00  0.27549830223E+03  0.27549830227E+03  0.50400001928E-02 0. -1.
        1   -1    0    0  501    0  0.00000000000E+00  0.00000000000E+00 -0.10975983727E+04  0.10975983728E+04  0.50400001928E-02 0.  1.
    10030    2    1    2    0    0  0.00000000000E+00  0.00000000000E+00 -0.82210007051E+03  0.13730966750E+04  0.10997935956E+04 0.  0.
        2    1    3    3  502    0  0.69196452686E+02 -0.28363824521E+03 -0.99284174846E+03  0.10348785149E+04  0.25500000920E-02 0.  1.
       -2    1    3    3    0  502 -0.69196452686E+02  0.28363824521E+03  0.17074167794E+03  0.33821816008E+03  0.25500000920E-02 0. -1.
</event>
<event>
 5   0  0.6412712E-04  0.1115811E+04  0.7818609E-02  0.9189917E-01
       -2   -1    0    0    0  501  0.00000000000E+00  0.00000000000E+00  0.13211984561E+03  0.13211984563E+03  0.25500000920E-02 0.  1.
        2   -1    0    0  501    0  0.00000000000E+00  0.00000000000E+00 -0.23558803006E+04  0.23558803006E+04  0.25500000920E-02 0. -1.
    10030    2    1    2    0    0  0.00000000000E+00  0.00000000000E+00 -0.22237604550E+04  0.24880001463E+04  0.11158109905E+04 0.  0.
        2    1    3    3  502    0 -0.18163239781E+03 -0.52468952600E+03 -0.99038106737E+03  0.11354048112E+04  0.25500000920E-02 0.  1.
       -2    1    3    3    0  502  0.18163239781E+03  0.52468952600E+03 -0.12333793877E+04  0.13525953351E+04  0.25500000920E-02 0. -1.
</event>
<event>
 5   0  0.5948818E-04  0.1098197E+04  0.7818609E-02  0.9206951E-01
       -2   -1    0    0    0  501  0.00000000000E+00  0.00000000000E+00  0.15668240564E+03  0.15668240566E+03  0.25500000920E-02 0.  1.
        2   -1    0    0  501    0  0.00000000000E+00  0.00000000000E+00 -0.19243341480E+04  0.19243341480E+04  0.25500000920E-02 0. -1.
    10030    2    1    2    0    0  0.00000000000E+00  0.00000000000E+00 -0.17676517424E+04  0.20810165537E+04  0.10981972566E+04 0.  0.
        3    1    3    3  502    0 -0.37734302846E+03 -0.52150784176E+02 -0.13442172299E+03  0.40395132780E+03  0.10100000352E+00 0.  1.
       -3    1    3    3    0  502  0.37734302846E+03  0.52150784176E+02 -0.16332300194E+04  0.16770652259E+04  0.10100000352E+00 0. -1.
</event>
<event>
 5   0  0.6264830E-04  0.1100094E+04  0.7818609E-02  0.9205101E-01
        2   -1    0    0  501    0  0.00000000000E+00  0.00000000000E+00  0.12890119039E+04  0.12890119039E+04  0.25500000920E-02 0.  1.
       -2   -1    0    0    0  501  0.00000000000E+00  0.00000000000E+00 -0.23471585276E+03  0.23471585277E+03  0.25500000920E-02 0. -1.
    10030    2    1    2    0    0  0.00000000000E+00  0.00000000000E+00  0.10542960511E+04  0.15237277566E+04  0.11000936837E+04 0.  0.
        4    1    3    3  502    0 -0.49050829918E+02 -0.54750687594E+03  0.50014226120E+03  0.74317807924E+03  0.12699999809E+01 0. -1.
       -4    1    3    3    0  502  0.49050829918E+02  0.54750687594E+03  0.55415378989E+03  0.78054967739E+03  0.12699999809E+01 0.  1.
</event>
<event>
 5   0  0.3621403E-04  0.1100254E+04  0.7818609E-02  0.9204945E-01
        1   -1    0    0  501    0  0.00000000000E+00  0.00000000000E+00  0.67835865700E+03  0.67835865702E+03  0.50400001928E-02 0. -1.
       -1   -1    0    0    0  501  0.00000000000E+00  0.00000000000E+00 -0.44613507700E+03  0.44613507703E+03  0.50400001928E-02 0.  1.
    10030    2    1    2    0    0  0.00000000000E+00  0.00000000000E+00  0.23222358001E+03  0.11244937340E+04  0.11002537738E+04 0.  0.
        3    1    3    3  502    0 -0.53093595761E+03  0.32886553609E+02  0.25943346203E+03  0.59184478364E+03  0.10100000352E+00 0. -1.
       -3    1    3    3    0  502  0.53093595761E+03 -0.32886553609E+02 -0.27209882026E+02  0.53264895041E+03  0.10100000352E+00 0.  1.
</event>
<event>
 5   0  0.6109149E-04  0.1112575E+04  0.7818609E-02  0.9193021E-01
       -2   -1    0    0    0  501  0.00000000000E+00  0.00000000000E+00  0.43050762439E+03  0.43050762440E+03  0.25500000920E-02 0. -1.
        2   -1    0    0  501    0  0.00000000000E+00  0.00000000000E+00 -0.71881609866E+03  0.71881609867E+03  0.25500000920E-02 0.  1.
    10030    2    1    2    0    0  0.00000000000E+00  0.00000000000E+00 -0.28830847427E+03  0.11493237231E+04  0.11125750510E+04 0.  0.
        1    1    3    3  502    0 -0.23172214701E+03  0.15144083588E+03 -0.64261284610E+03  0.69970047176E+03  0.50400001928E-02 0.  1.
       -1    1    3    3    0  502  0.23172214701E+03 -0.15144083588E+03  0.35430437183E+03  0.44962325130E+03  0.50400001928E-02 0. -1.
</event>
<event>
 5   0  0.6245176E-04  0.1098835E+04  0.7818609E-02  0.9206328E-01
       -2   -1    0    0    0  501  0.00000000000E+00  0.00000000000E+00  0.14387659639E+04  0.14387659639E+04  0.25500000920E-02 0.  1.
        2   -1    0    0  501    0  0.00000000000E+00  0.00000000000E+00 -0.20980462754E+03  0.20980462756E+03  0.25500000920E-02 0. -1.
    10030    2    1    2    0    0  0.00000000000E+00  0.00000000000E+00  0.12289613363E+04  0.16485705914E+04  0.10988353056E+04 0.  0.
        5    1    3    3  502    0  0.10952555176E+03 -0.52898408339E+03  0.46431934307E+03  0.71234440358E+03  0.46999998093E+01 0. -1.
       -5    1    3    3    0  502 -0.10952555176E+03  0.52898408339E+03  0.76464199328E+03  0.93622618787E+03  0.46999998093E+01 0.  1.
</event>
<event>
 5   0  0.3657529E-04  0.1101991E+04  0.7818609E-02  0.9203253E-01
        1   -1    0    0  501    0  0.00000000000E+00  0.00000000000E+00  0.94015193089E+03  0.94015193090E+03  0.50400001928E-02 0. -1.
       -1   -1    0    0    0  501  0.00000000000E+00  0.00000000000E+00 -0.32292252427E+03  0.32292252431E+03  0.50400001928E-02 0.  1.
    10030    2    1    2    0    0  0.00000000000E+00  0.00000000000E+00  0.61722940661E+03  0.12630744552E+04  0.11019913516E+04 0.  0.
        4    1    3    3  502    0 -0.13860269257E+03  0.48542672946E+03  0.55559694446E+02  0.50787627293E+03  0.12699999809E+01 0.  1.
       -4    1    3    3    0  502  0.13860269257E+03 -0.48542672946E+03  0.56166971217E+03  0.75519818228E+03  0.12699999809E+01 0. -1.
</event>
<event>
 5   0  0.3642161E-04  0.1100057E+04  0.7818609E-02  0.9205136E-01
       -1   -1    0    0    0  501  0.00000000000E+00  0.00000000000E+00  0.15640137426E+03  0.15640137434E+03  0.50400001928E-02 0.  1.
        1   -1    0    0  501    0  0.00000000000E+00  0.00000000000E+00 -0.19343280713E+04  0.19343280713E+04  0.50400001928E-02 0. -1.
    10030    2    1    2    0    0  0.00000000000E+00  0.00000000000E+00 -0.17779266970E+04  0.20907294457E+04  0.11000573962E+04 0.  0.
        2    1    3    3  502    0 -0.38337854825E+03 -0.30906863362E+03 -0.42330951862E+03  0.64937930373E+03  0.25500000920E-02 0.  1.
       -2    1    3    3    0  502  0.38337854825E+03  0.30906863362E+03 -0.13546171784E+04  0.14413501419E+04  0.25500000920E-02 0. -1.
</event>
<event>
 5   0  0.3642161E-04  0.1100822E+04  0.7818609E-02  0.9204391E-01
        1   -1    0    0  501    0  0.00000000000E+00  0.00000000000E+00  0.73851534588E+03  0.73851534589E+03  0.50400001928E-02 0. -1.
       -1   -1    0    0    0  501  0.00000000000E+00  0.00000000000E+00 -0.41021797895E+03  0.41021797898E+03  0.50400001928E-02 0.  1.
    10030    2    1    2    0    0  0.00000000000E+00  0.00000000000E+00  0.32829736693E+03  0.11487333249E+04  0.11008220067E+04 0.  0.
        2    1    3    3  502    0 -0.33782805691E+02 -0.35666237768E+02 -0.40792566364E+03  0.41087310150E+03  0.25500000920E-02 0.  1.
       -2    1    3    3    0  502  0.33782805691E+02  0.35666237768E+02  0.73622303057E+03  0.73786022337E+03  0.25500000920E-02 0. -1.
</event>
<event>
 5   0  0.3621403E-04  0.1100293E+04  0.7818609E-02  0.9204906E-01
        1   -1    0    0  501    0  0.00000000000E+00  0.00000000000E+00  0.11802369349E+04  0.11802369350E+04  0.50400001928E-02 0. -1.
       -1   -1    0    0    0  501  0.00000000000E+00  0.00000000000E+00 -0.25644097578E+03  0.25644097583E+03  0.50400001928E-02 0.  1.
    10030    2    1    2    0    0  0.00000000000E+00  0.00000000000E+00  0.92379595916E+03  0.14366779108E+04  0.11002928906E+04 0.  0.
        3    1    3    3  502    0  0.14483445281E+03  0.12285199560E+03  0.11360754449E+04  0.11518407261E+04  0.10100000352E+00 0. -1.
       -3    1    3    3    0  502 -0.14483445281E+03 -0.12285199560E+03 -0.21227948572E+03  0.28483718473E+03  0.10100000352E+00 0.  1.
</event>
<event>
 5   0  0.3642161E-04  0.1103172E+04  0.7818609E-02  0.9202106E-01
        1   -1    0    0  501    0  0.00000000000E+00  0.00000000000E+00  0.75081932586E+03  0.75081932588E+03  0.50400001928E-02 0.  1.
       -1   -1    0    0    0  501  0.00000000000E+00  0.00000000000E+00 -0.40522009170E+03  0.40522009173E+03  0.50400001928E-02 0. -1.
    10030    2    1    2    0    0  0.00000000000E+00  0.00000000000E+00  0.34559923416E+03  0.11560394176E+04  0.11031719288E+04 0.  0.
        2    1    3    3  502    0 -0.35857311659E+03  0.40425437470E+03  0.28878722895E+03  0.61269433081E+03  0.25500000920E-02 0.  1.
       -2    1    3    3    0  502  0.35857311659E+03 -0.40425437470E+03  0.56812005217E+02  0.54334508679E+03  0.25500000920E-02 0. -1.
</event>
<event>
 5   0  0.6412712E-04  0.1098236E+04  0.7818609E-02  0.9206913E-01
       -2   -1    0    0    0  501  0.00000000000E+00  0.00000000000E+00  0.36612030359E+03  0.36612030360E+03  0.25500000920E-02 0. -1.
        2   -1    0    0  501    0  0.00000000000E+00  0.00000000000E+00 -0.82358314766E+03  0.82358314766E+03  0.25500000920E-02 0.  1.
    10030    2    1    2    0    0  0.00000000000E+00  0.00000000000E+00 -0.45746284407E+03  0.11897034513E+04  0.10982358801E+04 0.  0.
        2    1    3    3  502    0  0.44048925585E+03 -0.11283871743E+03  0.10475027766E+03  0.46662188262E+03  0.25500000920E-02 0. -1.
       -2    1    3    3    0  502 -0.44048925585E+03  0.11283871743E+03 -0.56221312172E+03  0.72308156864E+03  0.25500000920E-02 0.  1.
</event>
<event>
 5   0  0.6412712E-04  0.1101713E+04  0.7818609E-02  0.9203524E-01
        2   -1    0    0  501    0  0.00000000000E+00  0.00000000000E+00  0.73688723210E+03  0.73688723211E+03  0.25500000920E-02 0.  1.
       -2   -1    0    0    0  501  0.00000000000E+00  0.00000000000E+00 -0.41179030544E+03  0.41179030545E+03  0.25500000920E-02 0. -1.
    10030    2    1    2    0    0  0.00000000000E+00  0.00000000000E+00  0.32509692666E+03  0.11486775376E+04  0.11017132447E+04 0.  0.
        2    1    3    3  502    0  0.35628103408E+03 -0.34485243409E+03 -0.87646822247E+02  0.50352888894E+03  0.25500000920E-02 0. -1.
       -2    1    3    3    0  502 -0.35628103408E+03  0.34485243409E+03  0.41274374891E+03  0.64514864861E+03  0.25500000920E-02 0.  1.
</event>
<event>
 5   0  0.5948818E-04  0.1099989E+04  0.7818609E-02  0.9205202E-01
        2   -1    0    0  501    0  0.00000000000E+00  0.00000000000E+00  0.68026010682E+03  0.68026010683E+03  0.25500000920E-02 0.  1.
       -2   -1    0    0    0  501  0.00000000000E+00  0.00000000000E+00 -0.44467426446E+03  0.44467426447E+03  0.25500000920E-02 0. -1.
    10030    2    1    2    0    0  0.00000000000E+00  0.00000000000E+00  0.23558584236E+03  0.11249343713E+04  0.10999893866E+04 0.  0.
        3    1    3    3  502    0  0.16036448213E+03  0.21814208730E+02  0.65535711454E+03  0.67504487600E+03  0.10100000352E+00 0.  1.
       -3    1    3    3    0  502 -0.16036448213E+03 -0.21814208730E+02 -0.41977127218E+03  0.44988949530E+03  0.10100000352E+00 0. -1.
</event>
<event>
 5   0  0.2403875E-04  0.1099017E+04  0.7818609E-02  0.9206150E-01
       -3   -1    0    0    0  501  0.00000000000E+00  0.00000000000E+00  0.64819339805E+03  0.64819340592E+03  0.10100000352E+00 0.  1.
        3   -1    0    0  501    0  0.00000000000E+00  0.00000000000E+00 -0.46584814409E+03  0.46584815504E+03  0.10100000352E+00 0. -1.
    10030    2    1    2    0    0  0.00000000000E+00  0.00000000000E+00  0.18234525396E+03  0.11140415610E+04  0.10990172009E+04 0.  0.
        3    1    3    3  502    0 -0.41822072636E+03  0.35396209726E+03  0.13372204588E+03  0.56398522854E+03  0.10100000352E+00 0.  1.
       -3    1    3    3    0  502  0.41822072636E+03 -0.35396209726E+03  0.48623208082E+02  0.55005633241E+03  0.10100000352E+00 0. -1.
</event>
<event>
 5   0  0.3423758E-04  0.1085137E+04  0.7818609E-02  0.9219800E-01
       -1   -1    0    0    0  501  0.00000000000E+00  0.00000000000E+00  0.16147079705E+03  0.16147079713E+03  0.50400001928E-02 0.  1.
        1   -1    0    0  501    0  0.00000000000E+00  0.00000000000E+00 -0.18231202275E+04  0.18231202275E+04  0.50400001928E-02 0. -1.
    10030    2    1    2    0    0  0.00000000000E+00  0.00000000000E+00 -0.16616494305E+04  0.19845910247E+04  0.10851371827E+04 0.  0.
        1    1    3    3  502    0  0.38643963360E+02  0.29149312612E+03 -0.16647623010E+04  0.16905310164E+04  0.50400001928E-02 0. -1.
       -1    1    3    3    0  502 -0.38643963360E+02 -0.29149312612E+03  0.31128705287E+01  0.29406000828E+03  0.50400001928E-02 0.  1.
</event>
<event>
 5   0  0.3642161E-04  0.1100457E+04  0.7818609E-02  0.9204746E-01
        1   -1    0    0  501    0  0.00000000000E+00  0.00000000000E+00  0.36617273390E+03  0.36617273393E+03  0.50400001928E-02 0.  1.
       -1   -1    0    0    0  501  0.00000000000E+00  0.00000000000E+00 -0.82679987172E+03  0.82679987173E+03  0.50400001928E-02 0. -1.
    10030    2    1    2    0    0  0.00000000000E+00  0.00000000000E+00 -0.46062713782E+03  0.11929726057E+04  0.11004573039E+04 0.  0.
        2    1    3    3  502    0  0.11185599927E+03  0.53008741708E+03 -0.12606721466E+03  0.55623500154E+03  0.25500000920E-02 0. -1.
       -2    1    3    3    0  502 -0.11185599927E+03 -0.53008741708E+03 -0.33455992316E+03  0.63673760413E+03  0.25500000920E-02 0.  1.
</event>
<event>
 5   0  0.3642161E-04  0.1096571E+04  0.7818609E-02  0.9208540E-01
       -1   -1    0    0    0  501  0.00000000000E+00  0.00000000000E+00  0.57534314463E+03  0.57534314466E+03  0.50400001928E-02 0. -1.
        1   -1    0    0  501    0  0.00000000000E+00  0.00000000000E+00 -0.52250059437E+03  0.52250059439E+03  0.50400001928E-02 0.  1.
    10030    2    1    2    0    0  0.00000000000E+00  0.00000000000E+00  0.52842550266E+02  0.10978437390E+04  0.10965712655E+04 0.  0.
        2    1    3    3  502    0  0.10435683713E+03  0.46115067887E+03 -0.25151000988E+03  0.53554419347E+03  0.25500000920E-02 0.  1.
       -2    1    3    3    0  502 -0.10435683713E+03 -0.46115067887E+03  0.30435256015E+03  0.56229954558E+03  0.25500000920E-02 0. -1.
</event>
<event>
 5   0  0.5948818E-04  0.1099468E+04  0.7818609E-02  0.9205710E-01
        2   -1    0    0  501    0  0.00000000000E+00  0.00000000000E+00  0.83360670918E+03  0.83360670918E+03  0.25500000920E-02 0.  1.
       -2   -1    0    0    0  501  0.00000000000E+00  0.00000000000E+00 -0.36253027279E+03  0.36253027280E+03  0.25500000920E-02 0. -1.
    10030    2    1    2    0    0  0.00000000000E+00  0.00000000000E+00  0.47107643638E+03  0.11961369820E+04  0.10994683582E+04 0.  0.
        3    1    3    3  502    0  0.18605303657E+03 -0.23188314971E+03 -0.26752725152E+03  0.39994545633E+03  0.10100000352E+00 0. -1.
       -3    1    3    3    0  502 -0.18605303657E+03  0.23188314971E+03  0.73860368790E+03  0.79619152565E+03  0.10100000352E+00 0.  1.
</event>
<event>
 5   0  0.6412712E-04  0.1081325E+04  0.7818609E-02  0.9223588E-01
       -2   -1    0    0    0  501  0.00000000000E+00  0.00000000000E+00  0.73226400827E+03  0.73226400828E+03  0.25500000920E-02 0.  1.
        2   -1    0    0  501    0  0.00000000000E+00  0.00000000000E+00 -0.39919462967E+03  0.39919462968E+03  0.25500000920E-02 0. -1.
    10030    2    1    2    0    0  0.00000000000E+00  0.00000000000E+00  0.33306937860E+03  0.11314586380E+04  0.10813248533E+04 0.  0.
        2    1    3    3  502    0 -0.31538792117E+03 -0.12837265163E+03 -0.27289651340E+03  0.43637321818E+03  0.25500000920E-02 0. -1.
       -2    1    3    3    0  502  0.31538792117E+03  0.12837265163E+03  0.60596589200E+03  0.69508541978E+03  0.25500000920E-02 0.  1.
</event>
<event>
 5   0  0.6412712E-04  0.1092745E+04  0.7818609E-02  0.9212292E-01
        2   -1    0    0  501    0  0.00000000000E+00  0.00000000000E+00  0.13889480210E+04  0.13889480210E+04  0.25500000920E-02 0.  1.
       -2   -1    0    0    0  501  0.00000000000E+00  0.00000000000E+00 -0.21492729883E+03  0.21492729885E+03  0.25500000920E-02 0. -1.
    10030    2    1    2    0    0  0.00000000000E+00  0.00000000000E+00  0.11740207222E+04  0.16038753199E+04  0.10927448859E+04 0.  0.
        2    1    3    3  502    0 -0.52542810791E+03 -0.12344408392E+03  0.46238378657E+03  0.71071225157E+03  0.25500000920E-02 0. -1.
       -2    1    3    3    0  502  0.52542810791E+03  0.12344408392E+03  0.71163693564E+03  0.89316306832E+03  0.25500000920E-02 0.  1.
</event>
<event>
 5   0  0.3657529E-04  0.1072286E+04  0.7818609E-02  0.9232633E-01
        1   -1    0    0  501    0  0.00000000000E+00  0.00000000000E+00  0.12843151818E+04  0.12843151818E+04  0.50400001928E-02 0. -1.
       -1   -1    0    0    0  501  0.00000000000E+00  0.00000000000E+00 -0.22381529087E+03  0.22381529092E+03  0.50400001928E-02 0.  1.
    10030    2    1    2    0    0  0.00000000000E+00  0.00000000000E+00  0.10604998909E+04  0.15081304727E+04  0.10722861111E+04 0.  0.
        4    1    3    3  502    0 -0.29025029367E+03  0.24058369654E+03 -0.59094738569E+01  0.37704413906E+03  0.12699999809E+01 0.  1.
       -4    1    3    3    0  502  0.29025029367E+03 -0.24058369654E+03  0.10664093648E+04  0.11310863337E+04  0.12699999809E+01 0. -1.
</event>
<event>
 5   0  0.3523525E-04  0.1103764E+04  0.7818609E-02  0.9201531E-01
       -1   -1    0    0    0  501  0.00000000000E+00  0.00000000000E+00  0.27392096845E+03  0.27392096850E+03  0.50400001928E-02 0.  1.
        1   -1    0    0  501    0  0.00000000000E+00  0.00000000000E+00 -0.11119029510E+04  0.11119029510E+04  0.50400001928E-02 0. -1.
    10030    2    1    2    0    0  0.00000000000E+00  0.00000000000E+00 -0.83798198256E+03  0.13858239195E+04  0.11037636218E+04 0.  0.
        5    1    3    3  502    0 -0.10677028457E+03  0.87921520343E+01 -0.10986965256E+04  0.11039172709E+04  0.46999998093E+01 0. -1.
       -5    1    3    3    0  502  0.10677028457E+03 -0.87921520343E+01  0.26071454303E+03  0.28190664864E+03  0.46999998093E+01 0.  1.
</event>
<event>
 5   0  0.6109149E-04  0.1099037E+04  0.7818609E-02  0.9206131E-01
       -2   -1    0    0    0  501  0.00000000000E+00  0.00000000000E+00  0.25341706464E+03  0.25341706465E+03  0.25500000920E-02 0. -1.
        2   -1    0    0  501    0  0.00000000000E+00  0.00000000000E+00 -0.11915950915E+04  0.11915950915E+04  0.25500000920E-02 0.  1.
    10030    2    1    2    0    0  0.00000000000E+00  0.00000000000E+00 -0.93817802684E+03  0.14450121561E+04  0.10990369063E+04 0.  0.
        1    1    3    3  502    0  0.97086379381E+01 -0.33397762109E+03 -0.10427017749E+04  0.10949257054E+04  0.50400001928E-02 0.  1.
       -1    1    3    3    0  502 -0.97086379381E+01  0.33397762109E+03  0.10452374803E+03  0.35008645071E+03  0.50400001928E-02 0. -1.
</event>
<event>
 5   0  0.5948818E-04  0.1099370E+04  0.7818609E-02  0.9205806E-01
       -2   -1    0    0    0  501  0.00000000000E+00  0.00000000000E+00  0.22026860376E+03  0.22026860378E+03  0.25500000920E-02 0. -1.
        2   -1    0    0  501    0  0.00000000000E+00  0.00000000000E+00 -0.13717509836E+04  0.13717509836E+04  0.25500000920E-02 0.  1.
    10030    2    1    2    0    0  0.00000000000E+00  0.00000000000E+00 -0.11514823799E+04  0.15920195874E+04  0.10993701358E+04 0.  0.
        3    1    3    3  502    0 -0.50707970197E+03 -0.19257027147E+03 -0.44669974448E+03  0.70267617401E+03  0.10100000352E+00 0.  1.
       -3    1    3    3    0  502  0.50707970197E+03  0.19257027147E+03 -0.70478263540E+03  0.88934341340E+03  0.10100000352E+00 0. -1.
</event>
<event>
 5   0  0.2403875E-04  0.1100746E+04  0.7818609E-02  0.9204465E-01
       -4   -1    0    0    0  501  0.00000000000E+00  0.00000000000E+00  0.89811230563E+03  0.89811320357E+03  0.12699999809E+01 0.  1.
        4   -1    0    0  501    0  0.00000000000E+00  0.00000000000E+00 -0.33727249586E+03  0.33727488694E+03  0.12699999809E+01 0. -1.
    10030    2    1    2    0    0  0.00000000000E+00  0.00000000000E+00  0.56083980977E+03  0.12353880905E+04  0.11007463113E+04 0.  0.
        3    1    3    3  502    0  0.64165970344E+02 -0.28737609693E+03 -0.24143811252E+03  0.38078165031E+03  0.10100000352E+00 0. -1.
       -3    1    3    3    0  502 -0.64165970344E+02  0.28737609693E+03  0.80227792229E+03  0.85460644020E+03  0.10100000352E+00 0.  1.
</event>
<event>
 5   0  0.5948818E-04  0.1100028E+04  0.7818609E-02  0.9205165E-01
       -2   -1    0    0    0  501  0.00000000000E+00  0.00000000000E+00  0.54267320524E+03  0.54267320524E+03  0.25500000920E-02 0.  1.
        2   -1    0    0  501    0  0.00000000000E+00  0.00000000000E+00 -0.55745416856E+03  0.55745416857E+03  0.25500000920E-02 0. -1.
    10030    2    1    2    0    0  0.00000000000E+00  0.00000000000E+00 -0.14780963324E+02  0.11001273738E+04  0.11000280732E+04 0.  0.
        3    1    3    3  502    0 -0.16606188482E+03 -0.42459306135E+01  0.51698580473E+03  0.54301833303E+03  0.10100000352E+00 0.  1.
       -3    1    3    3    0  502  0.16606188482E+03  0.42459306135E+01 -0.53176676805E+03  0.55710904078E+03  0.10100000352E+00 0. -1.
</event>
<event>
 5   0  0.6412712E-04  0.1100547E+04  0.7818609E-02  0.9204659E-01
        2   -1    0    0  501    0  0.00000000000E+00  0.00000000000E+00  0.69711994972E+03  0.69711994972E+03  0.25500000920E-02 0. -1.
       -2   -1    0    0    0  501  0.00000000000E+00  0.00000000000E+00 -0.43435971189E+03  0.43435971190E+03  0.25500000920E-02 0.  1.
    10030    2    1    2    0    0  0.00000000000E+00  0.00000000000E+00  0.26276023782E+03  0.11314796616E+04  0.11005468105E+04 0.  0.
        2    1    3    3  502    0 -0.53993339461E+03  0.92987516877E+02  0.18406566839E+03  0.57797484305E+03  0.25500000920E-02 0. -1.
       -2    1    3    3    0  502  0.53993339461E+03 -0.92987516877E+02  0.78694569440E+02  0.55350481857E+03  0.25500000920E-02 0.  1.
</event>
<event>
 5   0  0.5948818E-04  0.1100239E+04  0.7818609E-02  0.9204958E-01
        2   -1    0    0  501    0  0.00000000000E+00  0.00000000000E+00  0.11744270288E+04  0.11744270288E+04  0.25500000920E-02 0. -1.
       -2   -1    0    0    0  501  0.00000000000E+00  0.00000000000E+00 -0.25768457049E+03  0.25768457050E+03  0.25500000920E-02 0.  1.
    10030    2    1    2    0    0  0.00000000000E+00  0.00000000000E+00  0.91674245833E+03  0.14321115993E+04  0.11002394730E+04 0.  0.
        3    1    3    3  502    0 -0.12636183707E+03 -0.26056395993E+02 -0.23771272159E+03  0.27046921792E+03  0.10100000352E+00 0.  1.
       -3    1    3    3    0  502  0.12636183707E+03  0.26056395993E+02  0.11544551799E+04  0.11616423814E+04  0.10100000352E+00 0. -1.
</event>
<event>
 5   0  0.3621403E-04  0.1100519E+04  0.7818609E-02  0.9204686E-01
       -1   -1    0    0    0  501  0.00000000000E+00  0.00000000000E+00  0.18643557066E+03  0.18643557073E+03  0.50400001928E-02 0. -1.
        1   -1    0    0  501    0  0.00000000000E+00  0.00000000000E+00 -0.16240756215E+04  0.16240756215E+04  0.50400001928E-02 0.  1.
    10030    2    1    2    0    0  0.00000000000E+00  0.00000000000E+00 -0.14376400508E+04  0.18105111922E+04  0.11005189055E+04 0.  0.
        3    1    3    3  502    0 -0.31870397286E+03  0.21224402472E+03 -0.68695511784E+02  0.38902291949E+03  0.10100000352E+00 0. -1.
       -3    1    3    3    0  502  0.31870397286E+03 -0.21224402472E+03 -0.13689445391E+04  0.14214882727E+04  0.10100000352E+00 0.  1.
</event>
<event>
 5   0  0.3523525E-04  0.1099151E+04  0.7818609E-02  0.9206019E-01
       -1   -1    0    0    0  501  0.00000000000E+00  0.00000000000E+00  0.14296292501E+04  0.14296292501E+04  0.50400001928E-02 0.  1.
        1   -1    0    0  501    0  0.00000000000E+00  0.00000000000E+00 -0.21126694105E+03  0.21126694111E+03  0.50400001928E-02 0. -1.
    10030    2    1    2    0    0  0.00000000000E+00  0.00000000000E+00  0.12183623090E+04  0.16408961912E+04  0.10991513063E+04 0.  0.
        5    1    3    3  502    0  0.34839374479E+02 -0.54640884499E+03  0.67975645544E+03  0.87285012265E+03  0.46999998093E+01 0. -1.
       -5    1    3    3    0  502 -0.34839374479E+02  0.54640884499E+03  0.53860585357E+03  0.76804606854E+03  0.46999998093E+01 0.  1.
</event>
<event>
 5   0  0.6109149E-04  0.1098112E+04  0.7818609E-02  0.9207034E-01
        2   -1    0    0  501    0  0.00000000000E+00  0.00000000000E+00  0.81359376832E+03  0.81359376832E+03  0.25500000920E-02 0.  1.
       -2   -1    0    0    0  501  0.00000000000E+00  0.00000000000E+00 -0.37053211399E+03  0.37053211400E+03  0.25500000920E-02 0. -1.
    10030    2    1    2    0    0  0.00000000000E+00  0.00000000000E+00  0.44306165433E+03  0.11841258823E+04  0.10981122327E+04 0.  0.
        1    1    3    3  502    0  0.29830716606E+03  0.45391016799E+01  0.71856296331E+03  0.77803631087E+03  0.50400001928E-02 0.  1.
       -1    1    3    3    0  502 -0.29830716606E+03 -0.45391016799E+01 -0.27550130898E+03  0.40608957145E+03  0.50400001928E-02 0. -1.
</event>
<event>
 5   0  0.3642161E-04  0.1097362E+04  0.7818609E-02  0.9207767E-01
       -1   -1    0    0    0  501  0.00000000000E+00  0.00000000000E+00  0.56789557845E+03  0.56789557847E+03  0.50400001928E-02 0.  1.
        1   -1    0    0  501    0  0.00000000000E+00  0.00000000000E+00 -0.53011658294E+03  0.53011658297E+03  0.50400001928E-02 0. -1.
    10030    2    1    2    0    0  0.00000000000E+00  0.00000000000E+00  0.37778995509E+02  0.10980121614E+04  0.10973620433E+04 0.  0.
        2    1    3    3  502    0  0.12452057050E+03 -0.49965350781E+03 -0.17067422012E+03  0.54248381521E+03  0.25500000920E-02 0.  1.
       -2    1    3    3    0  502 -0.12452057050E+03  0.49965350781E+03  0.20845321563E+03  0.55552834623E+03  0.25500000920E-02 0. -1.
</event>
<event>
 5   0  0.6412712E-04  0.1099819E+04  0.7818609E-02  0.9205368E-01
        2   -1    0    0  501    0  0.00000000000E+00  0.00000000000E+00  0.10388512742E+04  0.10388512742E+04  0.25500000920E-02 0. -1.
       -2   -1    0    0    0  501  0.00000000000E+00  0.00000000000E+00 -0.29109112943E+03  0.29109112944E+03  0.25500000920E-02 0.  1.
    10030    2    1    2    0    0  0.00000000000E+00  0.00000000000E+00  0.74776014473E+03  0.13299424036E+04  0.10998188773E+04 0.  0.
        2    1    3    3  502    0  0.26543796695E+02  0.23603393461E+03  0.97362269718E+03  0.10021765054E+04  0.25500000920E-02 0. -1.
       -2    1    3    3    0  502 -0.26543796695E+02 -0.23603393461E+03 -0.22586255246E+03  0.32776589823E+03  0.25500000920E-02 0.  1.
</event>
<event>
 5   0  0.3423758E-04  0.1099846E+04  0.7818609E-02  0.9205342E-01
        1   -1    0    0  501    0  0.00000000000E+00  0.00000000000E+00  0.50318646614E+03  0.50318646617E+03  0.50400001928E-02 0.  1.
       -1   -1    0    0    0  501  0.00000000000E+00  0.00000000000E+00 -0.60100099009E+03  0.60100099011E+03  0.50400001928E-02 0. -1.
    10030    2    1    2    0    0  0.00000000000E+00  0.00000000000E+00 -0.97814523944E+02  0.11041874563E+04  0.10998464700E+04 0.  0.
        1    1    3    3  502    0 -0.21399787233E+03 -0.50649132473E+03 -0.58272152685E+02  0.55292331765E+03  0.50400001928E-02 0. -1.
       -1    1    3    3    0  502  0.21399787233E+03  0.50649132473E+03 -0.39542371259E+02  0.55126413863E+03  0.50400001928E-02 0.  1.
</event>
<event>
 5   0  0.6264830E-04  0.1093981E+04  0.7818609E-02  0.9211078E-01
       -2   -1    0    0    0  501  0.00000000000E+00  0.00000000000E+00  0.80447029733E+03  0.80447029734E+03  0.25500000920E-02 0. -1.
        2   -1    0    0  501    0  0.00000000000E+00  0.00000000000E+00 -0.37192001455E+03  0.37192001456E+03  0.25500000920E-02 0.  1.
    10030    2    1    2    0    0  0.00000000000E+00  0.00000000000E+00  0.43255028278E+03  0.11763903119E+04  0.10939809956E+04 0.  0.
        4    1    3    3  502    0  0.40984391312E+03  0.14555157130E+03 -0.14043574037E+03  0.45703512240E+03  0.12699999809E+01 0.  1.
       -4    1    3    3    0  502 -0.40984391312E+03 -0.14555157130E+03  0.57298602315E+03  0.71935518950E+03  0.12699999809E+01 0. -1.
</event>
<event>
 5   0  0.3657529E-04  0.1101306E+04  0.7818609E-02  0.9203920E-01
       -1   -1    0    0    0  501  0.00000000000E+00  0.00000000000E+00  0.31980415657E+03  0.31980415661E+03  0.50400001928E-02 0. -1.
        1   -1    0    0  501    0  0.00000000000E+00  0.00000000000E+00 -0.94813801431E+03  0.94813801433E+03  0.50400001928E-02 0.  1.
    10030    2    1    2    0    0  0.00000000000E+00  0.00000000000E+00 -0.62833385775E+03  0.12679421709E+04  0.11013055489E+04 0.  0.
        4    1    3    3  502    0 -0.41391325638E+03  0.28207330933E+03 -0.50803235215E+02  0.50346014465E+03  0.12699999809E+01 0. -1.
       -4    1    3    3    0  502  0.41391325638E+03 -0.28207330933E+03 -0.57753062253E+03  0.76448202628E+03  0.12699999809E+01 0.  1.
</event>
<event>
 5   0  0.6245176E-04  0.1101702E+04  0.7818609E-02  0.9203535E-01
        2   -1    0    0  501    0  0.00000000000E+00  0.00000000000E+00  0.36956110003E+03  0.36956110004E+03  0.25500000920E-02 0. -1.
       -2   -1    0    0    0  501  0.00000000000E+00  0.00000000000E+00 -0.82107325411E+03  0.82107325412E+03  0.25500000920E-02 0.  1.
    10030    2    1    2    0    0  0.00000000000E+00  0.00000000000E+00 -0.45151215408E+03  0.11906343542E+04  0.11017018381E+04 0.  0.
        5    1    3    3  502    0  0.41302008143E+03 -0.60086956773E+02 -0.61424342208E+03  0.74263928094E+03  0.46999998093E+01 0.  1.
       -5    1    3    3    0  502 -0.41302008143E+03  0.60086956773E+02  0.16273126799E+03  0.44799507321E+03  0.46999998093E+01 0. -1.
</event>
<event>
 5   0  0.3642161E-04  0.1099642E+04  0.7818609E-02  0.9205541E-01
        1   -1    0    0  501    0  0.00000000000E+00  0.00000000000E+00  0.21579353096E+04  0.21579353096E+04  0.50400001928E-02 0. -1.
       -1   -1    0    0    0  501  0.00000000000E+00  0.00000000000E+00 -0.14008902134E+03  0.14008902143E+03  0.50400001928E-02 0.  1.
    10030    2    1    2    0    0  0.00000000000E+00  0.00000000000E+00  0.20178462882E+04  0.22980243310E+04  0.10996418430E+04 0.  0.
        2    1    3    3  502    0  0.23541818416E+03 -0.64437066972E+02  0.20385132672E+04  0.20530733542E+04  0.25500000920E-02 0. -1.
       -2    1    3    3    0  502 -0.23541818416E+03  0.64437066972E+02 -0.20666978960E+02  0.24495097685E+03  0.25500000920E-02 0.  1.
</event>
<event>
 5   0  0.3621403E-04  0.1099713E+04  0.7818609E-02  0.9205472E-01
       -1   -1    0    0    0  501  0.00000000000E+00  0.00000000000E+00  0.21204172077E+03  0.21204172083E+03  0.50400001928E-02 0.  1.
        1   -1    0    0  501    0  0.00000000000E+00  0.00000000000E+00 -0.14258607418E+04  0.14258607418E+04  0.50400001928E-02 0. -1.
    10030    2    1    2    0    0  0.00000000000E+00  0.00000000000E+00 -0.12138190210E+04  0.16379024626E+04  0.10997126267E+04 0.  0.
        3    1    3    3  502    0 -0.11705139829E+02  0.20158987943E+03  0.15481837760E+03  0.25444887508E+03  0.10100000352E+00 0.  1.
       -3    1    3    3    0  502  0.11705139829E+02 -0.20158987943E+03 -0.13686373986E+04  0.13834535875E+04  0.10100000352E+00 0. -1.
</event>
<event>
 5   0  0.6109149E-04  0.1107293E+04  0.7818609E-02  0.9198113E-01
        2   -1    0    0  501    0  0.00000000000E+00  0.00000000000E+00  0.18464890993E+04  0.18464890993E+04  0.25500000920E-02 0.  1.
       -2   -1    0    0    0  501  0.00000000000E+00  0.00000000000E+00 -0.16600378612E+03  0.16600378614E+03  0.25500000920E-02 0. -1.
    10030    2    1    2    0    0  0.00000000000E+00  0.00000000000E+00  0.16804853132E+04  0.20124928855E+04  0.11072925206E+04 0.  0.
        1    1    3    3  502    0  0.41037940325E+03  0.13443069873E+03  0.14699479701E+04  0.15320671990E+04  0.50400001928E-02 0.  1.
       -1    1    3    3    0  502 -0.41037940325E+03 -0.13443069873E+03  0.21053734309E+03  0.48042568648E+03  0.50400001928E-02 0. -1.
</event>
<event>
 5   0  0.3621403E-04  0.1101939E+04  0.7818609E-02  0.9203304E-01
       -1   -1    0    0    0  501  0.00000000000E+00  0.00000000000E+00  0.95292456949E+03  0.95292456950E+03  0.50400001928E-02 0. -1.
        1   -1    0    0  501    0  0.00000000000E+00  0.00000000000E+00 -0.31856420403E+03  0.31856420407E+03  0.50400001928E-02 0.  1.
    10030    2    1    2    0    0  0.00000000000E+00  0.00000000000E+00  0.63436036546E+03  0.12714887736E+04  0.11019394848E+04 0.  0.
        3    1    3    3  502    0  0.11800978643E+03  0.43656819086E+03 -0.45965631302E+02  0.45456676564E+03  0.10100000352E+00 0.  1.
       -3    1    3    3    0  502 -0.11800978643E+03 -0.43656819086E+03  0.68032599676E+03  0.81692200793E+03  0.10100000352E+00 0. -1.
</event>
<event>
 5   0  0.6109149E-04  0.1098012E+04  0.7818609E-02  0.9207132E-01
        2   -1    0    0  501    0  0.00000000000E+00  0.00000000000E+00  0.22786471472E+04  0.22786471472E+04  0.25500000920E-02 0. -1.
       -2   -1    0    0    0  501  0.00000000000E+00  0.00000000000E+00 -0.13227473696E+03  0.13227473698E+03  0.25500000920E-02 0.  1.
    10030    2    1    2    0    0  0.00000000000E+00  0.00000000000E+00  0.21463724102E+04  0.24109218842E+04  0.10980117523E+04 0.  0.
        1    1    3    3  502    0 -0.10193920634E+03  0.37923479692E+03  0.19155997925E+04  0.19554368305E+04  0.50400001928E-02 0. -1.
       -1    1    3    3    0  502  0.10193920634E+03 -0.37923479692E+03  0.23077261767E+03  0.45548505363E+03  0.50400001928E-02 0.  1.
</event>
<event>
 5   0  0.3621403E-04  0.1099266E+04  0.7818609E-02  0.9205908E-01
        1   -1    0    0  501    0  0.00000000000E+00  0.00000000000E+00  0.11333769438E+04  0.11333769438E+04  0.50400001928E-02 0.  1.
       -1   -1    0    0    0  501  0.00000000000E+00  0.00000000000E+00 -0.26654528002E+03  0.26654528006E+03  0.50400001928E-02 0. -1.
    10030    2    1    2    0    0  0.00000000000E+00  0.00000000000E+00  0.86683166381E+03  0.13999222239E+04  0.10992657093E+04 0.  0.
        3    1    3    3  502    0 -0.45529577282E+02 -0.40670641761E+02 -0.26221406304E+03  0.26922716907E+03  0.10100000352E+00 0. -1.
       -3    1    3    3    0  502  0.45529577282E+02  0.40670641761E+02  0.11290457269E+04  0.11306950548E+04  0.10100000352E+00 0.  1.
</event>
<event>
 5   0  0.3523525E-04  0.1101959E+04  0.7818609E-02  0.9203285E-01
       -1   -1    0    0    0  501  0.00000000000E+00  0.00000000000E+00  0.52500539291E+03  0.52500539293E+03  0.50400001928E-02 0. -1.
        1   -1    0    0  501    0  0.00000000000E+00  0.00000000000E+00 -0.57823838236E+03  0.57823838239E+03  0.50400001928E-02 0.  1.
    10030    2    1    2    0    0  0.00000000000E+00  0.00000000000E+00 -0.53232989455E+02  0.11032437753E+04  0.11019587454E+04 0.  0.
        5    1    3    3  502    0  0.46643069855E+03 -0.91478138096E+01  0.26683774916E+03  0.53746232744E+03  0.46999998093E+01 0.  1.
       -5    1    3    3    0  502 -0.46643069855E+03  0.91478138096E+01 -0.32007073861E+03  0.56578144788E+03  0.46999998093E+01 0. -1.
</event>
<event>
 5   0  0.6264830E-04  0.1101251E+04  0.7818609E-02  0.9203973E-01
        2   -1    0    0  501    0  0.00000000000E+00  0.00000000000E+00  0.18981671057E+04  0.18981671057E+04  0.25500000920E-02 0. -1.
       -2   -1    0    0    0  501  0.00000000000E+00  0.00000000000E+00 -0.15972698451E+03  0.15972698453E+03  0.25500000920E-02 0.  1.
    10030    2    1    2    0    0  0.00000000000E+00  0.00000000000E+00  0.17384401212E+04  0.20578940903E+04  0.11012511211E+04 0.  0.
        4    1    3    3  502    0 -0.51147642595E+03 -0.20205203701E+03  0.81791667651E+03  0.98560766159E+03  0.12699999809E+01 0.  1.
       -4    1    3    3    0  502  0.51147642595E+03  0.20205203701E+03  0.92052344470E+03  0.10722864287E+04  0.12699999809E+01 0. -1.
</event>
<event>
 5   0  0.6412712E-04  0.1091439E+04  0.7818609E-02  0.9213576E-01
       -2   -1    0    0    0  501  0.00000000000E+00  0.00000000000E+00  0.14010071111E+03  0.14010071113E+03  0.25500000920E-02 0. -1.
        2   -1    0    0  501    0  0.00000000000E+00  0.00000000000E+00 -0.21256852741E+04  0.21256852741E+04  0.25500000920E-02 0.  1.
    10030    2    1    2    0    0  0.00000000000E+00  0.00000000000E+00 -0.19855845630E+04  0.22657859852E+04  0.10914394505E+04 0.  0.
        2    1    3    3  502    0 -0.27898883377E+03  0.23073998383E+03 -0.18404718699E+04  0.18757431630E+04  0.25500000920E-02 0.  1.
       -2    1    3    3    0  502  0.27898883377E+03 -0.23073998383E+03 -0.14511269312E+03  0.39004282229E+03  0.25500000920E-02 0. -1.
</event>
<event>
 5   0  0.3657529E-04  0.1101016E+04  0.7818609E-02  0.9204203E-01
       -1   -1    0    0    0  501  0.00000000000E+00  0.00000000000E+00  0.42665154107E+03  0.42665154110E+03  0.50400001928E-02 0. -1.
        1   -1    0    0  501    0  0.00000000000E+00  0.00000000000E+00 -0.71031920396E+03  0.71031920397E+03  0.50400001928E-02 0.  1.
    10030    2    1    2    0    0  0.00000000000E+00  0.00000000000E+00 -0.28366766289E+03  0.11369707451E+04  0.11010155004E+04 0.  0.
        4    1    3    3  502    0 -0.11789948930E+03  0.13842970626E+03 -0.67841199106E+03  0.70235853784E+03  0.12699999809E+01 0.  1.
       -4    1    3    3    0  502  0.11789948930E+03 -0.13842970626E+03  0.39474432818E+03  0.43461220724E+03  0.12699999809E+01 0. -1.
</event>
<event>
 5   0  0.2403875E-04  0.1099208E+04  0.7818609E-02  0.9205964E-01
       -3   -1    0    0    0  501  0.00000000000E+00  0.00000000000E+00  0.24945202656E+03  0.24945204700E+03  0.10100000352E+00 0.  1.
        3   -1    0    0  501    0  0.00000000000E+00  0.00000000000E+00 -0.12109118499E+04  0.12109118542E+04  0.10100000352E+00 0. -1.
    10030    2    1    2    0    0  0.00000000000E+00  0.00000000000E+00 -0.96145982338E+03  0.14603639012E+04  0.10992077746E+04 0.  0.
        1    1    3    3  502    0 -0.15326501603E+03  0.43215017473E+03 -0.88330890610E+03  0.99522789464E+03  0.50400001928E-02 0. -1.
       -1    1    3    3    0  502  0.15326501603E+03 -0.43215017473E+03 -0.78150917282E+02  0.46513600651E+03  0.50400001928E-02 0.  1.
</event>
<event>
 5   0  0.6245176E-04  0.1098994E+04  0.7818609E-02  0.9206173E-01
        2   -1    0    0  501    0  0.00000000000E+00  0.00000000000E+00  0.12174070257E+04  0.12174070257E+04  0.25500000920E-02 0. -1.
       -2   -1    0    0    0  501  0.00000000000E+00  0.00000000000E+00 -0.24802461222E+03  0.24802461223E+03  0.25500000920E-02 0.  1.
    10030    2    1    2    0    0  0.00000000000E+00  0.00000000000E+00  0.96938241352E+03  0.14654316380E+04  0.10989939135E+04 0.  0.
        5    1    3    3  502    0 -0.12272444629E+03  0.11016738411E+03  0.11836002983E+04  0.11950438897E+04  0.46999998093E+01 0. -1.
       -5    1    3    3    0  502  0.12272444629E+03 -0.11016738411E+03 -0.21421788479E+03  0.27038774824E+03  0.46999998093E+01 0.  1.
</event>
<event>
 5   0  0.3423758E-04  0.1093624E+04  0.7818609E-02  0.9211428E-01
       -1   -1    0    0    0  501  0.00000000000E+00  0.00000000000E+00  0.20320352127E+03  0.20320352133E+03  0.50400001928E-02 0. -1.
        1   -1    0    0  501    0  0.00000000000E+00  0.00000000000E+00 -0.14714484192E+04  0.14714484192E+04  0.50400001928E-02 0.  1.
    10030    2    1    2    0    0  0.00000000000E+00  0.00000000000E+00 -0.12682448979E+04  0.16746519405E+04  0.10936242503E+04 0.  0.
        1    1    3    3  502    0 -0.37529311694E+03  0.37846204374E+03 -0.82119688257E+03  0.97900089997E+03  0.50400001928E-02 0.  1.
       -1    1    3    3    0  502  0.37529311694E+03 -0.37846204374E+03 -0.44704801535E+03  0.69565104055E+03  0.50400001928E-02 0. -1.
</event>
<event>
 5   0  0.6264830E-04  0.1100783E+04  0.7818609E-02  0.9204429E-01
        2   -1    0    0  501    0  0.00000000000E+00  0.00000000000E+00  0.10479902458E+04  0.10479902458E+04  0.25500000920E-02 0.  1.
       -2   -1    0    0    0  501  0.00000000000E+00  0.00000000000E+00 -0.28905877268E+03  0.28905877269E+03  0.25500000920E-02 0. -1.
    10030    2    1    2    0    0  0.00000000000E+00  0.00000000000E+00  0.75893147314E+03  0.13370490185E+04  0.11007829473E+04 0.  0.
        4    1    3    3  502    0 -0.12036509352E+03 -0.51663575360E+03  0.55768580010E+03  0.76968520979E+03  0.12699999809E+01 0.  1.
       -4    1    3    3    0  502  0.12036509352E+03  0.51663575360E+03  0.20124567304E+03  0.56736380872E+03  0.12699999809E+01 0. -1.
</event>
<event>
 5   0  0.3642161E-04  0.1099431E+04  0.7818609E-02  0.9205747E-01
        1   -1    0    0  501    0  0.00000000000E+00  0.00000000000E+00  0.10679900461E+04  0.10679900461E+04  0.50400001928E-02 0.  1.
       -1   -1    0    0    0  501  0.00000000000E+00  0.00000000000E+00 -0.28294937638E+03  0.28294937643E+03  0.50400001928E-02 0. -1.
    10030    2    1    2    0    0  0.00000000000E+00  0.00000000000E+00  0.78504066975E+03  0.13509394226E+04  0.10994309757E+04 0.  0.
        2    1    3    3  502    0  0.36823056493E+03 -0.23139979328E+03 -0.20620759932E+02  0.43539043286E+03  0.25500000920E-02 0. -1.
       -2    1    3    3    0  502 -0.36823056493E+03  0.23139979328E+03  0.80566142968E+03  0.91554898971E+03  0.25500000920E-02 0.  1.
</event>
<event>
 5   0  0.3642161E-04  0.1099413E+04  0.7818609E-02  0.9205764E-01
       -1   -1    0    0    0  501  0.00000000000E+00  0.00000000000E+00  0.64156505913E+03  0.64156505915E+03  0.50400001928E-02 0. -1.
        1   -1    0    0  501    0  0.00000000000E+00  0.00000000000E+00 -0.47099993140E+03  0.47099993143E+03  0.50400001928E-02 0.  1.
    10030    2    1    2    0    0  0.00000000000E+00  0.00000000000E+00  0.17056512773E+03  0.11125649906E+04  0.10994127503E+04 0.  0.
        2    1    3    3  502    0  0.49954768936E+03  0.12366895833E+03 -0.11025212950E+03  0.52630546003E+03  0.25500000920E-02 0.  1.
       -2    1    3    3    0  502 -0.49954768936E+03 -0.12366895833E+03  0.28081725723E+03  0.58625953055E+03  0.25500000920E-02 0. -1.
</event>
<event>
 5   0  0.6412712E-04  0.1099093E+04  0.7818609E-02  0.9206077E-01
       -2   -1    0    0    0  501  0.00000000000E+00  0.00000000000E+00  0.50825797094E+03  0.50825797095E+03  0.25500000920E-02 0.  1.
        2   -1    0    0  501    0  0.00000000000E+00  0.00000000000E+00 -0.59418864913E+03  0.59418864913E+03  0.25500000920E-02 0. -1.
    10030    2    1    2    0    0  0.00000000000E+00  0.00000000000E+00 -0.85930678184E+02  0.11024466201E+04  0.10990925660E+04 0.  0.
        2    1    3    3  502    0 -0.49687372425E+03  0.22879536779E+03  0.98289105489E+01  0.54710823944E+03  0.25500000920E-02 0. -1.
       -2    1    3    3    0  502  0.49687372425E+03 -0.22879536779E+03 -0.95759588732E+02  0.55533838064E+03  0.25500000920E-02 0.  1.
</event>
<event>
 5   0  0.3523525E-04  0.1101251E+04  0.7818609E-02  0.9203973E-01
        1   -1    0    0  501    0  0.00000000000E+00  0.00000000000E+00  0.84293249336E+03  0.84293249337E+03  0.50400001928E-02 0. -1.
       -1   -1    0    0    0  501  0.00000000000E+00  0.00000000000E+00 -0.35968306726E+03  0.35968306730E+03  0.50400001928E-02 0.  1.
    10030    2    1    2    0    0  0.00000000000E+00  0.00000000000E+00  0.48324942609E+03  0.12026155607E+04  0.11012511879E+04 0.  0.
        5    1    3    3  502    0 -0.18630776200E+03 -0.46943571082E+03  0.21554974342E+01  0.50508138447E+03  0.46999998093E+01 0.  1.
       -5    1    3    3    0  502  0.18630776200E+03  0.46943571082E+03  0.48109392866E+03  0.69753417620E+03  0.46999998093E+01 0. -1.
</event>
<event>
 5   0  0.3657529E-04  0.1101339E+04  0.7818609E-02  0.9203888E-01
        1   -1    0    0  501    0  0.00000000000E+00  0.00000000000E+00  0.64598177453E+03  0.64598177455E+03  0.50400001928E-02 0. -1.
       -1   -1    0    0    0  501  0.00000000000E+00  0.00000000000E+00 -0.46942008956E+03  0.46942008959E+03  0.50400001928E-02 0.  1.
    10030    2    1    2    0    0  0.00000000000E+00  0.00000000000E+00  0.17656168497E+03  0.11154018641E+04  0.11013388624E+04 0.  0.
        4    1    3    3  502    0  0.25483272275E+03 -0.10558933710E+03  0.57096530183E+03  0.63410709938E+03  0.12699999809E+01 0. -1.
       -4    1    3    3    0  502 -0.25483272275E+03  0.10558933710E+03 -0.39440361686E+03  0.48129476476E+03  0.12699999809E+01 0.  1.
</event>
<event>
 5   0  0.3523525E-04  0.1101471E+04  0.7818609E-02  0.9203759E-01
       -1   -1    0    0    0  501  0.00000000000E+00  0.00000000000E+00  0.37336834125E+03  0.37336834129E+03  0.50400001928E-02 0.  1.
        1   -1    0    0  501    0  0.00000000000E+00  0.00000000000E+00 -0.81236003775E+03  0.81236003776E+03  0.50400001928E-02 0. -1.
    10030    2    1    2    0    0  0.00000000000E+00  0.00000000000E+00 -0.43899169649E+03  0.11857283791E+04  0.11014708708E+04 0.  0.
        5    1    3    3  502    0 -0.48415076960E+03 -0.32224242368E+01 -0.50201197927E+03  0.69746001251E+03  0.46999998093E+01 0. -1.
       -5    1    3    3    0  502  0.48415076960E+03  0.32224242368E+01  0.63020282781E+02  0.48826836654E+03  0.46999998093E+01 0.  1.
</event>
<event>
 5   0  0.6412712E-04  0.1100437E+04  0.7818609E-02  0.9204766E-01
        2   -1    0    0  501    0  0.00000000000E+00  0.00000000000E+00  0.10305711647E+04  0.10305711647E+04  0.25500000920E-02 0. -1.
       -2   -1    0    0    0  501  0.00000000000E+00  0.00000000000E+00 -0.29376000271E+03  0.29376000272E+03  0.25500000920E-02 0.  1.
    10030    2    1    2    0    0  0.00000000000E+00  0.00000000000E+00  0.73681116198E+03  0.13243311674E+04  0.11004373461E+04 0.  0.
        2    1    3    3  502    0 -0.49473823895E+03  0.24053847896E+03  0.38136182128E+03  0.66937397893E+03  0.25500000920E-02 0. -1.
       -2    1    3    3    0  502  0.49473823895E+03 -0.24053847896E+03  0.35544934070E+03  0.65495718849E+03  0.25500000920E-02 0.  1.
</event>
<event>
 5   0  0.6412712E-04  0.1083895E+04  0.7818609E-02  0.9221032E-01
        2   -1    0    0  501    0  0.00000000000E+00  0.00000000000E+00  0.11032836602E+04  0.11032836602E+04  0.25500000920E-02 0.  1.
       -2   -1    0    0    0  501  0.00000000000E+00  0.00000000000E+00 -0.26621188969E+03  0.26621188971E+03  0.25500000920E-02 0. -1.
    10030    2    1    2    0    0  0.00000000000E+00  0.00000000000E+00  0.83707177052E+03  0.13694955499E+04  0.10838952497E+04 0.  0.
        2    1    3    3  502    0 -0.51700926838E+03  0.15827969727E+03  0.37200596756E+03  0.65630746306E+03  0.25500000920E-02 0.  1.
       -2    1    3    3    0  502  0.51700926838E+03 -0.15827969727E+03  0.46506580296E+03  0.71318808687E+03  0.25500000920E-02 0. -1.
</event>
<event>
 5   0  0.3423758E-04  0.1099878E+04  0.7818609E-02  0.9205311E-01
        1   -1    0    0  501    0  0.00000000000E+00  0.00000000000E+00  0.36321765825E+03  0.36321765829E+03  0.50400001928E-02 0.  1.
       -1   -1    0    0    0  501  0.00000000000E+00  0.00000000000E+00 -0.83264864985E+03  0.83264864986E+03  0.50400001928E-02 0. -1.
    10030    2    1    2    0    0  0.00000000000E+00  0.00000000000E+00 -0.46943099160E+03  0.11958663081E+04  0.10998776164E+04 0.  0.
        1    1    3    3  502    0 -0.44787194286E+03  0.22164519307E+03 -0.48435475502E+03  0.69592772437E+03  0.50400001928E-02 0. -1.
       -1    1    3    3    0  502  0.44787194286E+03 -0.22164519307E+03  0.14923763420E+02  0.49993858378E+03  0.50400001928E-02 0.  1.
</event>
<event>
 5   0  0.5948818E-04  0.1100073E+04  0.7818609E-02  0.9205121E-01
        2   -1    0    0  501    0  0.00000000000E+00  0.00000000000E+00  0.11940148262E+04  0.11940148262E+04  0.25500000920E-02 0.  1.
       -2   -1    0    0    0  501  0.00000000000E+00  0.00000000000E+00 -0.25338048851E+03  0.25338048853E+03  0.25500000920E-02 0. -1.
    10030    2    1    2    0    0  0.00000000000E+00  0.00000000000E+00  0.94063433764E+03  0.14473953147E+04  0.11000728339E+04 0.  0.
        3    1    3    3  502    0  0.14526819410E+03  0.22057214688E+03 -0.16449221719E+03  0.31114726403E+03  0.10100000352E+00 0. -1.
       -3    1    3    3    0  502 -0.14526819410E+03 -0.22057214688E+03  0.11051265548E+04  0.11362480506E+04  0.10100000352E+00 0.  1.
</event>
<event>
 5   0  0.5948818E-04  0.1100187E+04  0.7818609E-02  0.9205009E-01
       -2   -1    0    0    0  501  0.00000000000E+00  0.00000000000E+00  0.29457758880E+03  0.29457758881E+03  0.25500000920E-02 0.  1.
        2   -1    0    0  501    0  0.00000000000E+00  0.00000000000E+00 -0.10272436507E+04  0.10272436507E+04  0.25500000920E-02 0. -1.
    10030    2    1    2    0    0  0.00000000000E+00  0.00000000000E+00 -0.73266606191E+03  0.13218212395E+04  0.11001871800E+04 0.  0.
        3    1    3    3  502    0  0.42743197940E+03 -0.29519657007E+03 -0.58380511417E+03  0.78145219529E+03  0.10100000352E+00 0.  1.
       -3    1    3    3    0  502 -0.42743197940E+03  0.29519657007E+03 -0.14886094774E+03  0.54036904423E+03  0.10100000352E+00 0. -1.
</event>
<event>
 5   0  0.6264830E-04  0.1100648E+04  0.7818609E-02  0.9204560E-01
       -2   -1    0    0    0  501  0.00000000000E+00  0.00000000000E+00  0.81206249460E+03  0.81206249460E+03  0.25500000920E-02 0. -1.
        2   -1    0    0  501    0  0.00000000000E+00  0.00000000000E+00 -0.37294732181E+03  0.37294732182E+03  0.25500000920E-02 0.  1.
    10030    2    1    2    0    0  0.00000000000E+00  0.00000000000E+00  0.43911517279E+03  0.11850098164E+04  0.11006480500E+04 0.  0.
        4    1    3    3  502    0  0.26740796766E+02 -0.27582010863E+03 -0.29234619218E+03  0.40281473597E+03  0.12699999809E+01 0.  1.
       -4    1    3    3    0  502 -0.26740796766E+02  0.27582010863E+03  0.73146136497E+03  0.78219508045E+03  0.12699999809E+01 0. -1.
</event>
<event>
 5   0  0.3657529E-04  0.1099767E+04  0.7818609E-02  0.9205419E-01
       -1   -1    0    0    0  501  0.00000000000E+00  0.00000000000E+00  0.17813474866E+03  0.17813474873E+03  0.50400001928E-02 0. -1.
        1   -1    0    0  501    0  0.00000000000E+00  0.00000000000E+00 -0.16974347176E+04  0.16974347176E+04  0.50400001928E-02 0.  1.
    10030    2    1    2    0    0  0.00000000000E+00  0.00000000000E+00 -0.15192999689E+04  0.18755694663E+04  0.10997674424E+04 0.  0.
        4    1    3    3  502    0 -0.12887732649E+03 -0.67756274134E+02  0.14465922258E+03  0.20525150802E+03  0.12699999809E+01 0. -1.
       -4    1    3    3    0  502  0.12887732649E+03  0.67756274134E+02 -0.16639591915E+04  0.16703179583E+04  0.12699999809E+01 0.  1.
</event>
<event>
 5   0  0.3657529E-04  0.1099661E+04  0.7818609E-02  0.9205522E-01
        1   -1    0    0  501    0  0.00000000000E+00  0.00000000000E+00  0.20867738948E+04  0.20867738948E+04  0.50400001928E-02 0. -1.
       -1   -1    0    0    0  501  0.00000000000E+00  0.00000000000E+00 -0.14487125433E+03  0.14487125442E+03  0.50400001928E-02 0.  1.
    10030    2    1    2    0    0  0.00000000000E+00  0.00000000000E+00  0.19419026404E+04  0.22316451492E+04  0.10996609509E+04 0.  0.
        4    1    3    3  502    0  0.42514226156E+03  0.53505982927E+02  0.16701448122E+04  0.17242372631E+04  0.12699999809E+01 0. -1.
       -4    1    3    3    0  502 -0.42514226156E+03 -0.53505982927E+02  0.27175782823E+03  0.50740788610E+03  0.12699999809E+01 0.  1.
</event>
<event>
 5   0  0.6245176E-04  0.1098786E+04  0.7818609E-02  0.9206376E-01
       -2   -1    0    0    0  501  0.00000000000E+00  0.00000000000E+00  0.41643089747E+03  0.41643089747E+03  0.25500000920E-02 0.  1.
        2   -1    0    0  501    0  0.00000000000E+00  0.00000000000E+00 -0.72480883139E+03  0.72480883139E+03  0.25500000920E-02 0. -1.
    10030    2    1    2    0    0  0.00000000000E+00  0.00000000000E+00 -0.30837793392E+03  0.11412397289E+04  0.10987862252E+04 0.  0.
        5    1    3    3  502    0 -0.30833007865E+03 -0.32287254308E+03 -0.48670942873E+03  0.66047125183E+03  0.46999998093E+01 0. -1.
       -5    1    3    3    0  502  0.30833007865E+03  0.32287254308E+03  0.17833149481E+03  0.48076847704E+03  0.46999998093E+01 0.  1.
</event>
<event>
 5   0  0.3657529E-04  0.1103880E+04  0.7818609E-02  0.9201418E-01
       -1   -1    0    0    0  501  0.00000000000E+00  0.00000000000E+00  0.32708479720E+03  0.32708479724E+03  0.50400001928E-02 0.  1.
        1   -1    0    0  501    0  0.00000000000E+00  0.00000000000E+00 -0.93137300494E+03  0.93137300496E+03  0.50400001928E-02 0. -1.
    10030    2    1    2    0    0  0.00000000000E+00  0.00000000000E+00 -0.60428820774E+03  0.12584578022E+04  0.11038803386E+04 0.  0.
        4    1    3    3  502    0  0.27546382195E+03 -0.45453177130E+03 -0.13244831976E+03  0.54774411785E+03  0.12699999809E+01 0.  1.
       -4    1    3    3    0  502 -0.27546382195E+03  0.45453177130E+03 -0.47183988798E+03  0.71071368435E+03  0.12699999809E+01 0. -1.
</event>
<event>
 5   0  0.5948818E-04  0.1098747E+04  0.7818609E-02  0.9206414E-01
        2   -1    0    0  501    0  0.00000000000E+00  0.00000000000E+00  0.38737612523E+03  0.38737612523E+03  0.25500000920E-02 0.  1.
       -2   -1    0    0    0  501  0.00000000000E+00  0.00000000000E+00 -0.77911632541E+03  0.77911632541E+03  0.25500000920E-02 0. -1.
    10030    2    1    2    0    0  0.00000000000E+00  0.00000000000E+00 -0.39174020018E+03  0.11664924506E+04  0.10987466737E+04 0.  0.
        3    1    3    3  502    0 -0.28977588973E+03  0.46645754165E+03 -0.21293435867E+03  0.58897687199E+03  0.10100000352E+00 0. -1.
       -3    1    3    3    0  502  0.28977588973E+03 -0.46645754165E+03 -0.17880584151E+03  0.57751557866E+03  0.10100000352E+00 0.  1.
</event>
<event>
 5   0  0.5948818E-04  0.1099659E+04  0.7818609E-02  0.9205524E-01
        2   -1    0    0  501    0  0.00000000000E+00  0.00000000000E+00  0.68704556821E+03  0.68704556822E+03  0.25500000920E-02 0.  1.
       -2   -1    0    0    0  501  0.00000000000E+00  0.00000000000E+00 -0.44001826382E+03  0.44001826382E+03  0.25500000920E-02 0. -1.
    10030    2    1    2    0    0  0.00000000000E+00  0.00000000000E+00  0.24702730440E+03  0.11270638320E+04  0.10996592165E+04 0.  0.
        3    1    3    3  502    0  0.80554862408E+02  0.50543714178E+03 -0.82382743388E+02  0.51840400921E+03  0.10100000352E+00 0. -1.
       -3    1    3    3    0  502 -0.80554862408E+02 -0.50543714178E+03  0.32941004779E+03  0.60865982284E+03  0.10100000352E+00 0.  1.
</event>
<event>
 5   0  0.3657529E-04  0.1096861E+04  0.7818609E-02  0.9208257E-01
        1   -1    0    0  501    0  0.00000000000E+00  0.00000000000E+00  0.88416929256E+03  0.88416929257E+03  0.50400001928E-02 0. -1.
       -1   -1    0    0    0  501  0.00000000000E+00  0.00000000000E+00 -0.34017895720E+03  0.34017895724E+03  0.50400001928E-02 0.  1.
    10030    2    1    2    0    0  0.00000000000E+00  0.00000000000E+00  0.54399033536E+03  0.12243482498E+04  0.10968605891E+04 0.  0.
        4    1    3    3  502    0  0.36812724023E+03  0.31387225822E+03 -0.16374091578E+02  0.48404874058E+03  0.12699999809E+01 0.  1.
       -4    1    3    3    0  502 -0.36812724023E+03 -0.31387225822E+03  0.56036442694E+03  0.74029950923E+03  0.12699999809E+01 0. -1.
</event>
<event>
 5   0  0.3621403E-04  0.1097692E+04  0.7818609E-02  0.9207444E-01
        1   -1    0    0  501    0  0.00000000000E+00  0.00000000000E+00  0.23767811069E+03  0.23767811074E+03  0.50400001928E-02 0.  1.
       -1   -1    0    0    0  501  0.00000000000E+00  0.00000000000E+00 -0.12673946724E+04  0.12673946724E+04  0.50400001928E-02 0. -1.
    10030    2    1    2    0    0  0.00000000000E+00  0.00000000000E+00 -0.10297165617E+04  0.15050727832E+04  0.10976920721E+04 0.  0.
        3    1    3    3  502    0  0.14376092463E+03  0.40028264999E+03 -0.99049938193E+03  0.10779528928E+04  0.10100000352E+00 0.  1.
       -3    1    3    3    0  502 -0.14376092463E+03 -0.40028264999E+03 -0.39217179795E+02  0.42711989034E+03  0.10100000352E+00 0. -1.
</event>
<event>
 5   0  0.3657529E-04  0.1074990E+04  0.7818609E-02  0.9229917E-01
       -1   -1    0    0    0  501  0.00000000000E+00  0.00000000000E+00  0.22102977569E+03  0.22102977575E+03  0.50400001928E-02 0. -1.
        1   -1    0    0  501    0  0.00000000000E+00  0.00000000000E+00 -0.13070673978E+04  0.13070673978E+04  0.50400001928E-02 0.  1.
    10030    2    1    2    0    0  0.00000000000E+00  0.00000000000E+00 -0.10860376221E+04  0.15280971735E+04  0.10749898861E+04 0.  0.
        4    1    3    3  502    0 -0.53646484829E+03 -0.31222207496E+02 -0.52682112999E+03  0.75253669386E+03  0.12699999809E+01 0.  1.
       -4    1    3    3    0  502  0.53646484829E+03  0.31222207496E+02 -0.55921649208E+03  0.77556047966E+03  0.12699999809E+01 0. -1.
</event>
<event>
 5   0  0.6245176E-04  0.1100051E+04  0.7818609E-02  0.9205142E-01
        2   -1    0    0  501    0  0.00000000000E+00  0.00000000000E+00  0.15885570499E+04  0.15885570499E+04  0.25500000920E-02 0.  1.
       -2   -1    0    0    0  501  0.00000000000E+00  0.00000000000E+00 -0.19044209404E+03  0.19044209406E+03  0.25500000920E-02 0. -1.
    10030    2    1    2    0    0  0.00000000000E+00  0.00000000000E+00  0.13981149558E+04  0.17789991439E+04  0.11000511463E+04 0.  0.
        5    1    3    3  502    0 -0.29485031982E+03  0.39203076072E+03  0.11013502864E+04  0.12056613835E+04  0.46999998093E+01 0.  1.
       -5    1    3    3    0  502  0.29485031982E+03 -0.39203076072E+03  0.29676466944E+03  0.57333776038E+03  0.46999998093E+01 0. -1.
</event>
<event>
 5   0  0.3657529E-04  0.1074976E+04  0.7818609E-02  0.9229931E-01
        1   -1    0    0  501    0  0.00000000000E+00  0.00000000000E+00  0.43673986978E+03  0.43673986981E+03  0.50400001928E-02 0.  1.
       -1   -1    0    0    0  501  0.00000000000E+00  0.00000000000E+00 -0.66147702866E+03  0.66147702867E+03  0.50400001928E-02 0. -1.
    10030    2    1    2    0    0  0.00000000000E+00  0.00000000000E+00 -0.22473715887E+03  0.10982168985E+04  0.10749760767E+04 0.  0.
        4    1    3    3  502    0 -0.32259655793E+03  0.17618289692E+03 -0.51299837153E+03  0.63109261955E+03  0.12699999809E+01 0. -1.
       -4    1    3    3    0  502  0.32259655793E+03 -0.17618289692E+03  0.28826121266E+03  0.46712427894E+03  0.12699999809E+01 0.  1.
</event>
<event>
 5   0  0.2403875E-04  0.1118521E+04  0.7818609E-02  0.9187326E-01
        3   -1    0    0  501    0  0.00000000000E+00  0.00000000000E+00  0.13532629650E+04  0.13532629688E+04  0.10100000352E+00 0. -1.
       -3   -1    0    0    0  501  0.00000000000E+00  0.00000000000E+00 -0.23112457117E+03  0.23112459324E+03  0.10100000352E+00 0.  1.
    10030    2    1    2    0    0  0.00000000000E+00  0.00000000000E+00  0.11221383938E+04  0.15843875620E+04  0.11185210645E+04 0.  0.
        4    1    3    3  502    0 -0.44585019726E+03  0.95447973135E+02  0.10233671924E+03  0.46729768989E+03  0.12699999809E+01 0.  1.
       -4    1    3    3    0  502  0.44585019726E+03 -0.95447973135E+02  0.10198016746E+04  0.11170898721E+04  0.12699999809E+01 0. -1.
</event>
<event>
 5   0  0.3642161E-04  0.1091557E+04  0.7818609E-02  0.9213460E-01
       -1   -1    0    0    0  501  0.00000000000E+00  0.00000000000E+00  0.29581401234E+03  0.29581401238E+03  0.50400001928E-02 0.  1.
        1   -1    0    0  501    0  0.00000000000E+00  0.00000000000E+00 -0.10069646782E+04  0.10069646782E+04  0.50400001928E-02 0. -1.
    10030    2    1    2    0    0  0.00000000000E+00  0.00000000000E+00 -0.71115066584E+03  0.13027786906E+04  0.10915571662E+04 0.  0.
        2    1    3    3  502    0 -0.40037867998E+03 -0.57164023738E+01  0.87050032503E+02  0.40977246468E+03  0.25500000920E-02 0.  1.
       -2    1    3    3    0  502  0.40037867998E+03  0.57164023738E+01 -0.79820069834E+03  0.89300622589E+03  0.25500000920E-02 0. -1.
</event>
<event>
 5   0  0.3523525E-04  0.1101015E+04  0.7818609E-02  0.9204203E-01
       -1   -1    0    0    0  501  0.00000000000E+00  0.00000000000E+00  0.26415509787E+03  0.26415509792E+03  0.50400001928E-02 0.  1.
        1   -1    0    0  501    0  0.00000000000E+00  0.00000000000E+00 -0.11472756029E+04  0.11472756030E+04  0.50400001928E-02 0. -1.
    10030    2    1    2    0    0  0.00000000000E+00  0.00000000000E+00 -0.88312050508E+03  0.14114307009E+04  0.11010153482E+04 0.  0.
        5    1    3    3  502    0 -0.28701318766E+03  0.46801429081E+03 -0.38992095277E+03  0.67340506806E+03  0.46999998093E+01 0. -1.
       -5    1    3    3    0  502  0.28701318766E+03 -0.46801429081E+03 -0.49319955231E+03  0.73802563281E+03  0.46999998093E+01 0.  1.
</event>
<event>
 5   0  0.6412712E-04  0.1097034E+04  0.7818609E-02  0.9208088E-01
       -2   -1    0    0    0  501  0.00000000000E+00  0.00000000000E+00  0.11872365356E+04  0.11872365356E+04  0.25500000920E-02 0.  1.
        2   -1    0    0  501    0  0.00000000000E+00  0.00000000000E+00 -0.25342106010E+03  0.25342106011E+03  0.25500000920E-02 0. -1.
    10030    2    1    2    0    0  0.00000000000E+00  0.00000000000E+00  0.93381547546E+03  0.14406575957E+04  0.10970337122E+04 0.  0.
        2    1    3    3  502    0  0.15802083061E+02 -0.14001808375E+03 -0.22924783116E+03  0.26908983203E+03  0.25500000920E-02 0. -1.
       -2    1    3    3    0  502 -0.15802083061E+02  0.14001808375E+03  0.11630633066E+04  0.11715677636E+04  0.25500000920E-02 0.  1.
</event>
<event>
 5   0  0.6264830E-04  0.1101484E+04  0.7818609E-02  0.9203746E-01
        2   -1    0    0  501    0  0.00000000000E+00  0.00000000000E+00  0.83907110092E+03  0.83907110092E+03  0.25500000920E-02 0. -1.
       -2   -1    0    0    0  501  0.00000000000E+00  0.00000000000E+00 -0.36149127749E+03  0.36149127749E+03  0.25500000920E-02 0.  1.
    10030    2    1    2    0    0  0.00000000000E+00  0.00000000000E+00  0.47757982343E+03  0.12005623784E+04  0.11014842426E+04 0.  0.
        4    1    3    3  502    0  0.11598563810E+03 -0.41001942916E+02  0.82390250785E+03  0.83303708376E+03  0.12699999809E+01 0. -1.
       -4    1    3    3    0  502 -0.11598563810E+03  0.41001942916E+02 -0.34632268442E+03  0.36752529466E+03  0.12699999809E+01 0.  1.
</event>
<event>
 5   0  0.5948818E-04  0.1100107E+04  0.7818609E-02  0.9205088E-01
        2   -1    0    0  501    0  0.00000000000E+00  0.00000000000E+00  0.11720091727E+04  0.11720091727E+04  0.25500000920E-02 0. -1.
       -2   -1    0    0    0  501  0.00000000000E+00  0.00000000000E+00 -0.25815388037E+03  0.25815388038E+03  0.25500000920E-02 0.  1.
    10030    2    1    2    0    0  0.00000000000E+00  0.00000000000E+00  0.91385529237E+03  0.14301630531E+04  0.11001067508E+04 0.  0.
        3    1    3    3  502    0  0.90695159575E+02 -0.39030976312E+03 -0.32943340256E+02  0.40206043952E+03  0.10100000352E+00 0.  1.
       -3    1    3    3    0  502 -0.90695159575E+02  0.39030976312E+03  0.94679863263E+03  0.10281026136E+04  0.10100000352E+00 0. -1.
</event>
<event>
 5   0  0.3657529E-04  0.1098207E+04  0.7818609E-02  0.9206941E-01
       -1   -1    0    0    0  501  0.00000000000E+00  0.00000000000E+00  0.10722401319E+04  0.10722401319E+04  0.50400001928E-02 0.  1.
        1   -1    0    0  501    0  0.00000000000E+00  0.00000000000E+00 -0.28120071900E+03  0.28120071905E+03  0.50400001928E-02 0. -1.
    10030    2    1    2    0    0  0.00000000000E+00  0.00000000000E+00  0.79103941288E+03  0.13534408509E+04  0.10982070771E+04 0.  0.
        4    1    3    3  502    0 -0.42048147098E+03  0.28296001455E+03  0.13512803615E+03  0.52453049132E+03  0.12699999809E+01 0. -1.
       -4    1    3    3    0  502  0.42048147098E+03 -0.28296001455E+03  0.65591137673E+03  0.82891035962E+03  0.12699999809E+01 0.  1.
</event>
<event>
 5   0  0.3621403E-04  0.1102180E+04  0.7818609E-02  0.9203070E-01
       -1   -1    0    0    0  501  0.00000000000E+00  0.00000000000E+00  0.22553290736E+03  0.22553290742E+03  0.50400001928E-02 0.  1.
        1   -1    0    0  501    0  0.00000000000E+00  0.00000000000E+00 -0.13465883577E+04  0.13465883577E+04  0.50400001928E-02 0. -1.
    10030    2    1    2    0    0  0.00000000000E+00  0.00000000000E+00 -0.11210554503E+04  0.15721212651E+04  0.11021796358E+04 0.  0.
        3    1    3    3  502    0  0.14033689848E+03 -0.41878937535E+03 -0.10306280381E+04  0.11212819223E+04  0.10100000352E+00 0.  1.
       -3    1    3    3    0  502 -0.14033689848E+03  0.41878937535E+03 -0.90427412169E+02  0.45083934284E+03  0.10100000352E+00 0. -1.
</event>
<event>
 5   0  0.3523525E-04  0.1087851E+04  0.7818609E-02  0.9217115E-01
        1   -1    0    0  501    0  0.00000000000E+00  0.00000000000E+00  0.11370135509E+04  0.11370135509E+04  0.50400001928E-02 0. -1.
       -1   -1    0    0    0  501  0.00000000000E+00  0.00000000000E+00 -0.26020345237E+03  0.26020345242E+03  0.50400001928E-02 0.  1.
    10030    2    1    2    0    0  0.00000000000E+00  0.00000000000E+00  0.87681009856E+03  0.13972170034E+04  0.10878508195E+04 0.  0.
        5    1    3    3  502    0 -0.21819359878E+03  0.16296756926E+03  0.10431105924E+04  0.10780856520E+04  0.46999998093E+01 0. -1.
       -5    1    3    3    0  502  0.21819359878E+03 -0.16296756926E+03 -0.16630049380E+03  0.31913135135E+03  0.46999998093E+01 0.  1.
</event>
<event>
 5   0  0.3523525E-04  0.1100817E+04  0.7818609E-02  0.9204395E-01
       -1   -1    0    0    0  501  0.00000000000E+00  0.00000000000E+00  0.25914419809E+03  0.25914419814E+03  0.50400001928E-02 0.  1.
        1   -1    0    0  501    0  0.00000000000E+00  0.00000000000E+00 -0.11690393735E+04  0.11690393735E+04  0.50400001928E-02 0. -1.
    10030    2    1    2    0    0  0.00000000000E+00  0.00000000000E+00 -0.90989517543E+03  0.14281835717E+04  0.11008174618E+04 0.  0.
        5    1    3    3  502    0 -0.43144551087E+03 -0.29071414330E+03 -0.22189550345E+03  0.56561439728E+03  0.46999998093E+01 0.  1.
       -5    1    3    3    0  502  0.43144551087E+03  0.29071414330E+03 -0.68799967199E+03  0.86256917439E+03  0.46999998093E+01 0. -1.
</event>
<event>
 5   0  0.6412712E-04  0.1100358E+04  0.7818609E-02  0.9204843E-01
        2   -1    0    0  501    0  0.00000000000E+00  0.00000000000E+00  0.35689928949E+03  0.35689928950E+03  0.25500000920E-02 0. -1.
       -2   -1    0    0    0  501  0.00000000000E+00  0.00000000000E+00 -0.84812951898E+03  0.84812951899E+03  0.25500000920E-02 0.  1.
    10030    2    1    2    0    0  0.00000000000E+00  0.00000000000E+00 -0.49123022949E+03  0.12050288085E+04  0.11003578013E+04 0.  0.
        2    1    3    3  502    0  0.55276402481E+02  0.31399963305E+03 -0.73664820463E+03  0.80268413939E+03  0.25500000920E-02 0.  1.
       -2    1    3    3    0  502 -0.55276402481E+02 -0.31399963305E+03  0.24541797514E+03  0.40234466910E+03  0.25500000920E-02 0. -1.
</event>
<event>
 5   0  0.6412712E-04  0.1097303E+04  0.7818609E-02  0.9207824E-01
        2   -1    0    0  501    0  0.00000000000E+00  0.00000000000E+00  0.14138739841E+04  0.14138739841E+04  0.25500000920E-02 0.  1.
       -2   -1    0    0    0  501  0.00000000000E+00  0.00000000000E+00 -0.21290347367E+03  0.21290347369E+03  0.25500000920E-02 0. -1.
    10030    2    1    2    0    0  0.00000000000E+00  0.00000000000E+00  0.12009705104E+04  0.16267774578E+04  0.10973033903E+04 0.  0.
        2    1    3    3  502    0  0.18836377528E+03  0.17277315074E+03  0.13202149671E+04  0.13447300967E+04  0.25500000920E-02 0.  1.
       -2    1    3    3    0  502 -0.18836377528E+03 -0.17277315074E+03 -0.11924445670E+03  0.28204736112E+03  0.25500000920E-02 0. -1.
</event>
<event>
 5   0  0.3621403E-04  0.1098300E+04  0.7818609E-02  0.9206850E-01
        1   -1    0    0  501    0  0.00000000000E+00  0.00000000000E+00  0.16195017873E+04  0.16195017873E+04  0.50400001928E-02 0.  1.
       -1   -1    0    0    0  501  0.00000000000E+00  0.00000000000E+00 -0.18620900353E+03  0.18620900360E+03  0.50400001928E-02 0. -1.
    10030    2    1    2    0    0  0.00000000000E+00  0.00000000000E+00  0.14332927838E+04  0.18057107909E+04  0.10983001668E+04 0.  0.
        3    1    3    3  502    0  0.22048317156E+03  0.58982499979E+02  0.15378291527E+04  0.15546736884E+04  0.10100000352E+00 0.  1.
       -3    1    3    3    0  502 -0.22048317156E+03 -0.58982499979E+02 -0.10453636889E+03  0.25103710257E+03  0.10100000352E+00 0. -1.
</event>
<event>
 5   0  0.3423758E-04  0.1099606E+04  0.7818609E-02  0.9205576E-01
       -1   -1    0    0    0  501  0.00000000000E+00  0.00000000000E+00  0.19894561996E+03  0.19894562002E+03  0.50400001928E-02 0.  1.
        1   -1    0    0  501    0  0.00000000000E+00  0.00000000000E+00 -0.15194264995E+04  0.15194264995E+04  0.50400001928E-02 0. -1.
    10030    2    1    2    0    0  0.00000000000E+00  0.00000000000E+00 -0.13204808796E+04  0.17183721196E+04  0.10996058330E+04 0.  0.
        1    1    3    3  502    0  0.30433016829E+03  0.21238509675E+01  0.55309460705E+02  0.30932264473E+03  0.50400001928E-02 0.  1.
       -1    1    3    3    0  502 -0.30433016829E+03 -0.21238509675E+01 -0.13757903403E+04  0.14090494748E+04  0.50400001928E-02 0. -1.
</event>
<event>
 5   0  0.6109149E-04  0.1100887E+04  0.7818609E-02  0.9204328E-01
        2   -1    0    0  501    0  0.00000000000E+00  0.00000000000E+00  0.21842391947E+04  0.21842391947E+04  0.25500000920E-02 0. -1.
       -2   -1    0    0    0  501  0.00000000000E+00  0.00000000000E+00 -0.13871564832E+03  0.13871564835E+03  0.25500000920E-02 0.  1.
    10030    2    1    2    0    0  0.00000000000E+00  0.00000000000E+00  0.20455235463E+04  0.23229548430E+04  0.11008871986E+04 0.  0.
        1    1    3    3  502    0 -0.71720484107E+02 -0.35948607284E+02  0.21718368191E+04  0.21733180391E+04  0.50400001928E-02 0. -1.
       -1    1    3    3    0  502  0.71720484107E+02  0.35948607284E+02 -0.12631327273E+03  0.14963680396E+03  0.50400001928E-02 0.  1.
</event>
<event>
 5   0  0.6245176E-04  0.1100333E+04  0.7818609E-02  0.9204867E-01
        2   -1    0    0  501    0  0.00000000000E+00  0.00000000000E+00  0.81135385266E+03  0.81135385266E+03  0.25500000920E-02 0. -1.
       -2   -1    0    0    0  501  0.00000000000E+00  0.00000000000E+00 -0.37305933150E+03  0.37305933151E+03  0.25500000920E-02 0.  1.
    10030    2    1    2    0    0  0.00000000000E+00  0.00000000000E+00  0.43829452116E+03  0.11844131842E+04  0.11003329058E+04 0.  0.
        5    1    3    3  502    0  0.39742477927E+03 -0.35081205995E+03  0.37751354802E+03  0.65081036064E+03  0.46999998093E+01 0. -1.
       -5    1    3    3    0  502 -0.39742477927E+03  0.35081205995E+03  0.60780973146E+02  0.53360282353E+03  0.46999998093E+01 0.  1.
</event>
<event>
 5   0  0.3642161E-04  0.1098210E+04  0.7818609E-02  0.9206938E-01
       -1   -1    0    0    0  501  0.00000000000E+00  0.00000000000E+00  0.32418349363E+03  0.32418349367E+03  0.50400001928E-02 0.  1.
        1   -1    0    0  501    0  0.00000000000E+00  0.00000000000E+00 -0.93007910459E+03  0.93007910460E+03  0.50400001928E-02 0. -1.
    10030    2    1    2    0    0  0.00000000000E+00  0.00000000000E+00 -0.60589561096E+03  0.12542625983E+04  0.10982099863E+04 0.  0.
        2    1    3    3  502    0 -0.48443450644E+02  0.17004036160E+03 -0.89667999598E+03  0.91394502443E+03  0.25500000920E-02 0. -1.
       -2    1    3    3    0  502  0.48443450644E+02 -0.17004036160E+03  0.29078438503E+03  0.34031757384E+03  0.25500000920E-02 0.  1.
</event>
<event>
 5   0  0.3642161E-04  0.1091048E+04  0.7818609E-02  0.9213961E-01
       -1   -1    0    0    0  501  0.00000000000E+00  0.00000000000E+00  0.32444930808E+03  0.32444930811E+03  0.50400001928E-02 0.  1.
        1   -1    0    0  501    0  0.00000000000E+00  0.00000000000E+00 -0.91723553309E+03  0.91723553310E+03  0.50400001928E-02 0. -1.
    10030    2    1    2    0    0  0.00000000000E+00  0.00000000000E+00 -0.59278622501E+03  0.12416848412E+04  0.10910479991E+04 0.  0.
        2    1    3    3  502    0 -0.10875347397E+03  0.73140607677E+02 -0.89905215823E+03  0.90855470381E+03  0.25500000920E-02 0. -1.
       -2    1    3    3    0  502  0.10875347397E+03 -0.73140607677E+02  0.30626593322E+03  0.33313013741E+03  0.25500000920E-02 0.  1.
</event>
<event>
 5   0  0.3621403E-04  0.1101083E+04  0.7818609E-02  0.9204137E-01
        1   -1    0    0  501    0  0.00000000000E+00  0.00000000000E+00  0.60798098294E+03  0.60798098296E+03  0.50400001928E-02 0. -1.
       -1   -1    0    0    0  501  0.00000000000E+00  0.00000000000E+00 -0.49852888954E+03  0.49852888956E+03  0.50400001928E-02 0.  1.
    10030    2    1    2    0    0  0.00000000000E+00  0.00000000000E+00  0.10945209341E+03  0.11065098725E+04  0.11010832563E+04 0.  0.
        3    1    3    3  502    0  0.39857684953E+03 -0.62643263870E+02 -0.32169765067E+03  0.51602041833E+03  0.10100000352E+00 0.  1.
       -3    1    3    3    0  502 -0.39857684953E+03  0.62643263870E+02  0.43114974408E+03  0.59048945419E+03  0.10100000352E+00 0. -1.
</event>
<event>
 5   0  0.5948818E-04  0.1101305E+04  0.7818609E-02  0.9203920E-01
       -2   -1    0    0    0  501  0.00000000000E+00  0.00000000000E+00  0.12541248635E+03  0.12541248638E+03  0.25500000920E-02 0. -1.
        2   -1    0    0  501    0  0.00000000000E+00  0.00000000000E+00 -0.24177687187E+04  0.24177687187E+04  0.25500000920E-02 0.  1.
    10030    2    1    2    0    0  0.00000000000E+00  0.00000000000E+00 -0.22923562324E+04  0.25431812051E+04  0.11013053827E+04 0.  0.
        3    1    3    3  502    0  0.29585134845E+02 -0.51942636722E+03 -0.15627346467E+04  0.16470636349E+04  0.10100000352E+00 0. -1.
       -3    1    3    3    0  502 -0.29585134845E+02  0.51942636722E+03 -0.72962158565E+03  0.89611757020E+03  0.10100000352E+00 0.  1.
</event>
<event>
 5   0  0.3523525E-04  0.1099374E+04  0.7818609E-02  0.9205803E-01
       -1   -1    0    0    0  501  0.00000000000E+00  0.00000000000E+00  0.16653709768E+03  0.16653709776E+03  0.50400001928E-02 0.  1.
        1   -1    0    0  501    0  0.00000000000E+00  0.00000000000E+00 -0.18143439292E+04  0.18143439292E+04  0.50400001928E-02 0. -1.
    10030    2    1    2    0    0  0.00000000000E+00  0.00000000000E+00 -0.16478068315E+04  0.19808810270E+04  0.10993735894E+04 0.  0.
        5    1    3    3  502    0 -0.16057787843E+03  0.44803191149E+03 -0.13193751573E+04  0.14026014204E+04  0.46999998093E+01 0. -1.
       -5    1    3    3    0  502  0.16057787843E+03 -0.44803191149E+03 -0.32843167423E+03  0.57827960659E+03  0.46999998093E+01 0.  1.
</event>
<event>
 5   0  0.3642161E-04  0.1102268E+04  0.7818609E-02  0.9202984E-01
       -1   -1    0    0    0  501  0.00000000000E+00  0.00000000000E+00  0.43039644507E+03  0.43039644510E+03  0.50400001928E-02 0.  1.
        1   -1    0    0  501    0  0.00000000000E+00  0.00000000000E+00 -0.70574170354E+03  0.70574170356E+03  0.50400001928E-02 0. -1.
    10030    2    1    2    0    0  0.00000000000E+00  0.00000000000E+00 -0.27534525847E+03  0.11361381487E+04  0.11022680624E+04 0.  0.
        2    1    3    3  502    0 -0.16416694388E+03 -0.14928951065E+03  0.38231957909E+03  0.44204796574E+03  0.25500000920E-02 0.  1.
       -2    1    3    3    0  502  0.16416694388E+03  0.14928951065E+03 -0.65766483757E+03  0.69409018292E+03  0.25500000920E-02 0. -1.
</event>
<event>
 5   0  0.5948818E-04  0.1100080E+04  0.7818609E-02  0.9205114E-01
       -2   -1    0    0    0  501  0.00000000000E+00  0.00000000000E+00  0.25820574184E+03  0.25820574185E+03  0.25500000920E-02 0.  1.
        2   -1    0    0  501    0  0.00000000000E+00  0.00000000000E+00 -0.11717163518E+04  0.11717163518E+04  0.25500000920E-02 0. -1.
    10030    2    1    2    0    0  0.00000000000E+00  0.00000000000E+00 -0.91351060998E+03  0.14299220937E+04  0.11000797968E+04 0.  0.
        3    1    3    3  502    0  0.17316839526E+02  0.50339893102E+03 -0.74399682476E+03  0.89846627212E+03  0.10100000352E+00 0. -1.
       -3    1    3    3    0  502 -0.17316839526E+02 -0.50339893102E+03 -0.16951378522E+03  0.53145582155E+03  0.10100000352E+00 0.  1.
</event>
<event>
 5   0  0.6245176E-04  0.1097517E+04  0.7818609E-02  0.9207615E-01
        2   -1    0    0  501    0  0.00000000000E+00  0.00000000000E+00  0.29454001767E+03  0.29454001768E+03  0.25500000920E-02 0.  1.
       -2   -1    0    0    0  501  0.00000000000E+00  0.00000000000E+00 -0.10223936564E+04  0.10223936564E+04  0.25500000920E-02 0. -1.
    10030    2    1    2    0    0  0.00000000000E+00  0.00000000000E+00 -0.72785363869E+03  0.13169336741E+04  0.10975169167E+04 0.  0.
        5    1    3    3  502    0 -0.19608095038E+03 -0.22455953710E+03  0.18886970859E+03  0.35294274554E+03  0.46999998093E+01 0.  1.
       -5    1    3    3    0  502  0.19608095038E+03  0.22455953710E+03 -0.91672334729E+03  0.96399092852E+03  0.46999998093E+01 0. -1.
</event>
<event>
 5   0  0.6245176E-04  0.1098937E+04  0.7818609E-02  0.9206228E-01
       -2   -1    0    0    0  501  0.00000000000E+00  0.00000000000E+00  0.59952603395E+03  0.59952603395E+03  0.25500000920E-02 0.  1.
        2   -1    0    0  501    0  0.00000000000E+00  0.00000000000E+00 -0.50359092828E+03  0.50359092829E+03  0.25500000920E-02 0. -1.
    10030    2    1    2    0    0  0.00000000000E+00  0.00000000000E+00  0.95935105665E+02  0.11031169622E+04  0.10989374358E+04 0.  0.
        5    1    3    3  502    0  0.52147709106E+02 -0.50328468227E+03  0.26297585050E+03  0.57025717261E+03  0.46999998093E+01 0.  1.
       -5    1    3    3    0  502 -0.52147709106E+02  0.50328468227E+03 -0.16704074484E+03  0.53285978963E+03  0.46999998093E+01 0. -1.
</event>
<event>
 5   0  0.6245176E-04  0.1100389E+04  0.7818609E-02  0.9204813E-01
        2   -1    0    0  501    0  0.00000000000E+00  0.00000000000E+00  0.11827806942E+04  0.11827806942E+04  0.25500000920E-02 0.  1.
       -2   -1    0    0    0  501  0.00000000000E+00  0.00000000000E+00 -0.25593420054E+03  0.25593420056E+03  0.25500000920E-02 0. -1.
    10030    2    1    2    0    0  0.00000000000E+00  0.00000000000E+00  0.92684649362E+03  0.14387148947E+04  0.11003890792E+04 0.  0.
        5    1    3    3  502    0 -0.25626597158E+03  0.30622585584E+03  0.95826785022E+03  0.10381454068E+04  0.46999998093E+01 0.  1.
       -5    1    3    3    0  502  0.25626597158E+03 -0.30622585584E+03 -0.31421356606E+02  0.40056948788E+03  0.46999998093E+01 0. -1.
</event>
<event>
 5   0  0.6412712E-04  0.1100854E+04  0.7818609E-02  0.9204360E-01
        2   -1    0    0  501    0  0.00000000000E+00  0.00000000000E+00  0.93738014028E+03  0.93738014029E+03  0.25500000920E-02 0. -1.
       -2   -1    0    0    0  501  0.00000000000E+00  0.00000000000E+00 -0.32320917483E+03  0.32320917484E+03  0.25500000920E-02 0.  1.
    10030    2    1    2    0    0  0.00000000000E+00  0.00000000000E+00  0.61417096546E+03  0.12605893151E+04  0.11008539624E+04 0.  0.
        2    1    3    3  502    0  0.51639347938E+03  0.12957907199E+03  0.14711150913E+03  0.55235383367E+03  0.25500000920E-02 0. -1.
       -2    1    3    3    0  502 -0.51639347938E+03 -0.12957907199E+03  0.46705945633E+03  0.70823548145E+03  0.25500000920E-02 0.  1.
</event>
<event>
 5   0  0.6264830E-04  0.1099340E+04  0.7818609E-02  0.9205835E-01
       -2   -1    0    0    0  501  0.00000000000E+00  0.00000000000E+00  0.23561674565E+03  0.23561674566E+03  0.25500000920E-02 0. -1.
        2   -1    0    0  501    0  0.00000000000E+00  0.00000000000E+00 -0.12823246331E+04  0.12823246331E+04  0.25500000920E-02 0.  1.
    10030    2    1    2    0    0  0.00000000000E+00  0.00000000000E+00 -0.10467078875E+04  0.15179413788E+04  0.10993400874E+04 0.  0.
        4    1    3    3  502    0 -0.70056635910E+02  0.45872123291E+03 -0.11654648461E+03  0.47845354815E+03  0.12699999809E+01 0. -1.
       -4    1    3    3    0  502  0.70056635910E+02 -0.45872123291E+03 -0.93016140285E+03  0.10394878306E+04  0.12699999809E+01 0.  1.
</event>
<event>
 5   0  0.5948818E-04  0.1105802E+04  0.7818609E-02  0.9199555E-01
       -2   -1    0    0    0  501  0.00000000000E+00  0.00000000000E+00  0.41789082425E+03  0.41789082426E+03  0.25500000920E-02 0.  1.
        2   -1    0    0  501    0  0.00000000000E+00  0.00000000000E+00 -0.73153013596E+03  0.73153013597E+03  0.25500000920E-02 0. -1.
    10030    2    1    2    0    0  0.00000000000E+00  0.00000000000E+00 -0.31363931171E+03  0.11494209602E+04  0.11058023901E+04 0.  0.
        3    1    3    3  502    0 -0.28683933671E+03  0.14288346473E+03  0.31151612877E+03  0.44691699259E+03  0.10100000352E+00 0.  1.
       -3    1    3    3    0  502  0.28683933671E+03 -0.14288346473E+03 -0.62515544048E+03  0.70250396763E+03  0.10100000352E+00 0. -1.
</event>
<event>
 5   0  0.6245176E-04  0.1098095E+04  0.7818609E-02  0.9207050E-01
       -2   -1    0    0    0  501  0.00000000000E+00  0.00000000000E+00  0.26948431369E+03  0.26948431371E+03  0.25500000920E-02 0.  1.
        2   -1    0    0  501    0  0.00000000000E+00  0.00000000000E+00 -0.11186306974E+04  0.11186306974E+04  0.25500000920E-02 0. -1.
    10030    2    1    2    0    0  0.00000000000E+00  0.00000000000E+00 -0.84914638373E+03  0.13881150111E+04  0.10980954891E+04 0.  0.
        5    1    3    3  502    0 -0.19163078370E+03  0.50691117750E+03 -0.31328804039E+03  0.62598145770E+03  0.46999998093E+01 0.  1.
       -5    1    3    3    0  502  0.19163078370E+03 -0.50691117750E+03 -0.53585834334E+03  0.76213355343E+03  0.46999998093E+01 0. -1.
</event>
<event>
 5   0  0.6109149E-04  0.1099469E+04  0.7818609E-02  0.9205710E-01
        2   -1    0    0  501    0  0.00000000000E+00  0.00000000000E+00  0.17665878039E+04  0.17665878039E+04  0.25500000920E-02 0. -1.
       -2   -1    0    0    0  501  0.00000000000E+00  0.00000000000E+00 -0.17106871498E+03  0.17106871500E+03  0.25500000920E-02 0.  1.
    10030    2    1    2    0    0  0.00000000000E+00  0.00000000000E+00  0.15955190890E+04  0.19376565189E+04  0.10994687909E+04 0.  0.
        1    1    3    3  502    0 -0.22929316226E+03 -0.58436417782E+02 -0.76727852263E+02  0.24875154778E+03  0.50400001928E-02 0.  1.
       -1    1    3    3    0  502  0.22929316226E+03  0.58436417782E+02  0.16722469412E+04  0.16889049712E+04  0.50400001928E-02 0. -1.
</event>
<event>
 5   0  0.3523525E-04  0.1098824E+04  0.7818609E-02  0.9206339E-01
       -1   -1    0    0    0  501  0.00000000000E+00  0.00000000000E+00  0.52449600984E+03  0.52449600986E+03  0.50400001928E-02 0.  1.
        1   -1    0    0  501    0  0.00000000000E+00  0.00000000000E+00 -0.57551188660E+03  0.57551188663E+03  0.50400001928E-02 0. -1.
    10030    2    1    2    0    0  0.00000000000E+00  0.00000000000E+00 -0.51015876766E+02  0.11000078965E+04  0.10988242592E+04 0.  0.
        5    1    3    3  502    0 -0.15726776242E+03 -0.25229731274E+03  0.43699027921E+03  0.52855432761E+03  0.46999998093E+01 0.  1.
       -5    1    3    3    0  502  0.15726776242E+03  0.25229731274E+03 -0.48800615598E+03  0.57145356888E+03  0.46999998093E+01 0. -1.
</event>
<event>
 5   0  0.6109149E-04  0.1095575E+04  0.7818609E-02  0.9209516E-01
       -2   -1    0    0    0  501  0.00000000000E+00  0.00000000000E+00  0.13759199195E+04  0.13759199195E+04  0.25500000920E-02 0.  1.
        2   -1    0    0  501    0  0.00000000000E+00  0.00000000000E+00 -0.21808758467E+03  0.21808758469E+03  0.25500000920E-02 0. -1.
    10030    2    1    2    0    0  0.00000000000E+00  0.00000000000E+00  0.11578323348E+04  0.15940075042E+04  0.10955748299E+04 0.  0.
        1    1    3    3  502    0 -0.16285026563E+03  0.14260070761E+03  0.13110555786E+04  0.13288046888E+04  0.50400001928E-02 0.  1.
       -1    1    3    3    0  502  0.16285026563E+03 -0.14260070761E+03 -0.15322324376E+03  0.26520281538E+03  0.50400001928E-02 0. -1.
</event>
<event>
 5   0  0.3642161E-04  0.1097894E+04  0.7818609E-02  0.9207247E-01
       -1   -1    0    0    0  501  0.00000000000E+00  0.00000000000E+00  0.63542063525E+03  0.63542063527E+03  0.50400001928E-02 0.  1.
        1   -1    0    0  501    0  0.00000000000E+00  0.00000000000E+00 -0.47424112239E+03  0.47424112242E+03  0.50400001928E-02 0. -1.
    10030    2    1    2    0    0  0.00000000000E+00  0.00000000000E+00  0.16117951286E+03  0.11096617577E+04  0.10978936110E+04 0.  0.
        2    1    3    3  502    0 -0.52511197140E+03 -0.11080394957E+03 -0.36070569521E+02  0.53788584638E+03  0.25500000920E-02 0. -1.
       -2    1    3    3    0  502  0.52511197140E+03  0.11080394957E+03  0.19725008238E+03  0.57177591131E+03  0.25500000920E-02 0.  1.
</event>
<event>
 5   0  0.5948818E-04  0.1102483E+04  0.7818609E-02  0.9202775E-01
        2   -1    0    0  501    0  0.00000000000E+00  0.00000000000E+00  0.49543120304E+03  0.49543120305E+03  0.25500000920E-02 0.  1.
       -2   -1    0    0    0  501  0.00000000000E+00  0.00000000000E+00 -0.61333882553E+03  0.61333882554E+03  0.25500000920E-02 0. -1.
    10030    2    1    2    0    0  0.00000000000E+00  0.00000000000E+00 -0.11790762249E+03  0.11087700286E+04  0.11024830016E+04 0.  0.
        3    1    3    3  502    0  0.53776825922E+03  0.87457594624E+02  0.25331330809E+02  0.54542205493E+03  0.10100000352E+00 0. -1.
       -3    1    3    3    0  502 -0.53776825922E+03 -0.87457594624E+02 -0.14323895330E+03  0.56334797366E+03  0.10100000352E+00 0.  1.
</event>
<event>
 5   0  0.3657529E-04  0.1100048E+04  0.7818609E-02  0.9205145E-01
       -1   -1    0    0    0  501  0.00000000000E+00  0.00000000000E+00  0.14104496369E+03  0.14104496378E+03  0.50400001928E-02 0. -1.
        1   -1    0    0  501    0  0.00000000000E+00  0.00000000000E+00 -0.21448943331E+04  0.21448943332E+04  0.50400001928E-02 0.  1.
    10030    2    1    2    0    0  0.00000000000E+00  0.00000000000E+00 -0.20038493695E+04  0.22859392969E+04  0.11000482598E+04 0.  0.
        4    1    3    3  502    0  0.44906409356E+03 -0.15479924449E+03 -0.42565444796E+03  0.63781242399E+03  0.12699999809E+01 0. -1.
       -4    1    3    3    0  502 -0.44906409356E+03  0.15479924449E+03 -0.15781949215E+04  0.16481268730E+04  0.12699999809E+01 0.  1.
</event>
<event>
 5   0  0.3423758E-04  0.1099199E+04  0.7818609E-02  0.9205973E-01
        1   -1    0    0  501    0  0.00000000000E+00  0.00000000000E+00  0.64919116269E+03  0.64919116271E+03  0.50400001928E-02 0.  1.
       -1   -1    0    0    0  501  0.00000000000E+00  0.00000000000E+00 -0.46528585412E+03  0.46528585415E+03  0.50400001928E-02 0. -1.
    10030    2    1    2    0    0  0.00000000000E+00  0.00000000000E+00  0.18390530857E+03  0.11144770169E+04  0.10991987348E+04 0.  0.
        1    1    3    3  502    0 -0.22221261030E+03  0.29557718431E+03 -0.32028838351E+03  0.48921259663E+03  0.50400001928E-02 0. -1.
       -1    1    3    3    0  502  0.22221261030E+03 -0.29557718431E+03  0.50419369208E+03  0.62526442024E+03  0.50400001928E-02 0.  1.
</event>
<event>
 5   0  0.3523525E-04  0.1099253E+04  0.7818609E-02  0.9205920E-01
       -1   -1    0    0    0  501  0.00000000000E+00  0.00000000000E+00  0.49239817402E+03  0.49239817405E+03  0.50400001928E-02 0.  1.
        1   -1    0    0  501    0  0.00000000000E+00  0.00000000000E+00 -0.61350660437E+03  0.61350660439E+03  0.50400001928E-02 0. -1.
    10030    2    1    2    0    0  0.00000000000E+00  0.00000000000E+00 -0.12110843034E+03  0.11059047784E+04  0.10992534408E+04 0.  0.
        5    1    3    3  502    0 -0.26081082986E+03 -0.13570704695E+03 -0.52772237316E+03  0.60411231132E+03  0.46999998093E+01 0. -1.
       -5    1    3    3    0  502  0.26081082986E+03  0.13570704695E+03  0.40661394281E+03  0.50179246711E+03  0.46999998093E+01 0.  1.
</event>
<event>
 5   0  0.6264830E-04  0.1097934E+04  0.7818609E-02  0.9207208E-01
        2   -1    0    0  501    0  0.00000000000E+00  0.00000000000E+00  0.47673981163E+03  0.47673981164E+03  0.25500000920E-02 0. -1.
       -2   -1    0    0    0  501  0.00000000000E+00  0.00000000000E+00 -0.63213673015E+03  0.63213673016E+03  0.25500000920E-02 0.  1.
    10030    2    1    2    0    0  0.00000000000E+00  0.00000000000E+00 -0.15539691852E+03  0.11088765418E+04  0.10979339610E+04 0.  0.
        4    1    3    3  502    0  0.26696562705E+03 -0.12989387739E+03 -0.54405816054E+03  0.61979348202E+03  0.12699999809E+01 0.  1.
       -4    1    3    3    0  502 -0.26696562705E+03  0.12989387739E+03  0.38866124201E+03  0.48908305977E+03  0.12699999809E+01 0. -1.
</event>
<event>
 5   0  0.3642161E-04  0.1100414E+04  0.7818609E-02  0.9204789E-01
       -1   -1    0    0    0  501  0.00000000000E+00  0.00000000000E+00  0.53683488883E+03  0.53683488885E+03  0.50400001928E-02 0.  1.
        1   -1    0    0  501    0  0.00000000000E+00  0.00000000000E+00 -0.56391185082E+03  0.56391185084E+03  0.50400001928E-02 0. -1.
    10030    2    1    2    0    0  0.00000000000E+00  0.00000000000E+00 -0.27076961988E+02  0.11007467397E+04  0.11004136600E+04 0.  0.
        2    1    3    3  502    0  0.24378367984E+03  0.45611473272E+03 -0.20136225553E+03  0.55499359448E+03  0.25500000920E-02 0. -1.
       -2    1    3    3    0  502 -0.24378367984E+03 -0.45611473272E+03  0.17428529354E+03  0.54575314521E+03  0.25500000920E-02 0.  1.
</event>
<event>
 5   0  0.6412712E-04  0.1100021E+04  0.7818609E-02  0.9205171E-01
        2   -1    0    0  501    0  0.00000000000E+00  0.00000000000E+00  0.76413717184E+03  0.76413717185E+03  0.25500000920E-02 0.  1.
       -2   -1    0    0    0  501  0.00000000000E+00  0.00000000000E+00 -0.39588673268E+03  0.39588673269E+03  0.25500000920E-02 0. -1.
    10030    2    1    2    0    0  0.00000000000E+00  0.00000000000E+00  0.36825043916E+03  0.11600239045E+04  0.11000213967E+04 0.  0.
        2    1    3    3  502    0  0.10343461560E+03 -0.14835342334E+03  0.73188513506E+03  0.75389873912E+03  0.25500000920E-02 0.  1.
       -2    1    3    3    0  502 -0.10343461560E+03  0.14835342334E+03 -0.36363469590E+03  0.40612516542E+03  0.25500000920E-02 0. -1.
</event>
<event>
 5   0  0.6109149E-04  0.1099611E+04  0.7818609E-02  0.9205571E-01
       -2   -1    0    0    0  501  0.00000000000E+00  0.00000000000E+00  0.27565302461E+03  0.27565302462E+03  0.25500000920E-02 0.  1.
        2   -1    0    0  501    0  0.00000000000E+00  0.00000000000E+00 -0.10966184470E+04  0.10966184470E+04  0.25500000920E-02 0. -1.
    10030    2    1    2    0    0  0.00000000000E+00  0.00000000000E+00 -0.82096542239E+03  0.13722714716E+04  0.10996111890E+04 0.  0.
        1    1    3    3  502    0 -0.37639236407E+03  0.18638180427E+03 -0.85324817357E+03  0.95102146896E+03  0.50400001928E-02 0. -1.
       -1    1    3    3    0  502  0.37639236407E+03 -0.18638180427E+03  0.32282751186E+02  0.42125000266E+03  0.50400001928E-02 0.  1.
</event>
<event>
 5   0  0.6245176E-04  0.1100048E+04  0.7818609E-02  0.9205145E-01
        2   -1    0    0  501    0  0.00000000000E+00  0.00000000000E+00  0.91480610628E+03  0.91480610628E+03  0.25500000920E-02 0. -1.
       -2   -1    0    0    0  501  0.00000000000E+00  0.00000000000E+00 -0.33069995372E+03  0.33069995373E+03  0.25500000920E-02 0.  1.
    10030    2    1    2    0    0  0.00000000000E+00  0.00000000000E+00  0.58410615256E+03  0.12455060600E+04  0.11000478844E+04 0.  0.
        5    1    3    3  502    0  0.11121084186E+03  0.48040404213E+03  0.16224926249E+02  0.49339764214E+03  0.46999998093E+01 0.  1.
       -5    1    3    3    0  502 -0.11121084186E+03 -0.48040404213E+03  0.56788122631E+03  0.75210841787E+03  0.46999998093E+01 0. -1.
</event>
<event>
 5   0  0.3642161E-04  0.1099945E+04  0.7818609E-02  0.9205246E-01
       -1   -1    0    0    0  501  0.00000000000E+00  0.00000000000E+00  0.16960377770E+03  0.16960377777E+03  0.50400001928E-02 0. -1.
        1   -1    0    0  501    0  0.00000000000E+00  0.00000000000E+00 -0.17833899158E+04  0.17833899159E+04  0.50400001928E-02 0.  1.
    10030    2    1    2    0    0  0.00000000000E+00  0.00000000000E+00 -0.16137861382E+04  0.19529936936E+04  0.10999448475E+04 0.  0.
        2    1    3    3  502    0 -0.28052608997E+03  0.30120565600E+03 -0.14545384323E+04  0.15116553130E+04  0.25500000920E-02 0.  1.
       -2    1    3    3    0  502  0.28052608997E+03 -0.30120565600E+03 -0.15924770584E+03  0.44133838059E+03  0.25500000920E-02 0. -1.
</event>
<event>
 5   0  0.3657529E-04  0.1099913E+04  0.7818609E-02  0.9205276E-01
       -1   -1    0    0    0  501  0.00000000000E+00  0.00000000000E+00  0.79020606000E+03  0.79020606001E+03  0.50400001928E-02 0. -1.
        1   -1    0    0  501    0  0.00000000000E+00  0.00000000000E+00 -0.38275129195E+03  0.38275129198E+03  0.50400001928E-02 0.  1.
    10030    2    1    2    0    0  0.00000000000E+00  0.00000000000E+00  0.40745476805E+03  0.11729573520E+04  0.10999134337E+04 0.  0.
        4    1    3    3  502    0 -0.26848703037E+03  0.10869987553E+03 -0.29481140109E+03  0.41329931470E+03  0.12699999809E+01 0.  1.
       -4    1    3    3    0  502  0.26848703037E+03 -0.10869987553E+03  0.70226616914E+03  0.75965803730E+03  0.12699999809E+01 0. -1.
</event>
<event>
 5   0  0.6264830E-04  0.1099989E+04  0.7818609E-02  0.9205202E-01
       -2   -1    0    0    0  501  0.00000000000E+00  0.00000000000E+00  0.63579275600E+03  0.63579275601E+03  0.25500000920E-02 0. -1.
        2   -1    0    0  501    0  0.00000000000E+00  0.00000000000E+00 -0.47577482150E+03  0.47577482150E+03  0.25500000920E-02 0.  1.
    10030    2    1    2    0    0  0.00000000000E+00  0.00000000000E+00  0.16001793451E+03  0.11115675775E+04  0.10999894272E+04 0.  0.
        4    1    3    3  502    0  0.52965141465E+02 -0.69591131761E+02  0.62872008229E+03  0.63477459511E+03  0.12699999809E+01 0. -1.
       -4    1    3    3    0  502 -0.52965141465E+02  0.69591131761E+02 -0.46870214778E+03  0.47679298240E+03  0.12699999809E+01 0.  1.
</event>
<event>
 5   0  0.5948818E-04  0.1099641E+04  0.7818609E-02  0.9205542E-01
       -2   -1    0    0    0  501  0.00000000000E+00  0.00000000000E+00  0.72888438858E+03  0.72888438859E+03  0.25500000920E-02 0. -1.
        2   -1    0    0  501    0  0.00000000000E+00  0.00000000000E+00 -0.41474694040E+03  0.41474694040E+03  0.25500000920E-02 0.  1.
    10030    2    1    2    0    0  0.00000000000E+00  0.00000000000E+00  0.31413744819E+03  0.11436313290E+04  0.10996409779E+04 0.  0.
        3    1    3    3  502    0  0.28171519536E+03 -0.46154265047E+03  0.26063921210E+03  0.60026484037E+03  0.10100000352E+00 0. -1.
       -3    1    3    3    0  502 -0.28171519536E+03  0.46154265047E+03  0.53498236091E+02  0.54336648863E+03  0.10100000352E+00 0.  1.
</event>
<event>
 5   0  0.3423758E-04  0.1099963E+04  0.7818609E-02  0.9205228E-01
       -1   -1    0    0    0  501  0.00000000000E+00  0.00000000000E+00  0.35386856104E+03  0.35386856107E+03  0.50400001928E-02 0. -1.
        1   -1    0    0  501    0  0.00000000000E+00  0.00000000000E+00 -0.85477971136E+03  0.85477971138E+03  0.50400001928E-02 0.  1.
    10030    2    1    2    0    0  0.00000000000E+00  0.00000000000E+00 -0.50091115032E+03  0.12086482724E+04  0.10999630294E+04 0.  0.
        1    1    3    3  502    0 -0.12471285453E+03  0.48921822252E+03 -0.10744348620E+02  0.50497842170E+03  0.50400001928E-02 0.  1.
       -1    1    3    3    0  502  0.12471285453E+03 -0.48921822252E+03 -0.49016680170E+03  0.70366985075E+03  0.50400001928E-02 0. -1.
</event>
<event>
 5   0  0.3423758E-04  0.1115681E+04  0.7818609E-02  0.9190042E-01
        1   -1    0    0  501    0  0.00000000000E+00  0.00000000000E+00  0.72050070000E+03  0.72050070002E+03  0.50400001928E-02 0. -1.
       -1   -1    0    0    0  501  0.00000000000E+00  0.00000000000E+00 -0.43190224754E+03  0.43190224757E+03  0.50400001928E-02 0.  1.
    10030    2    1    2    0    0  0.00000000000E+00  0.00000000000E+00  0.28859845246E+03  0.11524029476E+04  0.11156807280E+04 0.  0.
        1    1    3    3  502    0 -0.36860737941E+03  0.32888390343E+03 -0.12336291710E+03  0.50917033637E+03  0.50400001928E-02 0.  1.
       -1    1    3    3    0  502  0.36860737941E+03 -0.32888390343E+03  0.41196136956E+03  0.64323261122E+03  0.50400001928E-02 0. -1.
</event>
<event>
 5   0  0.3642161E-04  0.1099118E+04  0.7818609E-02  0.9206052E-01
        1   -1    0    0  501    0  0.00000000000E+00  0.00000000000E+00  0.89605935842E+03  0.89605935844E+03  0.50400001928E-02 0. -1.
       -1   -1    0    0    0  501  0.00000000000E+00  0.00000000000E+00 -0.33704803195E+03  0.33704803198E+03  0.50400001928E-02 0.  1.
    10030    2    1    2    0    0  0.00000000000E+00  0.00000000000E+00  0.55901132648E+03  0.12331073904E+04  0.10991179069E+04 0.  0.
        2    1    3    3  502    0 -0.45740850390E+03  0.26167763841E+03  0.45445586550E+03  0.69586482853E+03  0.25500000920E-02 0. -1.
       -2    1    3    3    0  502  0.45740850390E+03 -0.26167763841E+03  0.10455546097E+03  0.53724256189E+03  0.25500000920E-02 0.  1.
</event>
<event>
 5   0  0.3642161E-04  0.1102004E+04  0.7818609E-02  0.9203241E-01
        1   -1    0    0  501    0  0.00000000000E+00  0.00000000000E+00  0.47011609592E+03  0.47011609595E+03  0.50400001928E-02 0.  1.
       -1   -1    0    0    0  501  0.00000000000E+00  0.00000000000E+00 -0.64580482589E+03  0.64580482591E+03  0.50400001928E-02 0. -1.
    10030    2    1    2    0    0  0.00000000000E+00  0.00000000000E+00 -0.17568872997E+03  0.11159209219E+04  0.11020040717E+04 0.  0.
        2    1    3    3  502    0 -0.39212071006E+03 -0.78162258413E+02  0.29606779724E+03  0.49751796999E+03  0.25500000920E-02 0.  1.
       -2    1    3    3    0  502  0.39212071006E+03  0.78162258413E+02 -0.47175652721E+03  0.61840295186E+03  0.25500000920E-02 0. -1.
</event>
<event>
 5   0  0.6245176E-04  0.1095595E+04  0.7818609E-02  0.9209496E-01
        2   -1    0    0  501    0  0.00000000000E+00  0.00000000000E+00  0.47493544563E+03  0.47493544563E+03  0.25500000920E-02 0. -1.
       -2   -1    0    0    0  501  0.00000000000E+00  0.00000000000E+00 -0.63183758154E+03  0.63183758154E+03  0.25500000920E-02 0.  1.
    10030    2    1    2    0    0  0.00000000000E+00  0.00000000000E+00 -0.15690213591E+03  0.11067730272E+04  0.10955949313E+04 0.  0.
        5    1    3    3  502    0  0.22979942959E+03  0.77495723434E+02  0.41772882424E+03  0.48304536597E+03  0.46999998093E+01 0. -1.
       -5    1    3    3    0  502 -0.22979942959E+03 -0.77495723434E+02 -0.57463096015E+03  0.62372766120E+03  0.46999998093E+01 0.  1.
</event>
<event>
 5   0  0.3523525E-04  0.1112284E+04  0.7818609E-02  0.9193301E-01
        1   -1    0    0  501    0  0.00000000000E+00  0.00000000000E+00  0.14926502708E+04  0.14926502709E+04  0.50400001928E-02 0.  1.
       -1   -1    0    0    0  501  0.00000000000E+00  0.00000000000E+00 -0.20721117463E+03  0.20721117469E+03  0.50400001928E-02 0. -1.
    10030    2    1    2    0    0  0.00000000000E+00  0.00000000000E+00  0.12854390962E+04  0.16998614455E+04  0.11122838055E+04 0.  0.
        5    1    3    3  502    0 -0.68123368071E+02  0.29575152402E+03  0.13548995834E+04  0.13884828873E+04  0.46999998093E+01 0.  1.
       -5    1    3    3    0  502  0.68123368071E+02 -0.29575152402E+03 -0.69460487200E+02  0.31137855822E+03  0.46999998093E+01 0. -1.
</event>
<event>
 5   0  0.3621403E-04  0.1100556E+04  0.7818609E-02  0.9204650E-01
        1   -1    0    0  501    0  0.00000000000E+00  0.00000000000E+00  0.65550948609E+03  0.65550948611E+03  0.50400001928E-02 0. -1.
       -1   -1    0    0    0  501  0.00000000000E+00  0.00000000000E+00 -0.46193959671E+03  0.46193959673E+03  0.50400001928E-02 0.  1.
    10030    2    1    2    0    0  0.00000000000E+00  0.00000000000E+00  0.19356988938E+03  0.11174490828E+04  0.11005558371E+04 0.  0.
        3    1    3    3  502    0  0.28226118448E+03 -0.99897239808E+02  0.56555878235E+03  0.63992779381E+03  0.10100000352E+00 0. -1.
       -3    1    3    3    0  502 -0.28226118448E+03  0.99897239808E+02 -0.37198889297E+03  0.47752128903E+03  0.10100000352E+00 0.  1.
</event>
<event>
 5   0  0.3621403E-04  0.1098290E+04  0.7818609E-02  0.9206860E-01
       -1   -1    0    0    0  501  0.00000000000E+00  0.00000000000E+00  0.82439481844E+03  0.82439481845E+03  0.50400001928E-02 0.  1.
        1   -1    0    0  501    0  0.00000000000E+00  0.00000000000E+00 -0.36579600457E+03  0.36579600461E+03  0.50400001928E-02 0. -1.
    10030    2    1    2    0    0  0.00000000000E+00  0.00000000000E+00  0.45859881387E+03  0.11901908231E+04  0.10982901817E+04 0.  0.
        3    1    3    3  502    0 -0.31813034112E+03 -0.35490276289E+03 -0.66282930437E+02  0.48120299471E+03  0.10100000352E+00 0. -1.
       -3    1    3    3    0  502  0.31813034112E+03  0.35490276289E+03  0.52488174430E+03  0.70898782835E+03  0.10100000352E+00 0.  1.
</event>
<event>
 5   0  0.3657529E-04  0.1101423E+04  0.7818609E-02  0.9203806E-01
       -1   -1    0    0    0  501  0.00000000000E+00  0.00000000000E+00  0.70790025980E+03  0.70790025982E+03  0.50400001928E-02 0.  1.
        1   -1    0    0  501    0  0.00000000000E+00  0.00000000000E+00 -0.42842653462E+03  0.42842653465E+03  0.50400001928E-02 0. -1.
    10030    2    1    2    0    0  0.00000000000E+00  0.00000000000E+00  0.27947372518E+03  0.11363267945E+04  0.11014231797E+04 0.  0.
        4    1    3    3  502    0 -0.37121662060E+03 -0.40678417271E+03  0.13710661722E+03  0.56751650193E+03  0.12699999809E+01 0. -1.
       -4    1    3    3    0  502  0.37121662060E+03  0.40678417271E+03  0.14236710796E+03  0.56881029254E+03  0.12699999809E+01 0.  1.
</event>
<event>
 5   0  0.6412712E-04  0.1102079E+04  0.7818609E-02  0.9203168E-01
        2   -1    0    0  501    0  0.00000000000E+00  0.00000000000E+00  0.19270476983E+04  0.19270476983E+04  0.25500000920E-02 0.  1.
       -2   -1    0    0    0  501  0.00000000000E+00  0.00000000000E+00 -0.15756978878E+03  0.15756978880E+03  0.25500000920E-02 0. -1.
    10030    2    1    2    0    0  0.00000000000E+00  0.00000000000E+00  0.17694779096E+04  0.20846174872E+04  0.11020789424E+04 0.  0.
        2    1    3    3  502    0 -0.42410319518E+03  0.32000110678E+03  0.60815927584E+03  0.80754066975E+03  0.25500000920E-02 0. -1.
       -2    1    3    3    0  502  0.42410319518E+03 -0.32000110678E+03  0.11613186337E+04  0.12770768174E+04  0.25500000920E-02 0.  1.
</event>
<event>
 5   0  0.6109149E-04  0.1100919E+04  0.7818609E-02  0.9204297E-01
       -2   -1    0    0    0  501  0.00000000000E+00  0.00000000000E+00  0.38871756901E+03  0.38871756902E+03  0.25500000920E-02 0. -1.
        2   -1    0    0  501    0  0.00000000000E+00  0.00000000000E+00 -0.77950037871E+03  0.77950037871E+03  0.25500000920E-02 0.  1.
    10030    2    1    2    0    0  0.00000000000E+00  0.00000000000E+00 -0.39078280969E+03  0.11682179477E+04  0.11009186932E+04 0.  0.
        1    1    3    3  502    0  0.89508770223E+02 -0.51758426330E+03 -0.37007611661E+03  0.64254308936E+03  0.50400001928E-02 0.  1.
       -1    1    3    3    0  502 -0.89508770223E+02  0.51758426330E+03 -0.20706693080E+02  0.52567485838E+03  0.50400001928E-02 0. -1.
</event>
<event>
 5   0  0.3523525E-04  0.1099616E+04  0.7818609E-02  0.9205566E-01
       -1   -1    0    0    0  501  0.00000000000E+00  0.00000000000E+00  0.26784327556E+03  0.26784327561E+03  0.50400001928E-02 0. -1.
        1   -1    0    0  501    0  0.00000000000E+00  0.00000000000E+00 -0.11286034117E+04  0.11286034118E+04  0.50400001928E-02 0.  1.
    10030    2    1    2    0    0  0.00000000000E+00  0.00000000000E+00 -0.86076013618E+03  0.13964466874E+04  0.10996159960E+04 0.  0.
        5    1    3    3  502    0  0.39178252671E+03  0.12732166588E+03 -0.89275414121E+03  0.98322754309E+03  0.46999998093E+01 0.  1.
       -5    1    3    3    0  502 -0.39178252671E+03 -0.12732166588E+03  0.31994005032E+02  0.41321914428E+03  0.46999998093E+01 0. -1.
</event>
<event>
 5   0  0.3642161E-04  0.1097568E+04  0.7818609E-02  0.9207566E-01
       -1   -1    0    0    0  501  0.00000000000E+00  0.00000000000E+00  0.95417350351E+03  0.95417350352E+03  0.50400001928E-02 0. -1.
        1   -1    0    0  501    0  0.00000000000E+00  0.00000000000E+00 -0.31562774850E+03  0.31562774854E+03  0.50400001928E-02 0.  1.
    10030    2    1    2    0    0  0.00000000000E+00  0.00000000000E+00  0.63854575500E+03  0.12698012521E+04  0.10975675553E+04 0.  0.
        2    1    3    3  502    0  0.68103519833E+02  0.92583195129E+02 -0.30154751025E+03  0.32270828682E+03  0.25500000920E-02 0.  1.
       -2    1    3    3    0  502 -0.68103519833E+02 -0.92583195129E+02  0.94009326526E+03  0.94709296525E+03  0.25500000920E-02 0. -1.
</event>
<event>
 5   0  0.3621403E-04  0.1098060E+04  0.7818609E-02  0.9207085E-01
        1   -1    0    0  501    0  0.00000000000E+00  0.00000000000E+00  0.31246389058E+03  0.31246389062E+03  0.50400001928E-02 0. -1.
       -1   -1    0    0    0  501  0.00000000000E+00  0.00000000000E+00 -0.96469979259E+03  0.96469979261E+03  0.50400001928E-02 0.  1.
    10030    2    1    2    0    0  0.00000000000E+00  0.00000000000E+00 -0.65223590202E+03  0.12771636832E+04  0.10980598353E+04 0.  0.
        3    1    3    3  502    0  0.49871928081E+02  0.18575953077E+03 -0.92423220365E+03  0.94403336220E+03  0.10100000352E+00 0.  1.
       -3    1    3    3    0  502 -0.49871928081E+02 -0.18575953077E+03  0.27199630163E+03  0.33313032102E+03  0.10100000352E+00 0. -1.
</event>
<event>
 5   0  0.6412712E-04  0.1101331E+04  0.7818609E-02  0.9203895E-01
        2   -1    0    0  501    0  0.00000000000E+00  0.00000000000E+00  0.18490567057E+04  0.18490567057E+04  0.25500000920E-02 0.  1.
       -2   -1    0    0    0  501  0.00000000000E+00  0.00000000000E+00 -0.16399321262E+03  0.16399321264E+03  0.25500000920E-02 0. -1.
    10030    2    1    2    0    0  0.00000000000E+00  0.00000000000E+00  0.16850634930E+04  0.20130499183E+04  0.11013314660E+04 0.  0.
        2    1    3    3  502    0 -0.50286789982E+03  0.15336241576E+03  0.11419651156E+04  0.12571716194E+04  0.25500000920E-02 0.  1.
       -2    1    3    3    0  502  0.50286789982E+03 -0.15336241576E+03  0.54309837739E+03  0.75587829891E+03  0.25500000920E-02 0. -1.
</event>
<event>
 5   0  0.6109149E-04  0.1099794E+04  0.7818609E-02  0.9205392E-01
       -2   -1    0    0    0  501  0.00000000000E+00  0.00000000000E+00  0.54144874762E+03  0.54144874763E+03  0.25500000920E-02 0.  1.
        2   -1    0    0  501    0  0.00000000000E+00  0.00000000000E+00 -0.55847743963E+03  0.55847743964E+03  0.25500000920E-02 0. -1.
    10030    2    1    2    0    0  0.00000000000E+00  0.00000000000E+00 -0.17028692006E+02  0.10999261873E+04  0.10997943631E+04 0.  0.
        1    1    3    3  502    0  0.28949691951E+03  0.25622802116E+03  0.38258961375E+03  0.54390815199E+03  0.50400001928E-02 0.  1.
       -1    1    3    3    0  502 -0.28949691951E+03 -0.25622802116E+03 -0.39961830575E+03  0.55601803527E+03  0.50400001928E-02 0. -1.
</event>
<event>
 5   0  0.3423758E-04  0.1100563E+04  0.7818609E-02  0.9204643E-01
        1   -1    0    0  501    0  0.00000000000E+00  0.00000000000E+00  0.19988493258E+04  0.19988493258E+04  0.50400001928E-02 0. -1.
       -1   -1    0    0    0  501  0.00000000000E+00  0.00000000000E+00 -0.15149197576E+03  0.15149197585E+03  0.50400001928E-02 0.  1.
    10030    2    1    2    0    0  0.00000000000E+00  0.00000000000E+00  0.18473573500E+04  0.21503413017E+04  0.11005628264E+04 0.  0.
        1    1    3    3  502    0 -0.26928617395E+03 -0.20415411032E+03  0.75120807156E+02  0.34617492679E+03  0.50400001928E-02 0.  1.
       -1    1    3    3    0  502  0.26928617395E+03  0.20415411032E+03  0.17722365429E+04  0.18041663749E+04  0.50400001928E-02 0. -1.
</event>
<event>
 5   0  0.6412712E-04  0.1099622E+04  0.7818609E-02  0.9205560E-01
        2   -1    0    0  501    0  0.00000000000E+00  0.00000000000E+00  0.11344590631E+04  0.11344590631E+04  0.25500000920E-02 0. -1.
       -2   -1    0    0    0  501  0.00000000000E+00  0.00000000000E+00 -0.26646380491E+03  0.26646380493E+03  0.25500000920E-02 0.  1.
    10030    2    1    2    0    0  0.00000000000E+00  0.00000000000E+00  0.86799525817E+03  0.14009228680E+04  0.10996222597E+04 0.  0.
        2    1    3    3  502    0  0.48280243490E+03  0.25077839446E+03  0.53515291766E+03  0.76313605573E+03  0.25500000920E-02 0.  1.
       -2    1    3    3    0  502 -0.48280243490E+03 -0.25077839446E+03  0.33284234051E+03  0.63778681228E+03  0.25500000920E-02 0. -1.
</event>
<event>
 5   0  0.3657529E-04  0.1099784E+04  0.7818609E-02  0.9205403E-01
       -1   -1    0    0    0  501  0.00000000000E+00  0.00000000000E+00  0.11452684965E+03  0.11452684976E+03  0.50400001928E-02 0. -1.
        1   -1    0    0  501    0  0.00000000000E+00  0.00000000000E+00 -0.26402634992E+04  0.26402634992E+04  0.50400001928E-02 0.  1.
    10030    2    1    2    0    0  0.00000000000E+00  0.00000000000E+00 -0.25257366495E+04  0.27547903490E+04  0.10997837260E+04 0.  0.
        4    1    3    3  502    0 -0.87656435585E+02  0.27204536993E+03 -0.24395791576E+04  0.24562655421E+04  0.12699999809E+01 0.  1.
       -4    1    3    3    0  502  0.87656435585E+02 -0.27204536993E+03 -0.86157491896E+02  0.29852480686E+03  0.12699999809E+01 0. -1.
</event>
<event>
 5   0  0.2403875E-04  0.1100185E+04  0.7818609E-02  0.9205012E-01
       -3   -1    0    0    0  501  0.00000000000E+00  0.00000000000E+00  0.74717157839E+03  0.74717158522E+03  0.10100000352E+00 0. -1.
        3   -1    0    0  501    0  0.00000000000E+00  0.00000000000E+00 -0.40499634982E+03  0.40499636242E+03  0.10100000352E+00 0.  1.
    10030    2    1    2    0    0  0.00000000000E+00  0.00000000000E+00  0.34217522857E+03  0.11521679476E+04  0.11001850265E+04 0.  0.
        4    1    3    3  502    0  0.43791421586E+03 -0.19036662059E+03  0.45710718294E+03  0.66102715548E+03  0.12699999809E+01 0. -1.
       -4    1    3    3    0  502 -0.43791421586E+03  0.19036662059E+03 -0.11493195437E+03  0.49114079216E+03  0.12699999809E+01 0.  1.
</event>
<event>
 5   0  0.3621403E-04  0.1099649E+04  0.7818609E-02  0.9205534E-01
       -1   -1    0    0    0  501  0.00000000000E+00  0.00000000000E+00  0.63918266453E+03  0.63918266455E+03  0.50400001928E-02 0.  1.
        1   -1    0    0  501    0  0.00000000000E+00  0.00000000000E+00 -0.47295889853E+03  0.47295889855E+03  0.50400001928E-02 0. -1.
    10030    2    1    2    0    0  0.00000000000E+00  0.00000000000E+00  0.16622376600E+03  0.11121415631E+04  0.10996492695E+04 0.  0.
        3    1    3    3  502    0  0.27599894143E+03 -0.37364122990E+03 -0.21437924013E+03  0.51160693227E+03  0.10100000352E+00 0. -1.
       -3    1    3    3    0  502 -0.27599894143E+03  0.37364122990E+03  0.38060300613E+03  0.60053463083E+03  0.10100000352E+00 0.  1.
</event>
<event>
 5   0  0.6245176E-04  0.1106670E+04  0.7818609E-02  0.9198715E-01
        2   -1    0    0  501    0  0.00000000000E+00  0.00000000000E+00  0.12685092003E+04  0.12685092003E+04  0.25500000920E-02 0. -1.
       -2   -1    0    0    0  501  0.00000000000E+00  0.00000000000E+00 -0.24136954215E+03  0.24136954216E+03  0.25500000920E-02 0.  1.
    10030    2    1    2    0    0  0.00000000000E+00  0.00000000000E+00  0.10271396581E+04  0.15098787424E+04  0.11066697518E+04 0.  0.
        5    1    3    3  502    0 -0.89513183966E+02  0.72841524383E+02 -0.22473959560E+03  0.25268255501E+03  0.46999998093E+01 0.  1.
       -5    1    3    3    0  502  0.89513183966E+02 -0.72841524383E+02  0.12518792537E+04  0.12571961874E+04  0.46999998093E+01 0. -1.
</event>
<event>
 5   0  0.6412712E-04  0.1115315E+04  0.7818609E-02  0.9190392E-01
        2   -1    0    0  501    0  0.00000000000E+00  0.00000000000E+00  0.11899789638E+04  0.11899789638E+04  0.25500000920E-02 0. -1.
       -2   -1    0    0    0  501  0.00000000000E+00  0.00000000000E+00 -0.26133411206E+03  0.26133411208E+03  0.25500000920E-02 0.  1.
    10030    2    1    2    0    0  0.00000000000E+00  0.00000000000E+00  0.92864485169E+03  0.14513130758E+04  0.11153153740E+04 0.  0.
        2    1    3    3  502    0  0.23973172594E+03 -0.27165751882E+03  0.10159591259E+04  0.10786297110E+04  0.25500000920E-02 0. -1.
       -2    1    3    3    0  502 -0.23973172594E+03  0.27165751882E+03 -0.87314274188E+02  0.37268336485E+03  0.25500000920E-02 0.  1.
</event>
<event>
 5   0  0.3523525E-04  0.1102108E+04  0.7818609E-02  0.9203139E-01
       -1   -1    0    0    0  501  0.00000000000E+00  0.00000000000E+00  0.77831838962E+03  0.77831838963E+03  0.50400001928E-02 0.  1.
        1   -1    0    0  501    0  0.00000000000E+00  0.00000000000E+00 -0.39014963851E+03  0.39014963854E+03  0.50400001928E-02 0. -1.
    10030    2    1    2    0    0  0.00000000000E+00  0.00000000000E+00  0.38816875111E+03  0.11684680282E+04  0.11021082313E+04 0.  0.
        5    1    3    3  502    0 -0.12321443477E+02 -0.23147790763E+02 -0.38946649120E+03  0.39037658223E+03  0.46999998093E+01 0. -1.
       -5    1    3    3    0  502  0.12321443477E+02  0.23147790763E+02  0.77763524230E+03  0.77809144595E+03  0.46999998093E+01 0.  1.
</event>
<event>
 5   0  0.3523525E-04  0.1098475E+04  0.7818609E-02  0.9206680E-01
        1   -1    0    0  501    0  0.00000000000E+00  0.00000000000E+00  0.26507087550E+04  0.26507087550E+04  0.50400001928E-02 0. -1.
       -1   -1    0    0    0  501  0.00000000000E+00  0.00000000000E+00 -0.11380418443E+03  0.11380418454E+03  0.50400001928E-02 0.  1.
    10030    2    1    2    0    0  0.00000000000E+00  0.00000000000E+00  0.25369045705E+04  0.27645129395E+04  0.10984748485E+04 0.  0.
        5    1    3    3  502    0 -0.23162752882E+03  0.13761201954E+02  0.15662329563E+02  0.23261143857E+03  0.46999998093E+01 0.  1.
       -5    1    3    3    0  502  0.23162752882E+03 -0.13761201954E+02  0.25212422410E+04  0.25319015009E+04  0.46999998093E+01 0. -1.
</event>
<event>
 5   0  0.3642161E-04  0.1104709E+04  0.7818609E-02  0.9200614E-01
        1   -1    0    0  501    0  0.00000000000E+00  0.00000000000E+00  0.10369721783E+04  0.10369721783E+04  0.50400001928E-02 0.  1.
       -1   -1    0    0    0  501  0.00000000000E+00  0.00000000000E+00 -0.29421759819E+03  0.29421759823E+03  0.50400001928E-02 0. -1.
    10030    2    1    2    0    0  0.00000000000E+00  0.00000000000E+00  0.74275458013E+03  0.13311897766E+04  0.11047089458E+04 0.  0.
        2    1    3    3  502    0  0.14123765635E+03  0.40261826013E+02  0.10130134548E+04  0.10236040982E+04  0.25500000920E-02 0.  1.
       -2    1    3    3    0  502 -0.14123765635E+03 -0.40261826013E+02 -0.27025887466E+03  0.30758567838E+03  0.25500000920E-02 0. -1.
</event>
<event>
 5   0  0.3423758E-04  0.1102882E+04  0.7818609E-02  0.9202387E-01
        1   -1    0    0  501    0  0.00000000000E+00  0.00000000000E+00  0.10089252902E+04  0.10089252902E+04  0.50400001928E-02 0.  1.
       -1   -1    0    0    0  501  0.00000000000E+00  0.00000000000E+00 -0.30139710243E+03  0.30139710247E+03  0.50400001928E-02 0. -1.
    10030    2    1    2    0    0  0.00000000000E+00  0.00000000000E+00  0.70752818777E+03  0.13103223927E+04  0.11028819684E+04 0.  0.
        1    1    3    3  502    0 -0.40100463189E+03  0.19145283559E+03  0.74172260113E+03  0.86464519897E+03  0.50400001928E-02 0. -1.
       -1    1    3    3    0  502  0.40100463189E+03 -0.19145283559E+03 -0.34194413367E+02  0.44567719370E+03  0.50400001928E-02 0.  1.
</event>
<event>
 5   0  0.6412712E-04  0.1099830E+04  0.7818609E-02  0.9205357E-01
       -2   -1    0    0    0  501  0.00000000000E+00  0.00000000000E+00  0.45180238342E+03  0.45180238343E+03  0.25500000920E-02 0. -1.
        2   -1    0    0  501    0  0.00000000000E+00  0.00000000000E+00 -0.66933399863E+03  0.66933399864E+03  0.25500000920E-02 0.  1.
    10030    2    1    2    0    0  0.00000000000E+00  0.00000000000E+00 -0.21753161521E+03  0.11211363821E+04  0.10998303431E+04 0.  0.
        2    1    3    3  502    0  0.35114623560E+03 -0.10790355171E+03 -0.52591180971E+03  0.64150610819E+03  0.25500000920E-02 0.  1.
       -2    1    3    3    0  502 -0.35114623560E+03  0.10790355171E+03  0.30838019450E+03  0.47963027387E+03  0.25500000920E-02 0. -1.
</event>
<event>
 5   0  0.3423758E-04  0.1099809E+04  0.7818609E-02  0.9205378E-01
        1   -1    0    0  501    0  0.00000000000E+00  0.00000000000E+00  0.30660864274E+03  0.30660864278E+03  0.50400001928E-02 0.  1.
       -1   -1    0    0    0  501  0.00000000000E+00  0.00000000000E+00 -0.98625750823E+03  0.98625750824E+03  0.50400001928E-02 0. -1.
    10030    2    1    2    0    0  0.00000000000E+00  0.00000000000E+00 -0.67964886549E+03  0.12928661510E+04  0.10998092126E+04 0.  0.
        1    1    3    3  502    0  0.15280667214E+03 -0.34041862749E+03  0.13501145233E+03  0.39681584303E+03  0.50400001928E-02 0. -1.
       -1    1    3    3    0  502 -0.15280667214E+03  0.34041862749E+03 -0.81466031782E+03  0.89605030799E+03  0.50400001928E-02 0.  1.
</event>
<event>
 5   0  0.2403875E-04  0.1099789E+04  0.7818609E-02  0.9205398E-01
       -3   -1    0    0    0  501  0.00000000000E+00  0.00000000000E+00  0.37288064691E+03  0.37288066058E+03  0.10100000352E+00 0.  1.
        3   -1    0    0  501    0  0.00000000000E+00  0.00000000000E+00 -0.81094002145E+03  0.81094002773E+03  0.10100000352E+00 0. -1.
    10030    2    1    2    0    0  0.00000000000E+00  0.00000000000E+00 -0.43805937454E+03  0.11838206883E+04  0.10997888008E+04 0.  0.
        5    1    3    3  502    0 -0.47473359375E+03 -0.91848634641E+02  0.62803272150E+02  0.48762126462E+03  0.46999998093E+01 0. -1.
       -5    1    3    3    0  502  0.47473359375E+03  0.91848634641E+02 -0.50086264669E+03  0.69619942370E+03  0.46999998093E+01 0.  1.
</event>
<event>
 5   0  0.6245176E-04  0.1081685E+04  0.7818609E-02  0.9223229E-01
       -2   -1    0    0    0  501  0.00000000000E+00  0.00000000000E+00  0.26571671727E+03  0.26571671728E+03  0.25500000920E-02 0. -1.
        2   -1    0    0  501    0  0.00000000000E+00  0.00000000000E+00 -0.11008364664E+04  0.11008364664E+04  0.25500000920E-02 0.  1.
    10030    2    1    2    0    0  0.00000000000E+00  0.00000000000E+00 -0.83511974909E+03  0.13665531837E+04  0.10816850782E+04 0.  0.
        5    1    3    3  502    0 -0.15642986749E+03 -0.90418722842E+02  0.22643286455E+03  0.28972362870E+03  0.46999998093E+01 0. -1.
       -5    1    3    3    0  502  0.15642986749E+03  0.90418722842E+02 -0.10615526136E+04  0.10768295549E+04  0.46999998093E+01 0.  1.
</event>
<event>
 5   0  0.3621403E-04  0.1098873E+04  0.7818609E-02  0.9206291E-01
       -1   -1    0    0    0  501  0.00000000000E+00  0.00000000000E+00  0.29948838260E+03  0.29948838264E+03  0.50400001928E-02 0.  1.
        1   -1    0    0  501    0  0.00000000000E+00  0.00000000000E+00 -0.10079874112E+04  0.10079874113E+04  0.50400001928E-02 0. -1.
    10030    2    1    2    0    0  0.00000000000E+00  0.00000000000E+00 -0.70849902864E+03  0.13074757939E+04  0.10988730946E+04 0.  0.
        3    1    3    3  502    0 -0.28861184271E+03  0.36416766403E+02 -0.90884143540E+03  0.95426188310E+03  0.10100000352E+00 0. -1.
       -3    1    3    3    0  502  0.28861184271E+03 -0.36416766403E+02  0.20034240677E+03  0.35321391080E+03  0.10100000352E+00 0.  1.
</event>
<event>
 5   0  0.3523525E-04  0.1100302E+04  0.7818609E-02  0.9204897E-01
       -1   -1    0    0    0  501  0.00000000000E+00  0.00000000000E+00  0.61362695338E+03  0.61362695340E+03  0.50400001928E-02 0.  1.
        1   -1    0    0  501    0  0.00000000000E+00  0.00000000000E+00 -0.49324145757E+03  0.49324145760E+03  0.50400001928E-02 0. -1.
    10030    2    1    2    0    0  0.00000000000E+00  0.00000000000E+00  0.12038549581E+03  0.11068684110E+04  0.11003022365E+04 0.  0.
        5    1    3    3  502    0  0.47204326163E+03 -0.18544213359E+02  0.34378897725E+03  0.58427876872E+03  0.46999998093E+01 0.  1.
       -5    1    3    3    0  502 -0.47204326163E+03  0.18544213359E+02 -0.22340348144E+03  0.52258964228E+03  0.46999998093E+01 0. -1.
</event>
<event>
 5   0  0.3523525E-04  0.1100603E+04  0.7818609E-02  0.9204604E-01
       -1   -1    0    0    0  501  0.00000000000E+00  0.00000000000E+00  0.22561269907E+03  0.22561269913E+03  0.50400001928E-02 0. -1.
        1   -1    0    0  501    0  0.00000000000E+00  0.00000000000E+00 -0.13422649231E+04  0.13422649231E+04  0.50400001928E-02 0.  1.
    10030    2    1    2    0    0  0.00000000000E+00  0.00000000000E+00 -0.11166522240E+04  0.15678776223E+04  0.11006034930E+04 0.  0.
        5    1    3    3  502    0  0.21993945203E+03 -0.50321219954E+03 -0.50868995933E+03  0.74858763351E+03  0.46999998093E+01 0. -1.
       -5    1    3    3    0  502 -0.21993945203E+03  0.50321219954E+03 -0.60796226472E+03  0.81928998874E+03  0.46999998093E+01 0.  1.
</event>
<event>
 5   0  0.6412712E-04  0.1100366E+04  0.7818609E-02  0.9204836E-01
        2   -1    0    0  501    0  0.00000000000E+00  0.00000000000E+00  0.32951983469E+03  0.32951983470E+03  0.25500000920E-02 0. -1.
       -2   -1    0    0    0  501  0.00000000000E+00  0.00000000000E+00 -0.91861289246E+03  0.91861289247E+03  0.25500000920E-02 0.  1.
    10030    2    1    2    0    0  0.00000000000E+00  0.00000000000E+00 -0.58909305777E+03  0.12481327272E+04  0.11003657001E+04 0.  0.
        2    1    3    3  502    0 -0.26983430234E+02 -0.52064994367E+03 -0.49392569182E+03  0.71816924078E+03  0.25500000920E-02 0.  1.
       -2    1    3    3    0  502  0.26983430234E+02  0.52064994367E+03 -0.95167365946E+02  0.52996348639E+03  0.25500000920E-02 0. -1.
</event>
<event>
 5   0  0.3523525E-04  0.1095844E+04  0.7818609E-02  0.9209252E-01
        1   -1    0    0  501    0  0.00000000000E+00  0.00000000000E+00  0.46282525831E+03  0.46282525834E+03  0.50400001928E-02 0.  1.
       -1   -1    0    0    0  501  0.00000000000E+00  0.00000000000E+00 -0.64866459801E+03  0.64866459803E+03  0.50400001928E-02 0. -1.
    10030    2    1    2    0    0  0.00000000000E+00  0.00000000000E+00 -0.18583933970E+03  0.11114898564E+04  0.10958437118E+04 0.  0.
        5    1    3    3  502    0 -0.40276629855E+03 -0.13624593043E+03  0.25757547554E+03  0.49714269622E+03  0.46999998093E+01 0.  1.
       -5    1    3    3    0  502  0.40276629855E+03  0.13624593043E+03 -0.44341481524E+03  0.61434716015E+03  0.46999998093E+01 0. -1.
</event>
<event>
 5   0  0.3423758E-04  0.1099495E+04  0.7818609E-02  0.9205685E-01
       -1   -1    0    0    0  501  0.00000000000E+00  0.00000000000E+00  0.50567878862E+03  0.50567878865E+03  0.50400001928E-02 0. -1.
        1   -1    0    0  501    0  0.00000000000E+00  0.00000000000E+00 -0.59765618464E+03  0.59765618467E+03  0.50400001928E-02 0.  1.
    10030    2    1    2    0    0  0.00000000000E+00  0.00000000000E+00 -0.91977396023E+02  0.11033349733E+04  0.10994945302E+04 0.  0.
        1    1    3    3  502    0 -0.46432825277E+03 -0.17146421849E+03  0.19405668916E+03  0.53165656507E+03  0.50400001928E-02 0.  1.
       -1    1    3    3    0  502  0.46432825277E+03  0.17146421849E+03 -0.28603408518E+03  0.57167840825E+03  0.50400001928E-02 0. -1.
</event>
<event>
 5   0  0.6412712E-04  0.1113543E+04  0.7818609E-02  0.9192091E-01
       -2   -1    0    0    0  501  0.00000000000E+00  0.00000000000E+00  0.43621253630E+03  0.43621253631E+03  0.25500000920E-02 0.  1.
        2   -1    0    0  501    0  0.00000000000E+00  0.00000000000E+00 -0.71065028055E+03  0.71065028055E+03  0.25500000920E-02 0. -1.
    10030    2    1    2    0    0  0.00000000000E+00  0.00000000000E+00 -0.27443774425E+03  0.11468628169E+04  0.11135431043E+04 0.  0.
        2    1    3    3  502    0 -0.49928965065E+03 -0.73088118551E+01 -0.39086216172E+03  0.63412680392E+03  0.25500000920E-02 0. -1.
       -2    1    3    3    0  502  0.49928965065E+03  0.73088118551E+01  0.11642441747E+03  0.51273601294E+03  0.25500000920E-02 0.  1.
</event>
<event>
 5   0  0.2403875E-04  0.1100083E+04  0.7818609E-02  0.9205111E-01
       -4   -1    0    0    0  501  0.00000000000E+00  0.00000000000E+00  0.11358385785E+04  0.11358392885E+04  0.12699999809E+01 0.  1.
        4   -1    0    0  501    0  0.00000000000E+00  0.00000000000E+00 -0.26636109548E+03  0.26636412312E+03  0.12699999809E+01 0. -1.
    10030    2    1    2    0    0  0.00000000000E+00  0.00000000000E+00  0.86947748306E+03  0.14022034117E+04  0.11000833214E+04 0.  0.
        5    1    3    3  502    0 -0.30104043462E+03  0.28158163252E+03  0.89890532423E+03  0.98892185281E+03  0.46999998093E+01 0.  1.
       -5    1    3    3    0  502  0.30104043462E+03 -0.28158163252E+03 -0.29427841172E+02  0.41328155885E+03  0.46999998093E+01 0. -1.
</event>
<event>
 5   0  0.3642161E-04  0.1099300E+04  0.7818609E-02  0.9205874E-01
       -1   -1    0    0    0  501  0.00000000000E+00  0.00000000000E+00  0.28444678813E+03  0.28444678817E+03  0.50400001928E-02 0.  1.
        1   -1    0    0  501    0  0.00000000000E+00  0.00000000000E+00 -0.10621151666E+04  0.10621151666E+04  0.50400001928E-02 0. -1.
    10030    2    1    2    0    0  0.00000000000E+00  0.00000000000E+00 -0.77766837849E+03  0.13465619548E+04  0.10993002280E+04 0.  0.
        2    1    3    3  502    0  0.42292685340E+03  0.33422391623E+03 -0.52043541409E+03  0.74928350426E+03  0.25500000920E-02 0.  1.
       -2    1    3    3    0  502 -0.42292685340E+03 -0.33422391623E+03 -0.25723296440E+03  0.59727845055E+03  0.25500000920E-02 0. -1.
</event>
<event>
 5   0  0.3657529E-04  0.1099283E+04  0.7818609E-02  0.9205891E-01
       -1   -1    0    0    0  501  0.00000000000E+00  0.00000000000E+00  0.92078140668E+03  0.92078140669E+03  0.50400001928E-02 0.  1.
        1   -1    0    0  501    0  0.00000000000E+00  0.00000000000E+00 -0.32809727970E+03  0.32809727973E+03  0.50400001928E-02 0. -1.
    10030    2    1    2    0    0  0.00000000000E+00  0.00000000000E+00  0.59268412698E+03  0.12488786864E+04  0.10992831751E+04 0.  0.
        4    1    3    3  502    0 -0.12421216070E+03 -0.52473591322E+03  0.17542603115E+03  0.56705585685E+03  0.12699999809E+01 0.  1.
       -4    1    3    3    0  502  0.12421216070E+03  0.52473591322E+03  0.41725809583E+03  0.68182282957E+03  0.12699999809E+01 0. -1.
</event>
<event>
 5   0  0.3657529E-04  0.1100304E+04  0.7818609E-02  0.9204896E-01
       -1   -1    0    0    0  501  0.00000000000E+00  0.00000000000E+00  0.59984696568E+03  0.59984696570E+03  0.50400001928E-02 0. -1.
        1   -1    0    0  501    0  0.00000000000E+00  0.00000000000E+00 -0.50457394601E+03  0.50457394604E+03  0.50400001928E-02 0.  1.
    10030    2    1    2    0    0  0.00000000000E+00  0.00000000000E+00  0.95273019663E+02  0.11044209117E+04  0.11003038680E+04 0.  0.
        4    1    3    3  502    0 -0.25988000862E+03  0.47119029358E+03  0.16255343613E+03  0.56212378009E+03  0.12699999809E+01 0. -1.
       -4    1    3    3    0  502  0.25988000862E+03 -0.47119029358E+03 -0.67280416463E+02  0.54229713164E+03  0.12699999809E+01 0.  1.
</event>
<event>
 5   0  0.3523525E-04  0.1100314E+04  0.7818609E-02  0.9204886E-01
        1   -1    0    0  501    0  0.00000000000E+00  0.00000000000E+00  0.61193129099E+03  0.61193129101E+03  0.50400001928E-02 0.  1.
       -1   -1    0    0    0  501  0.00000000000E+00  0.00000000000E+00 -0.49461849249E+03  0.49461849252E+03  0.50400001928E-02 0. -1.
    10030    2    1    2    0    0  0.00000000000E+00  0.00000000000E+00  0.11731279850E+03  0.11065497835E+04  0.11003136511E+04 0.  0.
        5    1    3    3  502    0 -0.37724799015E+03  0.37665594956E+03 -0.77998590389E+02  0.53878717553E+03  0.46999998093E+01 0. -1.
       -5    1    3    3    0  502  0.37724799015E+03 -0.37665594956E+03  0.19531138889E+03  0.56776260800E+03  0.46999998093E+01 0.  1.
</event>
<event>
 5   0  0.3621403E-04  0.1101834E+04  0.7818609E-02  0.9203406E-01
       -1   -1    0    0    0  501  0.00000000000E+00  0.00000000000E+00  0.37125222001E+03  0.37125222004E+03  0.50400001928E-02 0.  1.
        1   -1    0    0  501    0  0.00000000000E+00  0.00000000000E+00 -0.81752988955E+03  0.81752988957E+03  0.50400001928E-02 0. -1.
    10030    2    1    2    0    0  0.00000000000E+00  0.00000000000E+00 -0.44627766955E+03  0.11887821096E+04  0.11018344457E+04 0.  0.
        3    1    3    3  502    0 -0.14895170726E+02  0.10125539406E+03 -0.80718321885E+03  0.81364567223E+03  0.10100000352E+00 0. -1.
       -3    1    3    3    0  502  0.14895170726E+02 -0.10125539406E+03  0.36090554930E+03  0.37513643739E+03  0.10100000352E+00 0.  1.
</event>
<event>
 5   0  0.6245176E-04  0.1101424E+04  0.7818609E-02  0.9203805E-01
       -2   -1    0    0    0  501  0.00000000000E+00  0.00000000000E+00  0.61778222252E+03  0.61778222253E+03  0.25500000920E-02 0. -1.
        2   -1    0    0  501    0  0.00000000000E+00  0.00000000000E+00 -0.49092340807E+03  0.49092340808E+03  0.25500000920E-02 0.  1.
    10030    2    1    2    0    0  0.00000000000E+00  0.00000000000E+00  0.12685881445E+03  0.11087056306E+04  0.11014240857E+04 0.  0.
        5    1    3    3  502    0 -0.32320555344E+02  0.29666901270E+02  0.61600011246E+03  0.61757831234E+03  0.46999998093E+01 0. -1.
       -5    1    3    3    0  502  0.32320555344E+02 -0.29666901270E+02 -0.48914129801E+03  0.49112731826E+03  0.46999998093E+01 0.  1.
</event>
<event>
 5   0  0.3523525E-04  0.1099227E+04  0.7818609E-02  0.9205946E-01
       -1   -1    0    0    0  501  0.00000000000E+00  0.00000000000E+00  0.59610921955E+03  0.59610921957E+03  0.50400001928E-02 0. -1.
        1   -1    0    0  501    0  0.00000000000E+00  0.00000000000E+00 -0.50674401718E+03  0.50674401721E+03  0.50400001928E-02 0.  1.
    10030    2    1    2    0    0  0.00000000000E+00  0.00000000000E+00  0.89365202369E+02  0.11028532368E+04  0.10992266020E+04 0.  0.
        5    1    3    3  502    0 -0.44905392346E+03  0.16559736865E+03  0.31572343853E+03  0.57338930433E+03  0.46999998093E+01 0. -1.
       -5    1    3    3    0  502  0.44905392346E+03 -0.16559736865E+03 -0.22635823616E+03  0.52946393245E+03  0.46999998093E+01 0.  1.
</event>
<event>
 5   0  0.6109149E-04  0.1100623E+04  0.7818609E-02  0.9204585E-01
       -2   -1    0    0    0  501  0.00000000000E+00  0.00000000000E+00  0.71826529717E+03  0.71826529717E+03  0.25500000920E-02 0. -1.
        2   -1    0    0  501    0  0.00000000000E+00  0.00000000000E+00 -0.42163072831E+03  0.42163072831E+03  0.25500000920E-02 0.  1.
    10030    2    1    2    0    0  0.00000000000E+00  0.00000000000E+00  0.29663456886E+03  0.11398960255E+04  0.11006229515E+04 0.  0.
        1    1    3    3  502    0 -0.83650380414E+02 -0.53485796085E+03  0.45934961449E+02  0.54330511237E+03  0.50400001928E-02 0.  1.
       -1    1    3    3    0  502  0.83650380414E+02  0.53485796085E+03  0.25069960741E+03  0.59659091311E+03  0.50400001928E-02 0. -1.
</event>
<event>
 5   0  0.3621403E-04  0.1100216E+04  0.7818609E-02  0.9204982E-01
        1   -1    0    0  501    0  0.00000000000E+00  0.00000000000E+00  0.54678810605E+03  0.54678810607E+03  0.50400001928E-02 0. -1.
       -1   -1    0    0    0  501  0.00000000000E+00  0.00000000000E+00 -0.55344784307E+03  0.55344784309E+03  0.50400001928E-02 0.  1.
    10030    2    1    2    0    0  0.00000000000E+00  0.00000000000E+00 -0.66597370178E+01  0.11002359492E+04  0.11002157933E+04 0.  0.
        3    1    3    3  502    0 -0.38452097253E+03  0.16068776786E+03 -0.36242104793E+03  0.55229155637E+03  0.10100000352E+00 0.  1.
       -3    1    3    3    0  502  0.38452097253E+03 -0.16068776786E+03  0.35576131091E+03  0.54794439280E+03  0.10100000352E+00 0. -1.
</event>
<event>
 5   0  0.3642161E-04  0.1098188E+04  0.7818609E-02  0.9206960E-01
       -1   -1    0    0    0  501  0.00000000000E+00  0.00000000000E+00  0.53419820303E+03  0.53419820306E+03  0.50400001928E-02 0.  1.
        1   -1    0    0  501    0  0.00000000000E+00  0.00000000000E+00 -0.56440534374E+03  0.56440534377E+03  0.50400001928E-02 0. -1.
    10030    2    1    2    0    0  0.00000000000E+00  0.00000000000E+00 -0.30207140711E+02  0.10986035468E+04  0.10981881814E+04 0.  0.
        2    1    3    3  502    0 -0.35882982975E+03 -0.30715448004E+03  0.26500519007E+03  0.54159991885E+03  0.25500000920E-02 0.  1.
       -2    1    3    3    0  502  0.35882982975E+03  0.30715448004E+03 -0.29521233078E+03  0.55700362798E+03  0.25500000920E-02 0. -1.
</event>
<event>
 5   0  0.2403875E-04  0.1102324E+04  0.7818609E-02  0.9202930E-01
       -3   -1    0    0    0  501  0.00000000000E+00  0.00000000000E+00  0.48735811105E+03  0.48735812152E+03  0.10100000352E+00 0. -1.
        3   -1    0    0  501    0  0.00000000000E+00  0.00000000000E+00 -0.62331913301E+03  0.62331914119E+03  0.10100000352E+00 0.  1.
    10030    2    1    2    0    0  0.00000000000E+00  0.00000000000E+00 -0.13596102196E+03  0.11106772627E+04  0.11023241730E+04 0.  0.
        1    1    3    3  502    0  0.10589858792E+03  0.21909360261E+03 -0.56626118154E+03  0.61633452230E+03  0.50400001928E-02 0.  1.
       -1    1    3    3    0  502 -0.10589858792E+03 -0.21909360261E+03  0.43030015959E+03  0.49434274041E+03  0.50400001928E-02 0. -1.
</event>
<event>
 5   0  0.6109149E-04  0.1100529E+04  0.7818609E-02  0.9204676E-01
       -2   -1    0    0    0  501  0.00000000000E+00  0.00000000000E+00  0.42668099341E+03  0.42668099342E+03  0.25500000920E-02 0.  1.
        2   -1    0    0  501    0  0.00000000000E+00  0.00000000000E+00 -0.70964256545E+03  0.70964256546E+03  0.25500000920E-02 0. -1.
    10030    2    1    2    0    0  0.00000000000E+00  0.00000000000E+00 -0.28296157204E+03  0.11363235589E+04  0.11005289543E+04 0.  0.
        1    1    3    3  502    0 -0.48630307282E+03  0.25379633359E+03 -0.96619542882E+02  0.55699065851E+03  0.50400001928E-02 0.  1.
       -1    1    3    3    0  502  0.48630307282E+03 -0.25379633359E+03 -0.18634202916E+03  0.57933290036E+03  0.50400001928E-02 0. -1.
</event>
<event>
 5   0  0.5948818E-04  0.1097522E+04  0.7818609E-02  0.9207611E-01
        2   -1    0    0  501    0  0.00000000000E+00  0.00000000000E+00  0.98410165145E+03  0.98410165146E+03  0.25500000920E-02 0.  1.
       -2   -1    0    0    0  501  0.00000000000E+00  0.00000000000E+00 -0.30600348209E+03  0.30600348210E+03  0.25500000920E-02 0. -1.
    10030    2    1    2    0    0  0.00000000000E+00  0.00000000000E+00  0.67809816936E+03  0.12901051336E+04  0.10975218122E+04 0.  0.
        3    1    3    3  502    0 -0.12668079502E+03 -0.42780280757E+03  0.71460290295E+03  0.84244915876E+03  0.10100000352E+00 0.  1.
       -3    1    3    3    0  502  0.12668079502E+03  0.42780280757E+03 -0.36504733582E+02  0.44765597479E+03  0.10100000352E+00 0. -1.
</event>
<event>
 5   0  0.6109149E-04  0.1101265E+04  0.7818609E-02  0.9203960E-01
        2   -1    0    0  501    0  0.00000000000E+00  0.00000000000E+00  0.66800001779E+03  0.66800001780E+03  0.25500000920E-02 0. -1.
       -2   -1    0    0    0  501  0.00000000000E+00  0.00000000000E+00 -0.45388638696E+03  0.45388638697E+03  0.25500000920E-02 0.  1.
    10030    2    1    2    0    0  0.00000000000E+00  0.00000000000E+00  0.21411363083E+03  0.11218864048E+04  0.11012649356E+04 0.  0.
        1    1    3    3  502    0  0.62638304147E+01  0.54825063346E+03  0.15878280367E+03  0.57081518150E+03  0.50400001928E-02 0.  1.
       -1    1    3    3    0  502 -0.62638304147E+01 -0.54825063346E+03  0.55330827158E+02  0.55107122327E+03  0.50400001928E-02 0. -1.
</event>
<event>
 5   0  0.5948818E-04  0.1101214E+04  0.7818609E-02  0.9204010E-01
        2   -1    0    0  501    0  0.00000000000E+00  0.00000000000E+00  0.89474358774E+03  0.89474358774E+03  0.25500000920E-02 0.  1.
       -2   -1    0    0    0  501  0.00000000000E+00  0.00000000000E+00 -0.33883221835E+03  0.33883221836E+03  0.25500000920E-02 0. -1.
    10030    2    1    2    0    0  0.00000000000E+00  0.00000000000E+00  0.55591136938E+03  0.12335758061E+04  0.11012137934E+04 0.  0.
        3    1    3    3  502    0 -0.18140846563E+03  0.81793077130E+02 -0.29714145125E+03  0.35762017717E+03  0.10100000352E+00 0. -1.
       -3    1    3    3    0  502  0.18140846563E+03 -0.81793077130E+02  0.85305282063E+03  0.87595562893E+03  0.10100000352E+00 0.  1.
</event>
<event>
 5   0  0.6412712E-04  0.1100647E+04  0.7818609E-02  0.9204562E-01
        2   -1    0    0  501    0  0.00000000000E+00  0.00000000000E+00  0.38874086568E+03  0.38874086569E+03  0.25500000920E-02 0.  1.
       -2   -1    0    0    0  501  0.00000000000E+00  0.00000000000E+00 -0.77906858681E+03  0.77906858681E+03  0.25500000920E-02 0. -1.
    10030    2    1    2    0    0  0.00000000000E+00  0.00000000000E+00 -0.39032772113E+03  0.11678094525E+04  0.11006467133E+04 0.  0.
        2    1    3    3  502    0 -0.20303421080E+02  0.16760296106E+03 -0.75091294486E+03  0.76965786700E+03  0.25500000920E-02 0. -1.
       -2    1    3    3    0  502  0.20303421080E+02 -0.16760296106E+03  0.36058522373E+03  0.39815158551E+03  0.25500000920E-02 0.  1.
</event>
<event>
 5   0  0.6109149E-04  0.1099755E+04  0.7818609E-02  0.9205430E-01
        2   -1    0    0  501    0  0.00000000000E+00  0.00000000000E+00  0.89454830766E+03  0.89454830767E+03  0.25500000920E-02 0. -1.
       -2   -1    0    0    0  501  0.00000000000E+00  0.00000000000E+00 -0.33800912727E+03  0.33800912728E+03  0.25500000920E-02 0.  1.
    10030    2    1    2    0    0  0.00000000000E+00  0.00000000000E+00  0.55653918039E+03  0.12325574349E+04  0.10997554142E+04 0.  0.
        1    1    3    3  502    0 -0.48188194029E+03  0.86533559899E+02  0.55883318092E+03  0.74296216962E+03  0.50400001928E-02 0. -1.
       -1    1    3    3    0  502  0.48188194029E+03 -0.86533559899E+02 -0.22940005343E+01  0.48959526533E+03  0.50400001928E-02 0.  1.
</event>
<event>
 5   0  0.3523525E-04  0.1099714E+04  0.7818609E-02  0.9205471E-01
       -1   -1    0    0    0  501  0.00000000000E+00  0.00000000000E+00  0.60195028381E+03  0.60195028383E+03  0.50400001928E-02 0.  1.
        1   -1    0    0  501    0  0.00000000000E+00  0.00000000000E+00 -0.50227179397E+03  0.50227179400E+03  0.50400001928E-02 0. -1.
    10030    2    1    2    0    0  0.00000000000E+00  0.00000000000E+00  0.99678489841E+02  0.11042220778E+04  0.10997138700E+04 0.  0.
        5    1    3    3  502    0 -0.32731822181E+03  0.47705111159E+02  0.49085220361E+03  0.59192142363E+03  0.46999998093E+01 0.  1.
       -5    1    3    3    0  502  0.32731822181E+03 -0.47705111159E+02 -0.39117371377E+03  0.51230065421E+03  0.46999998093E+01 0. -1.
</event>
<event>
 5   0  0.3523525E-04  0.1099150E+04  0.7818609E-02  0.9206021E-01
       -1   -1    0    0    0  501  0.00000000000E+00  0.00000000000E+00  0.39007079973E+03  0.39007079976E+03  0.50400001928E-02 0.  1.
        1   -1    0    0  501    0  0.00000000000E+00  0.00000000000E+00 -0.77430195449E+03  0.77430195451E+03  0.50400001928E-02 0. -1.
    10030    2    1    2    0    0  0.00000000000E+00  0.00000000000E+00 -0.38423115476E+03  0.11643727543E+04  0.10991498217E+04 0.  0.
        5    1    3    3  502    0 -0.15753805613E+03 -0.36361683855E+03 -0.59546530852E+03  0.71528768202E+03  0.46999998093E+01 0. -1.
       -5    1    3    3    0  502  0.15753805613E+03  0.36361683855E+03  0.21123415376E+03  0.44908507225E+03  0.46999998093E+01 0.  1.
</event>
<event>
 5   0  0.6412712E-04  0.1101938E+04  0.7818609E-02  0.9203305E-01
        2   -1    0    0  501    0  0.00000000000E+00  0.00000000000E+00  0.75627042238E+03  0.75627042239E+03  0.25500000920E-02 0.  1.
       -2   -1    0    0    0  501  0.00000000000E+00  0.00000000000E+00 -0.40140016907E+03  0.40140016907E+03  0.25500000920E-02 0. -1.
    10030    2    1    2    0    0  0.00000000000E+00  0.00000000000E+00  0.35487025332E+03  0.11576705915E+04  0.11019384292E+04 0.  0.
        2    1    3    3  502    0  0.21633571788E+03  0.50669676895E+03  0.17225450504E+03  0.57724723733E+03  0.25500000920E-02 0. -1.
       -2    1    3    3    0  502 -0.21633571788E+03 -0.50669676895E+03  0.18261574828E+03  0.58042335413E+03  0.25500000920E-02 0.  1.
</event>
<event>
 5   0  0.3621403E-04  0.1102275E+04  0.7818609E-02  0.9202978E-01
       -1   -1    0    0    0  501  0.00000000000E+00  0.00000000000E+00  0.68374477449E+03  0.68374477451E+03  0.50400001928E-02 0. -1.
        1   -1    0    0  501    0  0.00000000000E+00  0.00000000000E+00 -0.44424820427E+03  0.44424820430E+03  0.50400001928E-02 0.  1.
    10030    2    1    2    0    0  0.00000000000E+00  0.00000000000E+00  0.23949657022E+03  0.11279929788E+04  0.11022747176E+04 0.  0.
        3    1    3    3  502    0 -0.33644697686E+03 -0.10426323877E+03  0.55353120345E+03  0.65609770201E+03  0.10100000352E+00 0. -1.
       -3    1    3    3    0  502  0.33644697686E+03  0.10426323877E+03 -0.31403463322E+03  0.47189527680E+03  0.10100000352E+00 0.  1.
</event>
<event>
 5   0  0.3523525E-04  0.1099342E+04  0.7818609E-02  0.9205834E-01
        1   -1    0    0  501    0  0.00000000000E+00  0.00000000000E+00  0.23815595337E+04  0.23815595337E+04  0.50400001928E-02 0.  1.
       -1   -1    0    0    0  501  0.00000000000E+00  0.00000000000E+00 -0.12686558654E+03  0.12686558664E+03  0.50400001928E-02 0. -1.
    10030    2    1    2    0    0  0.00000000000E+00  0.00000000000E+00  0.22546939471E+04  0.25084251203E+04  0.10993415252E+04 0.  0.
        5    1    3    3  502    0 -0.22003293250E+03 -0.94222622704E+02 -0.16558474291E+01  0.23941016236E+03  0.46999998093E+01 0. -1.
       -5    1    3    3    0  502  0.22003293250E+03  0.94222622704E+02  0.22563497945E+04  0.22690149579E+04  0.46999998093E+01 0.  1.
</event>
<event>
 5   0  0.6245176E-04  0.1101199E+04  0.7818609E-02  0.9204024E-01
       -2   -1    0    0    0  501  0.00000000000E+00  0.00000000000E+00  0.21970169856E+03  0.21970169858E+03  0.25500000920E-02 0. -1.
        2   -1    0    0  501    0  0.00000000000E+00  0.00000000000E+00 -0.13798696599E+04  0.13798696599E+04  0.25500000920E-02 0.  1.
    10030    2    1    2    0    0  0.00000000000E+00  0.00000000000E+00 -0.11601679614E+04  0.15995713585E+04  0.11011988160E+04 0.  0.
        5    1    3    3  502    0 -0.22142386863E+03 -0.46925656344E+03 -0.84756003713E+03  0.99378587154E+03  0.46999998093E+01 0.  1.
       -5    1    3    3    0  502  0.22142386863E+03  0.46925656344E+03 -0.31260792423E+03  0.60578548697E+03  0.46999998093E+01 0. -1.
</event>
<event>
 5   0  0.5948818E-04  0.1100068E+04  0.7818609E-02  0.9205125E-01
       -2   -1    0    0    0  501  0.00000000000E+00  0.00000000000E+00  0.56420186028E+03  0.56420186029E+03  0.25500000920E-02 0. -1.
        2   -1    0    0  501    0  0.00000000000E+00  0.00000000000E+00 -0.53622212419E+03  0.53622212420E+03  0.25500000920E-02 0.  1.
    10030    2    1    2    0    0  0.00000000000E+00  0.00000000000E+00  0.27979736089E+02  0.11004239845E+04  0.11000682161E+04 0.  0.
        3    1    3    3  502    0 -0.36439066964E+03 -0.38758135837E+03 -0.12583244609E+03  0.54665682487E+03  0.10100000352E+00 0.  1.
       -3    1    3    3    0  502  0.36439066964E+03  0.38758135837E+03  0.15381218218E+03  0.55376715962E+03  0.10100000352E+00 0. -1.
</event>
<event>
 5   0  0.3523525E-04  0.1099117E+04  0.7818609E-02  0.9206053E-01
        1   -1    0    0  501    0  0.00000000000E+00  0.00000000000E+00  0.96783599160E+03  0.96783599162E+03  0.50400001928E-02 0.  1.
       -1   -1    0    0    0  501  0.00000000000E+00  0.00000000000E+00 -0.31205129183E+03  0.31205129187E+03  0.50400001928E-02 0. -1.
    10030    2    1    2    0    0  0.00000000000E+00  0.00000000000E+00  0.65578469977E+03  0.12798872835E+04  0.10991168664E+04 0.  0.
        5    1    3    3  502    0  0.35461638712E+03  0.39579499564E+03  0.16492528268E+03  0.55644307836E+03  0.46999998093E+01 0. -1.
       -5    1    3    3    0  502 -0.35461638712E+03 -0.39579499564E+03  0.49085941709E+03  0.72344420513E+03  0.46999998093E+01 0.  1.
</event>
<event>
 5   0  0.6412712E-04  0.1097595E+04  0.7818609E-02  0.9207539E-01
        2   -1    0    0  501    0  0.00000000000E+00  0.00000000000E+00  0.11634209776E+04  0.11634209776E+04  0.25500000920E-02 0. -1.
       -2   -1    0    0    0  501  0.00000000000E+00  0.00000000000E+00 -0.25887319397E+03  0.25887319398E+03  0.25500000920E-02 0.  1.
    10030    2    1    2    0    0  0.00000000000E+00  0.00000000000E+00  0.90454778365E+03  0.14222941716E+04  0.10975946509E+04 0.  0.
        2    1    3    3  502    0  0.45879701985E+03  0.18976674651E+03  0.75526608738E+03  0.90384345229E+03  0.25500000920E-02 0. -1.
       -2    1    3    3    0  502 -0.45879701985E+03 -0.18976674651E+03  0.14928169627E+03  0.51845071931E+03  0.25500000920E-02 0.  1.
</event>
<event>
 5   0  0.3423758E-04  0.1100054E+04  0.7818609E-02  0.9205139E-01
       -1   -1    0    0    0  501  0.00000000000E+00  0.00000000000E+00  0.18825724064E+03  0.18825724071E+03  0.50400001928E-02 0.  1.
        1   -1    0    0  501    0  0.00000000000E+00  0.00000000000E+00 -0.16070023215E+04  0.16070023215E+04  0.50400001928E-02 0. -1.
    10030    2    1    2    0    0  0.00000000000E+00  0.00000000000E+00 -0.14187450808E+04  0.17952595622E+04  0.11000542220E+04 0.  0.
        1    1    3    3  502    0 -0.35705516611E+03  0.40188525444E+03 -0.89919902851E+03  0.10476445209E+04  0.50400001928E-02 0. -1.
       -1    1    3    3    0  502  0.35705516611E+03 -0.40188525444E+03 -0.51954605231E+03  0.74761504123E+03  0.50400001928E-02 0.  1.
</event>
<event>
 5   0  0.2403875E-04  0.1101210E+04  0.7818609E-02  0.9204013E-01
        3   -1    0    0  501    0  0.00000000000E+00  0.00000000000E+00  0.65447353311E+03  0.65447354091E+03  0.10100000352E+00 0.  1.
       -3   -1    0    0    0  501  0.00000000000E+00  0.00000000000E+00 -0.46322106378E+03  0.46322107479E+03  0.10100000352E+00 0. -1.
    10030    2    1    2    0    0  0.00000000000E+00  0.00000000000E+00  0.19125246933E+03  0.11176946157E+04  0.11012101284E+04 0.  0.
        2    1    3    3  502    0  0.11411860704E+03 -0.42703078208E+03  0.42885105720E+03  0.61586652335E+03  0.25500000920E-02 0. -1.
       -2    1    3    3    0  502 -0.11411860704E+03  0.42703078208E+03 -0.23759858786E+03  0.50182809235E+03  0.25500000920E-02 0.  1.
</event>
<event>
 5   0  0.5948818E-04  0.1106487E+04  0.7818609E-02  0.9198893E-01
       -2   -1    0    0    0  501  0.00000000000E+00  0.00000000000E+00  0.41705496870E+03  0.41705496871E+03  0.25500000920E-02 0. -1.
        2   -1    0    0  501    0  0.00000000000E+00  0.00000000000E+00 -0.73390359575E+03  0.73390359576E+03  0.25500000920E-02 0.  1.
    10030    2    1    2    0    0  0.00000000000E+00  0.00000000000E+00 -0.31684862705E+03  0.11509585645E+04  0.11064865858E+04 0.  0.
        3    1    3    3  502    0 -0.62322109898E+02 -0.51262643235E+03 -0.36491809649E+03  0.63232517890E+03  0.10100000352E+00 0. -1.
       -3    1    3    3    0  502  0.62322109898E+02  0.51262643235E+03  0.48069469443E+02  0.51863338556E+03  0.10100000352E+00 0.  1.
</event>
<event>
 5   0  0.3642161E-04  0.1102116E+04  0.7818609E-02  0.9203132E-01
       -1   -1    0    0    0  501  0.00000000000E+00  0.00000000000E+00  0.64659810443E+03  0.64659810445E+03  0.50400001928E-02 0.  1.
        1   -1    0    0  501    0  0.00000000000E+00  0.00000000000E+00 -0.46963482654E+03  0.46963482657E+03  0.50400001928E-02 0. -1.
    10030    2    1    2    0    0  0.00000000000E+00  0.00000000000E+00  0.17696327789E+03  0.11162329310E+04  0.11021161257E+04 0.  0.
        2    1    3    3  502    0 -0.47808191297E+03  0.14925912696E+03 -0.14429784632E+03  0.52121250076E+03  0.25500000920E-02 0. -1.
       -2    1    3    3    0  502  0.47808191297E+03 -0.14925912696E+03  0.32126112421E+03  0.59502043026E+03  0.25500000920E-02 0.  1.
</event>
<event>
 5   0  0.3621403E-04  0.1100430E+04  0.7818609E-02  0.9204773E-01
        1   -1    0    0  501    0  0.00000000000E+00  0.00000000000E+00  0.81374633269E+03  0.81374633271E+03  0.50400001928E-02 0. -1.
       -1   -1    0    0    0  501  0.00000000000E+00  0.00000000000E+00 -0.37202807025E+03  0.37202807029E+03  0.50400001928E-02 0.  1.
    10030    2    1    2    0    0  0.00000000000E+00  0.00000000000E+00  0.44171826244E+03  0.11857744030E+04  0.11004298757E+04 0.  0.
        3    1    3    3  502    0  0.48207225190E+03 -0.26224270818E+03  0.26357675253E+03  0.60880013857E+03  0.10100000352E+00 0.  1.
       -3    1    3    3    0  502 -0.48207225190E+03  0.26224270818E+03  0.17814150991E+03  0.57697426442E+03  0.10100000352E+00 0. -1.
</event>
<event>
 5   0  0.3523525E-04  0.1100841E+04  0.7818609E-02  0.9204372E-01
       -1   -1    0    0    0  501  0.00000000000E+00  0.00000000000E+00  0.29165480542E+03  0.29165480547E+03  0.50400001928E-02 0.  1.
        1   -1    0    0  501    0  0.00000000000E+00  0.00000000000E+00 -0.10387720668E+04  0.10387720668E+04  0.50400001928E-02 0. -1.
    10030    2    1    2    0    0  0.00000000000E+00  0.00000000000E+00 -0.74711726136E+03  0.13304268723E+04  0.11008412511E+04 0.  0.
        5    1    3    3  502    0  0.53746234199E+03 -0.10808605560E+03 -0.43267178997E+03  0.69840914392E+03  0.46999998093E+01 0. -1.
       -5    1    3    3    0  502 -0.53746234199E+03  0.10808605560E+03 -0.31444547140E+03  0.63201772835E+03  0.46999998093E+01 0.  1.
</event>
<event>
 5   0  0.3642161E-04  0.1100950E+04  0.7818609E-02  0.9204266E-01
       -1   -1    0    0    0  501  0.00000000000E+00  0.00000000000E+00  0.51879597469E+03  0.51879597472E+03  0.50400001928E-02 0. -1.
        1   -1    0    0  501    0  0.00000000000E+00  0.00000000000E+00 -0.58408836600E+03  0.58408836602E+03  0.50400001928E-02 0.  1.
    10030    2    1    2    0    0  0.00000000000E+00  0.00000000000E+00 -0.65292391306E+02  0.11028843407E+04  0.11009499410E+04 0.  0.
        2    1    3    3  502    0  0.35086046476E+03 -0.39291103977E+03  0.12744868871E+03  0.54196431539E+03  0.25500000920E-02 0. -1.
       -2    1    3    3    0  502 -0.35086046476E+03  0.39291103977E+03 -0.19274108002E+03  0.56092002534E+03  0.25500000920E-02 0.  1.
</event>
<event>
 5   0  0.6264830E-04  0.1099563E+04  0.7818609E-02  0.9205618E-01
        2   -1    0    0  501    0  0.00000000000E+00  0.00000000000E+00  0.19540878208E+04  0.19540878208E+04  0.25500000920E-02 0. -1.
       -2   -1    0    0    0  501  0.00000000000E+00  0.00000000000E+00 -0.15468078246E+03  0.15468078249E+03  0.25500000920E-02 0.  1.
    10030    2    1    2    0    0  0.00000000000E+00  0.00000000000E+00  0.17994070383E+04  0.21087686033E+04  0.10995632463E+04 0.  0.
        4    1    3    3  502    0 -0.75031881650E+02 -0.12455033322E+03 -0.11713321050E+03  0.18672003286E+03  0.12699999809E+01 0.  1.
       -4    1    3    3    0  502  0.75031881650E+02  0.12455033322E+03  0.19165402488E+04  0.19220485704E+04  0.12699999809E+01 0. -1.
</event>
<event>
 5   0  0.3657529E-04  0.1100183E+04  0.7818609E-02  0.9205014E-01
        1   -1    0    0  501    0  0.00000000000E+00  0.00000000000E+00  0.85201689121E+03  0.85201689122E+03  0.50400001928E-02 0.  1.
       -1   -1    0    0    0  501  0.00000000000E+00  0.00000000000E+00 -0.35515787780E+03  0.35515787784E+03  0.50400001928E-02 0. -1.
    10030    2    1    2    0    0  0.00000000000E+00  0.00000000000E+00  0.49685901341E+03  0.12071747691E+04  0.11001827320E+04 0.  0.
        4    1    3    3  502    0  0.33444507841E+03  0.14644643451E+03 -0.20304403431E+03  0.41776615639E+03  0.12699999809E+01 0. -1.
       -4    1    3    3    0  502 -0.33444507841E+03 -0.14644643451E+03  0.69990304772E+03  0.78940861267E+03  0.12699999809E+01 0.  1.
</event>
<event>
 5   0  0.3621403E-04  0.1081169E+04  0.7818609E-02  0.9223742E-01
       -1   -1    0    0    0  501  0.00000000000E+00  0.00000000000E+00  0.32961950560E+03  0.32961950564E+03  0.50400001928E-02 0. -1.
        1   -1    0    0  501    0  0.00000000000E+00  0.00000000000E+00 -0.88657307850E+03  0.88657307852E+03  0.50400001928E-02 0.  1.
    10030    2    1    2    0    0  0.00000000000E+00  0.00000000000E+00 -0.55695357291E+03  0.12161925842E+04  0.10811693296E+04 0.  0.
        3    1    3    3  502    0 -0.18200880636E+03 -0.19637599774E+03 -0.80674360722E+03  0.85001529167E+03  0.10100000352E+00 0.  1.
       -3    1    3    3    0  502  0.18200880636E+03  0.19637599774E+03  0.24979003432E+03  0.36617729248E+03  0.10100000352E+00 0. -1.
</event>
<event>
 5   0  0.2403875E-04  0.1097325E+04  0.7818609E-02  0.9207803E-01
       -4   -1    0    0    0  501  0.00000000000E+00  0.00000000000E+00  0.71081185927E+03  0.71081299382E+03  0.12699999809E+01 0. -1.
        4   -1    0    0  501    0  0.00000000000E+00  0.00000000000E+00 -0.42349992429E+03  0.42350182853E+03  0.12699999809E+01 0.  1.
    10030    2    1    2    0    0  0.00000000000E+00  0.00000000000E+00  0.28731193499E+03  0.11343148224E+04  0.10973249146E+04 0.  0.
        4    1    3    3  502    0  0.53852691447E+03  0.80946107122E+02  0.74579987045E+02  0.54966107487E+03  0.12699999809E+01 0.  1.
       -4    1    3    3    0  502 -0.53852691447E+03 -0.80946107122E+02  0.21273194794E+03  0.58465374748E+03  0.12699999809E+01 0. -1.
</event>
<event>
 5   0  0.6109149E-04  0.1102132E+04  0.7818609E-02  0.9203116E-01
        2   -1    0    0  501    0  0.00000000000E+00  0.00000000000E+00  0.23975276704E+03  0.23975276705E+03  0.25500000920E-02 0. -1.
       -2   -1    0    0    0  501  0.00000000000E+00  0.00000000000E+00 -0.12666128218E+04  0.12666128218E+04  0.25500000920E-02 0.  1.
    10030    2    1    2    0    0  0.00000000000E+00  0.00000000000E+00 -0.10268600548E+04  0.15063655889E+04  0.11021323492E+04 0.  0.
        1    1    3    3  502    0  0.51640837713E+03 -0.16859142787E+03 -0.38687794050E+03  0.66691470399E+03  0.50400001928E-02 0. -1.
       -1    1    3    3    0  502 -0.51640837713E+03  0.16859142787E+03 -0.63998211431E+03  0.83945088491E+03  0.50400001928E-02 0.  1.
</event>
<event>
 5   0  0.5948818E-04  0.1088366E+04  0.7818609E-02  0.9216606E-01
        2   -1    0    0  501    0  0.00000000000E+00  0.00000000000E+00  0.13614947221E+04  0.13614947221E+04  0.25500000920E-02 0. -1.
       -2   -1    0    0    0  501  0.00000000000E+00  0.00000000000E+00 -0.21750731730E+03  0.21750731731E+03  0.25500000920E-02 0.  1.
    10030    2    1    2    0    0  0.00000000000E+00  0.00000000000E+00  0.11439874048E+04  0.15790020394E+04  0.10883658659E+04 0.  0.
        3    1    3    3  502    0  0.34749313259E+03  0.18139056211E+03  0.24364853970E+02  0.39274377084E+03  0.10100000352E+00 0.  1.
       -3    1    3    3    0  502 -0.34749313259E+03 -0.18139056211E+03  0.11196225508E+04  0.11862582686E+04  0.10100000352E+00 0. -1.
</event>
<event>
 5   0  0.5948818E-04  0.1099752E+04  0.7818609E-02  0.9205434E-01
       -2   -1    0    0    0  501  0.00000000000E+00  0.00000000000E+00  0.16588085011E+03  0.16588085013E+03  0.25500000920E-02 0. -1.
        2   -1    0    0  501    0  0.00000000000E+00  0.00000000000E+00 -0.18227758280E+04  0.18227758280E+04  0.25500000920E-02 0.  1.
    10030    2    1    2    0    0  0.00000000000E+00  0.00000000000E+00 -0.16568949778E+04  0.19886566781E+04  0.10997519792E+04 0.  0.
        3    1    3    3  502    0  0.40271073463E+03 -0.32634884855E+03 -0.11603247145E+04  0.12708394706E+04  0.10100000352E+00 0.  1.
       -3    1    3    3    0  502 -0.40271073463E+03  0.32634884855E+03 -0.49657026337E+03  0.71781720751E+03  0.10100000352E+00 0. -1.
</event>
<event>
 5   0  0.3657529E-04  0.1098505E+04  0.7818609E-02  0.9206650E-01
       -1   -1    0    0    0  501  0.00000000000E+00  0.00000000000E+00  0.41923095437E+03  0.41923095440E+03  0.50400001928E-02 0. -1.
        1   -1    0    0  501    0  0.00000000000E+00  0.00000000000E+00 -0.71959978113E+03  0.71959978115E+03  0.50400001928E-02 0.  1.
    10030    2    1    2    0    0  0.00000000000E+00  0.00000000000E+00 -0.30036882676E+03  0.11388307355E+04  0.10985053537E+04 0.  0.
        4    1    3    3  502    0  0.30830970542E+03 -0.44452583232E+03 -0.24863796367E+03  0.59538268360E+03  0.12699999809E+01 0. -1.
       -4    1    3    3    0  502 -0.30830970542E+03  0.44452583232E+03 -0.51730863094E+02  0.54344805194E+03  0.12699999809E+01 0.  1.
</event>
<event>
 5   0  0.6109149E-04  0.1100186E+04  0.7818609E-02  0.9205011E-01
       -2   -1    0    0    0  501  0.00000000000E+00  0.00000000000E+00  0.95124256746E+03  0.95124256747E+03  0.25500000920E-02 0.  1.
        2   -1    0    0  501    0  0.00000000000E+00  0.00000000000E+00 -0.31811262329E+03  0.31811262330E+03  0.25500000920E-02 0. -1.
    10030    2    1    2    0    0  0.00000000000E+00  0.00000000000E+00  0.63312994417E+03  0.12693551908E+04  0.11001859271E+04 0.  0.
        1    1    3    3  502    0  0.30393298955E+03  0.30697287943E+03  0.70951386691E+03  0.83067294298E+03  0.50400001928E-02 0.  1.
       -1    1    3    3    0  502 -0.30393298955E+03 -0.30697287943E+03 -0.76383922739E+02  0.43868224778E+03  0.50400001928E-02 0. -1.
</event>
<event>
 5   0  0.3642161E-04  0.1099473E+04  0.7818609E-02  0.9205706E-01
       -1   -1    0    0    0  501  0.00000000000E+00  0.00000000000E+00  0.21378577885E+03  0.21378577891E+03  0.50400001928E-02 0. -1.
        1   -1    0    0  501    0  0.00000000000E+00  0.00000000000E+00 -0.14136121331E+04  0.14136121331E+04  0.50400001928E-02 0.  1.
    10030    2    1    2    0    0  0.00000000000E+00  0.00000000000E+00 -0.11998263543E+04  0.16273979121E+04  0.10994729118E+04 0.  0.
        2    1    3    3  502    0 -0.23931980125E+03  0.48515688809E+03 -0.45519756144E+03  0.70700494573E+03  0.25500000920E-02 0. -1.
       -2    1    3    3    0  502  0.23931980125E+03 -0.48515688809E+03 -0.74462879284E+03  0.92039296633E+03  0.25500000920E-02 0.  1.
</event>
<event>
 5   0  0.3423758E-04  0.1091188E+04  0.7818609E-02  0.9213824E-01
       -1   -1    0    0    0  501  0.00000000000E+00  0.00000000000E+00  0.43522316756E+03  0.43522316758E+03  0.50400001928E-02 0. -1.
        1   -1    0    0  501    0  0.00000000000E+00  0.00000000000E+00 -0.68395413804E+03  0.68395413806E+03  0.50400001928E-02 0.  1.
    10030    2    1    2    0    0  0.00000000000E+00  0.00000000000E+00 -0.24873097049E+03  0.11191773056E+04  0.10911877683E+04 0.  0.
        1    1    3    3  502    0 -0.40873122719E+03  0.33265364948E+03 -0.26924391259E+03  0.59178708256E+03  0.50400001928E-02 0.  1.
       -1    1    3    3    0  502  0.40873122719E+03 -0.33265364948E+03  0.20512942107E+02  0.52739022309E+03  0.50400001928E-02 0. -1.
</event>
<event>
 5   0  0.3523525E-04  0.1099869E+04  0.7818609E-02  0.9205319E-01
        1   -1    0    0  501    0  0.00000000000E+00  0.00000000000E+00  0.35964931040E+03  0.35964931043E+03  0.50400001928E-02 0.  1.
       -1   -1    0    0    0  501  0.00000000000E+00  0.00000000000E+00 -0.84089715137E+03  0.84089715139E+03  0.50400001928E-02 0. -1.
    10030    2    1    2    0    0  0.00000000000E+00  0.00000000000E+00 -0.48124784097E+03  0.12005464618E+04  0.10998692297E+04 0.  0.
        5    1    3    3  502    0  0.28829486619E+03 -0.40225967997E+03 -0.50231765061E+03  0.70517507904E+03  0.46999998093E+01 0. -1.
       -5    1    3    3    0  502 -0.28829486619E+03  0.40225967997E+03  0.21069809631E+02  0.49537138278E+03  0.46999998093E+01 0.  1.
</event>
<event>
 5   0  0.6412712E-04  0.1100154E+04  0.7818609E-02  0.9205042E-01
       -2   -1    0    0    0  501  0.00000000000E+00  0.00000000000E+00  0.36027396912E+03  0.36027396913E+03  0.25500000920E-02 0.  1.
        2   -1    0    0  501    0  0.00000000000E+00  0.00000000000E+00 -0.83987430208E+03  0.83987430208E+03  0.25500000920E-02 0. -1.
    10030    2    1    2    0    0  0.00000000000E+00  0.00000000000E+00 -0.47960033296E+03  0.12001482712E+04  0.11001542590E+04 0.  0.
        2    1    3    3  502    0  0.71939747825E+02 -0.48231212076E+03  0.37862190964E+02  0.48911537970E+03  0.25500000920E-02 0. -1.
       -2    1    3    3    0  502 -0.71939747825E+02  0.48231212076E+03 -0.51746252392E+03  0.71103289152E+03  0.25500000920E-02 0.  1.
</event>
<event>
 5   0  0.6109149E-04  0.1099907E+04  0.7818609E-02  0.9205282E-01
       -2   -1    0    0    0  501  0.00000000000E+00  0.00000000000E+00  0.10542839823E+04  0.10542839823E+04  0.25500000920E-02 0. -1.
        2   -1    0    0  501    0  0.00000000000E+00  0.00000000000E+00 -0.28687629933E+03  0.28687629934E+03  0.25500000920E-02 0.  1.
    10030    2    1    2    0    0  0.00000000000E+00  0.00000000000E+00  0.76740768295E+03  0.13411602816E+04  0.10999074275E+04 0.  0.
        1    1    3    3  502    0 -0.52930262924E+03 -0.39489648383E+01  0.56567656657E+03  0.77470436015E+03  0.50400001928E-02 0. -1.
       -1    1    3    3    0  502  0.52930262924E+03  0.39489648383E+01  0.20173111638E+03  0.56645592148E+03  0.50400001928E-02 0.  1.
</event>
<event>
 5   0  0.5948818E-04  0.1098638E+04  0.7818609E-02  0.9206521E-01
       -2   -1    0    0    0  501  0.00000000000E+00  0.00000000000E+00  0.14280390745E+03  0.14280390747E+03  0.25500000920E-02 0.  1.
        2   -1    0    0  501    0  0.00000000000E+00  0.00000000000E+00 -0.21130451368E+04  0.21130451368E+04  0.25500000920E-02 0. -1.
    10030    2    1    2    0    0  0.00000000000E+00  0.00000000000E+00 -0.19702412293E+04  0.22558490442E+04  0.10986375238E+04 0.  0.
        3    1    3    3  502    0 -0.48087251646E+03  0.86204094342E+01 -0.44016597056E+03  0.65196532146E+03  0.10100000352E+00 0.  1.
       -3    1    3    3    0  502  0.48087251646E+03 -0.86204094342E+01 -0.15300752587E+04  0.16038837228E+04  0.10100000352E+00 0. -1.
</event>
<event>
 5   0  0.3523525E-04  0.1099689E+04  0.7818609E-02  0.9205495E-01
       -1   -1    0    0    0  501  0.00000000000E+00  0.00000000000E+00  0.31889431689E+03  0.31889431693E+03  0.50400001928E-02 0.  1.
        1   -1    0    0  501    0  0.00000000000E+00  0.00000000000E+00 -0.94805465038E+03  0.94805465039E+03  0.50400001928E-02 0. -1.
    10030    2    1    2    0    0  0.00000000000E+00  0.00000000000E+00 -0.62916033349E+03  0.12669489673E+04  0.10996894837E+04 0.  0.
        5    1    3    3  502    0  0.26599059702E+02 -0.16120595239E+03  0.29025680828E+03  0.33311555625E+03  0.46999998093E+01 0.  1.
       -5    1    3    3    0  502 -0.26599059702E+02  0.16120595239E+03 -0.91941714177E+03  0.93383341108E+03  0.46999998093E+01 0. -1.
</event>
<event>
 5   0  0.2403875E-04  0.1096485E+04  0.7818609E-02  0.9208625E-01
       -4   -1    0    0    0  501  0.00000000000E+00  0.00000000000E+00  0.57809320917E+03  0.57809460419E+03  0.12699999809E+01 0. -1.
        4   -1    0    0  501    0  0.00000000000E+00  0.00000000000E+00 -0.51993004791E+03  0.51993159898E+03  0.12699999809E+01 0.  1.
    10030    2    1    2    0    0  0.00000000000E+00  0.00000000000E+00  0.58163161261E+02  0.10980262032E+04  0.10964846508E+04 0.  0.
        4    1    3    3  502    0 -0.26338803539E+03 -0.46770092993E+03  0.14082078950E+03  0.55493200006E+03  0.12699999809E+01 0. -1.
       -4    1    3    3    0  502  0.26338803539E+03  0.46770092993E+03 -0.82657628240E+02  0.54309420311E+03  0.12699999809E+01 0.  1.
</event>
<event>
 5   0  0.6264830E-04  0.1101713E+04  0.7818609E-02  0.9203524E-01
        2   -1    0    0  501    0  0.00000000000E+00  0.00000000000E+00  0.25868791091E+04  0.25868791091E+04  0.25500000920E-02 0. -1.
       -2   -1    0    0    0  501  0.00000000000E+00  0.00000000000E+00 -0.11730082142E+03  0.11730082145E+03  0.25500000920E-02 0.  1.
    10030    2    1    2    0    0  0.00000000000E+00  0.00000000000E+00  0.24695782877E+04  0.27041799305E+04  0.11017132920E+04 0.  0.
        4    1    3    3  502    0  0.11873864222E+02 -0.41995090037E+03  0.21093078913E+04  0.21507396729E+04  0.12699999809E+01 0. -1.
       -4    1    3    3    0  502 -0.11873864222E+02  0.41995090037E+03  0.36027039635E+03  0.55344025763E+03  0.12699999809E+01 0.  1.
</event>
<event>
 5   0  0.6109149E-04  0.1100962E+04  0.7818609E-02  0.9204254E-01
        2   -1    0    0  501    0  0.00000000000E+00  0.00000000000E+00  0.13865370208E+04  0.13865370208E+04  0.25500000920E-02 0. -1.
       -2   -1    0    0    0  501  0.00000000000E+00  0.00000000000E+00 -0.21855138279E+03  0.21855138280E+03  0.25500000920E-02 0.  1.
    10030    2    1    2    0    0  0.00000000000E+00  0.00000000000E+00  0.11679856380E+04  0.16050884036E+04  0.11009624575E+04 0.  0.
        1    1    3    3  502    0 -0.22094071248E+03 -0.47970363063E+03  0.35767025022E+03  0.63785451287E+03  0.50400001928E-02 0.  1.
       -1    1    3    3    0  502  0.22094071248E+03  0.47970363063E+03  0.81031538782E+03  0.96723389076E+03  0.50400001928E-02 0. -1.
</event>
<event>
 5   0  0.3657529E-04  0.1101595E+04  0.7818609E-02  0.9203638E-01
        1   -1    0    0  501    0  0.00000000000E+00  0.00000000000E+00  0.61008312989E+03  0.61008312991E+03  0.50400001928E-02 0. -1.
       -1   -1    0    0    0  501  0.00000000000E+00  0.00000000000E+00 -0.49727334440E+03  0.49727334442E+03  0.50400001928E-02 0.  1.
    10030    2    1    2    0    0  0.00000000000E+00  0.00000000000E+00  0.11280978549E+03  0.11073564743E+04  0.11015953493E+04 0.  0.
        4    1    3    3  502    0  0.61780286223E+02  0.54712898984E+03  0.70955752985E+02  0.55516057773E+03  0.12699999809E+01 0.  1.
       -4    1    3    3    0  502 -0.61780286223E+02 -0.54712898984E+03  0.41854032508E+02  0.55219589660E+03  0.12699999809E+01 0. -1.
</event>
<event>
 5   0  0.3523525E-04  0.1099552E+04  0.7818609E-02  0.9205628E-01
        1   -1    0    0  501    0  0.00000000000E+00  0.00000000000E+00  0.10839686198E+04  0.10839686199E+04  0.50400001928E-02 0.  1.
       -1   -1    0    0    0  501  0.00000000000E+00  0.00000000000E+00 -0.27883996121E+03  0.27883996125E+03  0.50400001928E-02 0. -1.
    10030    2    1    2    0    0  0.00000000000E+00  0.00000000000E+00  0.80512865864E+03  0.13628085811E+04  0.10995522142E+04 0.  0.
        5    1    3    3  502    0  0.30549129150E+03 -0.40102405087E+03  0.67435240742E+03  0.84197296747E+03  0.46999998093E+01 0.  1.
       -5    1    3    3    0  502 -0.30549129150E+03  0.40102405087E+03  0.13077625122E+03  0.52083561364E+03  0.46999998093E+01 0. -1.
</event>
<event>
 5   0  0.6245176E-04  0.1100429E+04  0.7818609E-02  0.9204774E-01
        2   -1    0    0  501    0  0.00000000000E+00  0.00000000000E+00  0.40134109566E+03  0.40134109567E+03  0.25500000920E-02 0.  1.
       -2   -1    0    0    0  501  0.00000000000E+00  0.00000000000E+00 -0.75431037800E+03  0.75431037800E+03  0.25500000920E-02 0. -1.
    10030    2    1    2    0    0  0.00000000000E+00  0.00000000000E+00 -0.35296928233E+03  0.11556514737E+04  0.11004285594E+04 0.  0.
        5    1    3    3  502    0 -0.19502935071E+03  0.37948466579E+03  0.18832152402E+03  0.46640341510E+03  0.46999998093E+01 0.  1.
       -5    1    3    3    0  502  0.19502935071E+03 -0.37948466579E+03 -0.54129080635E+03  0.68924805857E+03  0.46999998093E+01 0. -1.
</event>
<event>
 5   0  0.6245176E-04  0.1093006E+04  0.7818609E-02  0.9212036E-01
        2   -1    0    0  501    0  0.00000000000E+00  0.00000000000E+00  0.43882177449E+03  0.43882177449E+03  0.25500000920E-02 0.  1.
       -2   -1    0    0    0  501  0.00000000000E+00  0.00000000000E+00 -0.68060790090E+03  0.68060790090E+03  0.25500000920E-02 0. -1.
    10030    2    1    2    0    0  0.00000000000E+00  0.00000000000E+00 -0.24178612641E+03  0.11194296754E+04  0.10930060692E+04 0.  0.
        5    1    3    3  502    0  0.30790313831E+02 -0.46774346700E+03  0.16680990551E+03  0.49757374220E+03  0.46999998093E+01 0.  1.
       -5    1    3    3    0  502 -0.30790313831E+02  0.46774346700E+03 -0.40859603192E+03  0.62185593320E+03  0.46999998093E+01 0. -1.
</event>
<event>
 5   0  0.6245176E-04  0.1099593E+04  0.7818609E-02  0.9205588E-01
       -2   -1    0    0    0  501  0.00000000000E+00  0.00000000000E+00  0.46375691296E+03  0.46375691297E+03  0.25500000920E-02 0. -1.
        2   -1    0    0  501    0  0.00000000000E+00  0.00000000000E+00 -0.65179905823E+03  0.65179905824E+03  0.25500000920E-02 0.  1.
    10030    2    1    2    0    0  0.00000000000E+00  0.00000000000E+00 -0.18804214527E+03  0.11155559712E+04  0.10995932323E+04 0.  0.
        5    1    3    3  502    0 -0.12573556145E+03 -0.37670726276E+03  0.29167745201E+03  0.49276324867E+03  0.46999998093E+01 0. -1.
       -5    1    3    3    0  502  0.12573556145E+03  0.37670726276E+03 -0.47971959728E+03  0.62279272254E+03  0.46999998093E+01 0.  1.
</event>
<event>
 5   0  0.6264830E-04  0.1104502E+04  0.7818609E-02  0.9200815E-01
        2   -1    0    0  501    0  0.00000000000E+00  0.00000000000E+00  0.66787385864E+03  0.66787385864E+03  0.25500000920E-02 0.  1.
       -2   -1    0    0    0  501  0.00000000000E+00  0.00000000000E+00 -0.45664518170E+03  0.45664518171E+03  0.25500000920E-02 0. -1.
    10030    2    1    2    0    0  0.00000000000E+00  0.00000000000E+00  0.21122867694E+03  0.11245190404E+04  0.11045023849E+04 0.  0.
        4    1    3    3  502    0 -0.38486807064E+03 -0.14405367634E+03  0.48122420600E+03  0.63281375049E+03  0.12699999809E+01 0. -1.
       -4    1    3    3    0  502  0.38486807064E+03  0.14405367634E+03 -0.26999552907E+03  0.49170528986E+03  0.12699999809E+01 0.  1.
</event>
<event>
 5   0  0.6264830E-04  0.1100014E+04  0.7818609E-02  0.9205178E-01
        2   -1    0    0  501    0  0.00000000000E+00  0.00000000000E+00  0.14615834911E+04  0.14615834911E+04  0.25500000920E-02 0. -1.
       -2   -1    0    0    0  501  0.00000000000E+00  0.00000000000E+00 -0.20697258337E+03  0.20697258339E+03  0.25500000920E-02 0.  1.
    10030    2    1    2    0    0  0.00000000000E+00  0.00000000000E+00  0.12546109078E+04  0.16685560745E+04  0.11000140199E+04 0.  0.
        4    1    3    3  502    0  0.76454582612E+02 -0.34676287351E+03 -0.98009144276E+01  0.35522874950E+03  0.12699999809E+01 0.  1.
       -4    1    3    3    0  502 -0.76454582612E+02  0.34676287351E+03  0.12644118222E+04  0.13133273250E+04  0.12699999809E+01 0. -1.
</event>
<event>
 5   0  0.3523525E-04  0.1104727E+04  0.7818609E-02  0.9200597E-01
        1   -1    0    0  501    0  0.00000000000E+00  0.00000000000E+00  0.17215787414E+04  0.17215787414E+04  0.50400001928E-02 0. -1.
       -1   -1    0    0    0  501  0.00000000000E+00  0.00000000000E+00 -0.17722407878E+03  0.17722407885E+03  0.50400001928E-02 0.  1.
    10030    2    1    2    0    0  0.00000000000E+00  0.00000000000E+00  0.15443546626E+04  0.18988028202E+04  0.11047265844E+04 0.  0.
        5    1    3    3  502    0 -0.26628610080E+03  0.40149902884E+03  0.30786819277E+03  0.57176452474E+03  0.46999998093E+01 0. -1.
       -5    1    3    3    0  502  0.26628610080E+03 -0.40149902884E+03  0.12364864698E+04  0.13270382955E+04  0.46999998093E+01 0.  1.
</event>
<event>
 5   0  0.5948818E-04  0.1098588E+04  0.7818609E-02  0.9206569E-01
        2   -1    0    0  501    0  0.00000000000E+00  0.00000000000E+00  0.92032345419E+03  0.92032345420E+03  0.25500000920E-02 0. -1.
       -2   -1    0    0    0  501  0.00000000000E+00  0.00000000000E+00 -0.32784539052E+03  0.32784539053E+03  0.25500000920E-02 0.  1.
    10030    2    1    2    0    0  0.00000000000E+00  0.00000000000E+00  0.59247806367E+03  0.12481688447E+04  0.10985878249E+04 0.  0.
        3    1    3    3  502    0 -0.16229176564E+03  0.50688831744E+02  0.88967426767E+03  0.90577496521E+03  0.10100000352E+00 0. -1.
       -3    1    3    3    0  502  0.16229176564E+03 -0.50688831744E+02 -0.29719620400E+03  0.34239387952E+03  0.10100000352E+00 0.  1.
</event>
<event>
 5   0  0.6412712E-04  0.1100465E+04  0.7818609E-02  0.9204739E-01
        2   -1    0    0  501    0  0.00000000000E+00  0.00000000000E+00  0.20674795861E+04  0.20674795861E+04  0.25500000920E-02 0.  1.
       -2   -1    0    0    0  501  0.00000000000E+00  0.00000000000E+00 -0.14643715942E+03  0.14643715944E+03  0.25500000920E-02 0. -1.
    10030    2    1    2    0    0  0.00000000000E+00  0.00000000000E+00  0.19210424267E+04  0.22139167455E+04  0.11004650613E+04 0.  0.
        2    1    3    3  502    0 -0.31202327888E+03  0.38886592143E+03  0.14288026661E+04  0.15132918721E+04  0.25500000920E-02 0.  1.
       -2    1    3    3    0  502  0.31202327888E+03 -0.38886592143E+03  0.49223976055E+03  0.70062487345E+03  0.25500000920E-02 0. -1.
</event>
<event>
 5   0  0.3423758E-04  0.1101451E+04  0.7818609E-02  0.9203779E-01
       -1   -1    0    0    0  501  0.00000000000E+00  0.00000000000E+00  0.46006026112E+03  0.46006026114E+03  0.50400001928E-02 0.  1.
        1   -1    0    0  501    0  0.00000000000E+00  0.00000000000E+00 -0.65925866501E+03  0.65925866503E+03  0.50400001928E-02 0. -1.
    10030    2    1    2    0    0  0.00000000000E+00  0.00000000000E+00 -0.19919840390E+03  0.11193189262E+04  0.11014512492E+04 0.  0.
        1    1    3    3  502    0  0.41125397311E+02  0.27476775401E+03 -0.58282325661E+03  0.64565591876E+03  0.50400001928E-02 0. -1.
       -1    1    3    3    0  502 -0.41125397311E+02 -0.27476775401E+03  0.38362485272E+03  0.47366300742E+03  0.50400001928E-02 0.  1.
</event>
<event>
 5   0  0.6245176E-04  0.1099136E+04  0.7818609E-02  0.9206034E-01
       -2   -1    0    0    0  501  0.00000000000E+00  0.00000000000E+00  0.79291564905E+03  0.79291564906E+03  0.25500000920E-02 0.  1.
        2   -1    0    0  501    0  0.00000000000E+00  0.00000000000E+00 -0.38090457239E+03  0.38090457240E+03  0.25500000920E-02 0. -1.
    10030    2    1    2    0    0  0.00000000000E+00  0.00000000000E+00  0.41201107666E+03  0.11738202215E+04  0.10991363814E+04 0.  0.
        5    1    3    3  502    0  0.33976907811E+03  0.41731261052E+03  0.32497637879E+03  0.62866889386E+03  0.46999998093E+01 0.  1.
       -5    1    3    3    0  502 -0.33976907811E+03 -0.41731261052E+03  0.87034697873E+02  0.54515132759E+03  0.46999998093E+01 0. -1.
</event>
<event>
 5   0  0.6412712E-04  0.1099488E+04  0.7818609E-02  0.9205691E-01
        2   -1    0    0  501    0  0.00000000000E+00  0.00000000000E+00  0.95159249354E+03  0.95159249355E+03  0.25500000920E-02 0. -1.
       -2   -1    0    0    0  501  0.00000000000E+00  0.00000000000E+00 -0.31759234402E+03  0.31759234403E+03  0.25500000920E-02 0.  1.
    10030    2    1    2    0    0  0.00000000000E+00  0.00000000000E+00  0.63400014953E+03  0.12691848376E+04  0.10994880456E+04 0.  0.
        2    1    3    3  502    0 -0.80677842454E+01 -0.15791658012E+03 -0.29077560529E+03  0.33098819927E+03  0.25500000920E-02 0.  1.
       -2    1    3    3    0  502  0.80677842454E+01  0.15791658012E+03  0.92477575481E+03  0.93819663830E+03  0.25500000920E-02 0. -1.
</event>
<event>
 5   0  0.3423758E-04  0.1094343E+04  0.7818609E-02  0.9210724E-01
        1   -1    0    0  501    0  0.00000000000E+00  0.00000000000E+00  0.18481094334E+03  0.18481094341E+03  0.50400001928E-02 0.  1.
       -1   -1    0    0    0  501  0.00000000000E+00  0.00000000000E+00 -0.16200145626E+04  0.16200145626E+04  0.50400001928E-02 0. -1.
    10030    2    1    2    0    0  0.00000000000E+00  0.00000000000E+00 -0.14352036192E+04  0.18048255060E+04  0.10943425782E+04 0.  0.
        1    1    3    3  502    0 -0.25227144413E+02  0.48818245050E+03 -0.31215244270E+03  0.57999798388E+03  0.50400001928E-02 0.  1.
       -1    1    3    3    0  502  0.25227144413E+02 -0.48818245050E+03 -0.11230511765E+04  0.12248275221E+04  0.50400001928E-02 0. -1.
</event>
<event>
 5   0  0.6245176E-04  0.1098063E+04  0.7818609E-02  0.9207082E-01
       -2   -1    0    0    0  501  0.00000000000E+00  0.00000000000E+00  0.11773599283E+03  0.11773599286E+03  0.25500000920E-02 0. -1.
        2   -1    0    0  501    0  0.00000000000E+00  0.00000000000E+00 -0.25602673505E+04  0.25602673505E+04  0.25500000920E-02 0.  1.
    10030    2    1    2    0    0  0.00000000000E+00  0.00000000000E+00 -0.24425313577E+04  0.26780033433E+04  0.10980630555E+04 0.  0.
        5    1    3    3  502    0 -0.41685117207E+02  0.12754208984E+03  0.77080706601E+02  0.15481653337E+03  0.46999998093E+01 0. -1.
       -5    1    3    3    0  502  0.41685117207E+02 -0.12754208984E+03 -0.25196120643E+04  0.25231868100E+04  0.46999998093E+01 0.  1.
</event>
<event>
 5   0  0.6245176E-04  0.1100291E+04  0.7818609E-02  0.9204908E-01
        2   -1    0    0  501    0  0.00000000000E+00  0.00000000000E+00  0.17002418061E+04  0.17002418061E+04  0.25500000920E-02 0. -1.
       -2   -1    0    0    0  501  0.00000000000E+00  0.00000000000E+00 -0.17801002050E+03  0.17801002052E+03  0.25500000920E-02 0.  1.
    10030    2    1    2    0    0  0.00000000000E+00  0.00000000000E+00  0.15222317856E+04  0.18782518266E+04  0.11002910138E+04 0.  0.
        5    1    3    3  502    0 -0.13078216430E+03 -0.63796511628E+02 -0.14452848718E+03  0.20514517542E+03  0.46999998093E+01 0.  1.
       -5    1    3    3    0  502  0.13078216430E+03  0.63796511628E+02  0.16667602728E+04  0.16731066512E+04  0.46999998093E+01 0. -1.
</event>
<event>
 5   0  0.5948818E-04  0.1110846E+04  0.7818609E-02  0.9194685E-01
        2   -1    0    0  501    0  0.00000000000E+00  0.00000000000E+00  0.12939346849E+04  0.12939346849E+04  0.25500000920E-02 0.  1.
       -2   -1    0    0    0  501  0.00000000000E+00  0.00000000000E+00 -0.23841598515E+03  0.23841598517E+03  0.25500000920E-02 0. -1.
    10030    2    1    2    0    0  0.00000000000E+00  0.00000000000E+00  0.10555186997E+04  0.15323506701E+04  0.11108460067E+04 0.  0.
        3    1    3    3  502    0 -0.15587897273E+03 -0.21280019350E+03  0.12020137114E+04  0.12306173853E+04  0.10100000352E+00 0.  1.
       -3    1    3    3    0  502  0.15587897273E+03  0.21280019350E+03 -0.14649501164E+03  0.30173328475E+03  0.10100000352E+00 0. -1.
</event>
<event>
 5   0  0.2403875E-04  0.1099396E+04  0.7818609E-02  0.9205781E-01
       -4   -1    0    0    0  501  0.00000000000E+00  0.00000000000E+00  0.79278164021E+03  0.79278265745E+03  0.12699999809E+01 0. -1.
        4   -1    0    0  501    0  0.00000000000E+00  0.00000000000E+00 -0.38114632171E+03  0.38114843755E+03  0.12699999809E+01 0.  1.
    10030    2    1    2    0    0  0.00000000000E+00  0.00000000000E+00  0.41163531850E+03  0.11739310950E+04  0.10993955523E+04 0.  0.
        5    1    3    3  502    0 -0.52054226514E+03 -0.17634996367E+03  0.19614860614E+03  0.58357512384E+03  0.46999998093E+01 0. -1.
       -5    1    3    3    0  502  0.52054226514E+03  0.17634996367E+03  0.21548671236E+03  0.59035597116E+03  0.46999998093E+01 0.  1.
</event>
<event>
 5   0  0.3523525E-04  0.1099758E+04  0.7818609E-02  0.9205428E-01
       -1   -1    0    0    0  501  0.00000000000E+00  0.00000000000E+00  0.95250221675E+03  0.95250221676E+03  0.50400001928E-02 0. -1.
        1   -1    0    0  501    0  0.00000000000E+00  0.00000000000E+00 -0.31744459876E+03  0.31744459880E+03  0.50400001928E-02 0.  1.
    10030    2    1    2    0    0  0.00000000000E+00  0.00000000000E+00  0.63505761799E+03  0.12699468156E+04  0.10997575806E+04 0.  0.
        5    1    3    3  502    0 -0.50864488190E+03  0.68184956751E+02  0.54550318284E+03  0.74897571169E+03  0.46999998093E+01 0.  1.
       -5    1    3    3    0  502  0.50864488190E+03 -0.68184956751E+02  0.89554435153E+02  0.52097110387E+03  0.46999998093E+01 0. -1.
</event>
<event>
 5   0  0.6412712E-04  0.1100396E+04  0.7818609E-02  0.9204806E-01
        2   -1    0    0  501    0  0.00000000000E+00  0.00000000000E+00  0.64087351404E+03  0.64087351404E+03  0.25500000920E-02 0. -1.
       -2   -1    0    0    0  501  0.00000000000E+00  0.00000000000E+00 -0.47235226350E+03  0.47235226351E+03  0.25500000920E-02 0.  1.
    10030    2    1    2    0    0  0.00000000000E+00  0.00000000000E+00  0.16852125054E+03  0.11132257776E+04  0.11003963922E+04 0.  0.
        2    1    3    3  502    0  0.42033668317E+03 -0.57114719838E+02 -0.27021436155E+03  0.50295210471E+03  0.25500000920E-02 0.  1.
       -2    1    3    3    0  502 -0.42033668317E+03  0.57114719838E+02  0.43873561209E+03  0.61027367284E+03  0.25500000920E-02 0. -1.
</event>
<event>
 5   0  0.6109149E-04  0.1099944E+04  0.7818609E-02  0.9205247E-01
       -2   -1    0    0    0  501  0.00000000000E+00  0.00000000000E+00  0.41460385743E+03  0.41460385744E+03  0.25500000920E-02 0.  1.
        2   -1    0    0  501    0  0.00000000000E+00  0.00000000000E+00 -0.72953774544E+03  0.72953774545E+03  0.25500000920E-02 0. -1.
    10030    2    1    2    0    0  0.00000000000E+00  0.00000000000E+00 -0.31493388801E+03  0.11441416029E+04  0.10999439320E+04 0.  0.
        1    1    3    3  502    0  0.42888762810E+03 -0.34350686734E+03 -0.13357448919E+03  0.56549421716E+03  0.50400001928E-02 0.  1.
       -1    1    3    3    0  502 -0.42888762810E+03  0.34350686734E+03 -0.18135939882E+03  0.57864738573E+03  0.50400001928E-02 0. -1.
</event>
<event>
 5   0  0.3642161E-04  0.1096239E+04  0.7818609E-02  0.9208866E-01
       -1   -1    0    0    0  501  0.00000000000E+00  0.00000000000E+00  0.20088453755E+03  0.20088453761E+03  0.50400001928E-02 0.  1.
        1   -1    0    0  501    0  0.00000000000E+00  0.00000000000E+00 -0.14955593540E+04  0.14955593540E+04  0.50400001928E-02 0. -1.
    10030    2    1    2    0    0  0.00000000000E+00  0.00000000000E+00 -0.12946748165E+04  0.16964438916E+04  0.10962385676E+04 0.  0.
        2    1    3    3  502    0 -0.12090814084E+03 -0.22851796338E+03  0.10060243600E+03  0.27741681319E+03  0.25500000920E-02 0.  1.
       -2    1    3    3    0  502  0.12090814084E+03  0.22851796338E+03 -0.13952772525E+04  0.14190270785E+04  0.25500000920E-02 0. -1.
</event>
<event>
 5   0  0.3621403E-04  0.1101150E+04  0.7818609E-02  0.9204072E-01
        1   -1    0    0  501    0  0.00000000000E+00  0.00000000000E+00  0.56162890784E+03  0.56162890786E+03  0.50400001928E-02 0. -1.
       -1   -1    0    0    0  501  0.00000000000E+00  0.00000000000E+00 -0.53973878945E+03  0.53973878947E+03  0.50400001928E-02 0.  1.
    10030    2    1    2    0    0  0.00000000000E+00  0.00000000000E+00  0.21890118388E+02  0.11013676973E+04  0.11011501385E+04 0.  0.
        3    1    3    3  502    0 -0.17580789374E+03 -0.16274627691E+03  0.50676281113E+03  0.56053842250E+03  0.10100000352E+00 0. -1.
       -3    1    3    3    0  502  0.17580789374E+03  0.16274627691E+03 -0.48487269274E+03  0.54082927483E+03  0.10100000352E+00 0.  1.
</event>
<event>
 5   0  0.6412712E-04  0.1100635E+04  0.7818609E-02  0.9204573E-01
        2   -1    0    0  501    0  0.00000000000E+00  0.00000000000E+00  0.36448484393E+03  0.36448484394E+03  0.25500000920E-02 0. -1.
       -2   -1    0    0    0  501  0.00000000000E+00  0.00000000000E+00 -0.83089653954E+03  0.83089653954E+03  0.25500000920E-02 0.  1.
    10030    2    1    2    0    0  0.00000000000E+00  0.00000000000E+00 -0.46641169561E+03  0.11953813835E+04  0.11006347179E+04 0.  0.
        2    1    3    3  502    0  0.16707606783E+03 -0.34181170840E+03 -0.66505153037E+03  0.76618744083E+03  0.25500000920E-02 0.  1.
       -2    1    3    3    0  502 -0.16707606783E+03  0.34181170840E+03  0.19863983476E+03  0.42919394264E+03  0.25500000920E-02 0. -1.
</event>
<event>
 5   0  0.3423758E-04  0.1099742E+04  0.7818609E-02  0.9205443E-01
        1   -1    0    0  501    0  0.00000000000E+00  0.00000000000E+00  0.10452818948E+04  0.10452818948E+04  0.50400001928E-02 0.  1.
       -1   -1    0    0    0  501  0.00000000000E+00  0.00000000000E+00 -0.28926001796E+03  0.28926001800E+03  0.50400001928E-02 0. -1.
    10030    2    1    2    0    0  0.00000000000E+00  0.00000000000E+00  0.75602187686E+03  0.13345419128E+04  0.10997422602E+04 0.  0.
        1    1    3    3  502    0  0.32022478685E+03 -0.15082981083E+03  0.88864210017E+03  0.95654499537E+03  0.50400001928E-02 0.  1.
       -1    1    3    3    0  502 -0.32022478685E+03  0.15082981083E+03 -0.13262022332E+03  0.37799691746E+03  0.50400001928E-02 0. -1.
</event>
<event>
 5   0  0.3423758E-04  0.1098231E+04  0.7818609E-02  0.9206917E-01
        1   -1    0    0  501    0  0.00000000000E+00  0.00000000000E+00  0.81716793769E+03  0.81716793770E+03  0.50400001928E-02 0. -1.
       -1   -1    0    0    0  501  0.00000000000E+00  0.00000000000E+00 -0.36899148599E+03  0.36899148602E+03  0.50400001928E-02 0.  1.
    10030    2    1    2    0    0  0.00000000000E+00  0.00000000000E+00  0.44817645170E+03  0.11861594237E+04  0.10982313266E+04 0.  0.
        1    1    3    3  502    0  0.14978281446E+02 -0.14120572177E+03  0.79699501529E+03  0.80954583514E+03  0.50400001928E-02 0. -1.
       -1    1    3    3    0  502 -0.14978281446E+02  0.14120572177E+03 -0.34881856359E+03  0.37661358858E+03  0.50400001928E-02 0.  1.
</event>
<event>
 5   0  0.3642161E-04  0.1099853E+04  0.7818609E-02  0.9205335E-01
        1   -1    0    0  501    0  0.00000000000E+00  0.00000000000E+00  0.57259492495E+03  0.57259492498E+03  0.50400001928E-02 0.  1.
       -1   -1    0    0    0  501  0.00000000000E+00  0.00000000000E+00 -0.52815522760E+03  0.52815522762E+03  0.50400001928E-02 0. -1.
    10030    2    1    2    0    0  0.00000000000E+00  0.00000000000E+00  0.44439697354E+02  0.11007501526E+04  0.10998527228E+04 0.  0.
        2    1    3    3  502    0  0.39634565244E+03  0.32412139101E+03 -0.17862885476E+03  0.54226637373E+03  0.25500000920E-02 0. -1.
       -2    1    3    3    0  502 -0.39634565244E+03 -0.32412139101E+03  0.22306855212E+03  0.55848377887E+03  0.25500000920E-02 0.  1.
</event>
<event>
 5   0  0.6264830E-04  0.1097967E+04  0.7818609E-02  0.9207176E-01
        2   -1    0    0  501    0  0.00000000000E+00  0.00000000000E+00  0.11374213637E+04  0.11374213637E+04  0.25500000920E-02 0.  1.
       -2   -1    0    0    0  501  0.00000000000E+00  0.00000000000E+00 -0.26497012899E+03  0.26497012900E+03  0.25500000920E-02 0. -1.
    10030    2    1    2    0    0  0.00000000000E+00  0.00000000000E+00  0.87245123468E+03  0.14023914927E+04  0.10979666397E+04 0.  0.
        4    1    3    3  502    0 -0.51692680535E+03 -0.99744738294E+02  0.63499792289E+03  0.82485532663E+03  0.12699999809E+01 0.  1.
       -4    1    3    3    0  502  0.51692680535E+03  0.99744738294E+02  0.23745331179E+03  0.57753616604E+03  0.12699999809E+01 0. -1.
</event>
<event>
 5   0  0.6245176E-04  0.1099660E+04  0.7818609E-02  0.9205524E-01
        2   -1    0    0  501    0  0.00000000000E+00  0.00000000000E+00  0.98949043627E+03  0.98949043627E+03  0.25500000920E-02 0. -1.
       -2   -1    0    0    0  501  0.00000000000E+00  0.00000000000E+00 -0.30552375681E+03  0.30552375682E+03  0.25500000920E-02 0.  1.
    10030    2    1    2    0    0  0.00000000000E+00  0.00000000000E+00  0.68396667946E+03  0.12950141931E+04  0.10996596481E+04 0.  0.
        5    1    3    3  502    0 -0.99753489754E+01  0.32661429170E+03 -0.17873820866E+03  0.37248602707E+03  0.46999998093E+01 0.  1.
       -5    1    3    3    0  502  0.99753489754E+01 -0.32661429170E+03  0.86270488812E+03  0.92252816602E+03  0.46999998093E+01 0. -1.
</event>
<event>
 5   0  0.6264830E-04  0.1098034E+04  0.7818609E-02  0.9207110E-01
       -2   -1    0    0    0  501  0.00000000000E+00  0.00000000000E+00  0.12152924906E+04  0.12152924906E+04  0.25500000920E-02 0.  1.
        2   -1    0    0  501    0  0.00000000000E+00  0.00000000000E+00 -0.24802229299E+03  0.24802229301E+03  0.25500000920E-02 0. -1.
    10030    2    1    2    0    0  0.00000000000E+00  0.00000000000E+00  0.96727019756E+03  0.14633147836E+04  0.10980339342E+04 0.  0.
        4    1    3    3  502    0 -0.53913029804E+03  0.78684290867E+02  0.57367969940E+03  0.79117804968E+03  0.12699999809E+01 0. -1.
       -4    1    3    3    0  502  0.53913029804E+03 -0.78684290867E+02  0.39359049816E+03  0.67213673388E+03  0.12699999809E+01 0.  1.
</event>
<event>
 5   0  0.6109149E-04  0.1099436E+04  0.7818609E-02  0.9205742E-01
        2   -1    0    0  501    0  0.00000000000E+00  0.00000000000E+00  0.31783031917E+03  0.31783031918E+03  0.25500000920E-02 0.  1.
       -2   -1    0    0    0  501  0.00000000000E+00  0.00000000000E+00 -0.95078994951E+03  0.95078994951E+03  0.25500000920E-02 0. -1.
    10030    2    1    2    0    0  0.00000000000E+00  0.00000000000E+00 -0.63295963033E+03  0.12686202687E+04  0.10994359884E+04 0.  0.
        1    1    3    3  502    0  0.86922306069E+02 -0.64775809906E+02  0.30537467536E+03  0.32404488149E+03  0.50400001928E-02 0.  1.
       -1    1    3    3    0  502 -0.86922306069E+02  0.64775809906E+02 -0.93833430569E+03  0.94457538720E+03  0.50400001928E-02 0. -1.
</event>
<event>
 5   0  0.6245176E-04  0.1084766E+04  0.7818609E-02  0.9220168E-01
        2   -1    0    0  501    0  0.00000000000E+00  0.00000000000E+00  0.12311382076E+04  0.12311382076E+04  0.25500000920E-02 0. -1.
       -2   -1    0    0    0  501  0.00000000000E+00  0.00000000000E+00 -0.23894906338E+03  0.23894906339E+03  0.25500000920E-02 0.  1.
    10030    2    1    2    0    0  0.00000000000E+00  0.00000000000E+00  0.99218914425E+03  0.14700872710E+04  0.10847660054E+04 0.  0.
        5    1    3    3  502    0 -0.18002018067E+02 -0.28734809447E+03 -0.12680787585E+03  0.31463522916E+03  0.46999998093E+01 0.  1.
       -5    1    3    3    0  502  0.18002018067E+02  0.28734809447E+03  0.11189970201E+04  0.11554520419E+04  0.46999998093E+01 0. -1.
</event>
<event>
 5   0  0.5948818E-04  0.1097782E+04  0.7818609E-02  0.9207356E-01
        2   -1    0    0  501    0  0.00000000000E+00  0.00000000000E+00  0.63273658534E+03  0.63273658534E+03  0.25500000920E-02 0. -1.
       -2   -1    0    0    0  501  0.00000000000E+00  0.00000000000E+00 -0.47615606689E+03  0.47615606690E+03  0.25500000920E-02 0.  1.
    10030    2    1    2    0    0  0.00000000000E+00  0.00000000000E+00  0.15658051844E+03  0.11088926522E+04  0.10977820619E+04 0.  0.
        3    1    3    3  502    0  0.32622117550E+03 -0.28342658184E+03 -0.26355841440E+03  0.50617579025E+03  0.10100000352E+00 0.  1.
       -3    1    3    3    0  502 -0.32622117550E+03  0.28342658184E+03  0.42013893284E+03  0.60271686199E+03  0.10100000352E+00 0. -1.
</event>
<event>
 5   0  0.6264830E-04  0.1100389E+04  0.7818609E-02  0.9204812E-01
       -2   -1    0    0    0  501  0.00000000000E+00  0.00000000000E+00  0.36830662381E+03  0.36830662382E+03  0.25500000920E-02 0.  1.
        2   -1    0    0  501    0  0.00000000000E+00  0.00000000000E+00 -0.82190805823E+03  0.82190805824E+03  0.25500000920E-02 0. -1.
    10030    2    1    2    0    0  0.00000000000E+00  0.00000000000E+00 -0.45360143442E+03  0.11902146821E+04  0.11003893529E+04 0.  0.
        4    1    3    3  502    0 -0.45420432279E+03 -0.82729064569E+02 -0.55050817513E+03  0.71847514136E+03  0.12699999809E+01 0. -1.
       -4    1    3    3    0  502  0.45420432279E+03  0.82729064569E+02  0.96906740705E+02  0.47173954070E+03  0.12699999809E+01 0.  1.
</event>
<event>
 5   0  0.3621403E-04  0.1101117E+04  0.7818609E-02  0.9204103E-01
        1   -1    0    0  501    0  0.00000000000E+00  0.00000000000E+00  0.74537736118E+03  0.74537736120E+03  0.50400001928E-02 0.  1.
       -1   -1    0    0    0  501  0.00000000000E+00  0.00000000000E+00 -0.40665965762E+03  0.40665965765E+03  0.50400001928E-02 0. -1.
    10030    2    1    2    0    0  0.00000000000E+00  0.00000000000E+00  0.33871770356E+03  0.11520370189E+04  0.11011174370E+04 0.  0.
        3    1    3    3  502    0  0.45105059341E+02  0.50549850218E+03  0.39265695955E+03  0.64167180097E+03  0.10100000352E+00 0.  1.
       -3    1    3    3    0  502 -0.45105059341E+02 -0.50549850218E+03 -0.53939255988E+02  0.51036521788E+03  0.10100000352E+00 0. -1.
</event>
<event>
 5   0  0.3642161E-04  0.1098974E+04  0.7818609E-02  0.9206192E-01
       -1   -1    0    0    0  501  0.00000000000E+00  0.00000000000E+00  0.22763214621E+03  0.22763214627E+03  0.50400001928E-02 0. -1.
        1   -1    0    0  501    0  0.00000000000E+00  0.00000000000E+00 -0.13264204867E+04  0.13264204867E+04  0.50400001928E-02 0.  1.
    10030    2    1    2    0    0  0.00000000000E+00  0.00000000000E+00 -0.10987883405E+04  0.15540526330E+04  0.10989739619E+04 0.  0.
        2    1    3    3  502    0  0.26424833916E+03 -0.36925448983E+03 -0.98698691775E+03  0.10864249808E+04  0.25500000920E-02 0.  1.
       -2    1    3    3    0  502 -0.26424833916E+03  0.36925448983E+03 -0.11180142277E+03  0.46762765225E+03  0.25500000920E-02 0. -1.
</event>
<event>
 5   0  0.3621403E-04  0.1101471E+04  0.7818609E-02  0.9203759E-01
        1   -1    0    0  501    0  0.00000000000E+00  0.00000000000E+00  0.11524338219E+04  0.11524338219E+04  0.50400001928E-02 0.  1.
       -1   -1    0    0    0  501  0.00000000000E+00  0.00000000000E+00 -0.26319059025E+03  0.26319059029E+03  0.50400001928E-02 0. -1.
    10030    2    1    2    0    0  0.00000000000E+00  0.00000000000E+00  0.88924323163E+03  0.14156244122E+04  0.11014712667E+04 0.  0.
        3    1    3    3  502    0  0.24875518709E+03  0.48931879913E+03  0.38717827133E+03  0.67172840812E+03  0.10100000352E+00 0. -1.
       -3    1    3    3    0  502 -0.24875518709E+03 -0.48931879913E+03  0.50206496030E+03  0.74389600406E+03  0.10100000352E+00 0.  1.
</event>
<event>
 5   0  0.6264830E-04  0.1098855E+04  0.7818609E-02  0.9206308E-01
        2   -1    0    0  501    0  0.00000000000E+00  0.00000000000E+00  0.97087276993E+03  0.97087276993E+03  0.25500000920E-02 0.  1.
       -2   -1    0    0    0  501  0.00000000000E+00  0.00000000000E+00 -0.31092717858E+03  0.31092717859E+03  0.25500000920E-02 0. -1.
    10030    2    1    2    0    0  0.00000000000E+00  0.00000000000E+00  0.65994559135E+03  0.12817999485E+04  0.10988552791E+04 0.  0.
        4    1    3    3  502    0 -0.21423300129E+03  0.42095554489E+03  0.25872239012E+01  0.47234273176E+03  0.12699999809E+01 0.  1.
       -4    1    3    3    0  502  0.21423300129E+03 -0.42095554489E+03  0.65735836745E+03  0.80945721676E+03  0.12699999809E+01 0. -1.
</event>
<event>
 5   0  0.3423758E-04  0.1100931E+04  0.7818609E-02  0.9204285E-01
       -1   -1    0    0    0  501  0.00000000000E+00  0.00000000000E+00  0.38257704864E+03  0.38257704868E+03  0.50400001928E-02 0. -1.
        1   -1    0    0  501    0  0.00000000000E+00  0.00000000000E+00 -0.79202995987E+03  0.79202995989E+03  0.50400001928E-02 0.  1.
    10030    2    1    2    0    0  0.00000000000E+00  0.00000000000E+00 -0.40945291123E+03  0.11746070086E+04  0.11009313957E+04 0.  0.
        1    1    3    3  502    0  0.19326040440E+03 -0.47926196323E+03 -0.23743121699E+01  0.51676614700E+03  0.50400001928E-02 0. -1.
       -1    1    3    3    0  502 -0.19326040440E+03  0.47926196323E+03 -0.40707859906E+03  0.65784086156E+03  0.50400001928E-02 0.  1.
</event>
<event>
 5   0  0.3523525E-04  0.1104437E+04  0.7818609E-02  0.9200878E-01
       -1   -1    0    0    0  501  0.00000000000E+00  0.00000000000E+00  0.26305196528E+03  0.26305196532E+03  0.50400001928E-02 0. -1.
        1   -1    0    0  501    0  0.00000000000E+00  0.00000000000E+00 -0.11592589457E+04  0.11592589457E+04  0.50400001928E-02 0.  1.
    10030    2    1    2    0    0  0.00000000000E+00  0.00000000000E+00 -0.89620698042E+03  0.14223109110E+04  0.11044371308E+04 0.  0.
        5    1    3    3  502    0  0.14456869159E+03 -0.20463928830E+03  0.18560877205E+03  0.31184940463E+03  0.46999998093E+01 0. -1.
       -5    1    3    3    0  502 -0.14456869159E+03  0.20463928830E+03 -0.10818157525E+04  0.11104615064E+04  0.46999998093E+01 0.  1.
</event>
<event>
 5   0  0.3423758E-04  0.1104278E+04  0.7818609E-02  0.9201032E-01
        1   -1    0    0  501    0  0.00000000000E+00  0.00000000000E+00  0.20613326240E+03  0.20613326246E+03  0.50400001928E-02 0.  1.
       -1   -1    0    0    0  501  0.00000000000E+00  0.00000000000E+00 -0.14789343631E+04  0.14789343631E+04  0.50400001928E-02 0. -1.
    10030    2    1    2    0    0  0.00000000000E+00  0.00000000000E+00 -0.12728011007E+04  0.16850676256E+04  0.11042781628E+04 0.  0.
        1    1    3    3  502    0 -0.11447699239E+03 -0.50417174134E+03 -0.34065275119E+03  0.61914329801E+03  0.50400001928E-02 0.  1.
       -1    1    3    3    0  502  0.11447699239E+03  0.50417174134E+03 -0.93214834951E+03  0.10659243276E+04  0.50400001928E-02 0. -1.
</event>
<event>
 5   0  0.3642161E-04  0.1100347E+04  0.7818609E-02  0.9204853E-01
       -1   -1    0    0    0  501  0.00000000000E+00  0.00000000000E+00  0.23078716829E+03  0.23078716834E+03  0.50400001928E-02 0.  1.
        1   -1    0    0  501    0  0.00000000000E+00  0.00000000000E+00 -0.13115592065E+04  0.13115592065E+04  0.50400001928E-02 0. -1.
    10030    2    1    2    0    0  0.00000000000E+00  0.00000000000E+00 -0.10807720382E+04  0.15423463749E+04  0.11003472822E+04 0.  0.
        2    1    3    3  502    0  0.44207164511E+03  0.17962889985E+03 -0.15652453834E+03  0.50218902037E+03  0.25500000920E-02 0.  1.
       -2    1    3    3    0  502 -0.44207164511E+03 -0.17962889985E+03 -0.92424749991E+03  0.10401573545E+04  0.25500000920E-02 0. -1.
</event>
<event>
 5   0  0.6245176E-04  0.1100416E+04  0.7818609E-02  0.9204786E-01
        2   -1    0    0  501    0  0.00000000000E+00  0.00000000000E+00  0.14799228565E+04  0.14799228565E+04  0.25500000920E-02 0. -1.
       -2   -1    0    0    0  501  0.00000000000E+00  0.00000000000E+00 -0.20455722663E+03  0.20455722664E+03  0.25500000920E-02 0.  1.
    10030    2    1    2    0    0  0.00000000000E+00  0.00000000000E+00  0.12753656298E+04  0.16844800831E+04  0.11004161307E+04 0.  0.
        5    1    3    3  502    0 -0.86024683578E+02  0.47767292791E+03  0.24105430932E+03  0.54194182555E+03  0.46999998093E+01 0.  1.
       -5    1    3    3    0  502  0.86024683578E+02 -0.47767292791E+03  0.10343113205E+04  0.11425382576E+04  0.46999998093E+01 0. -1.
</event>
<event>
 5   0  0.6264830E-04  0.1099094E+04  0.7818609E-02  0.9206075E-01
       -2   -1    0    0    0  501  0.00000000000E+00  0.00000000000E+00  0.44220618495E+03  0.44220618496E+03  0.25500000920E-02 0.  1.
        2   -1    0    0  501    0  0.00000000000E+00  0.00000000000E+00 -0.68294389816E+03  0.68294389816E+03  0.25500000920E-02 0. -1.
    10030    2    1    2    0    0  0.00000000000E+00  0.00000000000E+00 -0.24073771321E+03  0.11251500831E+04  0.10990942011E+04 0.  0.
        4    1    3    3  502    0  0.36451068986E+03  0.46867606086E+02 -0.53863264329E+03  0.65206698493E+03  0.12699999809E+01 0. -1.
       -4    1    3    3    0  502 -0.36451068986E+03 -0.46867606086E+02  0.29789493008E+03  0.47308309819E+03  0.12699999809E+01 0.  1.
</event>
<event>
 5   0  0.3621403E-04  0.1097759E+04  0.7818609E-02  0.9207379E-01
        1   -1    0    0  501    0  0.00000000000E+00  0.00000000000E+00  0.71434674667E+03  0.71434674669E+03  0.50400001928E-02 0. -1.
       -1   -1    0    0    0  501  0.00000000000E+00  0.00000000000E+00 -0.42174029281E+03  0.42174029284E+03  0.50400001928E-02 0.  1.
    10030    2    1    2    0    0  0.00000000000E+00  0.00000000000E+00  0.29260645386E+03  0.11360870395E+04  0.10977591833E+04 0.  0.
        3    1    3    3  502    0  0.52157362352E+03 -0.86023615174E+02 -0.66041009813E+01  0.52866126345E+03  0.10100000352E+00 0.  1.
       -3    1    3    3    0  502 -0.52157362352E+03  0.86023615174E+02  0.29921055484E+03  0.60742577608E+03  0.10100000352E+00 0. -1.
</event>
<event>
 5   0  0.3642161E-04  0.1100812E+04  0.7818609E-02  0.9204401E-01
        1   -1    0    0  501    0  0.00000000000E+00  0.00000000000E+00  0.57650404227E+03  0.57650404229E+03  0.50400001928E-02 0.  1.
       -1   -1    0    0    0  501  0.00000000000E+00  0.00000000000E+00 -0.52548914820E+03  0.52548914822E+03  0.50400001928E-02 0. -1.
    10030    2    1    2    0    0  0.00000000000E+00  0.00000000000E+00  0.51014894068E+02  0.11019931905E+04  0.11008117335E+04 0.  0.
        2    1    3    3  502    0 -0.45411727698E+03  0.31589793535E+02  0.33523602218E+03  0.56533495105E+03  0.25500000920E-02 0.  1.
       -2    1    3    3    0  502  0.45411727698E+03 -0.31589793535E+02 -0.28422112811E+03  0.53665823946E+03  0.25500000920E-02 0. -1.
</event>
<event>
 5   0  0.6264830E-04  0.1101017E+04  0.7818609E-02  0.9204201E-01
       -2   -1    0    0    0  501  0.00000000000E+00  0.00000000000E+00  0.32666411146E+03  0.32666411147E+03  0.25500000920E-02 0. -1.
        2   -1    0    0  501    0  0.00000000000E+00  0.00000000000E+00 -0.92774139180E+03  0.92774139181E+03  0.25500000920E-02 0.  1.
    10030    2    1    2    0    0  0.00000000000E+00  0.00000000000E+00 -0.60107728034E+03  0.12544055033E+04  0.11010173794E+04 0.  0.
        4    1    3    3  502    0 -0.20059156921E+02 -0.16001302951E+03 -0.90022498346E+03  0.91455627116E+03  0.12699999809E+01 0.  1.
       -4    1    3    3    0  502  0.20059156921E+02  0.16001302951E+03  0.29914770311E+03  0.33984923211E+03  0.12699999809E+01 0. -1.
</event>
<event>
 5   0  0.3423758E-04  0.1100432E+04  0.7818609E-02  0.9204771E-01
       -1   -1    0    0    0  501  0.00000000000E+00  0.00000000000E+00  0.11841433905E+04  0.11841433906E+04  0.50400001928E-02 0.  1.
        1   -1    0    0  501    0  0.00000000000E+00  0.00000000000E+00 -0.25565942851E+03  0.25565942856E+03  0.50400001928E-02 0. -1.
    10030    2    1    2    0    0  0.00000000000E+00  0.00000000000E+00  0.92848396204E+03  0.14398028191E+04  0.11004315927E+04 0.  0.
        1    1    3    3  502    0 -0.42823596434E+03 -0.72399222437E+02  0.90622065619E+03  0.10049196815E+04  0.50400001928E-02 0.  1.
       -1    1    3    3    0  502  0.42823596434E+03  0.72399222437E+02  0.22263305852E+02  0.43488313761E+03  0.50400001928E-02 0. -1.
</event>
<event>
 5   0  0.6109149E-04  0.1101009E+04  0.7818609E-02  0.9204209E-01
        2   -1    0    0  501    0  0.00000000000E+00  0.00000000000E+00  0.21530008725E+04  0.21530008725E+04  0.25500000920E-02 0. -1.
       -2   -1    0    0    0  501  0.00000000000E+00  0.00000000000E+00 -0.14075932345E+03  0.14075932348E+03  0.25500000920E-02 0.  1.
    10030    2    1    2    0    0  0.00000000000E+00  0.00000000000E+00  0.20122415490E+04  0.22937601959E+04  0.11010085308E+04 0.  0.
        1    1    3    3  502    0  0.15285924643E+03  0.11197266692E+02 -0.95412585719E+02  0.18054054819E+03  0.50400001928E-02 0.  1.
       -1    1    3    3    0  502 -0.15285924643E+03 -0.11197266692E+02  0.21076541347E+04  0.21132196478E+04  0.50400001928E-02 0. -1.
</event>
<event>
 5   0  0.3657529E-04  0.1103266E+04  0.7818609E-02  0.9202015E-01
        1   -1    0    0  501    0  0.00000000000E+00  0.00000000000E+00  0.20645517774E+04  0.20645517774E+04  0.50400001928E-02 0.  1.
       -1   -1    0    0    0  501  0.00000000000E+00  0.00000000000E+00 -0.14739223020E+03  0.14739223029E+03  0.50400001928E-02 0. -1.
    10030    2    1    2    0    0  0.00000000000E+00  0.00000000000E+00  0.19171595472E+04  0.22119440077E+04  0.11032658627E+04 0.  0.
        4    1    3    3  502    0  0.54384040824E+03 -0.76358067317E+02  0.10628413074E+04  0.11963386651E+04  0.12699999809E+01 0.  1.
       -4    1    3    3    0  502 -0.54384040824E+03  0.76358067317E+02  0.85431823977E+03  0.10156053425E+04  0.12699999809E+01 0. -1.
</event>
<event>
 5   0  0.3423758E-04  0.1103170E+04  0.7818609E-02  0.9202108E-01
       -1   -1    0    0    0  501  0.00000000000E+00  0.00000000000E+00  0.17708808276E+04  0.17708808276E+04  0.50400001928E-02 0. -1.
        1   -1    0    0  501    0  0.00000000000E+00  0.00000000000E+00 -0.17180490773E+03  0.17180490781E+03  0.50400001928E-02 0.  1.
    10030    2    1    2    0    0  0.00000000000E+00  0.00000000000E+00  0.15990759199E+04  0.19426857355E+04  0.11031700092E+04 0.  0.
        1    1    3    3  502    0  0.27925995156E+03 -0.17812445634E+03  0.22834649930E+02  0.33201786662E+03  0.50400001928E-02 0.  1.
       -1    1    3    3    0  502 -0.27925995156E+03  0.17812445634E+03  0.15762412700E+04  0.16106678688E+04  0.50400001928E-02 0. -1.
</event>
<event>
 5   0  0.5948818E-04  0.1100545E+04  0.7818609E-02  0.9204661E-01
       -2   -1    0    0    0  501  0.00000000000E+00  0.00000000000E+00  0.40386313357E+03  0.40386313358E+03  0.25500000920E-02 0.  1.
        2   -1    0    0  501    0  0.00000000000E+00  0.00000000000E+00 -0.74975871817E+03  0.74975871817E+03  0.25500000920E-02 0. -1.
    10030    2    1    2    0    0  0.00000000000E+00  0.00000000000E+00 -0.34589558460E+03  0.11536218517E+04  0.11005451474E+04 0.  0.
        3    1    3    3  502    0  0.27259857645E+03  0.47479572389E+03 -0.11497282525E+03  0.55942803295E+03  0.10100000352E+00 0.  1.
       -3    1    3    3    0  502 -0.27259857645E+03 -0.47479572389E+03 -0.23092275935E+03  0.59419381879E+03  0.10100000352E+00 0. -1.
</event>
<event>
 5   0  0.3523525E-04  0.1100561E+04  0.7818609E-02  0.9204645E-01
       -1   -1    0    0    0  501  0.00000000000E+00  0.00000000000E+00  0.59939241307E+03  0.59939241309E+03  0.50400001928E-02 0. -1.
        1   -1    0    0  501    0  0.00000000000E+00  0.00000000000E+00 -0.50519245787E+03  0.50519245790E+03  0.50400001928E-02 0.  1.
    10030    2    1    2    0    0  0.00000000000E+00  0.00000000000E+00  0.94199955201E+02  0.11045848710E+04  0.11005608142E+04 0.  0.
        5    1    3    3  502    0  0.37711370831E+03  0.25093589565E+02 -0.35428979744E+03  0.51806156757E+03  0.46999998093E+01 0.  1.
       -5    1    3    3    0  502 -0.37711370831E+03 -0.25093589565E+02  0.44848975264E+03  0.58652330342E+03  0.46999998093E+01 0. -1.
</event>
<event>
 5   0  0.5948818E-04  0.1098351E+04  0.7818609E-02  0.9206800E-01
       -2   -1    0    0    0  501  0.00000000000E+00  0.00000000000E+00  0.15355463930E+03  0.15355463932E+03  0.25500000920E-02 0.  1.
        2   -1    0    0  501    0  0.00000000000E+00  0.00000000000E+00 -0.19640819549E+04  0.19640819549E+04  0.25500000920E-02 0. -1.
    10030    2    1    2    0    0  0.00000000000E+00  0.00000000000E+00 -0.18105273156E+04  0.21176365942E+04  0.10983513029E+04 0.  0.
        3    1    3    3  502    0 -0.50023390589E+03  0.14122107820E+03 -0.56352879386E+03  0.76664337553E+03  0.10100000352E+00 0.  1.
       -3    1    3    3    0  502  0.50023390589E+03 -0.14122107820E+03 -0.12469985217E+04  0.13509932187E+04  0.10100000352E+00 0. -1.
</event>
<event>
 5   0  0.6264830E-04  0.1100682E+04  0.7818609E-02  0.9204528E-01
        2   -1    0    0  501    0  0.00000000000E+00  0.00000000000E+00  0.35031776323E+03  0.35031776324E+03  0.25500000920E-02 0.  1.
       -2   -1    0    0    0  501  0.00000000000E+00  0.00000000000E+00 -0.86457230671E+03  0.86457230672E+03  0.25500000920E-02 0. -1.
    10030    2    1    2    0    0  0.00000000000E+00  0.00000000000E+00 -0.51425454348E+03  0.12148900700E+04  0.11006816736E+04 0.  0.
        4    1    3    3  502    0  0.22582834642E+03  0.42633596045E+03 -0.54938996197E+03  0.73115780543E+03  0.12699999809E+01 0. -1.
       -4    1    3    3    0  502 -0.22582834642E+03 -0.42633596045E+03  0.35135418493E+02  0.48373226454E+03  0.12699999809E+01 0.  1.
</event>
<event>
 5   0  0.5948818E-04  0.1099599E+04  0.7818609E-02  0.9205582E-01
        2   -1    0    0  501    0  0.00000000000E+00  0.00000000000E+00  0.10026760688E+04  0.10026760688E+04  0.25500000920E-02 0.  1.
       -2   -1    0    0    0  501  0.00000000000E+00  0.00000000000E+00 -0.30147299758E+03  0.30147299759E+03  0.25500000920E-02 0. -1.
    10030    2    1    2    0    0  0.00000000000E+00  0.00000000000E+00  0.70120307118E+03  0.13041490664E+04  0.10995994908E+04 0.  0.
        3    1    3    3  502    0 -0.20542910563E+03  0.11872603241E+03 -0.23762558117E+03  0.33580189881E+03  0.10100000352E+00 0. -1.
       -3    1    3    3    0  502  0.20542910563E+03 -0.11872603241E+03  0.93882865235E+03  0.96834716754E+03  0.10100000352E+00 0.  1.
</event>
<event>
 5   0  0.6109149E-04  0.1098317E+04  0.7818609E-02  0.9206834E-01
       -2   -1    0    0    0  501  0.00000000000E+00  0.00000000000E+00  0.17010362212E+03  0.17010362214E+03  0.25500000920E-02 0.  1.
        2   -1    0    0  501    0  0.00000000000E+00  0.00000000000E+00 -0.17728902213E+04  0.17728902213E+04  0.25500000920E-02 0. -1.
    10030    2    1    2    0    0  0.00000000000E+00  0.00000000000E+00 -0.16027865992E+04  0.19429938435E+04  0.10983169821E+04 0.  0.
        1    1    3    3  502    0  0.29461497406E+03 -0.30312729059E+03 -0.14215530950E+04  0.14830702408E+04  0.50400001928E-02 0. -1.
       -1    1    3    3    0  502 -0.29461497406E+03  0.30312729059E+03 -0.18123350425E+03  0.45992360270E+03  0.50400001928E-02 0.  1.
</event>
<event>
 5   0  0.3642161E-04  0.1101802E+04  0.7818609E-02  0.9203437E-01
        1   -1    0    0  501    0  0.00000000000E+00  0.00000000000E+00  0.12949115243E+04  0.12949115243E+04  0.50400001928E-02 0. -1.
       -1   -1    0    0    0  501  0.00000000000E+00  0.00000000000E+00 -0.23437263656E+03  0.23437263662E+03  0.50400001928E-02 0.  1.
    10030    2    1    2    0    0  0.00000000000E+00  0.00000000000E+00  0.10605388878E+04  0.15292841609E+04  0.11018018481E+04 0.  0.
        2    1    3    3  502    0  0.27473502464E+03  0.45296470863E+03  0.32052539681E+03  0.61918728268E+03  0.25500000920E-02 0.  1.
       -2    1    3    3    0  502 -0.27473502464E+03 -0.45296470863E+03  0.74001349095E+03  0.91009687826E+03  0.25500000920E-02 0. -1.
</event>
<event>
 5   0  0.3657529E-04  0.1101031E+04  0.7818609E-02  0.9204188E-01
        1   -1    0    0  501    0  0.00000000000E+00  0.00000000000E+00  0.58445921623E+03  0.58445921625E+03  0.50400001928E-02 0. -1.
       -1   -1    0    0    0  501  0.00000000000E+00  0.00000000000E+00 -0.51854267239E+03  0.51854267241E+03  0.50400001928E-02 0.  1.
    10030    2    1    2    0    0  0.00000000000E+00  0.00000000000E+00  0.65916543844E+02  0.11030018887E+04  0.11010305062E+04 0.  0.
        4    1    3    3  502    0 -0.44332895500E+02 -0.40949470861E+03 -0.33295468162E+03  0.52963360440E+03  0.12699999809E+01 0.  1.
       -4    1    3    3    0  502  0.44332895500E+02  0.40949470861E+03  0.39887122546E+03  0.57336828427E+03  0.12699999809E+01 0. -1.
</event>
<event>
 5   0  0.6245176E-04  0.1100491E+04  0.7818609E-02  0.9204713E-01
       -2   -1    0    0    0  501  0.00000000000E+00  0.00000000000E+00  0.47631362389E+03  0.47631362389E+03  0.25500000920E-02 0.  1.
        2   -1    0    0  501    0  0.00000000000E+00  0.00000000000E+00 -0.63565332965E+03  0.63565332966E+03  0.25500000920E-02 0. -1.
    10030    2    1    2    0    0  0.00000000000E+00  0.00000000000E+00 -0.15933970577E+03  0.11119669536E+04  0.11004914193E+04 0.  0.
        5    1    3    3  502    0 -0.40507598517E+03 -0.22292505223E+03  0.22171230714E+03  0.51279681143E+03  0.46999998093E+01 0.  1.
       -5    1    3    3    0  502  0.40507598517E+03  0.22292505223E+03 -0.38105201291E+03  0.59917014213E+03  0.46999998093E+01 0. -1.
</event>
<event>
 5   0  0.3423758E-04  0.1098148E+04  0.7818609E-02  0.9206999E-01
        1   -1    0    0  501    0  0.00000000000E+00  0.00000000000E+00  0.14419304598E+04  0.14419304598E+04  0.50400001928E-02 0.  1.
       -1   -1    0    0    0  501  0.00000000000E+00  0.00000000000E+00 -0.20908241882E+03  0.20908241889E+03  0.50400001928E-02 0. -1.
    10030    2    1    2    0    0  0.00000000000E+00  0.00000000000E+00  0.12328480410E+04  0.16510128787E+04  0.10981480927E+04 0.  0.
        1    1    3    3  502    0  0.77247633654E+02  0.20485324798E+03  0.13734688157E+04  0.13908086273E+04  0.50400001928E-02 0.  1.
       -1    1    3    3    0  502 -0.77247633654E+02 -0.20485324798E+03 -0.14062077473E+03  0.26020425136E+03  0.50400001928E-02 0. -1.
</event>
<event>
 5   0  0.3657529E-04  0.1101071E+04  0.7818609E-02  0.9204149E-01
        1   -1    0    0  501    0  0.00000000000E+00  0.00000000000E+00  0.98854676935E+03  0.98854676936E+03  0.50400001928E-02 0.  1.
       -1   -1    0    0    0  501  0.00000000000E+00  0.00000000000E+00 -0.30660086876E+03  0.30660086880E+03  0.50400001928E-02 0. -1.
    10030    2    1    2    0    0  0.00000000000E+00  0.00000000000E+00  0.68194590059E+03  0.12951476382E+04  0.11010709302E+04 0.  0.
        4    1    3    3  502    0 -0.37079510930E+03  0.38784151689E+03  0.19606041205E+03  0.57127169839E+03  0.12699999809E+01 0. -1.
       -4    1    3    3    0  502  0.37079510930E+03 -0.38784151689E+03  0.48588548854E+03  0.72387593977E+03  0.12699999809E+01 0.  1.
</event>
<event>
 5   0  0.3523525E-04  0.1094799E+04  0.7818609E-02  0.9210276E-01
       -1   -1    0    0    0  501  0.00000000000E+00  0.00000000000E+00  0.33461148199E+03  0.33461148203E+03  0.50400001928E-02 0.  1.
        1   -1    0    0  501    0  0.00000000000E+00  0.00000000000E+00 -0.89550507661E+03  0.89550507663E+03  0.50400001928E-02 0. -1.
    10030    2    1    2    0    0  0.00000000000E+00  0.00000000000E+00 -0.56089359462E+03  0.12301165587E+04  0.10947991247E+04 0.  0.
        5    1    3    3  502    0  0.32726264634E+03 -0.21976647918E+03 -0.70715763319E+03  0.80962469900E+03  0.46999998093E+01 0. -1.
       -5    1    3    3    0  502 -0.32726264634E+03  0.21976647918E+03  0.14626403857E+03  0.42049185966E+03  0.46999998093E+01 0.  1.
</event>
<event>
 5   0  0.6264830E-04  0.1099193E+04  0.7818609E-02  0.9205979E-01
       -2   -1    0    0    0  501  0.00000000000E+00  0.00000000000E+00  0.86432429082E+03  0.86432429082E+03  0.25500000920E-02 0.  1.
        2   -1    0    0  501    0  0.00000000000E+00  0.00000000000E+00 -0.34947117570E+03  0.34947117571E+03  0.25500000920E-02 0. -1.
    10030    2    1    2    0    0  0.00000000000E+00  0.00000000000E+00  0.51485311512E+03  0.12137954665E+04  0.10991932061E+04 0.  0.
        4    1    3    3  502    0 -0.34521032524E+03 -0.59906899896E+02 -0.21015410646E+03  0.40856500911E+03  0.12699999809E+01 0. -1.
       -4    1    3    3    0  502  0.34521032524E+03  0.59906899896E+02  0.72500722158E+03  0.80523045742E+03  0.12699999809E+01 0.  1.
</event>
<event>
 5   0  0.3423758E-04  0.1099985E+04  0.7818609E-02  0.9205207E-01
        1   -1    0    0  501    0  0.00000000000E+00  0.00000000000E+00  0.63317372865E+03  0.63317372867E+03  0.50400001928E-02 0. -1.
       -1   -1    0    0    0  501  0.00000000000E+00  0.00000000000E+00 -0.47773891705E+03  0.47773891707E+03  0.50400001928E-02 0.  1.
    10030    2    1    2    0    0  0.00000000000E+00  0.00000000000E+00  0.15543481160E+03  0.11109126457E+04  0.10999849662E+04 0.  0.
        1    1    3    3  502    0  0.21641252719E+03 -0.12668611067E+03  0.57207794677E+03  0.62462543157E+03  0.50400001928E-02 0. -1.
       -1    1    3    3    0  502 -0.21641252719E+03  0.12668611067E+03 -0.41664313517E+03  0.48628721417E+03  0.50400001928E-02 0.  1.
</event>
<event>
 5   0  0.6412712E-04  0.1096880E+04  0.7818609E-02  0.9208239E-01
        2   -1    0    0  501    0  0.00000000000E+00  0.00000000000E+00  0.11858956291E+04  0.11858956291E+04  0.25500000920E-02 0. -1.
       -2   -1    0    0    0  501  0.00000000000E+00  0.00000000000E+00 -0.25363633066E+03  0.25363633067E+03  0.25500000920E-02 0.  1.
    10030    2    1    2    0    0  0.00000000000E+00  0.00000000000E+00  0.93225929849E+03  0.14395319598E+04  0.10968796031E+04 0.  0.
        2    1    3    3  502    0 -0.42744858093E+03 -0.28941629753E+03  0.70923035010E+03  0.87720110130E+03  0.25500000920E-02 0. -1.
       -2    1    3    3    0  502  0.42744858093E+03  0.28941629753E+03  0.22302894839E+03  0.56233085852E+03  0.25500000920E-02 0.  1.
</event>
<event>
 5   0  0.6245176E-04  0.1100382E+04  0.7818609E-02  0.9204820E-01
       -2   -1    0    0    0  501  0.00000000000E+00  0.00000000000E+00  0.25205226406E+03  0.25205226407E+03  0.25500000920E-02 0. -1.
        2   -1    0    0  501    0  0.00000000000E+00  0.00000000000E+00 -0.12009807203E+04  0.12009807203E+04  0.25500000920E-02 0.  1.
    10030    2    1    2    0    0  0.00000000000E+00  0.00000000000E+00 -0.94892845621E+03  0.14530329843E+04  0.11003815877E+04 0.  0.
        5    1    3    3  502    0 -0.39047103414E+03  0.22175991198E+03 -0.89420842395E+03  0.10006377379E+04  0.46999998093E+01 0.  1.
       -5    1    3    3    0  502  0.39047103414E+03 -0.22175991198E+03 -0.54720032261E+02  0.45239524643E+03  0.46999998093E+01 0. -1.
</event>
<event>
 5   0  0.3621403E-04  0.1103070E+04  0.7818609E-02  0.9202205E-01
        1   -1    0    0  501    0  0.00000000000E+00  0.00000000000E+00  0.45696373923E+03  0.45696373926E+03  0.50400001928E-02 0.  1.
       -1   -1    0    0    0  501  0.00000000000E+00  0.00000000000E+00 -0.66567866795E+03  0.66567866797E+03  0.50400001928E-02 0. -1.
    10030    2    1    2    0    0  0.00000000000E+00  0.00000000000E+00 -0.20871492871E+03  0.11226424072E+04  0.11030702847E+04 0.  0.
        3    1    3    3  502    0  0.34832960406E+03  0.21672114529E+03  0.27081512853E+03  0.49157137012E+03  0.10100000352E+00 0.  1.
       -3    1    3    3    0  502 -0.34832960406E+03 -0.21672114529E+03 -0.47953005724E+03  0.63107103711E+03  0.10100000352E+00 0. -1.
</event>
<event>
 5   0  0.2403875E-04  0.1097619E+04  0.7818609E-02  0.9207516E-01
       -3   -1    0    0    0  501  0.00000000000E+00  0.00000000000E+00  0.56105407407E+03  0.56105408316E+03  0.10100000352E+00 0. -1.
        3   -1    0    0  501    0  0.00000000000E+00  0.00000000000E+00 -0.53683210130E+03  0.53683211080E+03  0.10100000352E+00 0.  1.
    10030    2    1    2    0    0  0.00000000000E+00  0.00000000000E+00  0.24221972767E+02  0.10978861940E+04  0.10976189644E+04 0.  0.
        1    1    3    3  502    0  0.40466738573E+03 -0.75195373314E+02  0.37521701259E+03  0.55695407692E+03  0.50400001928E-02 0. -1.
       -1    1    3    3    0  502 -0.40466738573E+03  0.75195373314E+02 -0.35099503982E+03  0.54093211704E+03  0.50400001928E-02 0.  1.
</event>
<event>
 5   0  0.3523525E-04  0.1096556E+04  0.7818609E-02  0.9208556E-01
        1   -1    0    0  501    0  0.00000000000E+00  0.00000000000E+00  0.62406500303E+03  0.62406500305E+03  0.50400001928E-02 0.  1.
       -1   -1    0    0    0  501  0.00000000000E+00  0.00000000000E+00 -0.48169425975E+03  0.48169425978E+03  0.50400001928E-02 0. -1.
    10030    2    1    2    0    0  0.00000000000E+00  0.00000000000E+00  0.14237074327E+03  0.11057592628E+04  0.10965555703E+04 0.  0.
        5    1    3    3  502    0  0.10186628721E+03  0.53863268475E+03  0.61914175646E+02  0.55168592940E+03  0.46999998093E+01 0. -1.
       -5    1    3    3    0  502 -0.10186628721E+03 -0.53863268475E+03  0.80456567625E+02  0.55407333343E+03  0.46999998093E+01 0.  1.
</event>
<event>
 5   0  0.6412712E-04  0.1095164E+04  0.7818609E-02  0.9209918E-01
        2   -1    0    0  501    0  0.00000000000E+00  0.00000000000E+00  0.26265011156E+04  0.26265011156E+04  0.25500000920E-02 0. -1.
       -2   -1    0    0    0  501  0.00000000000E+00  0.00000000000E+00 -0.11416173485E+03  0.11416173488E+03  0.25500000920E-02 0.  1.
    10030    2    1    2    0    0  0.00000000000E+00  0.00000000000E+00  0.25123393807E+04  0.27406628504E+04  0.10951637758E+04 0.  0.
        2    1    3    3  502    0 -0.11058079167E+03 -0.39018449329E+03  0.21769244461E+04  0.22143784894E+04  0.25500000920E-02 0. -1.
       -2    1    3    3    0  502  0.11058079167E+03  0.39018449329E+03  0.33541493456E+03  0.52628436099E+03  0.25500000920E-02 0.  1.
</event>
<event>
 5   0  0.3657529E-04  0.1099601E+04  0.7818609E-02  0.9205581E-01
        1   -1    0    0  501    0  0.00000000000E+00  0.00000000000E+00  0.55146030505E+03  0.55146030507E+03  0.50400001928E-02 0. -1.
       -1   -1    0    0    0  501  0.00000000000E+00  0.00000000000E+00 -0.54814586787E+03  0.54814586789E+03  0.50400001928E-02 0.  1.
    10030    2    1    2    0    0  0.00000000000E+00  0.00000000000E+00  0.33144371753E+01  0.10996061730E+04  0.10996011778E+04 0.  0.
        4    1    3    3  502    0  0.11524160650E+03  0.53091605248E+03 -0.82762309517E+02  0.54954862881E+03  0.12699999809E+01 0.  1.
       -4    1    3    3    0  502 -0.11524160650E+03 -0.53091605248E+03  0.86076746692E+02  0.55005754415E+03  0.12699999809E+01 0. -1.
</event>
<event>
 5   0  0.5948818E-04  0.1101237E+04  0.7818609E-02  0.9203987E-01
       -2   -1    0    0    0  501  0.00000000000E+00  0.00000000000E+00  0.46413751623E+03  0.46413751624E+03  0.25500000920E-02 0.  1.
        2   -1    0    0  501    0  0.00000000000E+00  0.00000000000E+00 -0.65321293549E+03  0.65321293550E+03  0.25500000920E-02 0. -1.
    10030    2    1    2    0    0  0.00000000000E+00  0.00000000000E+00 -0.18907541926E+03  0.11173504517E+04  0.11012368128E+04 0.  0.
        3    1    3    3  502    0 -0.21588775826E+03  0.35839390046E+03 -0.45772350936E+03  0.62013267393E+03  0.10100000352E+00 0. -1.
       -3    1    3    3    0  502  0.21588775826E+03 -0.35839390046E+03  0.26864809010E+03  0.49721777781E+03  0.10100000352E+00 0.  1.
</event>
<event>
 5   0  0.6245176E-04  0.1098492E+04  0.7818609E-02  0.9206663E-01
       -2   -1    0    0    0  501  0.00000000000E+00  0.00000000000E+00  0.21318465746E+03  0.21318465748E+03  0.25500000920E-02 0.  1.
        2   -1    0    0  501    0  0.00000000000E+00  0.00000000000E+00 -0.14150700730E+04  0.14150700730E+04  0.25500000920E-02 0. -1.
    10030    2    1    2    0    0  0.00000000000E+00  0.00000000000E+00 -0.12018854156E+04  0.16282547305E+04  0.10984921098E+04 0.  0.
        5    1    3    3  502    0  0.16102857753E+03  0.43256214068E+01  0.17735180232E+03  0.23963444152E+03  0.46999998093E+01 0.  1.
       -5    1    3    3    0  502 -0.16102857753E+03 -0.43256214068E+01 -0.13792372179E+04  0.13886202890E+04  0.46999998093E+01 0. -1.
</event>
<event>
 5   0  0.6109149E-04  0.1099383E+04  0.7818609E-02  0.9205794E-01
       -2   -1    0    0    0  501  0.00000000000E+00  0.00000000000E+00  0.42520591136E+03  0.42520591137E+03  0.25500000920E-02 0. -1.
        2   -1    0    0  501    0  0.00000000000E+00  0.00000000000E+00 -0.71062201501E+03  0.71062201502E+03  0.25500000920E-02 0.  1.
    10030    2    1    2    0    0  0.00000000000E+00  0.00000000000E+00 -0.28541610365E+03  0.11358279264E+04  0.10993828842E+04 0.  0.
        1    1    3    3  502    0 -0.27135838023E+03 -0.69570005469E+02 -0.63134051621E+03  0.69069979269E+03  0.50400001928E-02 0.  1.
       -1    1    3    3    0  502  0.27135838023E+03  0.69570005469E+02  0.34592441256E+03  0.44512813370E+03  0.50400001928E-02 0. -1.
</event>
<event>
 5   0  0.3657529E-04  0.1100857E+04  0.7818609E-02  0.9204357E-01
       -1   -1    0    0    0  501  0.00000000000E+00  0.00000000000E+00  0.29043981230E+03  0.29043981234E+03  0.50400001928E-02 0.  1.
        1   -1    0    0  501    0  0.00000000000E+00  0.00000000000E+00 -0.10431472123E+04  0.10431472123E+04  0.50400001928E-02 0. -1.
    10030    2    1    2    0    0  0.00000000000E+00  0.00000000000E+00 -0.75270739998E+03  0.13335870246E+04  0.11008569036E+04 0.  0.
        4    1    3    3  502    0  0.36136073001E+02 -0.40836205969E+02 -0.10398653509E+04  0.10412948537E+04  0.12699999809E+01 0. -1.
       -4    1    3    3    0  502 -0.36136073001E+02  0.40836205969E+02  0.28715795093E+03  0.29229217090E+03  0.12699999809E+01 0.  1.
</event>
<event>
 5   0  0.6109149E-04  0.1115308E+04  0.7818609E-02  0.9190399E-01
       -2   -1    0    0    0  501  0.00000000000E+00  0.00000000000E+00  0.20788435773E+03  0.20788435775E+03  0.25500000920E-02 0.  1.
        2   -1    0    0  501    0  0.00000000000E+00  0.00000000000E+00 -0.14959184269E+04  0.14959184269E+04  0.25500000920E-02 0. -1.
    10030    2    1    2    0    0  0.00000000000E+00  0.00000000000E+00 -0.12880340691E+04  0.17038027846E+04  0.11153081034E+04 0.  0.
        1    1    3    3  502    0  0.54248116819E+03  0.98804619934E+02 -0.77118772500E+03  0.94803938630E+03  0.50400001928E-02 0. -1.
       -1    1    3    3    0  502 -0.54248116819E+03 -0.98804619934E+02 -0.51684634414E+03  0.75576339831E+03  0.50400001928E-02 0.  1.
</event>
<event>
 5   0  0.3657529E-04  0.1099380E+04  0.7818609E-02  0.9205797E-01
        1   -1    0    0  501    0  0.00000000000E+00  0.00000000000E+00  0.14278479946E+04  0.14278479946E+04  0.50400001928E-02 0. -1.
       -1   -1    0    0    0  501  0.00000000000E+00  0.00000000000E+00 -0.21161845414E+03  0.21161845420E+03  0.50400001928E-02 0.  1.
    10030    2    1    2    0    0  0.00000000000E+00  0.00000000000E+00  0.12162295405E+04  0.16394664488E+04  0.10993797987E+04 0.  0.
        4    1    3    3  502    0 -0.47444475934E+03  0.20060756935E+03  0.89425171958E+03  0.10320024115E+04  0.12699999809E+01 0.  1.
       -4    1    3    3    0  502  0.47444475934E+03 -0.20060756935E+03  0.32197782088E+03  0.60746403728E+03  0.12699999809E+01 0. -1.
</event>
<event>
 5   0  0.6264830E-04  0.1099695E+04  0.7818609E-02  0.9205489E-01
       -2   -1    0    0    0  501  0.00000000000E+00  0.00000000000E+00  0.16871145725E+03  0.16871145727E+03  0.25500000920E-02 0.  1.
        2   -1    0    0  501    0  0.00000000000E+00  0.00000000000E+00 -0.17920084213E+04  0.17920084213E+04  0.25500000920E-02 0. -1.
    10030    2    1    2    0    0  0.00000000000E+00  0.00000000000E+00 -0.16232969641E+04  0.19607198786E+04  0.10996951435E+04 0.  0.
        4    1    3    3  502    0  0.18076874352E+03 -0.67308024653E+01  0.11413560214E+03  0.21389528024E+03  0.12699999809E+01 0.  1.
       -4    1    3    3    0  502 -0.18076874352E+03  0.67308024653E+01 -0.17374325662E+04  0.17468245984E+04  0.12699999809E+01 0. -1.
</event>
<event>
 5   0  0.3423758E-04  0.1099974E+04  0.7818609E-02  0.9205217E-01
        1   -1    0    0  501    0  0.00000000000E+00  0.00000000000E+00  0.16938303790E+04  0.16938303790E+04  0.50400001928E-02 0.  1.
       -1   -1    0    0    0  501  0.00000000000E+00  0.00000000000E+00 -0.17858096775E+03  0.17858096782E+03  0.50400001928E-02 0. -1.
    10030    2    1    2    0    0  0.00000000000E+00  0.00000000000E+00  0.15152494112E+04  0.18724113468E+04  0.10999743058E+04 0.  0.
        1    1    3    3  502    0  0.63054598636E+02 -0.20082282839E+03 -0.10730372177E+03  0.23626209925E+03  0.50400001928E-02 0. -1.
       -1    1    3    3    0  502 -0.63054598636E+02  0.20082282839E+03  0.16225531330E+04  0.16361492475E+04  0.50400001928E-02 0.  1.
</event>
<event>
 5   0  0.6245176E-04  0.1107284E+04  0.7818609E-02  0.9198122E-01
       -2   -1    0    0    0  501  0.00000000000E+00  0.00000000000E+00  0.64376941640E+03  0.64376941640E+03  0.25500000920E-02 0.  1.
        2   -1    0    0  501    0  0.00000000000E+00  0.00000000000E+00 -0.47613223488E+03  0.47613223489E+03  0.25500000920E-02 0. -1.
    10030    2    1    2    0    0  0.00000000000E+00  0.00000000000E+00  0.16763718152E+03  0.11199016513E+04  0.11072838317E+04 0.  0.
        5    1    3    3  502    0 -0.52812699434E+03 -0.84590369060E+02 -0.60721184613E+02  0.53831478240E+03  0.46999998093E+01 0. -1.
       -5    1    3    3    0  502  0.52812699434E+03  0.84590369060E+02  0.22835836613E+03  0.58158686889E+03  0.46999998093E+01 0.  1.
</event>
<event>
 5   0  0.6245176E-04  0.1099901E+04  0.7818609E-02  0.9205289E-01
        2   -1    0    0  501    0  0.00000000000E+00  0.00000000000E+00  0.79563327874E+03  0.79563327874E+03  0.25500000920E-02 0.  1.
       -2   -1    0    0    0  501  0.00000000000E+00  0.00000000000E+00 -0.38013168408E+03  0.38013168408E+03  0.25500000920E-02 0. -1.
    10030    2    1    2    0    0  0.00000000000E+00  0.00000000000E+00  0.41550159466E+03  0.11757649628E+04  0.10999007558E+04 0.  0.
        5    1    3    3  502    0 -0.33030943640E+03 -0.40200321105E+03  0.17388154909E+02  0.52061054868E+03  0.46999998093E+01 0.  1.
       -5    1    3    3    0  502  0.33030943640E+03  0.40200321105E+03  0.39811343975E+03  0.65515441415E+03  0.46999998093E+01 0. -1.
</event>
<event>
 5   0  0.6412712E-04  0.1100319E+04  0.7818609E-02  0.9204881E-01
        2   -1    0    0  501    0  0.00000000000E+00  0.00000000000E+00  0.41612227080E+03  0.41612227081E+03  0.25500000920E-02 0.  1.
       -2   -1    0    0    0  501  0.00000000000E+00  0.00000000000E+00 -0.72737202366E+03  0.72737202366E+03  0.25500000920E-02 0. -1.
    10030    2    1    2    0    0  0.00000000000E+00  0.00000000000E+00 -0.31124975286E+03  0.11434942945E+04  0.11003194049E+04 0.  0.
        2    1    3    3  502    0  0.31352108625E+03 -0.45040340017E+03 -0.19610189940E+03  0.58276466036E+03  0.25500000920E-02 0. -1.
       -2    1    3    3    0  502 -0.31352108625E+03  0.45040340017E+03 -0.11514785346E+03  0.56072963411E+03  0.25500000920E-02 0.  1.
</event>
<event>
 5   0  0.6412712E-04  0.1099191E+04  0.7818609E-02  0.9205980E-01
        2   -1    0    0  501    0  0.00000000000E+00  0.00000000000E+00  0.25106961443E+04  0.25106961443E+04  0.25500000920E-02 0. -1.
       -2   -1    0    0    0  501  0.00000000000E+00  0.00000000000E+00 -0.12030743200E+03  0.12030743203E+03  0.25500000920E-02 0.  1.
    10030    2    1    2    0    0  0.00000000000E+00  0.00000000000E+00  0.23903887123E+04  0.26310035764E+04  0.10991913495E+04 0.  0.
        2    1    3    3  502    0  0.18134527265E+03 -0.71056238627E+02  0.24253187610E+04  0.24331268338E+04  0.25500000920E-02 0. -1.
       -2    1    3    3    0  502 -0.18134527265E+03  0.71056238627E+02 -0.34930048616E+02  0.19787674260E+03  0.25500000920E-02 0.  1.
</event>
<event>
 5   0  0.6109149E-04  0.1097531E+04  0.7818609E-02  0.9207601E-01
        2   -1    0    0  501    0  0.00000000000E+00  0.00000000000E+00  0.95967265582E+03  0.95967265582E+03  0.25500000920E-02 0.  1.
       -2   -1    0    0    0  501  0.00000000000E+00  0.00000000000E+00 -0.31379848386E+03  0.31379848387E+03  0.25500000920E-02 0. -1.
    10030    2    1    2    0    0  0.00000000000E+00  0.00000000000E+00  0.64587417197E+03  0.12734711397E+04  0.10975314563E+04 0.  0.
        1    1    3    3  502    0  0.23994970586E+03 -0.36527182661E+03  0.70801929220E+03  0.83204007525E+03  0.50400001928E-02 0.  1.
       -1    1    3    3    0  502 -0.23994970586E+03  0.36527182661E+03 -0.62145120239E+02  0.44143106444E+03  0.50400001928E-02 0. -1.
</event>
<event>
 5   0  0.3621403E-04  0.1098808E+04  0.7818609E-02  0.9206354E-01
       -1   -1    0    0    0  501  0.00000000000E+00  0.00000000000E+00  0.71718246994E+03  0.71718246995E+03  0.50400001928E-02 0. -1.
        1   -1    0    0  501    0  0.00000000000E+00  0.00000000000E+00 -0.42087609431E+03  0.42087609434E+03  0.50400001928E-02 0.  1.
    10030    2    1    2    0    0  0.00000000000E+00  0.00000000000E+00  0.29630637562E+03  0.11380585643E+04  0.10988083671E+04 0.  0.
        3    1    3    3  502    0 -0.48436775544E+03  0.15362972118E+03  0.36449422521E+03  0.62535610987E+03  0.10100000352E+00 0. -1.
       -3    1    3    3    0  502  0.48436775544E+03 -0.15362972118E+03 -0.68187849586E+02  0.51270245443E+03  0.10100000352E+00 0.  1.
</event>
<event>
 5   0  0.3621403E-04  0.1095085E+04  0.7818609E-02  0.9209996E-01
       -1   -1    0    0    0  501  0.00000000000E+00  0.00000000000E+00  0.23182298816E+03  0.23182298822E+03  0.50400001928E-02 0. -1.
        1   -1    0    0  501    0  0.00000000000E+00  0.00000000000E+00 -0.12932394099E+04  0.12932394099E+04  0.50400001928E-02 0.  1.
    10030    2    1    2    0    0  0.00000000000E+00  0.00000000000E+00 -0.10614164217E+04  0.15250623981E+04  0.10950846989E+04 0.  0.
        3    1    3    3  502    0  0.42535711698E+03 -0.26004832181E+02 -0.51918962306E+02  0.42930236095E+03  0.10100000352E+00 0. -1.
       -3    1    3    3    0  502 -0.42535711698E+03  0.26004832181E+02 -0.10094974594E+04  0.10957600371E+04  0.10100000352E+00 0.  1.
</event>
<event>
 5   0  0.2403875E-04  0.1112449E+04  0.7818609E-02  0.9193142E-01
        3   -1    0    0  501    0  0.00000000000E+00  0.00000000000E+00  0.15597056403E+03  0.15597059673E+03  0.10100000352E+00 0. -1.
       -3   -1    0    0    0  501  0.00000000000E+00  0.00000000000E+00 -0.19836166224E+04  0.19836166250E+04  0.10100000352E+00 0.  1.
    10030    2    1    2    0    0  0.00000000000E+00  0.00000000000E+00 -0.18276460584E+04  0.21395872217E+04  0.11124492638E+04 0.  0.
        2    1    3    3  502    0 -0.11975341126E+03  0.19100952010E+03 -0.18918047214E+04  0.19051904420E+04  0.25500000920E-02 0.  1.
       -2    1    3    3    0  502  0.11975341126E+03 -0.19100952010E+03  0.64158663063E+02  0.23439677969E+03  0.25500000920E-02 0. -1.
</event>
<event>
 5   0  0.5948818E-04  0.1096688E+04  0.7818609E-02  0.9208426E-01
       -2   -1    0    0    0  501  0.00000000000E+00  0.00000000000E+00  0.53756852032E+03  0.53756852032E+03  0.25500000920E-02 0. -1.
        2   -1    0    0  501    0  0.00000000000E+00  0.00000000000E+00 -0.55933575886E+03  0.55933575887E+03  0.25500000920E-02 0.  1.
    10030    2    1    2    0    0  0.00000000000E+00  0.00000000000E+00 -0.21767238541E+02  0.10969042792E+04  0.10966882807E+04 0.  0.
        3    1    3    3  502    0 -0.34725994740E+03 -0.38383448252E+03 -0.19192453160E+03  0.55204476003E+03  0.10100000352E+00 0.  1.
       -3    1    3    3    0  502  0.34725994740E+03  0.38383448252E+03  0.17015729306E+03  0.54485951916E+03  0.10100000352E+00 0. -1.
</event>
<event>
 5   0  0.3423758E-04  0.1100104E+04  0.7818609E-02  0.9205090E-01
        1   -1    0    0  501    0  0.00000000000E+00  0.00000000000E+00  0.48975913679E+03  0.48975913682E+03  0.50400001928E-02 0.  1.
       -1   -1    0    0    0  501  0.00000000000E+00  0.00000000000E+00 -0.61776759714E+03  0.61776759716E+03  0.50400001928E-02 0. -1.
    10030    2    1    2    0    0  0.00000000000E+00  0.00000000000E+00 -0.12800846035E+03  0.11075267340E+04  0.11001042226E+04 0.  0.
        1    1    3    3  502    0  0.12835084167E+03  0.15168466403E+03 -0.58037339379E+03  0.61344555757E+03  0.50400001928E-02 0. -1.
       -1    1    3    3    0  502 -0.12835084167E+03 -0.15168466403E+03  0.45236493344E+03  0.49408117641E+03  0.50400001928E-02 0.  1.
</event>
<event>
 5   0  0.6412712E-04  0.1098888E+04  0.7818609E-02  0.9206277E-01
       -2   -1    0    0    0  501  0.00000000000E+00  0.00000000000E+00  0.31698771319E+03  0.31698771320E+03  0.25500000920E-02 0.  1.
        2   -1    0    0  501    0  0.00000000000E+00  0.00000000000E+00 -0.95236690646E+03  0.95236690646E+03  0.25500000920E-02 0. -1.
    10030    2    1    2    0    0  0.00000000000E+00  0.00000000000E+00 -0.63537919327E+03  0.12693546197E+04  0.10988878156E+04 0.  0.
        2    1    3    3  502    0  0.54883678766E+03  0.57511074316E+01 -0.28861083271E+03  0.62012184891E+03  0.25500000920E-02 0.  1.
       -2    1    3    3    0  502 -0.54883678766E+03 -0.57511074316E+01 -0.34676836056E+03  0.64923277075E+03  0.25500000920E-02 0. -1.
</event>
<event>
 5   0  0.3657529E-04  0.1116394E+04  0.7818609E-02  0.9189359E-01
        1   -1    0    0  501    0  0.00000000000E+00  0.00000000000E+00  0.82568794763E+03  0.82568794764E+03  0.50400001928E-02 0.  1.
       -1   -1    0    0    0  501  0.00000000000E+00  0.00000000000E+00 -0.37736275483E+03  0.37736275486E+03  0.50400001928E-02 0. -1.
    10030    2    1    2    0    0  0.00000000000E+00  0.00000000000E+00  0.44832519280E+03  0.12030507025E+04  0.11163939781E+04 0.  0.
        4    1    3    3  502    0 -0.17870438323E+03  0.34444431730E+02 -0.34449168787E+03  0.38961238607E+03  0.12699999809E+01 0. -1.
       -4    1    3    3    0  502  0.17870438323E+03 -0.34444431730E+02  0.79281688067E+03  0.81343831644E+03  0.12699999809E+01 0.  1.
</event>
<event>
 5   0  0.3423758E-04  0.1121330E+04  0.7818609E-02  0.9184648E-01
        1   -1    0    0  501    0  0.00000000000E+00  0.00000000000E+00  0.70899418548E+03  0.70899418550E+03  0.50400001928E-02 0. -1.
       -1   -1    0    0    0  501  0.00000000000E+00  0.00000000000E+00 -0.44336767081E+03  0.44336767084E+03  0.50400001928E-02 0.  1.
    10030    2    1    2    0    0  0.00000000000E+00  0.00000000000E+00  0.26562651467E+03  0.11523618563E+04  0.11213297475E+04 0.  0.
        1    1    3    3  502    0  0.22053578344E+03 -0.30258603959E+03 -0.29604938280E+03  0.47732544476E+03  0.50400001928E-02 0.  1.
       -1    1    3    3    0  502 -0.22053578344E+03  0.30258603959E+03  0.56167589747E+03  0.67503641158E+03  0.50400001928E-02 0. -1.
</event>
<event>
 5   0  0.3642161E-04  0.1098665E+04  0.7818609E-02  0.9206494E-01
       -1   -1    0    0    0  501  0.00000000000E+00  0.00000000000E+00  0.19539308782E+03  0.19539308788E+03  0.50400001928E-02 0.  1.
        1   -1    0    0  501    0  0.00000000000E+00  0.00000000000E+00 -0.15444054591E+04  0.15444054591E+04  0.50400001928E-02 0. -1.
    10030    2    1    2    0    0  0.00000000000E+00  0.00000000000E+00 -0.13490123713E+04  0.17397985470E+04  0.10986649199E+04 0.  0.
        2    1    3    3  502    0 -0.97546736544E+02  0.52003109833E+03 -0.90841445674E+03  0.10512680601E+04  0.25500000920E-02 0. -1.
       -2    1    3    3    0  502  0.97546736544E+02 -0.52003109833E+03 -0.44059791457E+03  0.68853048688E+03  0.25500000920E-02 0.  1.
</event>
<event>
 5   0  0.3621403E-04  0.1095614E+04  0.7818609E-02  0.9209477E-01
       -1   -1    0    0    0  501  0.00000000000E+00  0.00000000000E+00  0.59101390343E+03  0.59101390345E+03  0.50400001928E-02 0. -1.
        1   -1    0    0  501    0  0.00000000000E+00  0.00000000000E+00 -0.50775903648E+03  0.50775903650E+03  0.50400001928E-02 0.  1.
    10030    2    1    2    0    0  0.00000000000E+00  0.00000000000E+00  0.83254866953E+02  0.10987729400E+04  0.10956142573E+04 0.  0.
        3    1    3    3  502    0  0.54152662722E+03  0.32517266793E+02  0.11790049091E+03  0.55516573794E+03  0.10100000352E+00 0. -1.
       -3    1    3    3    0  502 -0.54152662722E+03 -0.32517266793E+02 -0.34645623955E+02  0.54360720202E+03  0.10100000352E+00 0.  1.
</event>
<event>
 5   0  0.6264830E-04  0.1100044E+04  0.7818609E-02  0.9205149E-01
        2   -1    0    0  501    0  0.00000000000E+00  0.00000000000E+00  0.20060480959E+04  0.20060480959E+04  0.25500000920E-02 0. -1.
       -2   -1    0    0    0  501  0.00000000000E+00  0.00000000000E+00 -0.15080604201E+03  0.15080604203E+03  0.25500000920E-02 0.  1.
    10030    2    1    2    0    0  0.00000000000E+00  0.00000000000E+00  0.18552420539E+04  0.21568541379E+04  0.11000439509E+04 0.  0.
        4    1    3    3  502    0  0.15040067565E+03 -0.11266010584E+03  0.19411519631E+04  0.19502269662E+04  0.12699999809E+01 0. -1.
       -4    1    3    3    0  502 -0.15040067565E+03  0.11266010584E+03 -0.85909909284E+02  0.20662717173E+03  0.12699999809E+01 0.  1.
</event>
<event>
 5   0  0.6264830E-04  0.1101834E+04  0.7818609E-02  0.9203406E-01
        2   -1    0    0  501    0  0.00000000000E+00  0.00000000000E+00  0.11154937530E+04  0.11154937530E+04  0.25500000920E-02 0. -1.
       -2   -1    0    0    0  501  0.00000000000E+00  0.00000000000E+00 -0.27208558640E+03  0.27208558641E+03  0.25500000920E-02 0.  1.
    10030    2    1    2    0    0  0.00000000000E+00  0.00000000000E+00  0.84340816656E+03  0.13875793394E+04  0.11018344193E+04 0.  0.
        4    1    3    3  502    0  0.20846596190E+03 -0.97107440278E+02  0.10521525118E+04  0.10769932373E+04  0.12699999809E+01 0. -1.
       -4    1    3    3    0  502 -0.20846596190E+03  0.97107440278E+02 -0.20874434524E+03  0.31058610207E+03  0.12699999809E+01 0.  1.
</event>
<event>
 5   0  0.3642161E-04  0.1102987E+04  0.7818609E-02  0.9202286E-01
       -1   -1    0    0    0  501  0.00000000000E+00  0.00000000000E+00  0.70050653545E+03  0.70050653547E+03  0.50400001928E-02 0.  1.
        1   -1    0    0  501    0  0.00000000000E+00  0.00000000000E+00 -0.43417859851E+03  0.43417859854E+03  0.50400001928E-02 0. -1.
    10030    2    1    2    0    0  0.00000000000E+00  0.00000000000E+00  0.26632793694E+03  0.11346851340E+04  0.11029867557E+04 0.  0.
        2    1    3    3  502    0  0.17261175479E+03 -0.52373810106E+03  0.14033047838E+03  0.56902465637E+03  0.25500000920E-02 0. -1.
       -2    1    3    3    0  502 -0.17261175479E+03  0.52373810106E+03  0.12599745856E+03  0.56566047764E+03  0.25500000920E-02 0.  1.
</event>
<event>
 5   0  0.6264830E-04  0.1098982E+04  0.7818609E-02  0.9206185E-01
       -2   -1    0    0    0  501  0.00000000000E+00  0.00000000000E+00  0.78090310326E+03  0.78090310327E+03  0.25500000920E-02 0. -1.
        2   -1    0    0  501    0  0.00000000000E+00  0.00000000000E+00 -0.38665541086E+03  0.38665541087E+03  0.25500000920E-02 0.  1.
    10030    2    1    2    0    0  0.00000000000E+00  0.00000000000E+00  0.39424769241E+03  0.11675585141E+04  0.10989820931E+04 0.  0.
        4    1    3    3  502    0  0.38128463445E+03 -0.23596929351E+03 -0.14031036078E+03  0.46983836603E+03  0.12699999809E+01 0. -1.
       -4    1    3    3    0  502 -0.38128463445E+03  0.23596929351E+03  0.53455805318E+03  0.69772014811E+03  0.12699999809E+01 0.  1.
</event>
<event>
 5   0  0.6109149E-04  0.1097965E+04  0.7818609E-02  0.9207177E-01
        2   -1    0    0  501    0  0.00000000000E+00  0.00000000000E+00  0.17427314052E+04  0.17427314052E+04  0.25500000920E-02 0. -1.
       -2   -1    0    0    0  501  0.00000000000E+00  0.00000000000E+00 -0.17293659815E+03  0.17293659817E+03  0.25500000920E-02 0.  1.
    10030    2    1    2    0    0  0.00000000000E+00  0.00000000000E+00  0.15697948070E+04  0.19156680033E+04  0.10979654653E+04 0.  0.
        1    1    3    3  502    0 -0.24621736874E+03  0.39810985599E+02  0.16381717124E+04  0.16570499288E+04  0.50400001928E-02 0. -1.
       -1    1    3    3    0  502  0.24621736874E+03 -0.39810985599E+02 -0.68376905403E+02  0.25861807451E+03  0.50400001928E-02 0.  1.
</event>
<event>
 5   0  0.6264830E-04  0.1101749E+04  0.7818609E-02  0.9203489E-01
        2   -1    0    0  501    0  0.00000000000E+00  0.00000000000E+00  0.68901130233E+03  0.68901130234E+03  0.25500000920E-02 0. -1.
       -2   -1    0    0    0  501  0.00000000000E+00  0.00000000000E+00 -0.44043199391E+03  0.44043199392E+03  0.25500000920E-02 0.  1.
    10030    2    1    2    0    0  0.00000000000E+00  0.00000000000E+00  0.24857930842E+03  0.11294432963E+04  0.11017488311E+04 0.  0.
        4    1    3    3  502    0  0.47647354906E+02  0.49059234798E+03 -0.12788126571E+03  0.50922132059E+03  0.12699999809E+01 0.  1.
       -4    1    3    3    0  502 -0.47647354906E+02 -0.49059234798E+03  0.37646057413E+03  0.62022197567E+03  0.12699999809E+01 0. -1.
</event>
<event>
 5   0  0.3621403E-04  0.1100728E+04  0.7818609E-02  0.9204482E-01
        1   -1    0    0  501    0  0.00000000000E+00  0.00000000000E+00  0.66898979920E+03  0.66898979921E+03  0.50400001928E-02 0. -1.
       -1   -1    0    0    0  501  0.00000000000E+00  0.00000000000E+00 -0.45277335572E+03  0.45277335575E+03  0.50400001928E-02 0.  1.
    10030    2    1    2    0    0  0.00000000000E+00  0.00000000000E+00  0.21621644347E+03  0.11217631550E+04  0.11007284067E+04 0.  0.
        3    1    3    3  502    0  0.75566846186E+02  0.39640529927E+03  0.48949670235E+03  0.63439304957E+03  0.10100000352E+00 0. -1.
       -3    1    3    3    0  502 -0.75566846186E+02 -0.39640529927E+03 -0.27328025888E+03  0.48737010539E+03  0.10100000352E+00 0.  1.
</event>
<event>
 5   0  0.6245176E-04  0.1091944E+04  0.7818609E-02  0.9213079E-01
        2   -1    0    0  501    0  0.00000000000E+00  0.00000000000E+00  0.16378088755E+04  0.16378088755E+04  0.25500000920E-02 0. -1.
       -2   -1    0    0    0  501  0.00000000000E+00  0.00000000000E+00 -0.18200259500E+03  0.18200259502E+03  0.25500000920E-02 0.  1.
    10030    2    1    2    0    0  0.00000000000E+00  0.00000000000E+00  0.14558062805E+04  0.18198114705E+04  0.10919440745E+04 0.  0.
        5    1    3    3  502    0  0.37154650963E+03  0.28638522246E+03  0.26245264021E+03  0.53755630665E+03  0.46999998093E+01 0.  1.
       -5    1    3    3    0  502 -0.37154650963E+03 -0.28638522246E+03  0.11933536402E+04  0.12822551638E+04  0.46999998093E+01 0. -1.
</event>
<event>
 5   0  0.3621403E-04  0.1102464E+04  0.7818609E-02  0.9202794E-01
       -1   -1    0    0    0  501  0.00000000000E+00  0.00000000000E+00  0.19568100823E+03  0.19568100829E+03  0.50400001928E-02 0. -1.
        1   -1    0    0  501    0  0.00000000000E+00  0.00000000000E+00 -0.15528159345E+04  0.15528159345E+04  0.50400001928E-02 0.  1.
    10030    2    1    2    0    0  0.00000000000E+00  0.00000000000E+00 -0.13571349263E+04  0.17484969428E+04  0.11024637640E+04 0.  0.
        3    1    3    3  502    0  0.18308890916E+03 -0.19083264046E+03 -0.14456327184E+04  0.14696232891E+04  0.10100000352E+00 0.  1.
       -3    1    3    3    0  502 -0.18308890916E+03  0.19083264046E+03  0.88497792074E+02  0.27887365369E+03  0.10100000352E+00 0. -1.
</event>
<event>
 5   0  0.3621403E-04  0.1099877E+04  0.7818609E-02  0.9205312E-01
       -1   -1    0    0    0  501  0.00000000000E+00  0.00000000000E+00  0.61871668859E+03  0.61871668861E+03  0.50400001928E-02 0.  1.
        1   -1    0    0  501    0  0.00000000000E+00  0.00000000000E+00 -0.48880543633E+03  0.48880543635E+03  0.50400001928E-02 0. -1.
    10030    2    1    2    0    0  0.00000000000E+00  0.00000000000E+00  0.12991125226E+03  0.11075221250E+04  0.10998765039E+04 0.  0.
        3    1    3    3  502    0  0.30841287534E+03 -0.14623563953E+03 -0.36923626726E+03  0.50283078188E+03  0.10100000352E+00 0. -1.
       -3    1    3    3    0  502 -0.30841287534E+03  0.14623563953E+03  0.49914751953E+03  0.60469134308E+03  0.10100000352E+00 0.  1.
</event>
<event>
 5   0  0.5948818E-04  0.1089526E+04  0.7818609E-02  0.9215461E-01
       -2   -1    0    0    0  501  0.00000000000E+00  0.00000000000E+00  0.24514858214E+03  0.24514858216E+03  0.25500000920E-02 0.  1.
        2   -1    0    0  501    0  0.00000000000E+00  0.00000000000E+00 -0.12105592886E+04  0.12105592886E+04  0.25500000920E-02 0. -1.
    10030    2    1    2    0    0  0.00000000000E+00  0.00000000000E+00 -0.96541070647E+03  0.14557078708E+04  0.10895263066E+04 0.  0.
        3    1    3    3  502    0 -0.30755540997E+03 -0.37688269714E+03 -0.15506021705E+03  0.51056300171E+03  0.10100000352E+00 0.  1.
       -3    1    3    3    0  502  0.30755540997E+03  0.37688269714E+03 -0.81035048942E+03  0.94514486906E+03  0.10100000352E+00 0. -1.
</event>
<event>
 5   0  0.3423758E-04  0.1102081E+04  0.7818609E-02  0.9203166E-01
        1   -1    0    0  501    0  0.00000000000E+00  0.00000000000E+00  0.50756474600E+03  0.50756474603E+03  0.50400001928E-02 0.  1.
       -1   -1    0    0    0  501  0.00000000000E+00  0.00000000000E+00 -0.59824042637E+03  0.59824042639E+03  0.50400001928E-02 0. -1.
    10030    2    1    2    0    0  0.00000000000E+00  0.00000000000E+00 -0.90675680367E+02  0.11058051724E+04  0.11020812131E+04 0.  0.
        1    1    3    3  502    0  0.16420973208E+03  0.37997750949E+03  0.31961913421E+03  0.52297622776E+03  0.50400001928E-02 0.  1.
       -1    1    3    3    0  502 -0.16420973208E+03 -0.37997750949E+03 -0.41029481458E+03  0.58282894465E+03  0.50400001928E-02 0. -1.
</event>
<event>
 5   0  0.3657529E-04  0.1103369E+04  0.7818609E-02  0.9201914E-01
       -1   -1    0    0    0  501  0.00000000000E+00  0.00000000000E+00  0.48123744548E+03  0.48123744550E+03  0.50400001928E-02 0. -1.
        1   -1    0    0  501    0  0.00000000000E+00  0.00000000000E+00 -0.63244413083E+03  0.63244413085E+03  0.50400001928E-02 0.  1.
    10030    2    1    2    0    0  0.00000000000E+00  0.00000000000E+00 -0.15120668535E+03  0.11136815764E+04  0.11033690189E+04 0.  0.
        4    1    3    3  502    0 -0.16241840907E+03  0.52721063676E+03 -0.70721825841E+02  0.55617801526E+03  0.12699999809E+01 0.  1.
       -4    1    3    3    0  502  0.16241840907E+03 -0.52721063676E+03 -0.80484859509E+02  0.55750356109E+03  0.12699999809E+01 0. -1.
</event>
<event>
 5   0  0.3523525E-04  0.1100995E+04  0.7818609E-02  0.9204222E-01
       -1   -1    0    0    0  501  0.00000000000E+00  0.00000000000E+00  0.47168583276E+03  0.47168583279E+03  0.50400001928E-02 0.  1.
        1   -1    0    0  501    0  0.00000000000E+00  0.00000000000E+00 -0.64247781634E+03  0.64247781636E+03  0.50400001928E-02 0. -1.
    10030    2    1    2    0    0  0.00000000000E+00  0.00000000000E+00 -0.17079198358E+03  0.11141636491E+04  0.11009953385E+04 0.  0.
        5    1    3    3  502    0 -0.16952338617E+03  0.29985722587E+03  0.34912647464E+03  0.49047315896E+03  0.46999998093E+01 0.  1.
       -5    1    3    3    0  502  0.16952338617E+03 -0.29985722587E+03 -0.51991845822E+03  0.62369049019E+03  0.46999998093E+01 0. -1.
</event>
<event>
 5   0  0.3657529E-04  0.1099292E+04  0.7818609E-02  0.9205883E-01
        1   -1    0    0  501    0  0.00000000000E+00  0.00000000000E+00  0.79773074821E+03  0.79773074823E+03  0.50400001928E-02 0. -1.
       -1   -1    0    0    0  501  0.00000000000E+00  0.00000000000E+00 -0.37871230941E+03  0.37871230944E+03  0.50400001928E-02 0.  1.
    10030    2    1    2    0    0  0.00000000000E+00  0.00000000000E+00  0.41901843880E+03  0.11764430577E+04  0.10992915063E+04 0.  0.
        4    1    3    3  502    0  0.26538494830E+03 -0.48112035946E+03  0.22475209670E+03  0.59365064553E+03  0.12699999809E+01 0. -1.
       -4    1    3    3    0  502 -0.26538494830E+03  0.48112035946E+03  0.19426634210E+03  0.58279241214E+03  0.12699999809E+01 0.  1.
</event>
<event>
 5   0  0.3423758E-04  0.1100882E+04  0.7818609E-02  0.9204333E-01
        1   -1    0    0  501    0  0.00000000000E+00  0.00000000000E+00  0.11302394774E+04  0.11302394774E+04  0.50400001928E-02 0.  1.
       -1   -1    0    0    0  501  0.00000000000E+00  0.00000000000E+00 -0.26807160439E+03  0.26807160443E+03  0.50400001928E-02 0. -1.
    10030    2    1    2    0    0  0.00000000000E+00  0.00000000000E+00  0.86216787297E+03  0.13983110818E+04  0.11008816650E+04 0.  0.
        1    1    3    3  502    0 -0.13499796274E+03  0.44289322737E+03  0.52993809048E+02  0.46603348015E+03  0.50400001928E-02 0. -1.
       -1    1    3    3    0  502  0.13499796274E+03 -0.44289322737E+03  0.80917406392E+03  0.93227760165E+03  0.50400001928E-02 0.  1.
</event>
<event>
 5   0  0.6264830E-04  0.1103865E+04  0.7818609E-02  0.9201433E-01
       -2   -1    0    0    0  501  0.00000000000E+00  0.00000000000E+00  0.72156415096E+03  0.72156415096E+03  0.25500000920E-02 0. -1.
        2   -1    0    0  501    0  0.00000000000E+00  0.00000000000E+00 -0.42217940902E+03  0.42217940903E+03  0.25500000920E-02 0.  1.
    10030    2    1    2    0    0  0.00000000000E+00  0.00000000000E+00  0.29938474194E+03  0.11437435600E+04  0.11038650766E+04 0.  0.
        4    1    3    3  502    0  0.16047351083E+03  0.32817766792E+03 -0.27898798028E+03  0.45966100056E+03  0.12699999809E+01 0. -1.
       -4    1    3    3    0  502 -0.16047351083E+03 -0.32817766792E+03  0.57837272222E+03  0.68408255942E+03  0.12699999809E+01 0.  1.
</event>
<event>
 5   0  0.3657529E-04  0.1101508E+04  0.7818609E-02  0.9203723E-01
       -1   -1    0    0    0  501  0.00000000000E+00  0.00000000000E+00  0.60190743991E+03  0.60190743993E+03  0.50400001928E-02 0.  1.
        1   -1    0    0  501    0  0.00000000000E+00  0.00000000000E+00 -0.50394782231E+03  0.50394782233E+03  0.50400001928E-02 0. -1.
    10030    2    1    2    0    0  0.00000000000E+00  0.00000000000E+00  0.97959617605E+02  0.11058552623E+04  0.11015079548E+04 0.  0.
        4    1    3    3  502    0 -0.14474740918E+03 -0.53137546971E+03  0.44885918326E+02  0.55256498336E+03  0.12699999809E+01 0. -1.
       -4    1    3    3    0  502  0.14474740918E+03  0.53137546971E+03  0.53073699279E+02  0.55329027890E+03  0.12699999809E+01 0.  1.
</event>
<event>
 5   0  0.3657529E-04  0.1096385E+04  0.7818609E-02  0.9208722E-01
       -1   -1    0    0    0  501  0.00000000000E+00  0.00000000000E+00  0.29507771342E+03  0.29507771346E+03  0.50400001928E-02 0.  1.
        1   -1    0    0  501    0  0.00000000000E+00  0.00000000000E+00 -0.10184270586E+04  0.10184270586E+04  0.50400001928E-02 0. -1.
    10030    2    1    2    0    0  0.00000000000E+00  0.00000000000E+00 -0.72334934519E+03  0.13135047721E+04  0.10963852020E+04 0.  0.
        4    1    3    3  502    0 -0.45307055974E+02  0.54599036559E+03 -0.33909228237E+03  0.64431622477E+03  0.12699999809E+01 0.  1.
       -4    1    3    3    0  502  0.45307055974E+02 -0.54599036559E+03 -0.38425706282E+03  0.66918854732E+03  0.12699999809E+01 0. -1.
</event>
<event>
 5   0  0.3621403E-04  0.1100339E+04  0.7818609E-02  0.9204862E-01
        1   -1    0    0  501    0  0.00000000000E+00  0.00000000000E+00  0.63690937330E+03  0.63690937332E+03  0.50400001928E-02 0. -1.
       -1   -1    0    0    0  501  0.00000000000E+00  0.00000000000E+00 -0.47524249458E+03  0.47524249461E+03  0.50400001928E-02 0.  1.
    10030    2    1    2    0    0  0.00000000000E+00  0.00000000000E+00  0.16166687871E+03  0.11121518679E+04  0.11003388558E+04 0.  0.
        3    1    3    3  502    0 -0.37896092787E+03  0.35414087506E+03 -0.10460075906E+03  0.52912047138E+03  0.10100000352E+00 0.  1.
       -3    1    3    3    0  502  0.37896092787E+03 -0.35414087506E+03  0.26626763777E+03  0.58303139655E+03  0.10100000352E+00 0. -1.
</event>
<event>
 5   0  0.3621403E-04  0.1100046E+04  0.7818609E-02  0.9205147E-01
       -1   -1    0    0    0  501  0.00000000000E+00  0.00000000000E+00  0.55480571095E+03  0.55480571097E+03  0.50400001928E-02 0.  1.
        1   -1    0    0  501    0  0.00000000000E+00  0.00000000000E+00 -0.54528117911E+03  0.54528117913E+03  0.50400001928E-02 0. -1.
    10030    2    1    2    0    0  0.00000000000E+00  0.00000000000E+00  0.95245318390E+01  0.11000868901E+04  0.11000456577E+04 0.  0.
        3    1    3    3  502    0 -0.21925241080E+03 -0.50789368724E+02 -0.49712696937E+03  0.54569809739E+03  0.10100000352E+00 0. -1.
       -3    1    3    3    0  502  0.21925241080E+03  0.50789368724E+02  0.50665150120E+03  0.55438879272E+03  0.10100000352E+00 0.  1.
</event>
<event>
 5   0  0.6264830E-04  0.1099010E+04  0.7818609E-02  0.9206157E-01
        2   -1    0    0  501    0  0.00000000000E+00  0.00000000000E+00  0.54909437013E+03  0.54909437014E+03  0.25500000920E-02 0. -1.
       -2   -1    0    0    0  501  0.00000000000E+00  0.00000000000E+00 -0.54991578559E+03  0.54991578560E+03  0.25500000920E-02 0.  1.
    10030    2    1    2    0    0  0.00000000000E+00  0.00000000000E+00 -0.82141545727E+00  0.10990101557E+04  0.10990098488E+04 0.  0.
        4    1    3    3  502    0  0.47143091344E+03 -0.12768531425E+03  0.25138968706E+03  0.54931687875E+03  0.12699999809E+01 0. -1.
       -4    1    3    3    0  502 -0.47143091344E+03  0.12768531425E+03 -0.25221110252E+03  0.54969327698E+03  0.12699999809E+01 0.  1.
</event>
<event>
 5   0  0.3642161E-04  0.1097506E+04  0.7818609E-02  0.9207626E-01
       -1   -1    0    0    0  501  0.00000000000E+00  0.00000000000E+00  0.68057495879E+03  0.68057495881E+03  0.50400001928E-02 0. -1.
        1   -1    0    0  501    0  0.00000000000E+00  0.00000000000E+00 -0.44246413857E+03  0.44246413860E+03  0.50400001928E-02 0.  1.
    10030    2    1    2    0    0  0.00000000000E+00  0.00000000000E+00  0.23811082022E+03  0.11230390974E+04  0.10975062877E+04 0.  0.
        2    1    3    3  502    0  0.65426539617E+01  0.35559466925E+03  0.54667665150E+03  0.65218535434E+03  0.25500000920E-02 0. -1.
       -2    1    3    3    0  502 -0.65426539617E+01 -0.35559466925E+03 -0.30856583128E+03  0.47085374306E+03  0.25500000920E-02 0.  1.
</event>
<event>
 5   0  0.3657529E-04  0.1101879E+04  0.7818609E-02  0.9203363E-01
       -1   -1    0    0    0  501  0.00000000000E+00  0.00000000000E+00  0.86532128990E+03  0.86532128992E+03  0.50400001928E-02 0. -1.
        1   -1    0    0  501    0  0.00000000000E+00  0.00000000000E+00 -0.35077613945E+03  0.35077613949E+03  0.50400001928E-02 0.  1.
    10030    2    1    2    0    0  0.00000000000E+00  0.00000000000E+00  0.51454515045E+03  0.12160974294E+04  0.11018785078E+04 0.  0.
        4    1    3    3  502    0  0.47021612524E+03  0.94398353595E+02  0.55652113998E+03  0.73466430820E+03  0.12699999809E+01 0. -1.
       -4    1    3    3    0  502 -0.47021612524E+03 -0.94398353595E+02 -0.41975989532E+02  0.48143312121E+03  0.12699999809E+01 0.  1.
</event>
<event>
 5   0  0.6264830E-04  0.1100115E+04  0.7818609E-02  0.9205080E-01
       -2   -1    0    0    0  501  0.00000000000E+00  0.00000000000E+00  0.24971806435E+03  0.24971806436E+03  0.25500000920E-02 0. -1.
        2   -1    0    0  501    0  0.00000000000E+00  0.00000000000E+00 -0.12116183612E+04  0.12116183612E+04  0.25500000920E-02 0.  1.
    10030    2    1    2    0    0  0.00000000000E+00  0.00000000000E+00 -0.96190029687E+03  0.14613364256E+04  0.11001145248E+04 0.  0.
        4    1    3    3  502    0  0.35261946764E+03 -0.15434029442E+03 -0.10029085684E+04  0.10742386257E+04  0.12699999809E+01 0.  1.
       -4    1    3    3    0  502 -0.35261946764E+03  0.15434029442E+03  0.41008271550E+02  0.38709779988E+03  0.12699999809E+01 0. -1.
</event>
<event>
 5   0  0.6245176E-04  0.1100681E+04  0.7818609E-02  0.9204528E-01
        2   -1    0    0  501    0  0.00000000000E+00  0.00000000000E+00  0.15630232003E+04  0.15630232003E+04  0.25500000920E-02 0.  1.
       -2   -1    0    0    0  501  0.00000000000E+00  0.00000000000E+00 -0.19377501349E+03  0.19377501350E+03  0.25500000920E-02 0. -1.
    10030    2    1    2    0    0  0.00000000000E+00  0.00000000000E+00  0.13692481868E+04  0.17567982138E+04  0.11006813194E+04 0.  0.
        5    1    3    3  502    0 -0.60230165696E+02 -0.40977255864E+03  0.12630020262E+04  0.13291867554E+04  0.46999998093E+01 0. -1.
       -5    1    3    3    0  502  0.60230165696E+02  0.40977255864E+03  0.10624616061E+03  0.42761145836E+03  0.46999998093E+01 0.  1.
</event>
<event>
 5   0  0.3657529E-04  0.1081072E+04  0.7818609E-02  0.9223839E-01
       -1   -1    0    0    0  501  0.00000000000E+00  0.00000000000E+00  0.36207955434E+03  0.36207955437E+03  0.50400001928E-02 0.  1.
        1   -1    0    0  501    0  0.00000000000E+00  0.00000000000E+00 -0.80694711433E+03  0.80694711435E+03  0.50400001928E-02 0. -1.
    10030    2    1    2    0    0  0.00000000000E+00  0.00000000000E+00 -0.44486755999E+03  0.11690266687E+04  0.10810717859E+04 0.  0.
        4    1    3    3  502    0  0.20761715174E+03 -0.45106069955E+03 -0.45339140485E+03  0.67240316423E+03  0.12699999809E+01 0.  1.
       -4    1    3    3    0  502 -0.20761715174E+03  0.45106069955E+03  0.85238448571E+01  0.49662350449E+03  0.12699999809E+01 0. -1.
</event>
<event>
 5   0  0.6264830E-04  0.1099820E+04  0.7818609E-02  0.9205367E-01
       -2   -1    0    0    0  501  0.00000000000E+00  0.00000000000E+00  0.82399947880E+03  0.82399947880E+03  0.25500000920E-02 0. -1.
        2   -1    0    0  501    0  0.00000000000E+00  0.00000000000E+00 -0.36699205366E+03  0.36699205367E+03  0.25500000920E-02 0.  1.
    10030    2    1    2    0    0  0.00000000000E+00  0.00000000000E+00  0.45700742514E+03  0.11909915325E+04  0.10998204598E+04 0.  0.
        4    1    3    3  502    0  0.35650706134E+03 -0.25994388790E+03 -0.12692974811E+03  0.45910879266E+03  0.12699999809E+01 0.  1.
       -4    1    3    3    0  502 -0.35650706134E+03  0.25994388790E+03  0.58393717324E+03  0.73188273981E+03  0.12699999809E+01 0. -1.
</event>
<event>
 5   0  0.5948818E-04  0.1099042E+04  0.7818609E-02  0.9206126E-01
        2   -1    0    0  501    0  0.00000000000E+00  0.00000000000E+00  0.50023019395E+03  0.50023019395E+03  0.25500000920E-02 0.  1.
       -2   -1    0    0    0  501  0.00000000000E+00  0.00000000000E+00 -0.60366913360E+03  0.60366913360E+03  0.25500000920E-02 0. -1.
    10030    2    1    2    0    0  0.00000000000E+00  0.00000000000E+00 -0.10343893965E+03  0.11038993276E+04  0.10990423609E+04 0.  0.
        3    1    3    3  502    0 -0.20387219039E+03 -0.51029744463E+03 -0.54213500217E+02  0.55218336250E+03  0.10100000352E+00 0.  1.
       -3    1    3    3    0  502  0.20387219039E+03  0.51029744463E+03 -0.49225439436E+02  0.55171596506E+03  0.10100000352E+00 0. -1.
</event>
<event>
 5   0  0.3523525E-04  0.1098717E+04  0.7818609E-02  0.9206444E-01
        1   -1    0    0  501    0  0.00000000000E+00  0.00000000000E+00  0.10564462854E+04  0.10564462854E+04  0.50400001928E-02 0.  1.
       -1   -1    0    0    0  501  0.00000000000E+00  0.00000000000E+00 -0.28566958130E+03  0.28566958135E+03  0.50400001928E-02 0. -1.
    10030    2    1    2    0    0  0.00000000000E+00  0.00000000000E+00  0.77077670406E+03  0.13421158667E+04  0.10987166478E+04 0.  0.
        5    1    3    3  502    0 -0.40258411275E+03 -0.57390842129E+02 -0.65759749910E+02  0.41196372571E+03  0.46999998093E+01 0. -1.
       -5    1    3    3    0  502  0.40258411275E+03  0.57390842129E+02  0.83653645397E+03  0.93015214100E+03  0.46999998093E+01 0.  1.
</event>
<event>
 5   0  0.6412712E-04  0.1108683E+04  0.7818609E-02  0.9196770E-01
       -2   -1    0    0    0  501  0.00000000000E+00  0.00000000000E+00  0.22302109735E+03  0.22302109737E+03  0.25500000920E-02 0. -1.
        2   -1    0    0  501    0  0.00000000000E+00  0.00000000000E+00 -0.13778716047E+04  0.13778716047E+04  0.25500000920E-02 0.  1.
    10030    2    1    2    0    0  0.00000000000E+00  0.00000000000E+00 -0.11548505073E+04  0.16008927020E+04  0.11086828894E+04 0.  0.
        2    1    3    3  502    0  0.27185253761E+03 -0.34095737944E+03 -0.10716279160E+04  0.11569538138E+04  0.25500000920E-02 0.  1.
       -2    1    3    3    0  502 -0.27185253761E+03  0.34095737944E+03 -0.83222591282E+02  0.44393888825E+03  0.25500000920E-02 0. -1.
</event>
<event>
 5   0  0.3523525E-04  0.1098205E+04  0.7818609E-02  0.9206943E-01
       -1   -1    0    0    0  501  0.00000000000E+00  0.00000000000E+00  0.39998044851E+03  0.39998044855E+03  0.50400001928E-02 0.  1.
        1   -1    0    0  501    0  0.00000000000E+00  0.00000000000E+00 -0.75382058319E+03  0.75382058321E+03  0.50400001928E-02 0. -1.
    10030    2    1    2    0    0  0.00000000000E+00  0.00000000000E+00 -0.35384013468E+03  0.11538010318E+04  0.10982048898E+04 0.  0.
        5    1    3    3  502    0  0.27187632701E+03 -0.25846363892E+03 -0.59818149675E+03  0.70609020874E+03  0.46999998093E+01 0. -1.
       -5    1    3    3    0  502 -0.27187632701E+03  0.25846363892E+03  0.24434136207E+03  0.44771082302E+03  0.46999998093E+01 0.  1.
</event>
<event>
 5   0  0.6412712E-04  0.1087722E+04  0.7818609E-02  0.9217242E-01
       -2   -1    0    0    0  501  0.00000000000E+00  0.00000000000E+00  0.54490438736E+03  0.54490438737E+03  0.25500000920E-02 0. -1.
        2   -1    0    0  501    0  0.00000000000E+00  0.00000000000E+00 -0.54281956168E+03  0.54281956169E+03  0.25500000920E-02 0.  1.
    10030    2    1    2    0    0  0.00000000000E+00  0.00000000000E+00  0.20848256793E+01  0.10877239491E+04  0.10877219511E+04 0.  0.
        2    1    3    3  502    0  0.36225931760E+03 -0.12055902950E+03 -0.38628047449E+03  0.54311959802E+03  0.25500000920E-02 0.  1.
       -2    1    3    3    0  502 -0.36225931760E+03  0.12055902950E+03  0.38836530017E+03  0.54460435103E+03  0.25500000920E-02 0. -1.
</event>
<event>
 5   0  0.3621403E-04  0.1098497E+04  0.7818609E-02  0.9206658E-01
       -1   -1    0    0    0  501  0.00000000000E+00  0.00000000000E+00  0.73190937826E+03  0.73190937828E+03  0.50400001928E-02 0. -1.
        1   -1    0    0  501    0  0.00000000000E+00  0.00000000000E+00 -0.41217359083E+03  0.41217359086E+03  0.50400001928E-02 0.  1.
    10030    2    1    2    0    0  0.00000000000E+00  0.00000000000E+00  0.31973578743E+03  0.11440829691E+04  0.10984966393E+04 0.  0.
        3    1    3    3  502    0 -0.33320659584E+03  0.48686812335E+02 -0.29204739779E+03  0.44574514464E+03  0.10100000352E+00 0.  1.
       -3    1    3    3    0  502  0.33320659584E+03 -0.48686812335E+02  0.61178318522E+03  0.69833782450E+03  0.10100000352E+00 0. -1.
</event>
<event>
 5   0  0.5948818E-04  0.1094953E+04  0.7818609E-02  0.9210125E-01
        2   -1    0    0  501    0  0.00000000000E+00  0.00000000000E+00  0.87892547831E+03  0.87892547831E+03  0.25500000920E-02 0. -1.
       -2   -1    0    0    0  501  0.00000000000E+00  0.00000000000E+00 -0.34101933177E+03  0.34101933178E+03  0.25500000920E-02 0.  1.
    10030    2    1    2    0    0  0.00000000000E+00  0.00000000000E+00  0.53790614654E+03  0.12199448101E+04  0.10949531119E+04 0.  0.
        3    1    3    3  502    0  0.36606814409E+03 -0.25754611112E+03  0.62021108558E+03  0.76485141455E+03  0.10100000352E+00 0. -1.
       -3    1    3    3    0  502 -0.36606814409E+03  0.25754611112E+03 -0.82304939041E+02  0.45509339554E+03  0.10100000352E+00 0.  1.
</event>
<event>
 5   0  0.3642161E-04  0.1101468E+04  0.7818609E-02  0.9203762E-01
       -1   -1    0    0    0  501  0.00000000000E+00  0.00000000000E+00  0.23093904426E+03  0.23093904431E+03  0.50400001928E-02 0. -1.
        1   -1    0    0  501    0  0.00000000000E+00  0.00000000000E+00 -0.13133686552E+04  0.13133686553E+04  0.50400001928E-02 0.  1.
    10030    2    1    2    0    0  0.00000000000E+00  0.00000000000E+00 -0.10824296110E+04  0.15443076996E+04  0.11014682965E+04 0.  0.
        2    1    3    3  502    0  0.13769666300E+03  0.53238445745E+03 -0.49881551798E+03  0.74243552079E+03  0.25500000920E-02 0. -1.
       -2    1    3    3    0  502 -0.13769666300E+03 -0.53238445745E+03 -0.58361409300E+03  0.80187217878E+03  0.25500000920E-02 0.  1.
</event>
<event>
 5   0  0.3423758E-04  0.1100615E+04  0.7818609E-02  0.9204593E-01
       -1   -1    0    0    0  501  0.00000000000E+00  0.00000000000E+00  0.49212861486E+03  0.49212861488E+03  0.50400001928E-02 0. -1.
        1   -1    0    0  501    0  0.00000000000E+00  0.00000000000E+00 -0.61536422746E+03  0.61536422748E+03  0.50400001928E-02 0.  1.
    10030    2    1    2    0    0  0.00000000000E+00  0.00000000000E+00 -0.12323561260E+03  0.11074928424E+04  0.11006150007E+04 0.  0.
        1    1    3    3  502    0  0.62602045151E+02  0.28655279288E+03  0.40691712603E+03  0.50161047302E+03  0.50400001928E-02 0. -1.
       -1    1    3    3    0  502 -0.62602045151E+02 -0.28655279288E+03 -0.53015273863E+03  0.60588236933E+03  0.50400001928E-02 0.  1.
</event>
<event>
 5   0  0.6412712E-04  0.1099060E+04  0.7818609E-02  0.9206109E-01
       -2   -1    0    0    0  501  0.00000000000E+00  0.00000000000E+00  0.59721312037E+03  0.59721312038E+03  0.25500000920E-02 0.  1.
        2   -1    0    0  501    0  0.00000000000E+00  0.00000000000E+00 -0.50565400398E+03  0.50565400399E+03  0.25500000920E-02 0. -1.
    10030    2    1    2    0    0  0.00000000000E+00  0.00000000000E+00  0.91559116392E+02  0.11028671244E+04  0.10990599721E+04 0.  0.
        2    1    3    3  502    0 -0.44072375372E+03 -0.26183327776E+03  0.24442770478E+03  0.56792516700E+03  0.25500000920E-02 0.  1.
       -2    1    3    3    0  502  0.44072375372E+03  0.26183327776E+03 -0.15286858839E+03  0.53494195737E+03  0.25500000920E-02 0. -1.
</event>
<event>
 5   0  0.3621403E-04  0.1099598E+04  0.7818609E-02  0.9205584E-01
        1   -1    0    0  501    0  0.00000000000E+00  0.00000000000E+00  0.56006778377E+03  0.56006778379E+03  0.50400001928E-02 0. -1.
       -1   -1    0    0    0  501  0.00000000000E+00  0.00000000000E+00 -0.53971823579E+03  0.53971823581E+03  0.50400001928E-02 0.  1.
    10030    2    1    2    0    0  0.00000000000E+00  0.00000000000E+00  0.20349547982E+02  0.10997860196E+04  0.10995977377E+04 0.  0.
        3    1    3    3  502    0  0.35408640252E+03 -0.17133040568E+03 -0.37401011702E+03  0.54278436436E+03  0.10100000352E+00 0.  1.
       -3    1    3    3    0  502 -0.35408640252E+03  0.17133040568E+03  0.39435966501E+03  0.55700165524E+03  0.10100000352E+00 0. -1.
</event>
<event>
 5   0  0.6264830E-04  0.1099389E+04  0.7818609E-02  0.9205788E-01
       -2   -1    0    0    0  501  0.00000000000E+00  0.00000000000E+00  0.22189198086E+03  0.22189198087E+03  0.25500000920E-02 0.  1.
        2   -1    0    0  501    0  0.00000000000E+00  0.00000000000E+00 -0.13617618699E+04  0.13617618699E+04  0.25500000920E-02 0. -1.
    10030    2    1    2    0    0  0.00000000000E+00  0.00000000000E+00 -0.11398698891E+04  0.15836538508E+04  0.10993889917E+04 0.  0.
        4    1    3    3  502    0 -0.18026341289E+03  0.32088746511E+02  0.17667276590E+03  0.25443951107E+03  0.12699999809E+01 0.  1.
       -4    1    3    3    0  502  0.18026341289E+03 -0.32088746511E+02 -0.13165426550E+04  0.13292143397E+04  0.12699999809E+01 0. -1.
</event>
<event>
 5   0  0.5948818E-04  0.1104188E+04  0.7818609E-02  0.9201120E-01
        2   -1    0    0  501    0  0.00000000000E+00  0.00000000000E+00  0.15198797971E+04  0.15198797971E+04  0.25500000920E-02 0.  1.
       -2   -1    0    0    0  501  0.00000000000E+00  0.00000000000E+00 -0.20054712008E+03  0.20054712010E+03  0.25500000920E-02 0. -1.
    10030    2    1    2    0    0  0.00000000000E+00  0.00000000000E+00  0.13193326770E+04  0.17204269172E+04  0.11041875134E+04 0.  0.
        3    1    3    3  502    0 -0.21748662769E+03  0.27635931981E+02  0.14491496976E+04  0.14656394626E+04  0.10100000352E+00 0.  1.
       -3    1    3    3    0  502  0.21748662769E+03 -0.27635931981E+02 -0.12981702064E+03  0.25478745458E+03  0.10100000352E+00 0. -1.
</event>
<event>
 5   0  0.6245176E-04  0.1099895E+04  0.7818609E-02  0.9205294E-01
        2   -1    0    0  501    0  0.00000000000E+00  0.00000000000E+00  0.56763118471E+03  0.56763118471E+03  0.25500000920E-02 0. -1.
       -2   -1    0    0    0  501  0.00000000000E+00  0.00000000000E+00 -0.53281472067E+03  0.53281472067E+03  0.25500000920E-02 0.  1.
    10030    2    1    2    0    0  0.00000000000E+00  0.00000000000E+00  0.34816464041E+02  0.11004459054E+04  0.10998949970E+04 0.  0.
        5    1    3    3  502    0 -0.47883103118E+03 -0.24314798547E+03  0.13587388084E+03  0.55397102880E+03  0.46999998093E+01 0. -1.
       -5    1    3    3    0  502  0.47883103118E+03  0.24314798547E+03 -0.10105741679E+03  0.54647487659E+03  0.46999998093E+01 0.  1.
</event>
<event>
 5   0  0.3657529E-04  0.1100949E+04  0.7818609E-02  0.9204268E-01
        1   -1    0    0  501    0  0.00000000000E+00  0.00000000000E+00  0.86452998326E+03  0.86452998328E+03  0.50400001928E-02 0.  1.
       -1   -1    0    0    0  501  0.00000000000E+00  0.00000000000E+00 -0.35050491421E+03  0.35050491425E+03  0.50400001928E-02 0. -1.
    10030    2    1    2    0    0  0.00000000000E+00  0.00000000000E+00  0.51402506905E+03  0.12150348975E+04  0.11009486957E+04 0.  0.
        4    1    3    3  502    0  0.33372455982E+02  0.52939592941E+03  0.41938663405E+03  0.67621042037E+03  0.12699999809E+01 0. -1.
       -4    1    3    3    0  502 -0.33372455982E+02 -0.52939592941E+03  0.94638434999E+02  0.53882447715E+03  0.12699999809E+01 0.  1.
</event>
<event>
 5   0  0.3423758E-04  0.1100277E+04  0.7818609E-02  0.9204922E-01
       -1   -1    0    0    0  501  0.00000000000E+00  0.00000000000E+00  0.16133497880E+03  0.16133497888E+03  0.50400001928E-02 0. -1.
        1   -1    0    0  501    0  0.00000000000E+00  0.00000000000E+00 -0.18759236157E+04  0.18759236157E+04  0.50400001928E-02 0.  1.
    10030    2    1    2    0    0  0.00000000000E+00  0.00000000000E+00 -0.17145886369E+04  0.20372585946E+04  0.11002765050E+04 0.  0.
        1    1    3    3  502    0 -0.96355423670E+02  0.29532959570E+03 -0.16607864182E+02  0.31109445341E+03  0.50400001928E-02 0. -1.
       -1    1    3    3    0  502  0.96355423670E+02 -0.29532959570E+03 -0.16979807727E+04  0.17261641411E+04  0.50400001928E-02 0.  1.
</event>
<event>
 5   0  0.3523525E-04  0.1099430E+04  0.7818609E-02  0.9205747E-01
        1   -1    0    0  501    0  0.00000000000E+00  0.00000000000E+00  0.26919622063E+04  0.26919622063E+04  0.50400001928E-02 0.  1.
       -1   -1    0    0    0  501  0.00000000000E+00  0.00000000000E+00 -0.11225520799E+03  0.11225520810E+03  0.50400001928E-02 0. -1.
    10030    2    1    2    0    0  0.00000000000E+00  0.00000000000E+00  0.25797069983E+04  0.28042174144E+04  0.10994303571E+04 0.  0.
        5    1    3    3  502    0  0.30398748490E+03 -0.61844824687E+02  0.24473118271E+04  0.24668989526E+04  0.46999998093E+01 0.  1.
       -5    1    3    3    0  502 -0.30398748490E+03  0.61844824687E+02  0.13239517121E+03  0.33731846181E+03  0.46999998093E+01 0. -1.
</event>
<event>
 5   0  0.6264830E-04  0.1101370E+04  0.7818609E-02  0.9203857E-01
        2   -1    0    0  501    0  0.00000000000E+00  0.00000000000E+00  0.11500763930E+04  0.11500763930E+04  0.25500000920E-02 0. -1.
       -2   -1    0    0    0  501  0.00000000000E+00  0.00000000000E+00 -0.26368174265E+03  0.26368174266E+03  0.25500000920E-02 0.  1.
    10030    2    1    2    0    0  0.00000000000E+00  0.00000000000E+00  0.88639465037E+03  0.14137581357E+04  0.11013703237E+04 0.  0.
        4    1    3    3  502    0  0.45239044141E+03  0.14359897657E+03  0.80163921796E+03  0.93161409727E+03  0.12699999809E+01 0. -1.
       -4    1    3    3    0  502 -0.45239044141E+03 -0.14359897657E+03  0.84755432415E+02  0.48214403842E+03  0.12699999809E+01 0.  1.
</event>
<event>
 5   0  0.6109149E-04  0.1086413E+04  0.7818609E-02  0.9218537E-01
       -2   -1    0    0    0  501  0.00000000000E+00  0.00000000000E+00  0.14517338341E+03  0.14517338343E+03  0.25500000920E-02 0.  1.
        2   -1    0    0  501    0  0.00000000000E+00  0.00000000000E+00 -0.20325561859E+04  0.20325561859E+04  0.25500000920E-02 0. -1.
    10030    2    1    2    0    0  0.00000000000E+00  0.00000000000E+00 -0.18873828025E+04  0.21777295693E+04  0.10864125524E+04 0.  0.
        1    1    3    3  502    0  0.67321979623E+02  0.29869557898E+03 -0.44287984366E+02  0.30937472978E+03  0.50400001928E-02 0.  1.
       -1    1    3    3    0  502 -0.67321979623E+02 -0.29869557898E+03 -0.18430948181E+04  0.18683548396E+04  0.50400001928E-02 0. -1.
</event>
<event>
 5   0  0.6245176E-04  0.1100837E+04  0.7818609E-02  0.9204377E-01
       -2   -1    0    0    0  501  0.00000000000E+00  0.00000000000E+00  0.35760039324E+03  0.35760039325E+03  0.25500000920E-02 0. -1.
        2   -1    0    0  501    0  0.00000000000E+00  0.00000000000E+00 -0.84720345366E+03  0.84720345366E+03  0.25500000920E-02 0.  1.
    10030    2    1    2    0    0  0.00000000000E+00  0.00000000000E+00 -0.48960306042E+03  0.12048038469E+04  0.11008365695E+04 0.  0.
        5    1    3    3  502    0  0.37407147273E+03  0.36405175736E+03 -0.53743319250E+02  0.52476050071E+03  0.46999998093E+01 0. -1.
       -5    1    3    3    0  502 -0.37407147273E+03 -0.36405175736E+03 -0.43585974117E+03  0.68004334620E+03  0.46999998093E+01 0.  1.
</event>
<event>
 5   0  0.6264830E-04  0.1105936E+04  0.7818609E-02  0.9199426E-01
        2   -1    0    0  501    0  0.00000000000E+00  0.00000000000E+00  0.84397975306E+03  0.84397975306E+03  0.25500000920E-02 0.  1.
       -2   -1    0    0    0  501  0.00000000000E+00  0.00000000000E+00 -0.36229941626E+03  0.36229941627E+03  0.25500000920E-02 0. -1.
    10030    2    1    2    0    0  0.00000000000E+00  0.00000000000E+00  0.48168033679E+03  0.12062791693E+04  0.11059355711E+04 0.  0.
        4    1    3    3  502    0 -0.10680547476E+03 -0.44316959973E+03 -0.10055203266E+03  0.46681798137E+03  0.12699999809E+01 0. -1.
       -4    1    3    3    0  502  0.10680547476E+03  0.44316959973E+03  0.58223236946E+03  0.73946118796E+03  0.12699999809E+01 0.  1.
</event>
<event>
 5   0  0.6412712E-04  0.1099858E+04  0.7818609E-02  0.9205331E-01
       -2   -1    0    0    0  501  0.00000000000E+00  0.00000000000E+00  0.26725812848E+03  0.26725812849E+03  0.25500000920E-02 0.  1.
        2   -1    0    0  501    0  0.00000000000E+00  0.00000000000E+00 -0.11315713474E+04  0.11315713474E+04  0.25500000920E-02 0. -1.
    10030    2    1    2    0    0  0.00000000000E+00  0.00000000000E+00 -0.86431321892E+03  0.13988294759E+04  0.10998575190E+04 0.  0.
        2    1    3    3  502    0 -0.30569192718E+03 -0.42514499708E+03 -0.21848264258E+03  0.56738918565E+03  0.25500000920E-02 0. -1.
       -2    1    3    3    0  502  0.30569192718E+03  0.42514499708E+03 -0.64583057635E+03  0.83144029024E+03  0.25500000920E-02 0.  1.
</event>
<event>
 5   0  0.6245176E-04  0.1100021E+04  0.7818609E-02  0.9205172E-01
       -2   -1    0    0    0  501  0.00000000000E+00  0.00000000000E+00  0.35631290749E+03  0.35631290750E+03  0.25500000920E-02 0.  1.
        2   -1    0    0  501    0  0.00000000000E+00  0.00000000000E+00 -0.84900491786E+03  0.84900491787E+03  0.25500000920E-02 0. -1.
    10030    2    1    2    0    0  0.00000000000E+00  0.00000000000E+00 -0.49269201037E+03  0.12053178254E+04  0.11000207467E+04 0.  0.
        5    1    3    3  502    0 -0.47786301586E+03  0.22343667732E+03 -0.41684381981E+03  0.67235249000E+03  0.46999998093E+01 0. -1.
       -5    1    3    3    0  502  0.47786301586E+03 -0.22343667732E+03 -0.75848190560E+02  0.53296533537E+03  0.46999998093E+01 0.  1.
</event>
<event>
 5   0  0.6245176E-04  0.1102823E+04  0.7818609E-02  0.9202445E-01
        2   -1    0    0  501    0  0.00000000000E+00  0.00000000000E+00  0.18120776391E+04  0.18120776391E+04  0.25500000920E-02 0. -1.
       -2   -1    0    0    0  501  0.00000000000E+00  0.00000000000E+00 -0.16779345026E+03  0.16779345028E+03  0.25500000920E-02 0.  1.
    10030    2    1    2    0    0  0.00000000000E+00  0.00000000000E+00  0.16442841888E+04  0.19798710893E+04  0.11028232120E+04 0.  0.
        5    1    3    3  502    0 -0.20442174581E+03  0.50989092971E+03  0.73687769754E+03  0.91912340928E+03  0.46999998093E+01 0. -1.
       -5    1    3    3    0  502  0.20442174581E+03 -0.50989092971E+03  0.90740649127E+03  0.10607476801E+04  0.46999998093E+01 0.  1.
</event>
<event>
 5   0  0.3642161E-04  0.1099107E+04  0.7818609E-02  0.9206063E-01
       -1   -1    0    0    0  501  0.00000000000E+00  0.00000000000E+00  0.14924106582E+04  0.14924106582E+04  0.50400001928E-02 0.  1.
        1   -1    0    0  501    0  0.00000000000E+00  0.00000000000E+00 -0.20236322227E+03  0.20236322233E+03  0.50400001928E-02 0. -1.
    10030    2    1    2    0    0  0.00000000000E+00  0.00000000000E+00  0.12900474359E+04  0.16947738806E+04  0.10991069644E+04 0.  0.
        2    1    3    3  502    0 -0.37219920770E+02 -0.52795108332E+03  0.41688017434E+03  0.67372601898E+03  0.25500000920E-02 0. -1.
       -2    1    3    3    0  502  0.37219920770E+02  0.52795108332E+03  0.87316726160E+03  0.10210478616E+04  0.25500000920E-02 0.  1.
</event>
<event>
 5   0  0.3642161E-04  0.1098338E+04  0.7818609E-02  0.9206813E-01
        1   -1    0    0  501    0  0.00000000000E+00  0.00000000000E+00  0.14252128611E+04  0.14252128611E+04  0.50400001928E-02 0.  1.
       -1   -1    0    0    0  501  0.00000000000E+00  0.00000000000E+00 -0.21160803291E+03  0.21160803297E+03  0.50400001928E-02 0. -1.
    10030    2    1    2    0    0  0.00000000000E+00  0.00000000000E+00  0.12136048282E+04  0.16368208941E+04  0.10983378170E+04 0.  0.
        2    1    3    3  502    0 -0.53382166015E+03  0.32275906527E+02  0.79281300618E+03  0.95632617959E+03  0.25500000920E-02 0. -1.
       -2    1    3    3    0  502  0.53382166015E+03 -0.32275906527E+02  0.42079182203E+03  0.68049471451E+03  0.25500000920E-02 0.  1.
</event>
<event>
 5   0  0.2403875E-04  0.1105759E+04  0.7818609E-02  0.9199597E-01
        4   -1    0    0  501    0  0.00000000000E+00  0.00000000000E+00  0.63998560386E+03  0.63998686396E+03  0.12699999809E+01 0.  1.
       -4   -1    0    0    0  501  0.00000000000E+00  0.00000000000E+00 -0.47762632447E+03  0.47762801292E+03  0.12699999809E+01 0. -1.
    10030    2    1    2    0    0  0.00000000000E+00  0.00000000000E+00  0.16235927939E+03  0.11176148769E+04  0.11057587790E+04 0.  0.
        4    1    3    3  502    0  0.49919395263E+01 -0.54698575699E+03 -0.29029489610E-01  0.54701001047E+03  0.12699999809E+01 0.  1.
       -4    1    3    3    0  502 -0.49919395263E+01  0.54698575699E+03  0.16238830888E+03  0.57060486641E+03  0.12699999809E+01 0. -1.
</event>
<event>
 5   0  0.3621403E-04  0.1098825E+04  0.7818609E-02  0.9206338E-01
       -1   -1    0    0    0  501  0.00000000000E+00  0.00000000000E+00  0.45187458130E+03  0.45187458132E+03  0.50400001928E-02 0. -1.
        1   -1    0    0  501    0  0.00000000000E+00  0.00000000000E+00 -0.66800389349E+03  0.66800389351E+03  0.50400001928E-02 0.  1.
    10030    2    1    2    0    0  0.00000000000E+00  0.00000000000E+00 -0.21612931219E+03  0.11198784748E+04  0.10988247899E+04 0.  0.
        3    1    3    3  502    0 -0.30409728627E+03 -0.15435417851E+03  0.33094809851E+03  0.47521261142E+03  0.10100000352E+00 0. -1.
       -3    1    3    3    0  502  0.30409728627E+03  0.15435417851E+03 -0.54707741071E+03  0.64466586341E+03  0.10100000352E+00 0.  1.
</event>
<event>
 5   0  0.5948818E-04  0.1100042E+04  0.7818609E-02  0.9205151E-01
       -2   -1    0    0    0  501  0.00000000000E+00  0.00000000000E+00  0.25640462022E+03  0.25640462023E+03  0.25500000920E-02 0. -1.
        2   -1    0    0  501    0  0.00000000000E+00  0.00000000000E+00 -0.11798657061E+04  0.11798657061E+04  0.25500000920E-02 0.  1.
    10030    2    1    2    0    0  0.00000000000E+00  0.00000000000E+00 -0.92346108589E+03  0.14362703263E+04  0.11000418506E+04 0.  0.
        3    1    3    3  502    0 -0.43864058324E+02 -0.41856585448E+03  0.62756790612E+00  0.42085844911E+03  0.10100000352E+00 0. -1.
       -3    1    3    3    0  502  0.43864058324E+02  0.41856585448E+03 -0.92408865380E+03  0.10154118772E+04  0.10100000352E+00 0.  1.
</event>
<event>
 5   0  0.3423758E-04  0.1099385E+04  0.7818609E-02  0.9205792E-01
        1   -1    0    0  501    0  0.00000000000E+00  0.00000000000E+00  0.31599648813E+03  0.31599648817E+03  0.50400001928E-02 0. -1.
       -1   -1    0    0    0  501  0.00000000000E+00  0.00000000000E+00 -0.95621870565E+03  0.95621870566E+03  0.50400001928E-02 0.  1.
    10030    2    1    2    0    0  0.00000000000E+00  0.00000000000E+00 -0.64022221752E+03  0.12722151938E+04  0.10993848333E+04 0.  0.
        1    1    3    3  502    0 -0.25373316069E+03  0.11108472438E+03 -0.86956049472E+03  0.91260932870E+03  0.50400001928E-02 0.  1.
       -1    1    3    3    0  502  0.25373316069E+03 -0.11108472438E+03  0.22933827720E+03  0.35960586513E+03  0.50400001928E-02 0. -1.
</event>
<event>
 5   0  0.3642161E-04  0.1098749E+04  0.7818609E-02  0.9206412E-01
       -1   -1    0    0    0  501  0.00000000000E+00  0.00000000000E+00  0.39757109014E+03  0.39757109017E+03  0.50400001928E-02 0.  1.
        1   -1    0    0  501    0  0.00000000000E+00  0.00000000000E+00 -0.75914086011E+03  0.75914086013E+03  0.50400001928E-02 0. -1.
    10030    2    1    2    0    0  0.00000000000E+00  0.00000000000E+00 -0.36156976997E+03  0.11567119503E+04  0.10987492150E+04 0.  0.
        2    1    3    3  502    0 -0.23099130545E+03  0.49192051006E+03 -0.96107329680E+02  0.55188711729E+03  0.25500000920E-02 0. -1.
       -2    1    3    3    0  502  0.23099130545E+03 -0.49192051006E+03 -0.26546244029E+03  0.60482483301E+03  0.25500000920E-02 0.  1.
</event>
<event>
 5   0  0.3523525E-04  0.1099913E+04  0.7818609E-02  0.9205276E-01
        1   -1    0    0  501    0  0.00000000000E+00  0.00000000000E+00  0.66829856762E+03  0.66829856764E+03  0.50400001928E-02 0. -1.
       -1   -1    0    0    0  501  0.00000000000E+00  0.00000000000E+00 -0.45257065349E+03  0.45257065352E+03  0.50400001928E-02 0.  1.
    10030    2    1    2    0    0  0.00000000000E+00  0.00000000000E+00  0.21572791413E+03  0.11208692212E+04  0.10999133048E+04 0.  0.
        5    1    3    3  502    0  0.23025009266E+03 -0.24826055690E+03  0.54945805529E+03  0.64542594757E+03  0.46999998093E+01 0. -1.
       -5    1    3    3    0  502 -0.23025009266E+03  0.24826055690E+03 -0.33373014116E+03  0.47544327358E+03  0.46999998093E+01 0.  1.
</event>
<event>
 5   0  0.6412712E-04  0.1100751E+04  0.7818609E-02  0.9204460E-01
        2   -1    0    0  501    0  0.00000000000E+00  0.00000000000E+00  0.77889843451E+03  0.77889843451E+03  0.25500000920E-02 0.  1.
       -2   -1    0    0    0  501  0.00000000000E+00  0.00000000000E+00 -0.38889959364E+03  0.38889959365E+03  0.25500000920E-02 0. -1.
    10030    2    1    2    0    0  0.00000000000E+00  0.00000000000E+00  0.38999884087E+03  0.11677980282E+04  0.11007511702E+04 0.  0.
        2    1    3    3  502    0 -0.43418329938E+03 -0.90592906603E+02 -0.15071905190E+03  0.46844257364E+03  0.25500000920E-02 0. -1.
       -2    1    3    3    0  502  0.43418329938E+03  0.90592906603E+02  0.54071789277E+03  0.69935545451E+03  0.25500000920E-02 0.  1.
</event>
<event>
 5   0  0.6264830E-04  0.1098876E+04  0.7818609E-02  0.9206288E-01
        2   -1    0    0  501    0  0.00000000000E+00  0.00000000000E+00  0.27402609682E+03  0.27402609683E+03  0.25500000920E-02 0. -1.
       -2   -1    0    0    0  501  0.00000000000E+00  0.00000000000E+00 -0.11016544765E+04  0.11016544765E+04  0.25500000920E-02 0.  1.
    10030    2    1    2    0    0  0.00000000000E+00  0.00000000000E+00 -0.82762837968E+03  0.13756805733E+04  0.10988759279E+04 0.  0.
        4    1    3    3  502    0 -0.68433954444E+02 -0.52779158830E+03 -0.58470306556E+03  0.79064938790E+03  0.12699999809E+01 0. -1.
       -4    1    3    3    0  502  0.68433954444E+02  0.52779158830E+03 -0.24292531412E+03  0.58503118544E+03  0.12699999809E+01 0.  1.
</event>
<event>
 5   0  0.3621403E-04  0.1110321E+04  0.7818609E-02  0.9195190E-01
        1   -1    0    0  501    0  0.00000000000E+00  0.00000000000E+00  0.89914537804E+03  0.89914537806E+03  0.50400001928E-02 0.  1.
       -1   -1    0    0    0  501  0.00000000000E+00  0.00000000000E+00 -0.34277376517E+03  0.34277376520E+03  0.50400001928E-02 0. -1.
    10030    2    1    2    0    0  0.00000000000E+00  0.00000000000E+00  0.55637161288E+03  0.12419191433E+04  0.11103214790E+04 0.  0.
        3    1    3    3  502    0  0.18876393357E+03 -0.18754698450E+03  0.82316870267E+03  0.86510832689E+03  0.10100000352E+00 0.  1.
       -3    1    3    3    0  502 -0.18876393357E+03  0.18754698450E+03 -0.26679708979E+03  0.37681081637E+03  0.10100000352E+00 0. -1.
</event>
<event>
 5   0  0.6412712E-04  0.1104212E+04  0.7818609E-02  0.9201096E-01
        2   -1    0    0  501    0  0.00000000000E+00  0.00000000000E+00  0.29172448261E+03  0.29172448262E+03  0.25500000920E-02 0. -1.
       -2   -1    0    0    0  501  0.00000000000E+00  0.00000000000E+00 -0.10448942977E+04  0.10448942977E+04  0.25500000920E-02 0.  1.
    10030    2    1    2    0    0  0.00000000000E+00  0.00000000000E+00 -0.75316981509E+03  0.13366187803E+04  0.11042123861E+04 0.  0.
        2    1    3    3  502    0 -0.37112407968E+03 -0.10579851446E+03 -0.85452208580E+03  0.93762167387E+03  0.25500000920E-02 0.  1.
       -2    1    3    3    0  502  0.37112407968E+03  0.10579851446E+03  0.10135227071E+03  0.39899710646E+03  0.25500000920E-02 0. -1.
</event>
<event>
 5   0  0.3523525E-04  0.1100329E+04  0.7818609E-02  0.9204872E-01
       -1   -1    0    0    0  501  0.00000000000E+00  0.00000000000E+00  0.24752619340E+03  0.24752619346E+03  0.50400001928E-02 0. -1.
        1   -1    0    0  501    0  0.00000000000E+00  0.00000000000E+00 -0.12228230361E+04  0.12228230361E+04  0.50400001928E-02 0.  1.
    10030    2    1    2    0    0  0.00000000000E+00  0.00000000000E+00 -0.97529684270E+03  0.14703492296E+04  0.11003285534E+04 0.  0.
        5    1    3    3  502    0  0.53442218400E+02 -0.18755844822E+03  0.19975716594E+03  0.27921185066E+03  0.46999998093E+01 0. -1.
       -5    1    3    3    0  502 -0.53442218400E+02  0.18755844822E+03 -0.11750540086E+04  0.11911373789E+04  0.46999998093E+01 0.  1.
</event>
<event>
 5   0  0.2403875E-04  0.1100812E+04  0.7818609E-02  0.9204401E-01
        3   -1    0    0  501    0  0.00000000000E+00  0.00000000000E+00  0.14722651464E+04  0.14722651499E+04  0.10100000352E+00 0. -1.
       -3   -1    0    0    0  501  0.00000000000E+00  0.00000000000E+00 -0.20576910664E+03  0.20576913143E+03  0.10100000352E+00 0.  1.
    10030    2    1    2    0    0  0.00000000000E+00  0.00000000000E+00  0.12664960398E+04  0.16780342813E+04  0.11008118960E+04 0.  0.
        4    1    3    3  502    0 -0.25018818998E+03  0.31647176551E+03  0.62484202763E+02  0.40823326330E+03  0.12699999809E+01 0.  1.
       -4    1    3    3    0  502  0.25018818998E+03 -0.31647176551E+03  0.12040118370E+04  0.12698010180E+04  0.12699999809E+01 0. -1.
</event>
<event>
 5   0  0.3657529E-04  0.1099525E+04  0.7818609E-02  0.9205655E-01
       -1   -1    0    0    0  501  0.00000000000E+00  0.00000000000E+00  0.98494736278E+03  0.98494736279E+03  0.50400001928E-02 0.  1.
        1   -1    0    0  501    0  0.00000000000E+00  0.00000000000E+00 -0.30685757428E+03  0.30685757432E+03  0.50400001928E-02 0. -1.
    10030    2    1    2    0    0  0.00000000000E+00  0.00000000000E+00  0.67808978850E+03  0.12918049371E+04  0.10995245492E+04 0.  0.
        4    1    3    3  502    0 -0.36365576180E+03 -0.41095131861E+03  0.29989408050E+03  0.62535155855E+03  0.12699999809E+01 0.  1.
       -4    1    3    3    0  502  0.36365576180E+03  0.41095131861E+03  0.37819570800E+03  0.66645337857E+03  0.12699999809E+01 0. -1.
</event>
<event>
 5   0  0.3642161E-04  0.1102647E+04  0.7818609E-02  0.9202615E-01
        1   -1    0    0  501    0  0.00000000000E+00  0.00000000000E+00  0.60565047406E+03  0.60565047409E+03  0.50400001928E-02 0.  1.
       -1   -1    0    0    0  501  0.00000000000E+00  0.00000000000E+00 -0.50187003630E+03  0.50187003633E+03  0.50400001928E-02 0. -1.
    10030    2    1    2    0    0  0.00000000000E+00  0.00000000000E+00  0.10378043776E+03  0.11075205104E+04  0.11026474059E+04 0.  0.
        2    1    3    3  502    0 -0.38249673274E+03 -0.39637688370E+03  0.75218732366E+02  0.55594625837E+03  0.25500000920E-02 0. -1.
       -2    1    3    3    0  502  0.38249673274E+03  0.39637688370E+03  0.28561705398E+02  0.55157425204E+03  0.25500000920E-02 0.  1.
</event>
<event>
 5   0  0.3523525E-04  0.1099466E+04  0.7818609E-02  0.9205713E-01
        1   -1    0    0  501    0  0.00000000000E+00  0.00000000000E+00  0.68227425553E+03  0.68227425554E+03  0.50400001928E-02 0.  1.
       -1   -1    0    0    0  501  0.00000000000E+00  0.00000000000E+00 -0.44293962269E+03  0.44293962271E+03  0.50400001928E-02 0. -1.
    10030    2    1    2    0    0  0.00000000000E+00  0.00000000000E+00  0.23933463284E+03  0.11252138783E+04  0.10994658728E+04 0.  0.
        5    1    3    3  502    0 -0.40916121000E+03 -0.24410566364E+03  0.40028516524E+03  0.62229476481E+03  0.46999998093E+01 0. -1.
       -5    1    3    3    0  502  0.40916121000E+03  0.24410566364E+03 -0.16095053240E+03  0.50291911345E+03  0.46999998093E+01 0.  1.
</event>
<event>
 5   0  0.3423758E-04  0.1100110E+04  0.7818609E-02  0.9205085E-01
        1   -1    0    0  501    0  0.00000000000E+00  0.00000000000E+00  0.24256287183E+04  0.24256287183E+04  0.50400001928E-02 0. -1.
       -1   -1    0    0    0  501  0.00000000000E+00  0.00000000000E+00 -0.12473479194E+03  0.12473479204E+03  0.50400001928E-02 0.  1.
    10030    2    1    2    0    0  0.00000000000E+00  0.00000000000E+00  0.23008939264E+04  0.25503635104E+04  0.11001096193E+04 0.  0.
        1    1    3    3  502    0  0.33695262121E+02  0.54372361767E+03  0.97405103838E+03  0.11160403973E+04  0.50400001928E-02 0.  1.
       -1    1    3    3    0  502 -0.33695262121E+02 -0.54372361767E+03  0.13268428880E+04  0.14343231130E+04  0.50400001928E-02 0. -1.
</event>
<event>
 5   0  0.5948818E-04  0.1104531E+04  0.7818609E-02  0.9200787E-01
        2   -1    0    0  501    0  0.00000000000E+00  0.00000000000E+00  0.82601177621E+03  0.82601177621E+03  0.25500000920E-02 0. -1.
       -2   -1    0    0    0  501  0.00000000000E+00  0.00000000000E+00 -0.36924060069E+03  0.36924060070E+03  0.25500000920E-02 0.  1.
    10030    2    1    2    0    0  0.00000000000E+00  0.00000000000E+00  0.45677117552E+03  0.11952523769E+04  0.11045308224E+04 0.  0.
        3    1    3    3  502    0  0.87045334577E+02  0.24387609244E+03  0.75624678136E+03  0.79935076359E+03  0.10100000352E+00 0. -1.
       -3    1    3    3    0  502 -0.87045334577E+02 -0.24387609244E+03 -0.29947560584E+03  0.39590161332E+03  0.10100000352E+00 0.  1.
</event>
<event>
 5   0  0.5948818E-04  0.1101299E+04  0.7818609E-02  0.9203927E-01
        2   -1    0    0  501    0  0.00000000000E+00  0.00000000000E+00  0.13293820526E+04  0.13293820526E+04  0.25500000920E-02 0. -1.
       -2   -1    0    0    0  501  0.00000000000E+00  0.00000000000E+00 -0.22808713034E+03  0.22808713035E+03  0.25500000920E-02 0.  1.
    10030    2    1    2    0    0  0.00000000000E+00  0.00000000000E+00  0.11012949223E+04  0.15574691830E+04  0.11012991192E+04 0.  0.
        3    1    3    3  502    0  0.27645293530E+03 -0.37918202271E+03  0.14319346573E+03  0.49062165730E+03  0.10100000352E+00 0.  1.
       -3    1    3    3    0  502 -0.27645293530E+03  0.37918202271E+03  0.95810145654E+03  0.10668475257E+04  0.10100000352E+00 0. -1.
</event>
<event>
 5   0  0.3523525E-04  0.1099828E+04  0.7818609E-02  0.9205360E-01
       -1   -1    0    0    0  501  0.00000000000E+00  0.00000000000E+00  0.46081640611E+03  0.46081640613E+03  0.50400001928E-02 0. -1.
        1   -1    0    0  501    0  0.00000000000E+00  0.00000000000E+00 -0.65623826647E+03  0.65623826649E+03  0.50400001928E-02 0.  1.
    10030    2    1    2    0    0  0.00000000000E+00  0.00000000000E+00 -0.19542186036E+03  0.11170546726E+04  0.10998279130E+04 0.  0.
        5    1    3    3  502    0  0.34215854567E+03  0.42720217810E+03 -0.43879842988E+02  0.54910991793E+03  0.46999998093E+01 0. -1.
       -5    1    3    3    0  502 -0.34215854567E+03 -0.42720217810E+03 -0.15154201737E+03  0.56794475469E+03  0.46999998093E+01 0.  1.
</event>
<event>
 5   0  0.3621403E-04  0.1075699E+04  0.7818609E-02  0.9229206E-01
        1   -1    0    0  501    0  0.00000000000E+00  0.00000000000E+00  0.13764261505E+04  0.13764261505E+04  0.50400001928E-02 0.  1.
       -1   -1    0    0    0  501  0.00000000000E+00  0.00000000000E+00 -0.21016903735E+03  0.21016903741E+03  0.50400001928E-02 0. -1.
    10030    2    1    2    0    0  0.00000000000E+00  0.00000000000E+00  0.11662571131E+04  0.15865951879E+04  0.10756991384E+04 0.  0.
        3    1    3    3  502    0 -0.24924654951E+03 -0.61619337014E+02 -0.11394617194E+03  0.28089949348E+03  0.10100000352E+00 0. -1.
       -3    1    3    3    0  502  0.24924654951E+03  0.61619337014E+02  0.12802032851E+04  0.13056956944E+04  0.10100000352E+00 0.  1.
</event>
<event>
 5   0  0.3621403E-04  0.1100994E+04  0.7818609E-02  0.9204224E-01
        1   -1    0    0  501    0  0.00000000000E+00  0.00000000000E+00  0.57761141908E+03  0.57761141910E+03  0.50400001928E-02 0.  1.
       -1   -1    0    0    0  501  0.00000000000E+00  0.00000000000E+00 -0.52465530841E+03  0.52465530844E+03  0.50400001928E-02 0. -1.
    10030    2    1    2    0    0  0.00000000000E+00  0.00000000000E+00  0.52956110663E+02  0.11022667275E+04  0.11009939096E+04 0.  0.
        3    1    3    3  502    0  0.11439736761E+03 -0.25569625689E+03 -0.44796805304E+03  0.52833958800E+03  0.10100000352E+00 0. -1.
       -3    1    3    3    0  502 -0.11439736761E+03  0.25569625689E+03  0.50092416370E+03  0.57392713953E+03  0.10100000352E+00 0.  1.
</event>
<event>
 5   0  0.6412712E-04  0.1099077E+04  0.7818609E-02  0.9206092E-01
       -2   -1    0    0    0  501  0.00000000000E+00  0.00000000000E+00  0.11939336343E+03  0.11939336345E+03  0.25500000920E-02 0. -1.
        2   -1    0    0  501    0  0.00000000000E+00  0.00000000000E+00 -0.25293935129E+04  0.25293935129E+04  0.25500000920E-02 0.  1.
    10030    2    1    2    0    0  0.00000000000E+00  0.00000000000E+00 -0.24100001495E+04  0.26487868764E+04  0.10990774294E+04 0.  0.
        2    1    3    3  502    0 -0.32530561264E+03 -0.99280439625E+02 -0.16474542179E+03  0.37791718843E+03  0.25500000920E-02 0. -1.
       -2    1    3    3    0  502  0.32530561264E+03  0.99280439625E+02 -0.22452547277E+04  0.22708696879E+04  0.25500000920E-02 0.  1.
</event>
<event>
 5   0  0.6412712E-04  0.1099770E+04  0.7818609E-02  0.9205416E-01
        2   -1    0    0  501    0  0.00000000000E+00  0.00000000000E+00  0.19693095941E+04  0.19693095941E+04  0.25500000920E-02 0.  1.
       -2   -1    0    0    0  501  0.00000000000E+00  0.00000000000E+00 -0.15354289112E+03  0.15354289114E+03  0.25500000920E-02 0. -1.
    10030    2    1    2    0    0  0.00000000000E+00  0.00000000000E+00  0.18157667030E+04  0.21228524853E+04  0.10997699553E+04 0.  0.
        2    1    3    3  502    0 -0.50211527870E+03  0.10452104025E+03  0.12906859715E+04  0.13888537281E+04  0.25500000920E-02 0.  1.
       -2    1    3    3    0  502  0.50211527870E+03 -0.10452104025E+03  0.52508073152E+03  0.73399875721E+03  0.25500000920E-02 0. -1.
</event>
<event>
 5   0  0.3657529E-04  0.1103387E+04  0.7818609E-02  0.9201896E-01
       -1   -1    0    0    0  501  0.00000000000E+00  0.00000000000E+00  0.26651476242E+03  0.26651476247E+03  0.50400001928E-02 0. -1.
        1   -1    0    0  501    0  0.00000000000E+00  0.00000000000E+00 -0.11420229620E+04  0.11420229620E+04  0.50400001928E-02 0.  1.
    10030    2    1    2    0    0  0.00000000000E+00  0.00000000000E+00 -0.87550819954E+03  0.14085377244E+04  0.11033874722E+04 0.  0.
        4    1    3    3  502    0  0.22760003769E+03  0.43156859276E+03 -0.76647981225E+03  0.90859569826E+03  0.12699999809E+01 0.  1.
       -4    1    3    3    0  502 -0.22760003769E+03 -0.43156859276E+03 -0.10902838729E+03  0.49994202618E+03  0.12699999809E+01 0. -1.
</event>
<event>
 5   0  0.6109149E-04  0.1100035E+04  0.7818609E-02  0.9205157E-01
       -2   -1    0    0    0  501  0.00000000000E+00  0.00000000000E+00  0.14649822229E+03  0.14649822231E+03  0.25500000920E-02 0. -1.
        2   -1    0    0  501    0  0.00000000000E+00  0.00000000000E+00 -0.20650041001E+04  0.20650041001E+04  0.25500000920E-02 0.  1.
    10030    2    1    2    0    0  0.00000000000E+00  0.00000000000E+00 -0.19185058778E+04  0.22115023224E+04  0.11000353262E+04 0.  0.
        1    1    3    3  502    0 -0.38309495998E+03  0.26023202258E+03 -0.36274898705E+03  0.58827653495E+03  0.50400001928E-02 0. -1.
       -1    1    3    3    0  502  0.38309495998E+03 -0.26023202258E+03 -0.15557568907E+04  0.16232257874E+04  0.50400001928E-02 0.  1.
</event>
<event>
 5   0  0.2403875E-04  0.1102228E+04  0.7818609E-02  0.9203023E-01
        3   -1    0    0  501    0  0.00000000000E+00  0.00000000000E+00  0.19535553910E+04  0.19535553936E+04  0.10100000352E+00 0.  1.
       -3   -1    0    0    0  501  0.00000000000E+00  0.00000000000E+00 -0.15547364961E+03  0.15547368242E+03  0.10100000352E+00 0. -1.
    10030    2    1    2    0    0  0.00000000000E+00  0.00000000000E+00  0.17980817414E+04  0.21090290761E+04  0.11022276057E+04 0.  0.
        2    1    3    3  502    0 -0.42505523108E+03  0.13630005076E+03  0.15175144517E+04  0.15818026945E+04  0.25500000920E-02 0.  1.
       -2    1    3    3    0  502  0.42505523108E+03 -0.13630005076E+03  0.28056728970E+03  0.52722638151E+03  0.25500000920E-02 0. -1.
</event>
<event>
 5   0  0.6245176E-04  0.1089540E+04  0.7818609E-02  0.9215447E-01
       -2   -1    0    0    0  501  0.00000000000E+00  0.00000000000E+00  0.28212561363E+03  0.28212561364E+03  0.25500000920E-02 0. -1.
        2   -1    0    0  501    0  0.00000000000E+00  0.00000000000E+00 -0.10519230360E+04  0.10519230360E+04  0.25500000920E-02 0.  1.
    10030    2    1    2    0    0  0.00000000000E+00  0.00000000000E+00 -0.76979742232E+03  0.13340486496E+04  0.10895401452E+04 0.  0.
        5    1    3    3  502    0  0.24379105286E+03  0.49399387364E+02 -0.97830148009E+03  0.10094405643E+04  0.46999998093E+01 0.  1.
       -5    1    3    3    0  502 -0.24379105286E+03 -0.49399387364E+02  0.20850405777E+03  0.32460808528E+03  0.46999998093E+01 0. -1.
</event>
<event>
 5   0  0.6245176E-04  0.1104505E+04  0.7818609E-02  0.9200812E-01
        2   -1    0    0  501    0  0.00000000000E+00  0.00000000000E+00  0.61384488987E+03  0.61384488987E+03  0.25500000920E-02 0. -1.
       -2   -1    0    0    0  501  0.00000000000E+00  0.00000000000E+00 -0.49683995298E+03  0.49683995298E+03  0.25500000920E-02 0.  1.
    10030    2    1    2    0    0  0.00000000000E+00  0.00000000000E+00  0.11700493689E+03  0.11106848429E+04  0.11045047147E+04 0.  0.
        5    1    3    3  502    0  0.42191076218E+03 -0.30777110442E+03 -0.12202594120E+03  0.53632468178E+03  0.46999998093E+01 0.  1.
       -5    1    3    3    0  502 -0.42191076218E+03  0.30777110442E+03  0.23903087809E+03  0.57436016108E+03  0.46999998093E+01 0. -1.
</event>
<event>
 5   0  0.2403875E-04  0.1100262E+04  0.7818609E-02  0.9204937E-01
       -3   -1    0    0    0  501  0.00000000000E+00  0.00000000000E+00  0.35983058214E+03  0.35983059631E+03  0.10100000352E+00 0. -1.
        3   -1    0    0  501    0  0.00000000000E+00  0.00000000000E+00 -0.84107393000E+03  0.84107393607E+03  0.10100000352E+00 0.  1.
    10030    2    1    2    0    0  0.00000000000E+00  0.00000000000E+00 -0.48124334786E+03  0.12009045324E+04  0.11002620306E+04 0.  0.
        5    1    3    3  502    0 -0.51892956922E+03 -0.16269835812E+03 -0.33104525687E+03  0.63668807562E+03  0.46999998093E+01 0. -1.
       -5    1    3    3    0  502  0.51892956922E+03  0.16269835812E+03 -0.15019809099E+03  0.56421645676E+03  0.46999998093E+01 0.  1.
</event>
<event>
 5   0  0.6412712E-04  0.1101253E+04  0.7818609E-02  0.9203971E-01
       -2   -1    0    0    0  501  0.00000000000E+00  0.00000000000E+00  0.16952241748E+03  0.16952241750E+03  0.25500000920E-02 0.  1.
        2   -1    0    0  501    0  0.00000000000E+00  0.00000000000E+00 -0.17884930322E+04  0.17884930322E+04  0.25500000920E-02 0. -1.
    10030    2    1    2    0    0  0.00000000000E+00  0.00000000000E+00 -0.16189706147E+04  0.19580154497E+04  0.11012532179E+04 0.  0.
        2    1    3    3  502    0  0.12460770008E+03 -0.15097787272E+03  0.10556271684E+03  0.22240702364E+03  0.25500000920E-02 0.  1.
       -2    1    3    3    0  502 -0.12460770008E+03  0.15097787272E+03 -0.17245333316E+04  0.17356084261E+04  0.25500000920E-02 0. -1.
</event>
<event>
 5   0  0.3523525E-04  0.1101366E+04  0.7818609E-02  0.9203861E-01
        1   -1    0    0  501    0  0.00000000000E+00  0.00000000000E+00  0.23450850112E+03  0.23450850117E+03  0.50400001928E-02 0. -1.
       -1   -1    0    0    0  501  0.00000000000E+00  0.00000000000E+00 -0.12931381571E+04  0.12931381571E+04  0.50400001928E-02 0.  1.
    10030    2    1    2    0    0  0.00000000000E+00  0.00000000000E+00 -0.10586296560E+04  0.15276466583E+04  0.11013662261E+04 0.  0.
        5    1    3    3  502    0 -0.25953519262E+03 -0.19953923515E+03  0.84843775842E+02  0.33822326778E+03  0.46999998093E+01 0. -1.
       -5    1    3    3    0  502  0.25953519262E+03  0.19953923515E+03 -0.11434734318E+04  0.11894233905E+04  0.46999998093E+01 0.  1.
</event>
<event>
 5   0  0.5948818E-04  0.1100085E+04  0.7818609E-02  0.9205109E-01
       -2   -1    0    0    0  501  0.00000000000E+00  0.00000000000E+00  0.23024010462E+03  0.23024010463E+03  0.25500000920E-02 0. -1.
        2   -1    0    0  501    0  0.00000000000E+00  0.00000000000E+00 -0.13140498231E+04  0.13140498231E+04  0.25500000920E-02 0.  1.
    10030    2    1    2    0    0  0.00000000000E+00  0.00000000000E+00 -0.10838097185E+04  0.15442899278E+04  0.11000853944E+04 0.  0.
        3    1    3    3  502    0  0.13019999727E+03  0.11820980738E+03 -0.12735228905E+04  0.12856073120E+04  0.10100000352E+00 0.  1.
       -3    1    3    3    0  502 -0.13019999727E+03 -0.11820980738E+03  0.18971317201E+03  0.25868261574E+03  0.10100000352E+00 0. -1.
</event>
<event>
 5   0  0.3621403E-04  0.1100293E+04  0.7818609E-02  0.9204906E-01
        1   -1    0    0  501    0  0.00000000000E+00  0.00000000000E+00  0.60414452691E+03  0.60414452694E+03  0.50400001928E-02 0.  1.
       -1   -1    0    0    0  501  0.00000000000E+00  0.00000000000E+00 -0.50097478065E+03  0.50097478067E+03  0.50400001928E-02 0. -1.
    10030    2    1    2    0    0  0.00000000000E+00  0.00000000000E+00  0.10316974627E+03  0.11051193076E+04  0.11002930008E+04 0.  0.
        3    1    3    3  502    0  0.16630673746E+03  0.91083162973E+02 -0.46711733310E+03  0.50413558354E+03  0.10100000352E+00 0. -1.
       -3    1    3    3    0  502 -0.16630673746E+03 -0.91083162973E+02  0.57028707937E+03  0.60098372407E+03  0.10100000352E+00 0.  1.
</event>
<event>
 5   0  0.6264830E-04  0.1101825E+04  0.7818609E-02  0.9203415E-01
       -2   -1    0    0    0  501  0.00000000000E+00  0.00000000000E+00  0.72256654642E+03  0.72256654643E+03  0.25500000920E-02 0.  1.
        2   -1    0    0  501    0  0.00000000000E+00  0.00000000000E+00 -0.42003702017E+03  0.42003702018E+03  0.25500000920E-02 0. -1.
    10030    2    1    2    0    0  0.00000000000E+00  0.00000000000E+00  0.30252952625E+03  0.11426035666E+04  0.11018252113E+04 0.  0.
        4    1    3    3  502    0  0.66738661985E+02  0.13030004675E+03 -0.39949479014E+03  0.42547602921E+03  0.12699999809E+01 0. -1.
       -4    1    3    3    0  502 -0.66738661985E+02 -0.13030004675E+03  0.70202431639E+03  0.71712753740E+03  0.12699999809E+01 0.  1.
</event>
<event>
 5   0  0.3642161E-04  0.1099170E+04  0.7818609E-02  0.9206001E-01
       -1   -1    0    0    0  501  0.00000000000E+00  0.00000000000E+00  0.13002419549E+03  0.13002419559E+03  0.50400001928E-02 0.  1.
        1   -1    0    0  501    0  0.00000000000E+00  0.00000000000E+00 -0.23229825352E+04  0.23229825352E+04  0.50400001928E-02 0. -1.
    10030    2    1    2    0    0  0.00000000000E+00  0.00000000000E+00 -0.21929583397E+04  0.24530067308E+04  0.10991704789E+04 0.  0.
        2    1    3    3  502    0  0.52414781660E+03  0.16051038441E+03 -0.10086339735E+04  0.11479708227E+04  0.25500000920E-02 0. -1.
       -2    1    3    3    0  502 -0.52414781660E+03 -0.16051038441E+03 -0.11843243662E+04  0.13050359081E+04  0.25500000920E-02 0.  1.
</event>
<event>
 5   0  0.3423758E-04  0.1098526E+04  0.7818609E-02  0.9206630E-01
       -1   -1    0    0    0  501  0.00000000000E+00  0.00000000000E+00  0.42913088746E+03  0.42913088749E+03  0.50400001928E-02 0. -1.
        1   -1    0    0  501    0  0.00000000000E+00  0.00000000000E+00 -0.70302525041E+03  0.70302525043E+03  0.50400001928E-02 0.  1.
    10030    2    1    2    0    0  0.00000000000E+00  0.00000000000E+00 -0.27389436295E+03  0.11321561379E+04  0.10985260118E+04 0.  0.
        1    1    3    3  502    0 -0.11567584180E+03 -0.10635910878E+03 -0.67936415298E+03  0.69730109191E+03  0.50400001928E-02 0.  1.
       -1    1    3    3    0  502  0.11567584180E+03  0.10635910878E+03  0.40546979003E+03  0.43485504602E+03  0.50400001928E-02 0. -1.
</event>
<event>
 5   0  0.6245176E-04  0.1094497E+04  0.7818609E-02  0.9210572E-01
       -2   -1    0    0    0  501  0.00000000000E+00  0.00000000000E+00  0.17175699197E+03  0.17175699199E+03  0.25500000920E-02 0. -1.
        2   -1    0    0  501    0  0.00000000000E+00  0.00000000000E+00 -0.17436314083E+04  0.17436314083E+04  0.25500000920E-02 0.  1.
    10030    2    1    2    0    0  0.00000000000E+00  0.00000000000E+00 -0.15718744163E+04  0.19153884003E+04  0.10944969362E+04 0.  0.
        5    1    3    3  502    0  0.47605594763E+03 -0.47173733536E+02 -0.32093236419E+03  0.57608532250E+03  0.46999998093E+01 0. -1.
       -5    1    3    3    0  502 -0.47605594763E+03  0.47173733536E+02 -0.12509420521E+04  0.13393030778E+04  0.46999998093E+01 0.  1.
</event>
<event>
 5   0  0.3523525E-04  0.1100357E+04  0.7818609E-02  0.9204844E-01
        1   -1    0    0  501    0  0.00000000000E+00  0.00000000000E+00  0.11540069437E+04  0.11540069437E+04  0.50400001928E-02 0.  1.
       -1   -1    0    0    0  501  0.00000000000E+00  0.00000000000E+00 -0.26230021735E+03  0.26230021739E+03  0.50400001928E-02 0. -1.
    10030    2    1    2    0    0  0.00000000000E+00  0.00000000000E+00  0.89170672633E+03  0.14163071611E+04  0.11003568007E+04 0.  0.
        5    1    3    3  502    0  0.20069485601E+03  0.50944968605E+03  0.37705756918E+03  0.66483976139E+03  0.46999998093E+01 0. -1.
       -5    1    3    3    0  502 -0.20069485601E+03 -0.50944968605E+03  0.51464915715E+03  0.75146739969E+03  0.46999998093E+01 0.  1.
</event>
<event>
 5   0  0.5948818E-04  0.1097469E+04  0.7818609E-02  0.9207662E-01
       -2   -1    0    0    0  501  0.00000000000E+00  0.00000000000E+00  0.23571193702E+03  0.23571193703E+03  0.25500000920E-02 0.  1.
        2   -1    0    0  501    0  0.00000000000E+00  0.00000000000E+00 -0.12774468022E+04  0.12774468022E+04  0.25500000920E-02 0. -1.
    10030    2    1    2    0    0  0.00000000000E+00  0.00000000000E+00 -0.10417348652E+04  0.15131587393E+04  0.10974688336E+04 0.  0.
        3    1    3    3  502    0 -0.10665047400E+03 -0.40260836187E+03 -0.10134606993E+04  0.10957054421E+04  0.10100000352E+00 0. -1.
       -3    1    3    3    0  502  0.10665047400E+03  0.40260836187E+03 -0.28274165925E+02  0.41745329716E+03  0.10100000352E+00 0.  1.
</event>
<event>
 5   0  0.6109149E-04  0.1097652E+04  0.7818609E-02  0.9207483E-01
        2   -1    0    0  501    0  0.00000000000E+00  0.00000000000E+00  0.88754120614E+03  0.88754120615E+03  0.25500000920E-02 0.  1.
       -2   -1    0    0    0  501  0.00000000000E+00  0.00000000000E+00 -0.33937590396E+03  0.33937590397E+03  0.25500000920E-02 0. -1.
    10030    2    1    2    0    0  0.00000000000E+00  0.00000000000E+00  0.54816530218E+03  0.12269171101E+04  0.10976522202E+04 0.  0.
        1    1    3    3  502    0  0.30666099492E+03 -0.27150742502E+03 -0.13425026640E+03  0.43102248398E+03  0.50400001928E-02 0. -1.
       -1    1    3    3    0  502 -0.30666099492E+03  0.27150742502E+03  0.68241556858E+03  0.79589462614E+03  0.50400001928E-02 0.  1.
</event>
<event>
 5   0  0.3642161E-04  0.1098697E+04  0.7818609E-02  0.9206463E-01
       -1   -1    0    0    0  501  0.00000000000E+00  0.00000000000E+00  0.33069014137E+03  0.33069014141E+03  0.50400001928E-02 0. -1.
        1   -1    0    0  501    0  0.00000000000E+00  0.00000000000E+00 -0.91258752856E+03  0.91258752858E+03  0.50400001928E-02 0.  1.
    10030    2    1    2    0    0  0.00000000000E+00  0.00000000000E+00 -0.58189738719E+03  0.12432776700E+04  0.10986968624E+04 0.  0.
        2    1    3    3  502    0  0.18094822676E+03 -0.15557530554E+03  0.26897577969E+03  0.35957461886E+03  0.25500000920E-02 0. -1.
       -2    1    3    3    0  502 -0.18094822676E+03  0.15557530554E+03 -0.85087316688E+03  0.88370305113E+03  0.25500000920E-02 0.  1.
</event>
<event>
 5   0  0.3642161E-04  0.1109099E+04  0.7818609E-02  0.9196368E-01
       -1   -1    0    0    0  501  0.00000000000E+00  0.00000000000E+00  0.20972021467E+03  0.20972021473E+03  0.50400001928E-02 0.  1.
        1   -1    0    0  501    0  0.00000000000E+00  0.00000000000E+00 -0.14663602801E+04  0.14663602801E+04  0.50400001928E-02 0. -1.
    10030    2    1    2    0    0  0.00000000000E+00  0.00000000000E+00 -0.12566400654E+04  0.16760804948E+04  0.11090994415E+04 0.  0.
        2    1    3    3  502    0  0.30695902491E+03  0.38918571711E+03 -0.25253007005E+03  0.55629201115E+03  0.25500000920E-02 0.  1.
       -2    1    3    3    0  502 -0.30695902491E+03 -0.38918571711E+03 -0.10041099953E+04  0.11197884837E+04  0.25500000920E-02 0. -1.
</event>
<event>
 5   0  0.5948818E-04  0.1100517E+04  0.7818609E-02  0.9204688E-01
        2   -1    0    0  501    0  0.00000000000E+00  0.00000000000E+00  0.33897948064E+03  0.33897948065E+03  0.25500000920E-02 0.  1.
       -2   -1    0    0    0  501  0.00000000000E+00  0.00000000000E+00 -0.89322279329E+03  0.89322279330E+03  0.25500000920E-02 0. -1.
    10030    2    1    2    0    0  0.00000000000E+00  0.00000000000E+00 -0.55424331265E+03  0.12322022739E+04  0.11005166034E+04 0.  0.
        3    1    3    3  502    0 -0.30642194959E+03  0.15664073485E+02  0.23431139138E+03  0.38605907931E+03  0.10100000352E+00 0.  1.
       -3    1    3    3    0  502  0.30642194959E+03 -0.15664073485E+02 -0.78855470402E+03  0.84614319464E+03  0.10100000352E+00 0. -1.
</event>
<event>
 5   0  0.5948818E-04  0.1103918E+04  0.7818609E-02  0.9201382E-01
       -2   -1    0    0    0  501  0.00000000000E+00  0.00000000000E+00  0.35484532269E+03  0.35484532270E+03  0.25500000920E-02 0. -1.
        2   -1    0    0  501    0  0.00000000000E+00  0.00000000000E+00 -0.85856719072E+03  0.85856719072E+03  0.25500000920E-02 0.  1.
    10030    2    1    2    0    0  0.00000000000E+00  0.00000000000E+00 -0.50372186803E+03  0.12134125134E+04  0.11039176633E+04 0.  0.
        3    1    3    3  502    0  0.34332925619E+03 -0.50545389361E+02 -0.72365281478E+03  0.80256041585E+03  0.10100000352E+00 0.  1.
       -3    1    3    3    0  502 -0.34332925619E+03  0.50545389361E+02  0.21993094675E+03  0.41085209757E+03  0.10100000352E+00 0. -1.
</event>
<event>
 5   0  0.3657529E-04  0.1099800E+04  0.7818609E-02  0.9205387E-01
       -1   -1    0    0    0  501  0.00000000000E+00  0.00000000000E+00  0.38494766051E+03  0.38494766054E+03  0.50400001928E-02 0. -1.
        1   -1    0    0  501    0  0.00000000000E+00  0.00000000000E+00 -0.78553521571E+03  0.78553521572E+03  0.50400001928E-02 0.  1.
    10030    2    1    2    0    0  0.00000000000E+00  0.00000000000E+00 -0.40058755520E+03  0.11704828763E+04  0.10997998792E+04 0.  0.
        4    1    3    3  502    0  0.41480183723E+03 -0.35901191191E+03 -0.24065488684E+03  0.59905467573E+03  0.12699999809E+01 0.  1.
       -4    1    3    3    0  502 -0.41480183723E+03  0.35901191191E+03 -0.15993266835E+03  0.57142820053E+03  0.12699999809E+01 0. -1.
</event>
<event>
 5   0  0.3657529E-04  0.1100973E+04  0.7818609E-02  0.9204244E-01
        1   -1    0    0  501    0  0.00000000000E+00  0.00000000000E+00  0.96663721606E+03  0.96663721608E+03  0.50400001928E-02 0. -1.
       -1   -1    0    0    0  501  0.00000000000E+00  0.00000000000E+00 -0.31349433576E+03  0.31349433580E+03  0.50400001928E-02 0.  1.
    10030    2    1    2    0    0  0.00000000000E+00  0.00000000000E+00  0.65314288031E+03  0.12801315519E+04  0.11009728280E+04 0.  0.
        4    1    3    3  502    0  0.34453893550E+03  0.31848730622E+03  0.66133290120E+03  0.81086624138E+03  0.12699999809E+01 0. -1.
       -4    1    3    3    0  502 -0.34453893550E+03 -0.31848730622E+03 -0.81900208934E+01  0.46926531050E+03  0.12699999809E+01 0.  1.
</event>
<event>
 5   0  0.3423758E-04  0.1100802E+04  0.7818609E-02  0.9204411E-01
       -1   -1    0    0    0  501  0.00000000000E+00  0.00000000000E+00  0.31954744126E+03  0.31954744130E+03  0.50400001928E-02 0.  1.
        1   -1    0    0  501    0  0.00000000000E+00  0.00000000000E+00 -0.94803215772E+03  0.94803215773E+03  0.50400001928E-02 0. -1.
    10030    2    1    2    0    0  0.00000000000E+00  0.00000000000E+00 -0.62848471646E+03  0.12675795990E+04  0.11008019809E+04 0.  0.
        1    1    3    3  502    0  0.25633275302E+03 -0.47407306397E+03 -0.44293051028E+03  0.69759528898E+03  0.50400001928E-02 0. -1.
       -1    1    3    3    0  502 -0.25633275302E+03  0.47407306397E+03 -0.18555420618E+03  0.56998431005E+03  0.50400001928E-02 0.  1.
</event>
<event>
 5   0  0.3423758E-04  0.1103983E+04  0.7818609E-02  0.9201319E-01
        1   -1    0    0  501    0  0.00000000000E+00  0.00000000000E+00  0.30186616965E+03  0.30186616969E+03  0.50400001928E-02 0. -1.
       -1   -1    0    0    0  501  0.00000000000E+00  0.00000000000E+00 -0.10093690168E+04  0.10093690168E+04  0.50400001928E-02 0.  1.
    10030    2    1    2    0    0  0.00000000000E+00  0.00000000000E+00 -0.70750284712E+03  0.13112351865E+04  0.11039825341E+04 0.  0.
        1    1    3    3  502    0 -0.51077615312E+03  0.10669296562E+03 -0.56760481013E+03  0.77100641244E+03  0.50400001928E-02 0. -1.
       -1    1    3    3    0  502  0.51077615312E+03 -0.10669296562E+03 -0.13989803699E+03  0.54022877403E+03  0.50400001928E-02 0.  1.
</event>
<event>
 5   0  0.3642161E-04  0.1106794E+04  0.7818609E-02  0.9198595E-01
       -1   -1    0    0    0  501  0.00000000000E+00  0.00000000000E+00  0.40248406518E+03  0.40248406521E+03  0.50400001928E-02 0.  1.
        1   -1    0    0  501    0  0.00000000000E+00  0.00000000000E+00 -0.76089562509E+03  0.76089562511E+03  0.50400001928E-02 0. -1.
    10030    2    1    2    0    0  0.00000000000E+00  0.00000000000E+00 -0.35841155992E+03  0.11633796903E+04  0.11067942255E+04 0.  0.
        2    1    3    3  502    0  0.15361376925E+03 -0.87448253389E+02 -0.73042465530E+03  0.75150819304E+03  0.25500000920E-02 0. -1.
       -2    1    3    3    0  502 -0.15361376925E+03  0.87448253389E+02  0.37201309539E+03  0.41187149728E+03  0.25500000920E-02 0.  1.
</event>
<event>
 5   0  0.3523525E-04  0.1098799E+04  0.7818609E-02  0.9206363E-01
        1   -1    0    0  501    0  0.00000000000E+00  0.00000000000E+00  0.18564216949E+04  0.18564216949E+04  0.50400001928E-02 0. -1.
       -1   -1    0    0    0  501  0.00000000000E+00  0.00000000000E+00 -0.16259229218E+03  0.16259229226E+03  0.50400001928E-02 0.  1.
    10030    2    1    2    0    0  0.00000000000E+00  0.00000000000E+00  0.16938294027E+04  0.20190139872E+04  0.10987990876E+04 0.  0.
        5    1    3    3  502    0 -0.40943082005E+01  0.98916366797E+02 -0.14602934495E+03  0.17648759323E+03  0.46999998093E+01 0.  1.
       -5    1    3    3    0  502  0.40943082005E+01 -0.98916366797E+02  0.18398587477E+04  0.18425263939E+04  0.46999998093E+01 0. -1.
</event>
<event>
 5   0  0.2403875E-04  0.1098157E+04  0.7818609E-02  0.9206990E-01
       -3   -1    0    0    0  501  0.00000000000E+00  0.00000000000E+00  0.20666982480E+03  0.20666984948E+03  0.10100000352E+00 0. -1.
        3   -1    0    0  501    0  0.00000000000E+00  0.00000000000E+00 -0.14587860285E+04  0.14587860320E+04  0.10100000352E+00 0.  1.
    10030    2    1    2    0    0  0.00000000000E+00  0.00000000000E+00 -0.12521162037E+04  0.16654558815E+04  0.10981567764E+04 0.  0.
        5    1    3    3  502    0  0.26284738036E+03 -0.30298114300E+02  0.10357601634E+03  0.28417741334E+03  0.46999998093E+01 0. -1.
       -5    1    3    3    0  502 -0.26284738036E+03  0.30298114300E+02 -0.13556922201E+04  0.13812784682E+04  0.46999998093E+01 0.  1.
</event>
<event>
 5   0  0.3642161E-04  0.1099005E+04  0.7818609E-02  0.9206162E-01
       -1   -1    0    0    0  501  0.00000000000E+00  0.00000000000E+00  0.44725324418E+03  0.44725324421E+03  0.50400001928E-02 0.  1.
        1   -1    0    0  501    0  0.00000000000E+00  0.00000000000E+00 -0.67512746367E+03  0.67512746369E+03  0.50400001928E-02 0. -1.
    10030    2    1    2    0    0  0.00000000000E+00  0.00000000000E+00 -0.22787421949E+03  0.11223807079E+04  0.10990049106E+04 0.  0.
        2    1    3    3  502    0  0.52095593687E+03 -0.99563779392E+01  0.64299314664E+02  0.52500344712E+03  0.25500000920E-02 0.  1.
       -2    1    3    3    0  502 -0.52095593687E+03  0.99563779392E+01 -0.29217353416E+03  0.59737726077E+03  0.25500000920E-02 0. -1.
</event>
<event>
 5   0  0.6109149E-04  0.1100961E+04  0.7818609E-02  0.9204256E-01
        2   -1    0    0  501    0  0.00000000000E+00  0.00000000000E+00  0.14133197426E+04  0.14133197426E+04  0.25500000920E-02 0.  1.
       -2   -1    0    0    0  501  0.00000000000E+00  0.00000000000E+00 -0.21440920363E+03  0.21440920364E+03  0.25500000920E-02 0. -1.
    10030    2    1    2    0    0  0.00000000000E+00  0.00000000000E+00  0.11989105389E+04  0.16277289462E+04  0.11009609629E+04 0.  0.
        1    1    3    3  502    0 -0.42207050591E+03 -0.18947070515E+03  0.10404884395E+04  0.11387092925E+04  0.50400001928E-02 0.  1.
       -1    1    3    3    0  502  0.42207050591E+03  0.18947070515E+03  0.15842209940E+03  0.48901965367E+03  0.50400001928E-02 0. -1.
</event>
<event>
 5   0  0.6109149E-04  0.1101195E+04  0.7818609E-02  0.9204028E-01
       -2   -1    0    0    0  501  0.00000000000E+00  0.00000000000E+00  0.16882257775E+03  0.16882257777E+03  0.25500000920E-02 0. -1.
        2   -1    0    0  501    0  0.00000000000E+00  0.00000000000E+00 -0.17957160407E+04  0.17957160407E+04  0.25500000920E-02 0.  1.
    10030    2    1    2    0    0  0.00000000000E+00  0.00000000000E+00 -0.16268934629E+04  0.19645386184E+04  0.11011946439E+04 0.  0.
        1    1    3    3  502    0  0.38277865847E+03 -0.35236502368E+03 -0.49194516532E+03  0.71602420141E+03  0.50400001928E-02 0. -1.
       -1    1    3    3    0  502 -0.38277865847E+03  0.35236502368E+03 -0.11349482976E+04  0.12485144170E+04  0.50400001928E-02 0.  1.
</event>
<event>
 5   0  0.6412712E-04  0.1099201E+04  0.7818609E-02  0.9205971E-01
       -2   -1    0    0    0  501  0.00000000000E+00  0.00000000000E+00  0.10930762302E+04  0.10930762302E+04  0.25500000920E-02 0. -1.
        2   -1    0    0  501    0  0.00000000000E+00  0.00000000000E+00 -0.27634012855E+03  0.27634012857E+03  0.25500000920E-02 0.  1.
    10030    2    1    2    0    0  0.00000000000E+00  0.00000000000E+00  0.81673610167E+03  0.13694163588E+04  0.10992012118E+04 0.  0.
        2    1    3    3  502    0 -0.33493521114E+02 -0.32229189514E+03 -0.14468297777E+03  0.35486200937E+03  0.25500000920E-02 0.  1.
       -2    1    3    3    0  502  0.33493521114E+02  0.32229189514E+03  0.96141907944E+03  0.10145543494E+04  0.25500000920E-02 0. -1.
</event>
<event>
 5   0  0.3657529E-04  0.1105356E+04  0.7818609E-02  0.9199987E-01
       -1   -1    0    0    0  501  0.00000000000E+00  0.00000000000E+00  0.21372194547E+03  0.21372194553E+03  0.50400001928E-02 0.  1.
        1   -1    0    0  501    0  0.00000000000E+00  0.00000000000E+00 -0.14292074977E+04  0.14292074977E+04  0.50400001928E-02 0. -1.
    10030    2    1    2    0    0  0.00000000000E+00  0.00000000000E+00 -0.12154855522E+04  0.16429294433E+04  0.11053560638E+04 0.  0.
        4    1    3    3  502    0  0.14145869614E+03 -0.11654344283E+03 -0.13827185719E+04  0.13948136789E+04  0.12699999809E+01 0. -1.
       -4    1    3    3    0  502 -0.14145869614E+03  0.11654344283E+03  0.16723301965E+03  0.24811576439E+03  0.12699999809E+01 0.  1.
</event>
<event>
 5   0  0.3657529E-04  0.1105789E+04  0.7818609E-02  0.9199568E-01
        1   -1    0    0  501    0  0.00000000000E+00  0.00000000000E+00  0.14939775941E+04  0.14939775941E+04  0.50400001928E-02 0.  1.
       -1   -1    0    0    0  501  0.00000000000E+00  0.00000000000E+00 -0.20461644237E+03  0.20461644243E+03  0.50400001928E-02 0. -1.
    10030    2    1    2    0    0  0.00000000000E+00  0.00000000000E+00  0.12893611517E+04  0.16985940365E+04  0.11057890944E+04 0.  0.
        4    1    3    3  502    0  0.27843453843E+03  0.13142618104E+03 -0.60738960953E+02  0.31383031646E+03  0.12699999809E+01 0. -1.
       -4    1    3    3    0  502 -0.27843453843E+03 -0.13142618104E+03  0.13501001127E+04  0.13847637201E+04  0.12699999809E+01 0.  1.
</event>
<event>
 5   0  0.3423758E-04  0.1099864E+04  0.7818609E-02  0.9205324E-01
        1   -1    0    0  501    0  0.00000000000E+00  0.00000000000E+00  0.40050392683E+03  0.40050392686E+03  0.50400001928E-02 0.  1.
       -1   -1    0    0    0  501  0.00000000000E+00  0.00000000000E+00 -0.75511197461E+03  0.75511197463E+03  0.50400001928E-02 0. -1.
    10030    2    1    2    0    0  0.00000000000E+00  0.00000000000E+00 -0.35460804778E+03  0.11556159015E+04  0.10998641935E+04 0.  0.
        1    1    3    3  502    0  0.37523120896E+03  0.20551674653E+03  0.18573884313E+03  0.46640595103E+03  0.50400001928E-02 0.  1.
       -1    1    3    3    0  502 -0.37523120896E+03 -0.20551674653E+03 -0.54034689091E+03  0.68920995047E+03  0.50400001928E-02 0. -1.
</event>
<event>
 5   0  0.3642161E-04  0.1105146E+04  0.7818609E-02  0.9200191E-01
        1   -1    0    0  501    0  0.00000000000E+00  0.00000000000E+00  0.69997002120E+03  0.69997002122E+03  0.50400001928E-02 0.  1.
       -1   -1    0    0    0  501  0.00000000000E+00  0.00000000000E+00 -0.43621440738E+03  0.43621440741E+03  0.50400001928E-02 0. -1.
    10030    2    1    2    0    0  0.00000000000E+00  0.00000000000E+00  0.26375561382E+03  0.11361844286E+04  0.11051461587E+04 0.  0.
        2    1    3    3  502    0 -0.36743669108E+03 -0.83401110608E+02  0.54742209497E+03  0.66455730924E+03  0.25500000920E-02 0.  1.
       -2    1    3    3    0  502  0.36743669108E+03  0.83401110608E+02 -0.28366648114E+03  0.47162711938E+03  0.25500000920E-02 0. -1.
</event>
<event>
 5   0  0.2403875E-04  0.1100515E+04  0.7818609E-02  0.9204690E-01
        4   -1    0    0  501    0  0.00000000000E+00  0.00000000000E+00  0.18663983751E+03  0.18664415835E+03  0.12699999809E+01 0. -1.
       -4   -1    0    0    0  501  0.00000000000E+00  0.00000000000E+00 -0.16222632351E+04  0.16222637322E+04  0.12699999809E+01 0.  1.
    10030    2    1    2    0    0  0.00000000000E+00  0.00000000000E+00 -0.14356233976E+04  0.18089078905E+04  0.11005149780E+04 0.  0.
        5    1    3    3  502    0 -0.73139981625E+02  0.54084034038E+03 -0.83291104461E+03  0.99580150076E+03  0.46999998093E+01 0. -1.
       -5    1    3    3    0  502  0.73139981625E+02 -0.54084034038E+03 -0.60271235295E+03  0.81310638978E+03  0.46999998093E+01 0.  1.
</event>
<event>
 5   0  0.5948818E-04  0.1098136E+04  0.7818609E-02  0.9207011E-01
        2   -1    0    0  501    0  0.00000000000E+00  0.00000000000E+00  0.12024476261E+04  0.12024476261E+04  0.25500000920E-02 0.  1.
       -2   -1    0    0    0  501  0.00000000000E+00  0.00000000000E+00 -0.25071812555E+03  0.25071812556E+03  0.25500000920E-02 0. -1.
    10030    2    1    2    0    0  0.00000000000E+00  0.00000000000E+00  0.95172950052E+03  0.14531657516E+04  0.10981355379E+04 0.  0.
        3    1    3    3  502    0 -0.12804955767E+03  0.99010260440E+02 -0.21842880258E+03  0.27186554193E+03  0.10100000352E+00 0. -1.
       -3    1    3    3    0  502  0.12804955767E+03 -0.99010260440E+02  0.11701583031E+04  0.11813002097E+04  0.10100000352E+00 0.  1.
</event>
<event>
 5   0  0.6109149E-04  0.1100368E+04  0.7818609E-02  0.9204833E-01
       -2   -1    0    0    0  501  0.00000000000E+00  0.00000000000E+00  0.18680301997E+03  0.18680301999E+03  0.25500000920E-02 0. -1.
        2   -1    0    0  501    0  0.00000000000E+00  0.00000000000E+00 -0.16204374100E+04  0.16204374100E+04  0.25500000920E-02 0.  1.
    10030    2    1    2    0    0  0.00000000000E+00  0.00000000000E+00 -0.14336343900E+04  0.18072404300E+04  0.11003683054E+04 0.  0.
        1    1    3    3  502    0  0.31230252853E+03 -0.28715289642E+03 -0.14147920293E+03  0.44722032617E+03  0.50400001928E-02 0. -1.
       -1    1    3    3    0  502 -0.31230252853E+03  0.28715289642E+03 -0.12921551871E+04  0.13600201038E+04  0.50400001928E-02 0.  1.
</event>
<event>
 5   0  0.5948818E-04  0.1099593E+04  0.7818609E-02  0.9205589E-01
       -2   -1    0    0    0  501  0.00000000000E+00  0.00000000000E+00  0.18459600012E+03  0.18459600014E+03  0.25500000920E-02 0.  1.
        2   -1    0    0  501    0  0.00000000000E+00  0.00000000000E+00 -0.16375008563E+04  0.16375008563E+04  0.25500000920E-02 0. -1.
    10030    2    1    2    0    0  0.00000000000E+00  0.00000000000E+00 -0.14529048562E+04  0.18220968564E+04  0.10995928488E+04 0.  0.
        3    1    3    3  502    0 -0.31676872490E+03 -0.16022462184E+03 -0.14221469490E+04  0.14657818082E+04  0.10100000352E+00 0. -1.
       -3    1    3    3    0  502  0.31676872490E+03  0.16022462184E+03 -0.30757907151E+02  0.35631504820E+03  0.10100000352E+00 0.  1.
</event>
<event>
 5   0  0.3657529E-04  0.1100211E+04  0.7818609E-02  0.9204987E-01
       -1   -1    0    0    0  501  0.00000000000E+00  0.00000000000E+00  0.42949945197E+03  0.42949945200E+03  0.50400001928E-02 0. -1.
        1   -1    0    0  501    0  0.00000000000E+00  0.00000000000E+00 -0.70457792337E+03  0.70457792339E+03  0.50400001928E-02 0.  1.
    10030    2    1    2    0    0  0.00000000000E+00  0.00000000000E+00 -0.27507847140E+03  0.11340773754E+04  0.11002105834E+04 0.  0.
        4    1    3    3  502    0  0.38406671721E+03  0.32059924029E+02  0.26707279032E+03  0.46889718514E+03  0.12699999809E+01 0. -1.
       -4    1    3    3    0  502 -0.38406671721E+03 -0.32059924029E+02 -0.54215126173E+03  0.66518019024E+03  0.12699999809E+01 0.  1.
</event>
<event>
 5   0  0.6412712E-04  0.1101184E+04  0.7818609E-02  0.9204039E-01
        2   -1    0    0  501    0  0.00000000000E+00  0.00000000000E+00  0.69947817639E+03  0.69947817639E+03  0.25500000920E-02 0. -1.
       -2   -1    0    0    0  501  0.00000000000E+00  0.00000000000E+00 -0.43339669495E+03  0.43339669496E+03  0.25500000920E-02 0.  1.
    10030    2    1    2    0    0  0.00000000000E+00  0.00000000000E+00  0.26608148144E+03  0.11328748714E+04  0.11011839626E+04 0.  0.
        2    1    3    3  502    0  0.41745468762E+03 -0.12866551788E+03 -0.21175878154E+03  0.48545340999E+03  0.25500000920E-02 0.  1.
       -2    1    3    3    0  502 -0.41745468762E+03  0.12866551788E+03  0.47784026298E+03  0.64742146137E+03  0.25500000920E-02 0. -1.
</event>
<event>
 5   0  0.6412712E-04  0.1100495E+04  0.7818609E-02  0.9204709E-01
       -2   -1    0    0    0  501  0.00000000000E+00  0.00000000000E+00  0.74206919065E+03  0.74206919066E+03  0.25500000920E-02 0.  1.
        2   -1    0    0  501    0  0.00000000000E+00  0.00000000000E+00 -0.40801124869E+03  0.40801124870E+03  0.25500000920E-02 0. -1.
    10030    2    1    2    0    0  0.00000000000E+00  0.00000000000E+00  0.33405794196E+03  0.11500804394E+04  0.11004954831E+04 0.  0.
        2    1    3    3  502    0  0.41055761015E+03  0.35443534045E+03  0.26389067117E+03  0.60317513887E+03  0.25500000920E-02 0.  1.
       -2    1    3    3    0  502 -0.41055761015E+03 -0.35443534045E+03  0.70167270788E+02  0.54690530049E+03  0.25500000920E-02 0. -1.
</event>
<event>
 5   0  0.3657529E-04  0.1100471E+04  0.7818609E-02  0.9204733E-01
       -1   -1    0    0    0  501  0.00000000000E+00  0.00000000000E+00  0.42648261847E+03  0.42648261850E+03  0.50400001928E-02 0.  1.
        1   -1    0    0  501    0  0.00000000000E+00  0.00000000000E+00 -0.70989805081E+03  0.70989805082E+03  0.50400001928E-02 0. -1.
    10030    2    1    2    0    0  0.00000000000E+00  0.00000000000E+00 -0.28341543234E+03  0.11363806693E+04  0.11004711347E+04 0.  0.
        4    1    3    3  502    0 -0.14388535221E+03  0.42602379137E+03  0.18574918381E+03  0.48652198057E+03  0.12699999809E+01 0.  1.
       -4    1    3    3    0  502  0.14388535221E+03 -0.42602379137E+03 -0.46916461615E+03  0.64985868875E+03  0.12699999809E+01 0. -1.
</event>
<event>
 5   0  0.3642161E-04  0.1099680E+04  0.7818609E-02  0.9205504E-01
       -1   -1    0    0    0  501  0.00000000000E+00  0.00000000000E+00  0.48205890137E+03  0.48205890140E+03  0.50400001928E-02 0. -1.
        1   -1    0    0  501    0  0.00000000000E+00  0.00000000000E+00 -0.62715165926E+03  0.62715165928E+03  0.50400001928E-02 0.  1.
    10030    2    1    2    0    0  0.00000000000E+00  0.00000000000E+00 -0.14509275788E+03  0.11092105607E+04  0.10996800260E+04 0.  0.
        2    1    3    3  502    0 -0.25257433241E+03 -0.26493951710E+03  0.34129873869E+03  0.50047134799E+03  0.25500000920E-02 0. -1.
       -2    1    3    3    0  502  0.25257433241E+03  0.26493951710E+03 -0.48639149658E+03  0.60873921269E+03  0.25500000920E-02 0.  1.
</event>
<event>
 5   0  0.3523525E-04  0.1100002E+04  0.7818609E-02  0.9205190E-01
        1   -1    0    0  501    0  0.00000000000E+00  0.00000000000E+00  0.97397757692E+03  0.97397757693E+03  0.50400001928E-02 0. -1.
       -1   -1    0    0    0  501  0.00000000000E+00  0.00000000000E+00 -0.31058325212E+03  0.31058325216E+03  0.50400001928E-02 0.  1.
    10030    2    1    2    0    0  0.00000000000E+00  0.00000000000E+00  0.66339432480E+03  0.12845608291E+04  0.11000020425E+04 0.  0.
        5    1    3    3  502    0  0.43331105650E+03  0.27002050176E+03  0.92916793005E+02  0.51896547426E+03  0.46999998093E+01 0.  1.
       -5    1    3    3    0  502 -0.43331105650E+03 -0.27002050176E+03  0.57047753180E+03  0.76559535483E+03  0.46999998093E+01 0. -1.
</event>
<event>
 5   0  0.6264830E-04  0.1101106E+04  0.7818609E-02  0.9204114E-01
        2   -1    0    0  501    0  0.00000000000E+00  0.00000000000E+00  0.49973822451E+03  0.49973822452E+03  0.25500000920E-02 0. -1.
       -2   -1    0    0    0  501  0.00000000000E+00  0.00000000000E+00 -0.60653503282E+03  0.60653503282E+03  0.25500000920E-02 0.  1.
    10030    2    1    2    0    0  0.00000000000E+00  0.00000000000E+00 -0.10679680830E+03  0.11062732573E+04  0.11011062445E+04 0.  0.
        4    1    3    3  502    0 -0.60831633642E+02  0.34903787985E+03 -0.47677732728E+03  0.59400855375E+03  0.12699999809E+01 0.  1.
       -4    1    3    3    0  502  0.60831633642E+02 -0.34903787985E+03  0.36998051898E+03  0.51226470359E+03  0.12699999809E+01 0. -1.
</event>
<event>
 5   0  0.3523525E-04  0.1098985E+04  0.7818609E-02  0.9206182E-01
       -1   -1    0    0    0  501  0.00000000000E+00  0.00000000000E+00  0.54082468909E+03  0.54082468911E+03  0.50400001928E-02 0.  1.
        1   -1    0    0  501    0  0.00000000000E+00  0.00000000000E+00 -0.55829899123E+03  0.55829899125E+03  0.50400001928E-02 0. -1.
    10030    2    1    2    0    0  0.00000000000E+00  0.00000000000E+00 -0.17474302141E+02  0.10991236804E+04  0.10989847649E+04 0.  0.
        5    1    3    3  502    0 -0.65959965386E+02 -0.32158111815E+02  0.53588188825E+03  0.54090327171E+03  0.46999998093E+01 0.  1.
       -5    1    3    3    0  502  0.65959965386E+02  0.32158111815E+02 -0.55335619039E+03  0.55822040865E+03  0.46999998093E+01 0. -1.
</event>
<event>
 5   0  0.6109149E-04  0.1099959E+04  0.7818609E-02  0.9205231E-01
        2   -1    0    0  501    0  0.00000000000E+00  0.00000000000E+00  0.15710330621E+04  0.15710330621E+04  0.25500000920E-02 0. -1.
       -2   -1    0    0    0  501  0.00000000000E+00  0.00000000000E+00 -0.19253427238E+03  0.19253427240E+03  0.25500000920E-02 0.  1.
    10030    2    1    2    0    0  0.00000000000E+00  0.00000000000E+00  0.13784987897E+04  0.17635673345E+04  0.10999594675E+04 0.  0.
        1    1    3    3  502    0 -0.33712809802E+03 -0.42755369286E+03  0.81364944686E+03  0.97902141813E+03  0.50400001928E-02 0. -1.
       -1    1    3    3    0  502  0.33712809802E+03  0.42755369286E+03  0.56484934289E+03  0.78454591640E+03  0.50400001928E-02 0.  1.
</event>
<event>
 5   0  0.3523525E-04  0.1101492E+04  0.7818609E-02  0.9203738E-01
       -1   -1    0    0    0  501  0.00000000000E+00  0.00000000000E+00  0.10806155564E+04  0.10806155565E+04  0.50400001928E-02 0. -1.
        1   -1    0    0  501    0  0.00000000000E+00  0.00000000000E+00 -0.28069314983E+03  0.28069314987E+03  0.50400001928E-02 0.  1.
    10030    2    1    2    0    0  0.00000000000E+00  0.00000000000E+00  0.79992240662E+03  0.13613087063E+04  0.11014924137E+04 0.  0.
        5    1    3    3  502    0 -0.45995292617E+03 -0.16650759408E+03  0.71265952921E+03  0.86439988880E+03  0.46999998093E+01 0. -1.
       -5    1    3    3    0  502  0.45995292617E+03  0.16650759408E+03  0.87262877408E+02  0.49690881754E+03  0.46999998093E+01 0.  1.
</event>
<event>
 5   0  0.3423758E-04  0.1100043E+04  0.7818609E-02  0.9205150E-01
        1   -1    0    0  501    0  0.00000000000E+00  0.00000000000E+00  0.77036388610E+03  0.77036388612E+03  0.50400001928E-02 0. -1.
       -1   -1    0    0    0  501  0.00000000000E+00  0.00000000000E+00 -0.39270255151E+03  0.39270255154E+03  0.50400001928E-02 0.  1.
    10030    2    1    2    0    0  0.00000000000E+00  0.00000000000E+00  0.37766133459E+03  0.11630664377E+04  0.11000433877E+04 0.  0.
        1    1    3    3  502    0 -0.39023625670E+02 -0.23226008622E+03  0.71435478431E+03  0.75217707284E+03  0.50400001928E-02 0. -1.
       -1    1    3    3    0  502  0.39023625670E+02  0.23226008622E+03 -0.33669344972E+03  0.41088936482E+03  0.50400001928E-02 0.  1.
</event>
<event>
 5   0  0.3621403E-04  0.1098528E+04  0.7818609E-02  0.9206628E-01
       -1   -1    0    0    0  501  0.00000000000E+00  0.00000000000E+00  0.34396317348E+03  0.34396317352E+03  0.50400001928E-02 0. -1.
        1   -1    0    0  501    0  0.00000000000E+00  0.00000000000E+00 -0.87710282072E+03  0.87710282073E+03  0.50400001928E-02 0.  1.
    10030    2    1    2    0    0  0.00000000000E+00  0.00000000000E+00 -0.53313964723E+03  0.12210659942E+04  0.10985282331E+04 0.  0.
        3    1    3    3  502    0  0.51869685753E+03  0.70565700485E+02 -0.81688038713E+02  0.52981024336E+03  0.10100000352E+00 0.  1.
       -3    1    3    3    0  502 -0.51869685753E+03 -0.70565700485E+02 -0.45145160852E+03  0.69125575089E+03  0.10100000352E+00 0. -1.
</event>
<event>
 5   0  0.3523525E-04  0.1100392E+04  0.7818609E-02  0.9204810E-01
       -1   -1    0    0    0  501  0.00000000000E+00  0.00000000000E+00  0.27108890730E+03  0.27108890735E+03  0.50400001928E-02 0.  1.
        1   -1    0    0  501    0  0.00000000000E+00  0.00000000000E+00 -0.11166647027E+04  0.11166647027E+04  0.50400001928E-02 0. -1.
    10030    2    1    2    0    0  0.00000000000E+00  0.00000000000E+00 -0.84557579540E+03  0.13877536101E+04  0.11003915923E+04 0.  0.
        5    1    3    3  502    0 -0.37672821468E+03 -0.19938176630E+03 -0.86150711322E+03  0.96119396200E+03  0.46999998093E+01 0. -1.
       -5    1    3    3    0  502  0.37672821468E+03  0.19938176630E+03  0.15931317816E+02  0.42655964806E+03  0.46999998093E+01 0.  1.
</event>
<event>
 5   0  0.6264830E-04  0.1100150E+04  0.7818609E-02  0.9205046E-01
       -2   -1    0    0    0  501  0.00000000000E+00  0.00000000000E+00  0.64781399733E+03  0.64781399733E+03  0.25500000920E-02 0.  1.
        2   -1    0    0  501    0  0.00000000000E+00  0.00000000000E+00 -0.46708219364E+03  0.46708219365E+03  0.25500000920E-02 0. -1.
    10030    2    1    2    0    0  0.00000000000E+00  0.00000000000E+00  0.18073180369E+03  0.11148961910E+04  0.11001497770E+04 0.  0.
        4    1    3    3  502    0 -0.58061141241E+02  0.82950554747E+02  0.63828757266E+03  0.64626970296E+03  0.12699999809E+01 0.  1.
       -4    1    3    3    0  502  0.58061141241E+02 -0.82950554747E+02 -0.45755576897E+03  0.46862648802E+03  0.12699999809E+01 0. -1.
</event>
<event>
 5   0  0.5948818E-04  0.1100342E+04  0.7818609E-02  0.9204858E-01
       -2   -1    0    0    0  501  0.00000000000E+00  0.00000000000E+00  0.47523120263E+03  0.47523120264E+03  0.25500000920E-02 0. -1.
        2   -1    0    0  501    0  0.00000000000E+00  0.00000000000E+00 -0.63692846872E+03  0.63692846873E+03  0.25500000920E-02 0.  1.
    10030    2    1    2    0    0  0.00000000000E+00  0.00000000000E+00 -0.16169726610E+03  0.11121596714E+04  0.11003422780E+04 0.  0.
        3    1    3    3  502    0  0.11239848333E+03  0.34431580291E+03 -0.49942362731E+03  0.61693659391E+03  0.10100000352E+00 0.  1.
       -3    1    3    3    0  502 -0.11239848333E+03 -0.34431580291E+03  0.33772636121E+03  0.49522307746E+03  0.10100000352E+00 0. -1.
</event>
<event>
 5   0  0.6412712E-04  0.1101024E+04  0.7818609E-02  0.9204195E-01
       -2   -1    0    0    0  501  0.00000000000E+00  0.00000000000E+00  0.12781579829E+03  0.12781579831E+03  0.25500000920E-02 0.  1.
        2   -1    0    0  501    0  0.00000000000E+00  0.00000000000E+00 -0.23710937798E+04  0.23710937798E+04  0.25500000920E-02 0. -1.
    10030    2    1    2    0    0  0.00000000000E+00  0.00000000000E+00 -0.22432779815E+04  0.24989095781E+04  0.11010236043E+04 0.  0.
        2    1    3    3  502    0 -0.28914059251E+03  0.43817952544E+03 -0.74554054931E+03  0.91183018673E+03  0.25500000920E-02 0. -1.
       -2    1    3    3    0  502  0.28914059251E+03 -0.43817952544E+03 -0.14977374322E+04  0.15870793914E+04  0.25500000920E-02 0.  1.
</event>
<event>
 5   0  0.6109149E-04  0.1099409E+04  0.7818609E-02  0.9205768E-01
       -2   -1    0    0    0  501  0.00000000000E+00  0.00000000000E+00  0.15173093969E+03  0.15173093971E+03  0.25500000920E-02 0.  1.
        2   -1    0    0  501    0  0.00000000000E+00  0.00000000000E+00 -0.19915176477E+04  0.19915176477E+04  0.25500000920E-02 0. -1.
    10030    2    1    2    0    0  0.00000000000E+00  0.00000000000E+00 -0.18397867080E+04  0.21432485874E+04  0.10994086485E+04 0.  0.
        1    1    3    3  502    0  0.27513630048E+03 -0.12745993192E+03 -0.18137328269E+04  0.18389053226E+04  0.50400001928E-02 0. -1.
       -1    1    3    3    0  502 -0.27513630048E+03  0.12745993192E+03 -0.26053881106E+02  0.30434326481E+03  0.50400001928E-02 0.  1.
</event>
<event>
 5   0  0.6245176E-04  0.1099973E+04  0.7818609E-02  0.9205218E-01
       -2   -1    0    0    0  501  0.00000000000E+00  0.00000000000E+00  0.23095088706E+03  0.23095088707E+03  0.25500000920E-02 0. -1.
        2   -1    0    0  501    0  0.00000000000E+00  0.00000000000E+00 -0.13097386671E+04  0.13097386671E+04  0.25500000920E-02 0.  1.
    10030    2    1    2    0    0  0.00000000000E+00  0.00000000000E+00 -0.10787877801E+04  0.15406895542E+04  0.10999732851E+04 0.  0.
        5    1    3    3  502    0  0.99030645543E+02  0.43495382229E+03 -0.88843887261E+02  0.45487055585E+03  0.46999998093E+01 0. -1.
       -5    1    3    3    0  502 -0.99030645543E+02 -0.43495382229E+03 -0.98994389281E+03  0.10858189984E+04  0.46999998093E+01 0.  1.
</event>
<event>
 5   0  0.5948818E-04  0.1099136E+04  0.7818609E-02  0.9206034E-01
       -2   -1    0    0    0  501  0.00000000000E+00  0.00000000000E+00  0.24647423009E+03  0.24647423010E+03  0.25500000920E-02 0. -1.
        2   -1    0    0  501    0  0.00000000000E+00  0.00000000000E+00 -0.12253825907E+04  0.12253825907E+04  0.25500000920E-02 0.  1.
    10030    2    1    2    0    0  0.00000000000E+00  0.00000000000E+00 -0.97890836061E+03  0.14718568208E+04  0.10991364440E+04 0.  0.
        3    1    3    3  502    0  0.15643922428E+03 -0.41004705497E+02  0.21388800978E+03  0.26814680250E+03  0.10100000352E+00 0. -1.
       -3    1    3    3    0  502 -0.15643922428E+03  0.41004705497E+02 -0.11927963704E+04  0.12037100183E+04  0.10100000352E+00 0.  1.
</event>
<event>
 5   0  0.3423758E-04  0.1102393E+04  0.7818609E-02  0.9202862E-01
        1   -1    0    0  501    0  0.00000000000E+00  0.00000000000E+00  0.76106751000E+03  0.76106751002E+03  0.50400001928E-02 0.  1.
       -1   -1    0    0    0  501  0.00000000000E+00  0.00000000000E+00 -0.39919939200E+03  0.39919939203E+03  0.50400001928E-02 0. -1.
    10030    2    1    2    0    0  0.00000000000E+00  0.00000000000E+00  0.36186811800E+03  0.11602669020E+04  0.11023931917E+04 0.  0.
        1    1    3    3  502    0 -0.85759909502E+02 -0.39089559865E+02 -0.39065576379E+03  0.40186400881E+03  0.50400001928E-02 0. -1.
       -1    1    3    3    0  502  0.85759909502E+02  0.39089559865E+02  0.75252388180E+03  0.75840289324E+03  0.50400001928E-02 0.  1.
</event>
<event>
 5   0  0.3621403E-04  0.1099281E+04  0.7818609E-02  0.9205893E-01
       -1   -1    0    0    0  501  0.00000000000E+00  0.00000000000E+00  0.53428983007E+03  0.53428983009E+03  0.50400001928E-02 0.  1.
        1   -1    0    0  501    0  0.00000000000E+00  0.00000000000E+00 -0.56543187774E+03  0.56543187776E+03  0.50400001928E-02 0. -1.
    10030    2    1    2    0    0  0.00000000000E+00  0.00000000000E+00 -0.31142047671E+02  0.10997217079E+04  0.10992806774E+04 0.  0.
        3    1    3    3  502    0 -0.42269207270E+03  0.25793815268E+03 -0.25421192865E+03  0.55661871492E+03  0.10100000352E+00 0. -1.
       -3    1    3    3    0  502  0.42269207270E+03 -0.25793815268E+03  0.22306988098E+03  0.54310299293E+03  0.10100000352E+00 0.  1.
</event>
<event>
 5   0  0.3523525E-04  0.1099792E+04  0.7818609E-02  0.9205395E-01
        1   -1    0    0  501    0  0.00000000000E+00  0.00000000000E+00  0.10839911064E+04  0.10839911064E+04  0.50400001928E-02 0. -1.
       -1   -1    0    0    0  501  0.00000000000E+00  0.00000000000E+00 -0.27895577039E+03  0.27895577044E+03  0.50400001928E-02 0.  1.
    10030    2    1    2    0    0  0.00000000000E+00  0.00000000000E+00  0.80503533600E+03  0.13629468768E+04  0.10997919335E+04 0.  0.
        5    1    3    3  502    0 -0.17883131325E+03  0.51476127632E+03  0.31141880219E+03  0.62766517392E+03  0.46999998093E+01 0.  1.
       -5    1    3    3    0  502  0.17883131325E+03 -0.51476127632E+03  0.49361653382E+03  0.73528170293E+03  0.46999998093E+01 0. -1.
</event>
<event>
 5   0  0.3621403E-04  0.1102599E+04  0.7818609E-02  0.9202663E-01
        1   -1    0    0  501    0  0.00000000000E+00  0.00000000000E+00  0.58708468037E+03  0.58708468039E+03  0.50400001928E-02 0. -1.
       -1   -1    0    0    0  501  0.00000000000E+00  0.00000000000E+00 -0.51769516752E+03  0.51769516755E+03  0.50400001928E-02 0.  1.
    10030    2    1    2    0    0  0.00000000000E+00  0.00000000000E+00  0.69389512849E+02  0.11047798479E+04  0.11025985706E+04 0.  0.
        3    1    3    3  502    0  0.10281381356E+03 -0.11657624075E+03 -0.49528470414E+03  0.51910273408E+03  0.10100000352E+00 0.  1.
       -3    1    3    3    0  502 -0.10281381356E+03  0.11657624075E+03  0.56467421699E+03  0.58567711386E+03  0.10100000352E+00 0. -1.
</event>
<event>
 5   0  0.6412712E-04  0.1126706E+04  0.7818609E-02  0.9179546E-01
        2   -1    0    0  501    0  0.00000000000E+00  0.00000000000E+00  0.65951293018E+03  0.65951293018E+03  0.25500000920E-02 0. -1.
       -2   -1    0    0    0  501  0.00000000000E+00  0.00000000000E+00 -0.48121374104E+03  0.48121374105E+03  0.25500000920E-02 0.  1.
    10030    2    1    2    0    0  0.00000000000E+00  0.00000000000E+00  0.17829918914E+03  0.11407266712E+04  0.11267061452E+04 0.  0.
        2    1    3    3  502    0  0.10835815901E+03  0.23364751410E+03  0.59641732344E+03  0.64965088715E+03  0.25500000920E-02 0. -1.
       -2    1    3    3    0  502 -0.10835815901E+03 -0.23364751410E+03 -0.41811813430E+03  0.49107578408E+03  0.25500000920E-02 0.  1.
</event>
<event>
 5   0  0.5948818E-04  0.1098359E+04  0.7818609E-02  0.9206793E-01
        2   -1    0    0  501    0  0.00000000000E+00  0.00000000000E+00  0.45365270216E+03  0.45365270217E+03  0.25500000920E-02 0.  1.
       -2   -1    0    0    0  501  0.00000000000E+00  0.00000000000E+00 -0.66482127905E+03  0.66482127906E+03  0.25500000920E-02 0. -1.
    10030    2    1    2    0    0  0.00000000000E+00  0.00000000000E+00 -0.21116857689E+03  0.11184739812E+04  0.10983587205E+04 0.  0.
        3    1    3    3  502    0  0.11528513519E+03 -0.11391009645E+02  0.44106872884E+03  0.45602856409E+03  0.10100000352E+00 0.  1.
       -3    1    3    3    0  502 -0.11528513519E+03  0.11391009645E+02 -0.65223730574E+03  0.66244541714E+03  0.10100000352E+00 0. -1.
</event>
<event>
 5   0  0.3621403E-04  0.1100167E+04  0.7818609E-02  0.9205029E-01
       -1   -1    0    0    0  501  0.00000000000E+00  0.00000000000E+00  0.20708702964E+03  0.20708702970E+03  0.50400001928E-02 0. -1.
        1   -1    0    0  501    0  0.00000000000E+00  0.00000000000E+00 -0.14611826242E+04  0.14611826242E+04  0.50400001928E-02 0.  1.
    10030    2    1    2    0    0  0.00000000000E+00  0.00000000000E+00 -0.12540955946E+04  0.16682696539E+04  0.11001672045E+04 0.  0.
        3    1    3    3  502    0  0.41231692132E+03  0.35608373987E+03 -0.51165264691E+03  0.74738832925E+03  0.10100000352E+00 0. -1.
       -3    1    3    3    0  502 -0.41231692132E+03 -0.35608373987E+03 -0.74244294767E+03  0.92088132468E+03  0.10100000352E+00 0.  1.
</event>
<event>
 5   0  0.3642161E-04  0.1100384E+04  0.7818609E-02  0.9204818E-01
       -1   -1    0    0    0  501  0.00000000000E+00  0.00000000000E+00  0.61802758611E+03  0.61802758613E+03  0.50400001928E-02 0.  1.
        1   -1    0    0  501    0  0.00000000000E+00  0.00000000000E+00 -0.48980191295E+03  0.48980191297E+03  0.50400001928E-02 0. -1.
    10030    2    1    2    0    0  0.00000000000E+00  0.00000000000E+00  0.12822567316E+03  0.11078294991E+04  0.11003837403E+04 0.  0.
        2    1    3    3  502    0  0.28396531924E+03  0.24525059696E+03  0.46923715192E+03  0.60080584434E+03  0.25500000920E-02 0.  1.
       -2    1    3    3    0  502 -0.28396531924E+03 -0.24525059696E+03 -0.34101147876E+03  0.50702365477E+03  0.25500000920E-02 0. -1.
</event>
<event>
 5   0  0.6412712E-04  0.1101152E+04  0.7818609E-02  0.9204070E-01
       -2   -1    0    0    0  501  0.00000000000E+00  0.00000000000E+00  0.98180645631E+03  0.98180645631E+03  0.25500000920E-02 0.  1.
        2   -1    0    0  501    0  0.00000000000E+00  0.00000000000E+00 -0.30875117447E+03  0.30875117448E+03  0.25500000920E-02 0. -1.
    10030    2    1    2    0    0  0.00000000000E+00  0.00000000000E+00  0.67305528183E+03  0.12905576308E+04  0.11011519359E+04 0.  0.
        2    1    3    3  502    0 -0.31603855370E+03 -0.11249239398E+03 -0.17514294806E+03  0.37843091627E+03  0.25500000920E-02 0. -1.
       -2    1    3    3    0  502  0.31603855370E+03  0.11249239398E+03  0.84819822990E+03  0.91212671452E+03  0.25500000920E-02 0.  1.
</event>
<event>
 5   0  0.3657529E-04  0.1098566E+04  0.7818609E-02  0.9206590E-01
        1   -1    0    0  501    0  0.00000000000E+00  0.00000000000E+00  0.65689793581E+03  0.65689793583E+03  0.50400001928E-02 0.  1.
       -1   -1    0    0    0  501  0.00000000000E+00  0.00000000000E+00 -0.45929815247E+03  0.45929815250E+03  0.50400001928E-02 0. -1.
    10030    2    1    2    0    0  0.00000000000E+00  0.00000000000E+00  0.19759978334E+03  0.11161960883E+04  0.10985663536E+04 0.  0.
        4    1    3    3  502    0 -0.54606891507E+02 -0.21236182059E+03  0.61049977542E+03  0.64868408654E+03  0.12699999809E+01 0.  1.
       -4    1    3    3    0  502  0.54606891507E+02  0.21236182059E+03 -0.41289999208E+03  0.46751200178E+03  0.12699999809E+01 0. -1.
</event>
<event>
 5   0  0.2403875E-04  0.1105904E+04  0.7818609E-02  0.9199456E-01
       -3   -1    0    0    0  501  0.00000000000E+00  0.00000000000E+00  0.83338731869E+03  0.83338732481E+03  0.10100000352E+00 0.  1.
        3   -1    0    0  501    0  0.00000000000E+00  0.00000000000E+00 -0.36688356963E+03  0.36688358354E+03  0.10100000352E+00 0. -1.
    10030    2    1    2    0    0  0.00000000000E+00  0.00000000000E+00  0.46650374906E+03  0.12002709083E+04  0.11059043835E+04 0.  0.
        4    1    3    3  502    0 -0.12713914761E+03  0.48405716673E+02  0.81493903723E+03  0.82621711648E+03  0.12699999809E+01 0.  1.
       -4    1    3    3    0  502  0.12713914761E+03 -0.48405716673E+02 -0.34843528817E+03  0.37405379186E+03  0.12699999809E+01 0. -1.
</event>
<event>
 5   0  0.6109149E-04  0.1099896E+04  0.7818609E-02  0.9205293E-01
       -2   -1    0    0    0  501  0.00000000000E+00  0.00000000000E+00  0.47785705066E+03  0.47785705067E+03  0.25500000920E-02 0.  1.
        2   -1    0    0  501    0  0.00000000000E+00  0.00000000000E+00 -0.63291502875E+03  0.63291502876E+03  0.25500000920E-02 0. -1.
    10030    2    1    2    0    0  0.00000000000E+00  0.00000000000E+00 -0.15505797809E+03  0.11107720794E+04  0.10998961932E+04 0.  0.
        1    1    3    3  502    0 -0.40650612121E+03  0.18618970530E+03 -0.40089679317E+03  0.60052649545E+03  0.50400001928E-02 0. -1.
       -1    1    3    3    0  502  0.40650612121E+03 -0.18618970530E+03  0.24583881508E+03  0.51024558398E+03  0.50400001928E-02 0.  1.
</event>
<event>
 5   0  0.3657529E-04  0.1100062E+04  0.7818609E-02  0.9205132E-01
        1   -1    0    0  501    0  0.00000000000E+00  0.00000000000E+00  0.12695347514E+04  0.12695347514E+04  0.50400001928E-02 0. -1.
       -1   -1    0    0    0  501  0.00000000000E+00  0.00000000000E+00 -0.23830296794E+03  0.23830296799E+03  0.50400001928E-02 0.  1.
    10030    2    1    2    0    0  0.00000000000E+00  0.00000000000E+00  0.10312317835E+04  0.15078377194E+04  0.11000616332E+04 0.  0.
        4    1    3    3  502    0  0.52153220058E+03 -0.14367416459E+03  0.37927454246E+03  0.66067306080E+03  0.12699999809E+01 0.  1.
       -4    1    3    3    0  502 -0.52153220058E+03  0.14367416459E+03  0.65195724102E+03  0.84716465863E+03  0.12699999809E+01 0. -1.
</event>
<event>
 5   0  0.3423758E-04  0.1100313E+04  0.7818609E-02  0.9204887E-01
       -1   -1    0    0    0  501  0.00000000000E+00  0.00000000000E+00  0.71044103504E+03  0.71044103506E+03  0.50400001928E-02 0.  1.
        1   -1    0    0  501    0  0.00000000000E+00  0.00000000000E+00 -0.42603416726E+03  0.42603416729E+03  0.50400001928E-02 0. -1.
    10030    2    1    2    0    0  0.00000000000E+00  0.00000000000E+00  0.28440686779E+03  0.11364752024E+04  0.11003129642E+04 0.  0.
        1    1    3    3  502    0  0.36878980119E+03 -0.23909430954E+03  0.48398693007E+03  0.65377010853E+03  0.50400001928E-02 0.  1.
       -1    1    3    3    0  502 -0.36878980119E+03  0.23909430954E+03 -0.19958006228E+03  0.48270509382E+03  0.50400001928E-02 0. -1.
</event>
<event>
 5   0  0.3642161E-04  0.1098630E+04  0.7818609E-02  0.9206529E-01
        1   -1    0    0  501    0  0.00000000000E+00  0.00000000000E+00  0.49367311582E+03  0.49367311585E+03  0.50400001928E-02 0. -1.
       -1   -1    0    0    0  501  0.00000000000E+00  0.00000000000E+00 -0.61122780512E+03  0.61122780514E+03  0.50400001928E-02 0.  1.
    10030    2    1    2    0    0  0.00000000000E+00  0.00000000000E+00 -0.11755468930E+03  0.11049009210E+04  0.10986295737E+04 0.  0.
        2    1    3    3  502    0 -0.44078592817E+03  0.31822443891E+03 -0.13788835341E+03  0.56086738719E+03  0.25500000920E-02 0.  1.
       -2    1    3    3    0  502  0.44078592817E+03 -0.31822443891E+03  0.20333664110E+02  0.54403353380E+03  0.25500000920E-02 0. -1.
</event>
<event>
 5   0  0.6109149E-04  0.1099849E+04  0.7818609E-02  0.9205339E-01
       -2   -1    0    0    0  501  0.00000000000E+00  0.00000000000E+00  0.40023145896E+03  0.40023145896E+03  0.25500000920E-02 0.  1.
        2   -1    0    0  501    0  0.00000000000E+00  0.00000000000E+00 -0.75560461301E+03  0.75560461301E+03  0.25500000920E-02 0. -1.
    10030    2    1    2    0    0  0.00000000000E+00  0.00000000000E+00 -0.35537315405E+03  0.11558360720E+04  0.10998486017E+04 0.  0.
        1    1    3    3  502    0  0.24826584745E+03  0.24189335614E+03 -0.62634832028E+03  0.71586349613E+03  0.50400001928E-02 0. -1.
       -1    1    3    3    0  502 -0.24826584745E+03 -0.24189335614E+03  0.27097516623E+03  0.43997257584E+03  0.50400001928E-02 0.  1.
</event>
<event>
 5   0  0.6245176E-04  0.1101100E+04  0.7818609E-02  0.9204120E-01
       -2   -1    0    0    0  501  0.00000000000E+00  0.00000000000E+00  0.88537890940E+03  0.88537890941E+03  0.25500000920E-02 0.  1.
        2   -1    0    0  501    0  0.00000000000E+00  0.00000000000E+00 -0.34234537904E+03  0.34234537905E+03  0.25500000920E-02 0. -1.
    10030    2    1    2    0    0  0.00000000000E+00  0.00000000000E+00  0.54303353037E+03  0.12277242885E+04  0.11011001378E+04 0.  0.
        5    1    3    3  502    0  0.29699665021E+03 -0.46288233183E+03  0.29919533738E+03  0.62610462645E+03  0.46999998093E+01 0.  1.
       -5    1    3    3    0  502 -0.29699665021E+03  0.46288233183E+03  0.24383819298E+03  0.60161966200E+03  0.46999998093E+01 0. -1.
</event>
<event>
 5   0  0.3621403E-04  0.1081743E+04  0.7818609E-02  0.9223171E-01
       -1   -1    0    0    0  501  0.00000000000E+00  0.00000000000E+00  0.32501067254E+03  0.32501067258E+03  0.50400001928E-02 0.  1.
        1   -1    0    0  501    0  0.00000000000E+00  0.00000000000E+00 -0.90010015416E+03  0.90010015417E+03  0.50400001928E-02 0. -1.
    10030    2    1    2    0    0  0.00000000000E+00  0.00000000000E+00 -0.57508948161E+03  0.12251108267E+04  0.10817433272E+04 0.  0.
        3    1    3    3  502    0 -0.16357749322E+03  0.43063892506E+03  0.33453498139E+02  0.46187295526E+03  0.10100000352E+00 0.  1.
       -3    1    3    3    0  502  0.16357749322E+03 -0.43063892506E+03 -0.60854297975E+03  0.76323787149E+03  0.10100000352E+00 0. -1.
</event>
<event>
 5   0  0.6264830E-04  0.1100072E+04  0.7818609E-02  0.9205122E-01
        2   -1    0    0  501    0  0.00000000000E+00  0.00000000000E+00  0.50061616264E+03  0.50061616264E+03  0.25500000920E-02 0. -1.
       -2   -1    0    0    0  501  0.00000000000E+00  0.00000000000E+00 -0.60433402463E+03  0.60433402463E+03  0.25500000920E-02 0.  1.
    10030    2    1    2    0    0  0.00000000000E+00  0.00000000000E+00 -0.10371786199E+03  0.11049501873E+04  0.11000715983E+04 0.  0.
        4    1    3    3  502    0 -0.22885875560E+03  0.29544019143E+03  0.35351050696E+03  0.51442446303E+03  0.12699999809E+01 0. -1.
       -4    1    3    3    0  502  0.22885875560E+03 -0.29544019143E+03 -0.45722836895E+03  0.59052572425E+03  0.12699999809E+01 0.  1.
</event>
<event>
 5   0  0.3657529E-04  0.1100647E+04  0.7818609E-02  0.9204562E-01
        1   -1    0    0  501    0  0.00000000000E+00  0.00000000000E+00  0.56315570999E+03  0.56315571001E+03  0.50400001928E-02 0.  1.
       -1   -1    0    0    0  501  0.00000000000E+00  0.00000000000E+00 -0.53778327539E+03  0.53778327541E+03  0.50400001928E-02 0. -1.
    10030    2    1    2    0    0  0.00000000000E+00  0.00000000000E+00  0.25372434601E+02  0.11009389854E+04  0.11006465778E+04 0.  0.
        4    1    3    3  502    0  0.41143866150E+03  0.31680479320E+03 -0.16959023960E+03  0.54626871725E+03  0.12699999809E+01 0. -1.
       -4    1    3    3    0  502 -0.41143866150E+03 -0.31680479320E+03  0.19496267420E+03  0.55467026818E+03  0.12699999809E+01 0.  1.
</event>
<event>
 5   0  0.3523525E-04  0.1101963E+04  0.7818609E-02  0.9203281E-01
        1   -1    0    0  501    0  0.00000000000E+00  0.00000000000E+00  0.17089392676E+04  0.17089392676E+04  0.50400001928E-02 0.  1.
       -1   -1    0    0    0  501  0.00000000000E+00  0.00000000000E+00 -0.17764273646E+03  0.17764273653E+03  0.50400001928E-02 0. -1.
    10030    2    1    2    0    0  0.00000000000E+00  0.00000000000E+00  0.15312965311E+04  0.18865820041E+04  0.11019630629E+04 0.  0.
        5    1    3    3  502    0  0.34354908153E+03 -0.21657811327E+03  0.12821930533E+03  0.42590413337E+03  0.46999998093E+01 0. -1.
       -5    1    3    3    0  502 -0.34354908153E+03  0.21657811327E+03  0.14030772258E+04  0.14606778707E+04  0.46999998093E+01 0.  1.
</event>
<event>
 5   0  0.3642161E-04  0.1099981E+04  0.7818609E-02  0.9205211E-01
       -1   -1    0    0    0  501  0.00000000000E+00  0.00000000000E+00  0.47812410304E+03  0.47812410307E+03  0.50400001928E-02 0.  1.
        1   -1    0    0  501    0  0.00000000000E+00  0.00000000000E+00 -0.63265850706E+03  0.63265850708E+03  0.50400001928E-02 0. -1.
    10030    2    1    2    0    0  0.00000000000E+00  0.00000000000E+00 -0.15453440401E+03  0.11107826101E+04  0.10999805112E+04 0.  0.
        2    1    3    3  502    0  0.17962283357E+03  0.37212916416E+03 -0.44379830128E+03  0.60638387955E+03  0.25500000920E-02 0. -1.
       -2    1    3    3    0  502 -0.17962283357E+03 -0.37212916416E+03  0.28926389727E+03  0.50439873059E+03  0.25500000920E-02 0.  1.
</event>
<event>
 5   0  0.3642161E-04  0.1100496E+04  0.7818609E-02  0.9204709E-01
        1   -1    0    0  501    0  0.00000000000E+00  0.00000000000E+00  0.19071367842E+04  0.19071367842E+04  0.50400001928E-02 0. -1.
       -1   -1    0    0    0  501  0.00000000000E+00  0.00000000000E+00 -0.15875770078E+03  0.15875770086E+03  0.50400001928E-02 0.  1.
    10030    2    1    2    0    0  0.00000000000E+00  0.00000000000E+00  0.17483790834E+04  0.20658944851E+04  0.11004956175E+04 0.  0.
        2    1    3    3  502    0 -0.38125761658E+03  0.76979595613E+02  0.14353687425E+03  0.41459144060E+03  0.25500000920E-02 0.  1.
       -2    1    3    3    0  502  0.38125761658E+03 -0.76979595613E+02  0.16048422092E+04  0.16513030445E+04  0.25500000920E-02 0. -1.
</event>
<event>
 5   0  0.3523525E-04  0.1096803E+04  0.7818609E-02  0.9208313E-01
       -1   -1    0    0    0  501  0.00000000000E+00  0.00000000000E+00  0.18226344054E+03  0.18226344061E+03  0.50400001928E-02 0.  1.
        1   -1    0    0  501    0  0.00000000000E+00  0.00000000000E+00 -0.16500524407E+04  0.16500524407E+04  0.50400001928E-02 0. -1.
    10030    2    1    2    0    0  0.00000000000E+00  0.00000000000E+00 -0.14677890001E+04  0.18323158813E+04  0.10968030543E+04 0.  0.
        5    1    3    3  502    0  0.23207183735E+03 -0.44183846942E+03 -0.35424761530E+03  0.61203924196E+03  0.46999998093E+01 0.  1.
       -5    1    3    3    0  502 -0.23207183735E+03  0.44183846942E+03 -0.11135413849E+04  0.12202766393E+04  0.46999998093E+01 0. -1.
</event>
<event>
 5   0  0.3523525E-04  0.1103590E+04  0.7818609E-02  0.9201700E-01
       -1   -1    0    0    0  501  0.00000000000E+00  0.00000000000E+00  0.73418860377E+03  0.73418860379E+03  0.50400001928E-02 0.  1.
        1   -1    0    0  501    0  0.00000000000E+00  0.00000000000E+00 -0.41471324971E+03  0.41471324974E+03  0.50400001928E-02 0. -1.
    10030    2    1    2    0    0  0.00000000000E+00  0.00000000000E+00  0.31947535406E+03  0.11489018535E+04  0.11035900358E+04 0.  0.
        5    1    3    3  502    0  0.45421718622E+03 -0.13974525377E+03  0.45163101127E+03  0.65561776101E+03  0.46999998093E+01 0. -1.
       -5    1    3    3    0  502 -0.45421718622E+03  0.13974525377E+03 -0.13215565721E+03  0.49328409253E+03  0.46999998093E+01 0.  1.
</event>
<event>
 5   0  0.3642161E-04  0.1100150E+04  0.7818609E-02  0.9205046E-01
       -1   -1    0    0    0  501  0.00000000000E+00  0.00000000000E+00  0.18547819620E+03  0.18547819627E+03  0.50400001928E-02 0.  1.
        1   -1    0    0  501    0  0.00000000000E+00  0.00000000000E+00 -0.16313643888E+04  0.16313643888E+04  0.50400001928E-02 0. -1.
    10030    2    1    2    0    0  0.00000000000E+00  0.00000000000E+00 -0.14458861926E+04  0.18168425851E+04  0.11001500339E+04 0.  0.
        2    1    3    3  502    0 -0.28882787757E+02  0.52652334089E+03 -0.46433701913E+03  0.70261647523E+03  0.25500000920E-02 0.  1.
       -2    1    3    3    0  502  0.28882787757E+02 -0.52652334089E+03 -0.98154917351E+03  0.11142261099E+04  0.25500000920E-02 0. -1.
</event>
<event>
 5   0  0.3642161E-04  0.1100942E+04  0.7818609E-02  0.9204274E-01
        1   -1    0    0  501    0  0.00000000000E+00  0.00000000000E+00  0.25737686716E+03  0.25737686721E+03  0.50400001928E-02 0. -1.
       -1   -1    0    0    0  501  0.00000000000E+00  0.00000000000E+00 -0.11773328695E+04  0.11773328695E+04  0.50400001928E-02 0.  1.
    10030    2    1    2    0    0  0.00000000000E+00  0.00000000000E+00 -0.91995600229E+03  0.14347097367E+04  0.11009418615E+04 0.  0.
        2    1    3    3  502    0  0.11431585104E+03  0.61967862924E+02 -0.11570317493E+04  0.11643155066E+04  0.25500000920E-02 0.  1.
       -2    1    3    3    0  502 -0.11431585104E+03 -0.61967862924E+02  0.23707574704E+03  0.27039423011E+03  0.25500000920E-02 0. -1.
</event>
<event>
 5   0  0.2403875E-04  0.1099951E+04  0.7818609E-02  0.9205240E-01
        4   -1    0    0  501    0  0.00000000000E+00  0.00000000000E+00  0.64359464517E+03  0.64359589821E+03  0.12699999809E+01 0. -1.
       -4   -1    0    0    0  501  0.00000000000E+00  0.00000000000E+00 -0.46997179597E+03  0.46997351192E+03  0.12699999809E+01 0.  1.
    10030    2    1    2    0    0  0.00000000000E+00  0.00000000000E+00  0.17362284920E+03  0.11135694101E+04  0.10999508795E+04 0.  0.
        4    1    3    3  502    0  0.15424694277E+03  0.50976316875E+03  0.22569875304E+03  0.57843940702E+03  0.12699999809E+01 0. -1.
       -4    1    3    3    0  502 -0.15424694277E+03 -0.50976316875E+03 -0.52075903839E+02  0.53513000311E+03  0.12699999809E+01 0.  1.
</event>
<event>
 5   0  0.6109149E-04  0.1095015E+04  0.7818609E-02  0.9210064E-01
       -2   -1    0    0    0  501  0.00000000000E+00  0.00000000000E+00  0.34952518755E+03  0.34952518756E+03  0.25500000920E-02 0.  1.
        2   -1    0    0  501    0  0.00000000000E+00  0.00000000000E+00 -0.85763383494E+03  0.85763383494E+03  0.25500000920E-02 0. -1.
    10030    2    1    2    0    0  0.00000000000E+00  0.00000000000E+00 -0.50810864739E+03  0.12071590225E+04  0.10950153004E+04 0.  0.
        1    1    3    3  502    0 -0.42907468917E+03  0.72409896190E+02 -0.62037461915E+03  0.75776840134E+03  0.50400001928E-02 0. -1.
       -1    1    3    3    0  502  0.42907468917E+03 -0.72409896190E+02  0.11226597176E+03  0.44939062117E+03  0.50400001928E-02 0.  1.
</event>
<event>
 5   0  0.3523525E-04  0.1100478E+04  0.7818609E-02  0.9204726E-01
       -1   -1    0    0    0  501  0.00000000000E+00  0.00000000000E+00  0.74929019079E+03  0.74929019080E+03  0.50400001928E-02 0. -1.
        1   -1    0    0  501    0  0.00000000000E+00  0.00000000000E+00 -0.40406611870E+03  0.40406611873E+03  0.50400001928E-02 0.  1.
    10030    2    1    2    0    0  0.00000000000E+00  0.00000000000E+00  0.34522407208E+03  0.11533563095E+04  0.11004776767E+04 0.  0.
        5    1    3    3  502    0  0.12630547014E+01  0.49277442858E+03 -0.83919535478E+02  0.49989279971E+03  0.46999998093E+01 0.  1.
       -5    1    3    3    0  502 -0.12630547014E+01 -0.49277442858E+03  0.42914360756E+03  0.65346350983E+03  0.46999998093E+01 0. -1.
</event>
<event>
 5   0  0.3642161E-04  0.1100191E+04  0.7818609E-02  0.9205006E-01
        1   -1    0    0  501    0  0.00000000000E+00  0.00000000000E+00  0.17339676337E+04  0.17339676337E+04  0.50400001928E-02 0. -1.
       -1   -1    0    0    0  501  0.00000000000E+00  0.00000000000E+00 -0.17451604978E+03  0.17451604985E+03  0.50400001928E-02 0.  1.
    10030    2    1    2    0    0  0.00000000000E+00  0.00000000000E+00  0.15594515839E+04  0.19084836836E+04  0.11001912233E+04 0.  0.
        2    1    3    3  502    0 -0.34207147663E+03 -0.20398245370E+03  0.12149748351E+03  0.41639329371E+03  0.25500000920E-02 0.  1.
       -2    1    3    3    0  502  0.34207147663E+03  0.20398245370E+03  0.14379541004E+04  0.14920903899E+04  0.25500000920E-02 0. -1.
</event>
<event>
 5   0  0.3423758E-04  0.1098562E+04  0.7818609E-02  0.9206594E-01
        1   -1    0    0  501    0  0.00000000000E+00  0.00000000000E+00  0.12420404316E+04  0.12420404316E+04  0.50400001928E-02 0. -1.
       -1   -1    0    0    0  501  0.00000000000E+00  0.00000000000E+00 -0.24291465210E+03  0.24291465216E+03  0.50400001928E-02 0.  1.
    10030    2    1    2    0    0  0.00000000000E+00  0.00000000000E+00  0.99912577949E+03  0.14849550838E+04  0.10985623685E+04 0.  0.
        1    1    3    3  502    0 -0.34073748180E+03 -0.28301990321E+03  0.60496380638E+02  0.44705940233E+03  0.50400001928E-02 0.  1.
       -1    1    3    3    0  502  0.34073748180E+03  0.28301990321E+03  0.93862939885E+03  0.10378956814E+04  0.50400001928E-02 0. -1.
</event>
<event>
 5   0  0.6245176E-04  0.1102570E+04  0.7818609E-02  0.9202691E-01
       -2   -1    0    0    0  501  0.00000000000E+00  0.00000000000E+00  0.12947508914E+03  0.12947508916E+03  0.25500000920E-02 0. -1.
        2   -1    0    0  501    0  0.00000000000E+00  0.00000000000E+00 -0.23472845488E+04  0.23472845488E+04  0.25500000920E-02 0.  1.
    10030    2    1    2    0    0  0.00000000000E+00  0.00000000000E+00 -0.22178094597E+04  0.24767596380E+04  0.11025695012E+04 0.  0.
        5    1    3    3  502    0  0.49149600628E+03 -0.64182737918E+02 -0.56695603354E+03  0.75309294380E+03  0.46999998093E+01 0. -1.
       -5    1    3    3    0  502 -0.49149600628E+03  0.64182737918E+02 -0.16508534262E+04  0.17236666942E+04  0.46999998093E+01 0.  1.
</event>
<event>
 5   0  0.6245176E-04  0.1102915E+04  0.7818609E-02  0.9202355E-01
        2   -1    0    0  501    0  0.00000000000E+00  0.00000000000E+00  0.14781348474E+04  0.14781348474E+04  0.25500000920E-02 0.  1.
       -2   -1    0    0    0  501  0.00000000000E+00  0.00000000000E+00 -0.20573589592E+03  0.20573589594E+03  0.25500000920E-02 0. -1.
    10030    2    1    2    0    0  0.00000000000E+00  0.00000000000E+00  0.12723989515E+04  0.16838707433E+04  0.11029150414E+04 0.  0.
        5    1    3    3  502    0  0.23360648248E+03  0.30952044277E+03  0.12347702557E+04  0.12942389917E+04  0.46999998093E+01 0.  1.
       -5    1    3    3    0  502 -0.23360648248E+03 -0.30952044277E+03  0.37628695733E+02  0.38963175165E+03  0.46999998093E+01 0. -1.
</event>
<event>
 5   0  0.6264830E-04  0.1100375E+04  0.7818609E-02  0.9204826E-01
        2   -1    0    0  501    0  0.00000000000E+00  0.00000000000E+00  0.47490087232E+03  0.47490087233E+03  0.25500000920E-02 0. -1.
       -2   -1    0    0    0  501  0.00000000000E+00  0.00000000000E+00 -0.63740961918E+03  0.63740961918E+03  0.25500000920E-02 0.  1.
    10030    2    1    2    0    0  0.00000000000E+00  0.00000000000E+00 -0.16250874686E+03  0.11123104915E+04  0.11003751800E+04 0.  0.
        4    1    3    3  502    0  0.53503792335E+03  0.57660775437E+02  0.34505996191E+02  0.53924263660E+03  0.12699999809E+01 0. -1.
       -4    1    3    3    0  502 -0.53503792335E+03 -0.57660775437E+02 -0.19701474305E+03  0.57306785491E+03  0.12699999809E+01 0.  1.
</event>
<event>
 5   0  0.3523525E-04  0.1100332E+04  0.7818609E-02  0.9204868E-01
       -1   -1    0    0    0  501  0.00000000000E+00  0.00000000000E+00  0.46857688064E+03  0.46857688067E+03  0.50400001928E-02 0. -1.
        1   -1    0    0  501    0  0.00000000000E+00  0.00000000000E+00 -0.64596138937E+03  0.64596138938E+03  0.50400001928E-02 0.  1.
    10030    2    1    2    0    0  0.00000000000E+00  0.00000000000E+00 -0.17738450872E+03  0.11145382701E+04  0.11003319006E+04 0.  0.
        5    1    3    3  502    0  0.21426147283E+03 -0.25615459370E+03  0.35414488528E+03  0.48678932238E+03  0.46999998093E+01 0. -1.
       -5    1    3    3    0  502 -0.21426147283E+03  0.25615459370E+03 -0.53152939401E+03  0.62774894767E+03  0.46999998093E+01 0.  1.
</event>
<event>
 5   0  0.6412712E-04  0.1093510E+04  0.7818609E-02  0.9211541E-01
        2   -1    0    0  501    0  0.00000000000E+00  0.00000000000E+00  0.48320201251E+03  0.48320201251E+03  0.25500000920E-02 0.  1.
       -2   -1    0    0    0  501  0.00000000000E+00  0.00000000000E+00 -0.61866640222E+03  0.61866640223E+03  0.25500000920E-02 0. -1.
    10030    2    1    2    0    0  0.00000000000E+00  0.00000000000E+00 -0.13546438971E+03  0.11018684147E+04  0.10935096719E+04 0.  0.
        2    1    3    3  502    0 -0.29174866404E+03 -0.34845751059E+03  0.23856659355E+03  0.51327764340E+03  0.25500000920E-02 0.  1.
       -2    1    3    3    0  502  0.29174866404E+03  0.34845751059E+03 -0.37403098326E+03  0.58859077134E+03  0.25500000920E-02 0. -1.
</event>
<event>
 5   0  0.3642161E-04  0.1100425E+04  0.7818609E-02  0.9204778E-01
       -1   -1    0    0    0  501  0.00000000000E+00  0.00000000000E+00  0.28288221904E+03  0.28288221908E+03  0.50400001928E-02 0. -1.
        1   -1    0    0  501    0  0.00000000000E+00  0.00000000000E+00 -0.10701756118E+04  0.10701756119E+04  0.50400001928E-02 0.  1.
    10030    2    1    2    0    0  0.00000000000E+00  0.00000000000E+00 -0.78729339280E+03  0.13530578309E+04  0.11004247396E+04 0.  0.
        2    1    3    3  502    0 -0.38811990823E+03 -0.62009112313E+02 -0.86707639839E+03  0.95199982869E+03  0.25500000920E-02 0. -1.
       -2    1    3    3    0  502  0.38811990823E+03  0.62009112313E+02  0.79783005586E+02  0.40105800225E+03  0.25500000920E-02 0.  1.
</event>
<event>
 5   0  0.6412712E-04  0.1099469E+04  0.7818609E-02  0.9205710E-01
        2   -1    0    0  501    0  0.00000000000E+00  0.00000000000E+00  0.97344190553E+03  0.97344190554E+03  0.25500000920E-02 0. -1.
       -2   -1    0    0    0  501  0.00000000000E+00  0.00000000000E+00 -0.31045300902E+03  0.31045300903E+03  0.25500000920E-02 0.  1.
    10030    2    1    2    0    0  0.00000000000E+00  0.00000000000E+00  0.66298889652E+03  0.12838949146E+04  0.10994689058E+04 0.  0.
        2    1    3    3  502    0  0.15169445499E+03  0.43560731537E+03 -0.17742169297E+02  0.46160559513E+03  0.25500000920E-02 0.  1.
       -2    1    3    3    0  502 -0.15169445499E+03 -0.43560731537E+03  0.68073106581E+03  0.82228931943E+03  0.25500000920E-02 0. -1.
</event>
<event>
 5   0  0.3523525E-04  0.1101262E+04  0.7818609E-02  0.9203962E-01
        1   -1    0    0  501    0  0.00000000000E+00  0.00000000000E+00  0.99019030368E+03  0.99019030369E+03  0.50400001928E-02 0. -1.
       -1   -1    0    0    0  501  0.00000000000E+00  0.00000000000E+00 -0.30619843425E+03  0.30619843429E+03  0.50400001928E-02 0.  1.
    10030    2    1    2    0    0  0.00000000000E+00  0.00000000000E+00  0.68399186943E+03  0.12963887380E+04  0.11012624040E+04 0.  0.
        5    1    3    3  502    0  0.11993740488E+03  0.29815416898E+03  0.86830622561E+03  0.92588264969E+03  0.46999998093E+01 0. -1.
       -5    1    3    3    0  502 -0.11993740488E+03 -0.29815416898E+03 -0.18431435618E+03  0.37050608829E+03  0.46999998093E+01 0.  1.
</event>
<event>
 5   0  0.6264830E-04  0.1100997E+04  0.7818609E-02  0.9204221E-01
       -2   -1    0    0    0  501  0.00000000000E+00  0.00000000000E+00  0.10595999765E+03  0.10595999768E+03  0.25500000920E-02 0. -1.
        2   -1    0    0  501    0  0.00000000000E+00  0.00000000000E+00 -0.28600284236E+04  0.28600284236E+04  0.25500000920E-02 0.  1.
    10030    2    1    2    0    0  0.00000000000E+00  0.00000000000E+00 -0.27540684259E+04  0.29659884213E+04  0.11009970120E+04 0.  0.
        4    1    3    3  502    0  0.26177224048E+03  0.32194477626E+02 -0.26787421390E+04  0.26916950515E+04  0.12699999809E+01 0.  1.
       -4    1    3    3    0  502 -0.26177224048E+03 -0.32194477626E+02 -0.75326286928E+02  0.27429336973E+03  0.12699999809E+01 0. -1.
</event>
<event>
 5   0  0.3423758E-04  0.1101793E+04  0.7818609E-02  0.9203446E-01
       -1   -1    0    0    0  501  0.00000000000E+00  0.00000000000E+00  0.10791638154E+04  0.10791638154E+04  0.50400001928E-02 0.  1.
        1   -1    0    0  501    0  0.00000000000E+00  0.00000000000E+00 -0.28122410498E+03  0.28122410503E+03  0.50400001928E-02 0. -1.
    10030    2    1    2    0    0  0.00000000000E+00  0.00000000000E+00  0.79793971041E+03  0.13603879204E+04  0.11017928628E+04 0.  0.
        1    1    3    3  502    0  0.32170164318E+03 -0.17085653665E+01  0.95113518835E+03  0.10040682312E+04  0.50400001928E-02 0.  1.
       -1    1    3    3    0  502 -0.32170164318E+03  0.17085653665E+01 -0.15319547795E+03  0.35631968919E+03  0.50400001928E-02 0. -1.
</event>
<event>
 5   0  0.3523525E-04  0.1097794E+04  0.7818609E-02  0.9207345E-01
       -1   -1    0    0    0  501  0.00000000000E+00  0.00000000000E+00  0.18737104693E+03  0.18737104700E+03  0.50400001928E-02 0.  1.
        1   -1    0    0  501    0  0.00000000000E+00  0.00000000000E+00 -0.16079734366E+04  0.16079734366E+04  0.50400001928E-02 0. -1.
    10030    2    1    2    0    0  0.00000000000E+00  0.00000000000E+00 -0.14206023897E+04  0.17953444836E+04  0.10977935440E+04 0.  0.
        5    1    3    3  502    0  0.15036374039E+02 -0.54793456040E+03 -0.66383703982E+03  0.86090654572E+03  0.46999998093E+01 0. -1.
       -5    1    3    3    0  502 -0.15036374039E+02  0.54793456040E+03 -0.75676534985E+03  0.93443793788E+03  0.46999998093E+01 0.  1.
</event>
<event>
 5   0  0.3657529E-04  0.1099770E+04  0.7818609E-02  0.9205416E-01
       -1   -1    0    0    0  501  0.00000000000E+00  0.00000000000E+00  0.11924496785E+04  0.11924496786E+04  0.50400001928E-02 0. -1.
        1   -1    0    0  501    0  0.00000000000E+00  0.00000000000E+00 -0.25357338436E+03  0.25357338441E+03  0.50400001928E-02 0.  1.
    10030    2    1    2    0    0  0.00000000000E+00  0.00000000000E+00  0.93887629418E+03  0.14460230630E+04  0.10997699772E+04 0.  0.
        4    1    3    3  502    0  0.19719565544E+03 -0.19878227702E+02 -0.20497501888E+03  0.28512741315E+03  0.12699999809E+01 0.  1.
       -4    1    3    3    0  502 -0.19719565544E+03  0.19878227702E+02  0.11438513131E+04  0.11608956498E+04  0.12699999809E+01 0. -1.
</event>
<event>
 5   0  0.6412712E-04  0.1098717E+04  0.7818609E-02  0.9206443E-01
        2   -1    0    0  501    0  0.00000000000E+00  0.00000000000E+00  0.42713866475E+03  0.42713866476E+03  0.25500000920E-02 0. -1.
       -2   -1    0    0    0  501  0.00000000000E+00  0.00000000000E+00 -0.70654984056E+03  0.70654984057E+03  0.25500000920E-02 0.  1.
    10030    2    1    2    0    0  0.00000000000E+00  0.00000000000E+00 -0.27941117581E+03  0.11336885053E+04  0.10987169890E+04 0.  0.
        2    1    3    3  502    0  0.18050061781E+02 -0.20320000574E+03 -0.66601820352E+03  0.69656033083E+03  0.25500000920E-02 0.  1.
       -2    1    3    3    0  502 -0.18050061781E+02  0.20320000574E+03  0.38660702771E+03  0.43712817450E+03  0.25500000920E-02 0. -1.
</event>
<event>
 5   0  0.5948818E-04  0.1099041E+04  0.7818609E-02  0.9206127E-01
        2   -1    0    0  501    0  0.00000000000E+00  0.00000000000E+00  0.14971683517E+04  0.14971683517E+04  0.25500000920E-02 0. -1.
       -2   -1    0    0    0  501  0.00000000000E+00  0.00000000000E+00 -0.20169593552E+03  0.20169593554E+03  0.25500000920E-02 0.  1.
    10030    2    1    2    0    0  0.00000000000E+00  0.00000000000E+00  0.12954724162E+04  0.16988642873E+04  0.10990409844E+04 0.  0.
        3    1    3    3  502    0 -0.12565134582E+02 -0.52573496925E+03  0.40129561474E+03  0.66150836813E+03  0.10100000352E+00 0.  1.
       -3    1    3    3    0  502  0.12565134582E+02  0.52573496925E+03  0.89417680148E+03  0.10373559192E+04  0.10100000352E+00 0. -1.
</event>
<event>
 5   0  0.3523525E-04  0.1101835E+04  0.7818609E-02  0.9203405E-01
       -1   -1    0    0    0  501  0.00000000000E+00  0.00000000000E+00  0.12035624748E+03  0.12035624758E+03  0.50400001928E-02 0. -1.
        1   -1    0    0  501    0  0.00000000000E+00  0.00000000000E+00 -0.25217653871E+04  0.25217653871E+04  0.50400001928E-02 0.  1.
    10030    2    1    2    0    0  0.00000000000E+00  0.00000000000E+00 -0.24014091396E+04  0.26421216347E+04  0.11018352312E+04 0.  0.
        5    1    3    3  502    0  0.14472376877E+03  0.44461198374E+03 -0.18992525198E+04  0.19559670266E+04  0.46999998093E+01 0.  1.
       -5    1    3    3    0  502 -0.14472376877E+03 -0.44461198374E+03 -0.50215661985E+03  0.68615460808E+03  0.46999998093E+01 0. -1.
</event>
<event>
 5   0  0.6245176E-04  0.1098664E+04  0.7818609E-02  0.9206495E-01
        2   -1    0    0  501    0  0.00000000000E+00  0.00000000000E+00  0.34678913453E+03  0.34678913454E+03  0.25500000920E-02 0.  1.
       -2   -1    0    0    0  501  0.00000000000E+00  0.00000000000E+00 -0.87017108358E+03  0.87017108359E+03  0.25500000920E-02 0. -1.
    10030    2    1    2    0    0  0.00000000000E+00  0.00000000000E+00 -0.52338194906E+03  0.12169602181E+04  0.10986644201E+04 0.  0.
        5    1    3    3  502    0  0.45679281357E+03  0.17429708721E+03  0.15680089967E+02  0.48919025375E+03  0.46999998093E+01 0.  1.
       -5    1    3    3    0  502 -0.45679281357E+03 -0.17429708721E+03 -0.53906203902E+03  0.72776996438E+03  0.46999998093E+01 0. -1.
</event>
<event>
 5   0  0.6245176E-04  0.1100429E+04  0.7818609E-02  0.9204773E-01
       -2   -1    0    0    0  501  0.00000000000E+00  0.00000000000E+00  0.32337994886E+03  0.32337994887E+03  0.25500000920E-02 0. -1.
        2   -1    0    0  501    0  0.00000000000E+00  0.00000000000E+00 -0.93616276001E+03  0.93616276002E+03  0.25500000920E-02 0.  1.
    10030    2    1    2    0    0  0.00000000000E+00  0.00000000000E+00 -0.61278281115E+03  0.12595427089E+04  0.11004294897E+04 0.  0.
        5    1    3    3  502    0  0.70601519654E+02 -0.46644003470E+03  0.17678317303E+02  0.47210750200E+03  0.46999998093E+01 0. -1.
       -5    1    3    3    0  502 -0.70601519654E+02  0.46644003470E+03 -0.63046112845E+03  0.78743520688E+03  0.46999998093E+01 0.  1.
</event>
<event>
 5   0  0.6245176E-04  0.1097077E+04  0.7818609E-02  0.9208045E-01
       -2   -1    0    0    0  501  0.00000000000E+00  0.00000000000E+00  0.11477970647E+03  0.11477970650E+03  0.25500000920E-02 0.  1.
        2   -1    0    0  501    0  0.00000000000E+00  0.00000000000E+00 -0.26214974806E+04  0.26214974806E+04  0.25500000920E-02 0. -1.
    10030    2    1    2    0    0  0.00000000000E+00  0.00000000000E+00 -0.25067177741E+04  0.27362771871E+04  0.10970774109E+04 0.  0.
        5    1    3    3  502    0 -0.12121978651E+03  0.43119332007E+03 -0.46365089092E+03  0.64468298765E+03  0.46999998093E+01 0.  1.
       -5    1    3    3    0  502  0.12121978651E+03 -0.43119332007E+03 -0.20430668832E+04  0.20915941995E+04  0.46999998093E+01 0. -1.
</event>
<event>
 5   0  0.3657529E-04  0.1098111E+04  0.7818609E-02  0.9207034E-01
        1   -1    0    0  501    0  0.00000000000E+00  0.00000000000E+00  0.10873882976E+04  0.10873882976E+04  0.50400001928E-02 0.  1.
       -1   -1    0    0    0  501  0.00000000000E+00  0.00000000000E+00 -0.27723511042E+03  0.27723511047E+03  0.50400001928E-02 0. -1.
    10030    2    1    2    0    0  0.00000000000E+00  0.00000000000E+00  0.81015318720E+03  0.13646234081E+04  0.10981114967E+04 0.  0.
        4    1    3    3  502    0  0.52744000469E+03  0.35852031353E+02  0.58932455808E+03  0.79169651657E+03  0.12699999809E+01 0.  1.
       -4    1    3    3    0  502 -0.52744000469E+03 -0.35852031353E+02  0.22082862913E+03  0.57292689153E+03  0.12699999809E+01 0. -1.
</event>
<event>
 5   0  0.6264830E-04  0.1102846E+04  0.7818609E-02  0.9202423E-01
       -2   -1    0    0    0  501  0.00000000000E+00  0.00000000000E+00  0.55004355063E+03  0.55004355063E+03  0.25500000920E-02 0.  1.
        2   -1    0    0  501    0  0.00000000000E+00  0.00000000000E+00 -0.55280577089E+03  0.55280577090E+03  0.25500000920E-02 0. -1.
    10030    2    1    2    0    0  0.00000000000E+00  0.00000000000E+00 -0.27622202692E+01  0.11028493215E+04  0.11028458624E+04 0.  0.
        4    1    3    3  502    0  0.29001779581E+03  0.15418669344E+03  0.44154440109E+03  0.55031529995E+03  0.12699999809E+01 0.  1.
       -4    1    3    3    0  502 -0.29001779581E+03 -0.15418669344E+03 -0.44430662136E+03  0.55253402158E+03  0.12699999809E+01 0. -1.
</event>
<event>
 5   0  0.3423758E-04  0.1094820E+04  0.7818609E-02  0.9210255E-01
        1   -1    0    0  501    0  0.00000000000E+00  0.00000000000E+00  0.11535189554E+04  0.11535189554E+04  0.50400001928E-02 0. -1.
       -1   -1    0    0    0  501  0.00000000000E+00  0.00000000000E+00 -0.25977724435E+03  0.25977724439E+03  0.50400001928E-02 0.  1.
    10030    2    1    2    0    0  0.00000000000E+00  0.00000000000E+00  0.89374171103E+03  0.14132961998E+04  0.10948204886E+04 0.  0.
        1    1    3    3  502    0 -0.50973569290E+03 -0.14181728907E+03  0.62812693440E+03  0.82127100633E+03  0.50400001928E-02 0. -1.
       -1    1    3    3    0  502  0.50973569290E+03  0.14181728907E+03  0.26561477663E+03  0.59202519345E+03  0.50400001928E-02 0.  1.
</event>
<event>
 5   0  0.2403875E-04  0.1100323E+04  0.7818609E-02  0.9204877E-01
        3   -1    0    0  501    0  0.00000000000E+00  0.00000000000E+00  0.33660601293E+03  0.33660602808E+03  0.10100000352E+00 0.  1.
       -3   -1    0    0    0  501  0.00000000000E+00  0.00000000000E+00 -0.89920494754E+03  0.89920495321E+03  0.10100000352E+00 0. -1.
    10030    2    1    2    0    0  0.00000000000E+00  0.00000000000E+00 -0.56259893461E+03  0.12358109813E+04  0.11003232344E+04 0.  0.
        3    1    3    3  502    0 -0.31437257267E+03 -0.60213553247E+02  0.22126024808E+03  0.38911681282E+03  0.10100000352E+00 0.  1.
       -3    1    3    3    0  502  0.31437257267E+03  0.60213553247E+02 -0.78385918269E+03  0.84669416847E+03  0.10100000352E+00 0. -1.
</event>
<event>
 5   0  0.3423758E-04  0.1100023E+04  0.7818609E-02  0.9205169E-01
       -1   -1    0    0    0  501  0.00000000000E+00  0.00000000000E+00  0.25699155788E+03  0.25699155793E+03  0.50400001928E-02 0. -1.
        1   -1    0    0  501    0  0.00000000000E+00  0.00000000000E+00 -0.11771315598E+04  0.11771315598E+04  0.50400001928E-02 0.  1.
    10030    2    1    2    0    0  0.00000000000E+00  0.00000000000E+00 -0.92014000189E+03  0.14341231177E+04  0.11000234060E+04 0.  0.
        1    1    3    3  502    0 -0.26245607522E+03  0.41824170442E+03 -0.14419393159E+03  0.51439401694E+03  0.50400001928E-02 0. -1.
       -1    1    3    3    0  502  0.26245607522E+03 -0.41824170442E+03 -0.77594607030E+03  0.91972910076E+03  0.50400001928E-02 0.  1.
</event>
<event>
 5   0  0.3642161E-04  0.1104378E+04  0.7818609E-02  0.9200935E-01
        1   -1    0    0  501    0  0.00000000000E+00  0.00000000000E+00  0.44082854719E+03  0.44082854722E+03  0.50400001928E-02 0.  1.
       -1   -1    0    0    0  501  0.00000000000E+00  0.00000000000E+00 -0.69168108688E+03  0.69168108689E+03  0.50400001928E-02 0. -1.
    10030    2    1    2    0    0  0.00000000000E+00  0.00000000000E+00 -0.25085253969E+03  0.11325096341E+04  0.11043781394E+04 0.  0.
        2    1    3    3  502    0 -0.40532018665E+03 -0.36549724159E+03 -0.21146875440E+03  0.58531335318E+03  0.25500000920E-02 0.  1.
       -2    1    3    3    0  502  0.40532018665E+03  0.36549724159E+03 -0.39383785283E+02  0.54719628093E+03  0.25500000920E-02 0. -1.
</event>
<event>
 5   0  0.6264830E-04  0.1099904E+04  0.7818609E-02  0.9205286E-01
       -2   -1    0    0    0  501  0.00000000000E+00  0.00000000000E+00  0.14518321128E+03  0.14518321130E+03  0.25500000920E-02 0. -1.
        2   -1    0    0  501    0  0.00000000000E+00  0.00000000000E+00 -0.20832099306E+04  0.20832099306E+04  0.25500000920E-02 0.  1.
    10030    2    1    2    0    0  0.00000000000E+00  0.00000000000E+00 -0.19380267193E+04  0.22283931419E+04  0.10999038276E+04 0.  0.
        4    1    3    3  502    0 -0.14914102570E+03  0.46099524856E+03 -0.14961048185E+04  0.15726064052E+04  0.12699999809E+01 0.  1.
       -4    1    3    3    0  502  0.14914102570E+03 -0.46099524856E+03 -0.44192190079E+03  0.65578673671E+03  0.12699999809E+01 0. -1.
</event>
<event>
 5   0  0.3657529E-04  0.1122105E+04  0.7818609E-02  0.9183910E-01
        1   -1    0    0  501    0  0.00000000000E+00  0.00000000000E+00  0.47648112903E+03  0.47648112906E+03  0.50400001928E-02 0. -1.
       -1   -1    0    0    0  501  0.00000000000E+00  0.00000000000E+00 -0.66063492014E+03  0.66063492016E+03  0.50400001928E-02 0.  1.
    10030    2    1    2    0    0  0.00000000000E+00  0.00000000000E+00 -0.18415379110E+03  0.11371160492E+04  0.11221052939E+04 0.  0.
        4    1    3    3  502    0  0.19953095182E+03 -0.35538727807E+03  0.29865298870E+03  0.50528005968E+03  0.12699999809E+01 0. -1.
       -4    1    3    3    0  502 -0.19953095182E+03  0.35538727807E+03 -0.48280677981E+03  0.63183598954E+03  0.12699999809E+01 0.  1.
</event>
<event>
 5   0  0.3423758E-04  0.1098707E+04  0.7818609E-02  0.9206453E-01
       -1   -1    0    0    0  501  0.00000000000E+00  0.00000000000E+00  0.22243343778E+03  0.22243343784E+03  0.50400001928E-02 0. -1.
        1   -1    0    0  501    0  0.00000000000E+00  0.00000000000E+00 -0.13567630783E+04  0.13567630783E+04  0.50400001928E-02 0.  1.
    10030    2    1    2    0    0  0.00000000000E+00  0.00000000000E+00 -0.11343296405E+04  0.15791965161E+04  0.10987073783E+04 0.  0.
        1    1    3    3  502    0 -0.39952605939E+03  0.32641849287E+03 -0.29589763550E+03  0.59474827896E+03  0.50400001928E-02 0. -1.
       -1    1    3    3    0  502  0.39952605939E+03 -0.32641849287E+03 -0.83843200500E+03  0.98444823716E+03  0.50400001928E-02 0.  1.
</event>
<event>
 5   0  0.6109149E-04  0.1097589E+04  0.7818609E-02  0.9207545E-01
       -2   -1    0    0    0  501  0.00000000000E+00  0.00000000000E+00  0.12257894008E+04  0.12257894008E+04  0.25500000920E-02 0. -1.
        2   -1    0    0  501    0  0.00000000000E+00  0.00000000000E+00 -0.24569913821E+03  0.24569913822E+03  0.25500000920E-02 0.  1.
    10030    2    1    2    0    0  0.00000000000E+00  0.00000000000E+00  0.98009026262E+03  0.14714885390E+04  0.10975889931E+04 0.  0.
        1    1    3    3  502    0  0.23077527805E+03  0.42161582503E+03  0.13494031260E+03  0.49922542089E+03  0.50400001928E-02 0.  1.
       -1    1    3    3    0  502 -0.23077527805E+03 -0.42161582503E+03  0.84514995002E+03  0.97226311815E+03  0.50400001928E-02 0. -1.
</event>
<event>
 5   0  0.6245176E-04  0.1098272E+04  0.7818609E-02  0.9206878E-01
       -2   -1    0    0    0  501  0.00000000000E+00  0.00000000000E+00  0.36481801784E+03  0.36481801785E+03  0.25500000920E-02 0.  1.
        2   -1    0    0  501    0  0.00000000000E+00  0.00000000000E+00 -0.82657704700E+03  0.82657704701E+03  0.25500000920E-02 0. -1.
    10030    2    1    2    0    0  0.00000000000E+00  0.00000000000E+00 -0.46175902917E+03  0.11913950649E+04  0.10982717330E+04 0.  0.
        5    1    3    3  502    0 -0.42536758398E+03  0.52921064030E+02 -0.60318548239E+03  0.73999529504E+03  0.46999998093E+01 0.  1.
       -5    1    3    3    0  502  0.42536758398E+03 -0.52921064030E+02  0.14142645322E+03  0.45139976982E+03  0.46999998093E+01 0. -1.
</event>
<event>
 5   0  0.3657529E-04  0.1098159E+04  0.7818609E-02  0.9206988E-01
        1   -1    0    0  501    0  0.00000000000E+00  0.00000000000E+00  0.11741555214E+04  0.11741555214E+04  0.50400001928E-02 0. -1.
       -1   -1    0    0    0  501  0.00000000000E+00  0.00000000000E+00 -0.25677019939E+03  0.25677019943E+03  0.50400001928E-02 0.  1.
    10030    2    1    2    0    0  0.00000000000E+00  0.00000000000E+00  0.91738532201E+03  0.14309257208E+04  0.10981587269E+04 0.  0.
        4    1    3    3  502    0 -0.31984514026E+03 -0.41323574157E+01 -0.12282424829E+03  0.34264471248E+03  0.12699999809E+01 0.  1.
       -4    1    3    3    0  502  0.31984514026E+03  0.41323574157E+01  0.10402095703E+04  0.10882810084E+04  0.12699999809E+01 0. -1.
</event>
<event>
 5   0  0.6264830E-04  0.1100896E+04  0.7818609E-02  0.9204319E-01
       -2   -1    0    0    0  501  0.00000000000E+00  0.00000000000E+00  0.15756302323E+03  0.15756302325E+03  0.25500000920E-02 0. -1.
        2   -1    0    0  501    0  0.00000000000E+00  0.00000000000E+00 -0.19229951684E+04  0.19229951684E+04  0.25500000920E-02 0.  1.
    10030    2    1    2    0    0  0.00000000000E+00  0.00000000000E+00 -0.17654321452E+04  0.20805581917E+04  0.11008958759E+04 0.  0.
        4    1    3    3  502    0  0.26407861077E+03 -0.32519363399E+03 -0.20788718374E+03  0.46766131582E+03  0.12699999809E+01 0. -1.
       -4    1    3    3    0  502 -0.26407861077E+03  0.32519363399E+03 -0.15575449615E+04  0.16128968759E+04  0.12699999809E+01 0.  1.
</event>
<event>
 5   0  0.6412712E-04  0.1091758E+04  0.7818609E-02  0.9213262E-01
       -2   -1    0    0    0  501  0.00000000000E+00  0.00000000000E+00  0.27656547955E+03  0.27656547956E+03  0.25500000920E-02 0.  1.
        2   -1    0    0  501    0  0.00000000000E+00  0.00000000000E+00 -0.10774452248E+04  0.10774452248E+04  0.25500000920E-02 0. -1.
    10030    2    1    2    0    0  0.00000000000E+00  0.00000000000E+00 -0.80087974522E+03  0.13540107043E+04  0.10917584995E+04 0.  0.
        2    1    3    3  502    0  0.22576362678E+03  0.36296463346E+03  0.20632458798E+02  0.42794653718E+03  0.25500000920E-02 0.  1.
       -2    1    3    3    0  502 -0.22576362678E+03 -0.36296463346E+03 -0.82151220402E+03  0.92606416715E+03  0.25500000920E-02 0. -1.
</event>
<event>
 5   0  0.3423758E-04  0.1098819E+04  0.7818609E-02  0.9206344E-01
        1   -1    0    0  501    0  0.00000000000E+00  0.00000000000E+00  0.79303250386E+03  0.79303250388E+03  0.50400001928E-02 0. -1.
       -1   -1    0    0    0  501  0.00000000000E+00  0.00000000000E+00 -0.38062863519E+03  0.38062863523E+03  0.50400001928E-02 0.  1.
    10030    2    1    2    0    0  0.00000000000E+00  0.00000000000E+00  0.41240386867E+03  0.11736611391E+04  0.10988191473E+04 0.  0.
        1    1    3    3  502    0 -0.86127584631E+02  0.72166781760E+02  0.78062824914E+03  0.78867386707E+03  0.50400001928E-02 0. -1.
       -1    1    3    3    0  502  0.86127584631E+02 -0.72166781760E+02 -0.36822438047E+03  0.38498727203E+03  0.50400001928E-02 0.  1.
</event>
<event>
 5   0  0.6412712E-04  0.1099981E+04  0.7818609E-02  0.9205210E-01
       -2   -1    0    0    0  501  0.00000000000E+00  0.00000000000E+00  0.24497589773E+03  0.24497589774E+03  0.25500000920E-02 0. -1.
        2   -1    0    0  501    0  0.00000000000E+00  0.00000000000E+00 -0.12347730300E+04  0.12347730300E+04  0.25500000920E-02 0.  1.
    10030    2    1    2    0    0  0.00000000000E+00  0.00000000000E+00 -0.98979713223E+03  0.14797489277E+04  0.10999811480E+04 0.  0.
        2    1    3    3  502    0 -0.37151877331E+03  0.24595362206E+03 -0.92866638889E+03  0.10300197304E+04  0.25500000920E-02 0.  1.
       -2    1    3    3    0  502  0.37151877331E+03 -0.24595362206E+03 -0.61130743338E+02  0.44972919731E+03  0.25500000920E-02 0. -1.
</event>
<event>
 5   0  0.3642161E-04  0.1100738E+04  0.7818609E-02  0.9204472E-01
       -1   -1    0    0    0  501  0.00000000000E+00  0.00000000000E+00  0.60739219330E+03  0.60739219332E+03  0.50400001928E-02 0. -1.
        1   -1    0    0  501    0  0.00000000000E+00  0.00000000000E+00 -0.49869968383E+03  0.49869968385E+03  0.50400001928E-02 0.  1.
    10030    2    1    2    0    0  0.00000000000E+00  0.00000000000E+00  0.10869250947E+03  0.11060918772E+04  0.11007384699E+04 0.  0.
        2    1    3    3  502    0 -0.36958638909E+03 -0.40476334407E+03  0.43162523588E+01  0.54812963225E+03  0.25500000920E-02 0.  1.
       -2    1    3    3    0  502  0.36958638909E+03  0.40476334407E+03  0.10437625711E+03  0.55796224493E+03  0.25500000920E-02 0. -1.
</event>
<event>
 5   0  0.3657529E-04  0.1102918E+04  0.7818609E-02  0.9202352E-01
        1   -1    0    0  501    0  0.00000000000E+00  0.00000000000E+00  0.23243067046E+03  0.23243067052E+03  0.50400001928E-02 0. -1.
       -1   -1    0    0    0  501  0.00000000000E+00  0.00000000000E+00 -0.13083774635E+04  0.13083774635E+04  0.50400001928E-02 0.  1.
    10030    2    1    2    0    0  0.00000000000E+00  0.00000000000E+00 -0.10759467931E+04  0.15408081340E+04  0.11029180407E+04 0.  0.
        4    1    3    3  502    0  0.13493129407E+02 -0.50295970338E+03 -0.85332739591E+03  0.99061586161E+03  0.12699999809E+01 0.  1.
       -4    1    3    3    0  502 -0.13493129407E+02  0.50295970338E+03 -0.22261939716E+03  0.55019227244E+03  0.12699999809E+01 0. -1.
</event>
<event>
 5   0  0.6109149E-04  0.1099324E+04  0.7818609E-02  0.9205851E-01
       -2   -1    0    0    0  501  0.00000000000E+00  0.00000000000E+00  0.26544393294E+03  0.26544393295E+03  0.25500000920E-02 0.  1.
        2   -1    0    0  501    0  0.00000000000E+00  0.00000000000E+00 -0.11382008599E+04  0.11382008599E+04  0.25500000920E-02 0. -1.
    10030    2    1    2    0    0  0.00000000000E+00  0.00000000000E+00 -0.87275692697E+03  0.14036447929E+04  0.10993243611E+04 0.  0.
        1    1    3    3  502    0 -0.14727283079E+03 -0.31529181876E+03  0.10688061978E+03  0.36403527930E+03  0.50400001928E-02 0.  1.
       -1    1    3    3    0  502  0.14727283079E+03  0.31529181876E+03 -0.97963754676E+03  0.10396095136E+04  0.50400001928E-02 0. -1.
</event>
<event>
 5   0  0.6412712E-04  0.1098925E+04  0.7818609E-02  0.9206240E-01
        2   -1    0    0  501    0  0.00000000000E+00  0.00000000000E+00  0.11360947120E+04  0.11360947120E+04  0.25500000920E-02 0. -1.
       -2   -1    0    0    0  501  0.00000000000E+00  0.00000000000E+00 -0.26574294539E+03  0.26574294540E+03  0.25500000920E-02 0.  1.
    10030    2    1    2    0    0  0.00000000000E+00  0.00000000000E+00  0.87035176665E+03  0.14018376574E+04  0.10989252113E+04 0.  0.
        2    1    3    3  502    0 -0.13080413293E+03 -0.35761958862E+03 -0.70126868240E+02  0.38719409734E+03  0.25500000920E-02 0.  1.
       -2    1    3    3    0  502  0.13080413293E+03  0.35761958862E+03  0.94047863489E+03  0.10146435601E+04  0.25500000920E-02 0. -1.
</event>
<event>
 5   0  0.3423758E-04  0.1096893E+04  0.7818609E-02  0.9208226E-01
        1   -1    0    0  501    0  0.00000000000E+00  0.00000000000E+00  0.55891229516E+03  0.55891229519E+03  0.50400001928E-02 0. -1.
       -1   -1    0    0    0  501  0.00000000000E+00  0.00000000000E+00 -0.53817652712E+03  0.53817652714E+03  0.50400001928E-02 0.  1.
    10030    2    1    2    0    0  0.00000000000E+00  0.00000000000E+00  0.20735768045E+02  0.10970888223E+04  0.10968928444E+04 0.  0.
        1    1    3    3  502    0  0.74747826540E+02  0.21206695246E+03  0.51069105244E+03  0.55800087901E+03  0.50400001928E-02 0. -1.
       -1    1    3    3    0  502 -0.74747826540E+02 -0.21206695246E+03 -0.48995528440E+03  0.53908794332E+03  0.50400001928E-02 0.  1.
</event>
<event>
 5   0  0.3642161E-04  0.1099564E+04  0.7818609E-02  0.9205617E-01
       -1   -1    0    0    0  501  0.00000000000E+00  0.00000000000E+00  0.14800680418E+03  0.14800680427E+03  0.50400001928E-02 0.  1.
        1   -1    0    0  501    0  0.00000000000E+00  0.00000000000E+00 -0.20422052830E+04  0.20422052830E+04  0.50400001928E-02 0. -1.
    10030    2    1    2    0    0  0.00000000000E+00  0.00000000000E+00 -0.18941984788E+04  0.21902120873E+04  0.10995640546E+04 0.  0.
        2    1    3    3  502    0  0.97125117181E+02  0.35072808672E+03 -0.17679344196E+04  0.18050029339E+04  0.25500000920E-02 0. -1.
       -2    1    3    3    0  502 -0.97125117181E+02 -0.35072808672E+03 -0.12626405917E+03  0.38520915338E+03  0.25500000920E-02 0.  1.
</event>
<event>
 5   0  0.6109149E-04  0.1102065E+04  0.7818609E-02  0.9203181E-01
       -2   -1    0    0    0  501  0.00000000000E+00  0.00000000000E+00  0.37046591654E+03  0.37046591655E+03  0.25500000920E-02 0.  1.
        2   -1    0    0  501    0  0.00000000000E+00  0.00000000000E+00 -0.81960802799E+03  0.81960802799E+03  0.25500000920E-02 0. -1.
    10030    2    1    2    0    0  0.00000000000E+00  0.00000000000E+00 -0.44914211145E+03  0.11900739445E+04  0.11020650422E+04 0.  0.
        1    1    3    3  502    0 -0.27387195260E+03 -0.50841564760E+02 -0.73798215874E+03  0.78880186218E+03  0.50400001928E-02 0. -1.
       -1    1    3    3    0  502  0.27387195260E+03  0.50841564760E+02  0.28884004729E+03  0.40127208235E+03  0.50400001928E-02 0.  1.
</event>
<event>
 5   0  0.3642161E-04  0.1095896E+04  0.7818609E-02  0.9209201E-01
        1   -1    0    0  501    0  0.00000000000E+00  0.00000000000E+00  0.27843202137E+03  0.27843202141E+03  0.50400001928E-02 0. -1.
       -1   -1    0    0    0  501  0.00000000000E+00  0.00000000000E+00 -0.10783502654E+04  0.10783502654E+04  0.50400001928E-02 0.  1.
    10030    2    1    2    0    0  0.00000000000E+00  0.00000000000E+00 -0.79991824402E+03  0.13567822868E+04  0.10958964261E+04 0.  0.
        2    1    3    3  502    0 -0.34318925507E+03 -0.32771247714E+03 -0.60738469948E+02  0.47839679577E+03  0.25500000920E-02 0. -1.
       -2    1    3    3    0  502  0.34318925507E+03  0.32771247714E+03 -0.73917977407E+03  0.87838549104E+03  0.25500000920E-02 0.  1.
</event>
<event>
 5   0  0.3621403E-04  0.1089610E+04  0.7818609E-02  0.9215379E-01
       -1   -1    0    0    0  501  0.00000000000E+00  0.00000000000E+00  0.59621910387E+03  0.59621910389E+03  0.50400001928E-02 0. -1.
        1   -1    0    0  501    0  0.00000000000E+00  0.00000000000E+00 -0.49782425082E+03  0.49782425085E+03  0.50400001928E-02 0.  1.
    10030    2    1    2    0    0  0.00000000000E+00  0.00000000000E+00  0.98394853046E+02  0.10940433547E+04  0.10896097076E+04 0.  0.
        3    1    3    3  502    0  0.38069818405E+03 -0.57827025206E+02 -0.33777609797E+03  0.51221848341E+03  0.10100000352E+00 0.  1.
       -3    1    3    3    0  502 -0.38069818405E+03  0.57827025206E+02  0.43617095102E+03  0.58182487133E+03  0.10100000352E+00 0. -1.
</event>
<event>
 5   0  0.6264830E-04  0.1097214E+04  0.7818609E-02  0.9207912E-01
       -2   -1    0    0    0  501  0.00000000000E+00  0.00000000000E+00  0.56806952955E+03  0.56806952956E+03  0.25500000920E-02 0.  1.
        2   -1    0    0  501    0  0.00000000000E+00  0.00000000000E+00 -0.52981123284E+03  0.52981123285E+03  0.25500000920E-02 0. -1.
    10030    2    1    2    0    0  0.00000000000E+00  0.00000000000E+00  0.38258296708E+02  0.10978807624E+04  0.10972139587E+04 0.  0.
        4    1    3    3  502    0 -0.23555092853E+03 -0.49524976110E+03  0.33678930738E+02  0.54944740338E+03  0.12699999809E+01 0. -1.
       -4    1    3    3    0  502  0.23555092853E+03  0.49524976110E+03  0.45793659698E+01  0.54843335903E+03  0.12699999809E+01 0.  1.
</event>
<event>
 5   0  0.6264830E-04  0.1099628E+04  0.7818609E-02  0.9205554E-01
       -2   -1    0    0    0  501  0.00000000000E+00  0.00000000000E+00  0.75330354829E+03  0.75330354829E+03  0.25500000920E-02 0. -1.
        2   -1    0    0  501    0  0.00000000000E+00  0.00000000000E+00 -0.40129321554E+03  0.40129321555E+03  0.25500000920E-02 0.  1.
    10030    2    1    2    0    0  0.00000000000E+00  0.00000000000E+00  0.35201033275E+03  0.11545967638E+04  0.10996283066E+04 0.  0.
        4    1    3    3  502    0 -0.29434195469E+03  0.14669114137E+03 -0.28663173918E+03  0.43625089576E+03  0.12699999809E+01 0.  1.
       -4    1    3    3    0  502  0.29434195469E+03 -0.14669114137E+03  0.63864207193E+03  0.71834586808E+03  0.12699999809E+01 0. -1.
</event>
<event>
 5   0  0.6264830E-04  0.1104209E+04  0.7818609E-02  0.9201099E-01
        2   -1    0    0  501    0  0.00000000000E+00  0.00000000000E+00  0.93368845448E+03  0.93368845448E+03  0.25500000920E-02 0. -1.
       -2   -1    0    0    0  501  0.00000000000E+00  0.00000000000E+00 -0.32646787323E+03  0.32646787324E+03  0.25500000920E-02 0.  1.
    10030    2    1    2    0    0  0.00000000000E+00  0.00000000000E+00  0.60722058125E+03  0.12601563277E+04  0.11042088281E+04 0.  0.
        4    1    3    3  502    0 -0.77858961948E+01  0.20089664003E+03  0.89042630376E+03  0.91284209778E+03  0.12699999809E+01 0. -1.
       -4    1    3    3    0  502  0.77858961948E+01 -0.20089664003E+03 -0.28320572251E+03  0.34731422994E+03  0.12699999809E+01 0.  1.
</event>
<event>
 5   0  0.5948818E-04  0.1102988E+04  0.7818609E-02  0.9202284E-01
        2   -1    0    0  501    0  0.00000000000E+00  0.00000000000E+00  0.13794029516E+04  0.13794029516E+04  0.25500000920E-02 0. -1.
       -2   -1    0    0    0  501  0.00000000000E+00  0.00000000000E+00 -0.22049095812E+03  0.22049095814E+03  0.25500000920E-02 0.  1.
    10030    2    1    2    0    0  0.00000000000E+00  0.00000000000E+00  0.11589119935E+04  0.15998939097E+04  0.11029884468E+04 0.  0.
        3    1    3    3  502    0 -0.46490544974E+03  0.27696963776E+03  0.42528797310E+03  0.68827256789E+03  0.10100000352E+00 0. -1.
       -3    1    3    3    0  502  0.46490544974E+03 -0.27696963776E+03  0.73362402035E+03  0.91162134183E+03  0.10100000352E+00 0.  1.
</event>
<event>
 5   0  0.3423758E-04  0.1099111E+04  0.7818609E-02  0.9206059E-01
       -1   -1    0    0    0  501  0.00000000000E+00  0.00000000000E+00  0.27722991162E+03  0.27722991167E+03  0.50400001928E-02 0.  1.
        1   -1    0    0  501    0  0.00000000000E+00  0.00000000000E+00 -0.10893894179E+04  0.10893894179E+04  0.50400001928E-02 0. -1.
    10030    2    1    2    0    0  0.00000000000E+00  0.00000000000E+00 -0.81215950625E+03  0.13666193295E+04  0.10991111537E+04 0.  0.
        1    1    3    3  502    0 -0.34080649108E+03 -0.36938726503E+03 -0.68247892213E+03  0.84756916833E+03  0.50400001928E-02 0. -1.
       -1    1    3    3    0  502  0.34080649108E+03  0.36938726503E+03 -0.12968058411E+03  0.51905016121E+03  0.50400001928E-02 0.  1.
</event>
<event>
 5   0  0.6412712E-04  0.1072466E+04  0.7818609E-02  0.9232452E-01
        2   -1    0    0  501    0  0.00000000000E+00  0.00000000000E+00  0.62859478686E+03  0.62859478686E+03  0.25500000920E-02 0. -1.
       -2   -1    0    0    0  501  0.00000000000E+00  0.00000000000E+00 -0.45744247833E+03  0.45744247834E+03  0.25500000920E-02 0.  1.
    10030    2    1    2    0    0  0.00000000000E+00  0.00000000000E+00  0.17115230853E+03  0.10860372652E+04  0.10724662366E+04 0.  0.
        2    1    3    3  502    0  0.39095576226E+03 -0.36700574409E+03  0.83027779270E+02  0.54261702551E+03  0.25500000920E-02 0. -1.
       -2    1    3    3    0  502 -0.39095576226E+03  0.36700574409E+03  0.88124529257E+02  0.54342023969E+03  0.25500000920E-02 0.  1.
</event>
<event>
 5   0  0.6109149E-04  0.1110500E+04  0.7818609E-02  0.9195018E-01
        2   -1    0    0  501    0  0.00000000000E+00  0.00000000000E+00  0.51268966977E+03  0.51268966977E+03  0.25500000920E-02 0.  1.
       -2   -1    0    0    0  501  0.00000000000E+00  0.00000000000E+00 -0.60134314849E+03  0.60134314850E+03  0.25500000920E-02 0. -1.
    10030    2    1    2    0    0  0.00000000000E+00  0.00000000000E+00 -0.88653478727E+02  0.11140328183E+04  0.11104997438E+04 0.  0.
        1    1    3    3  502    0  0.25227379628E+03  0.31458249965E+03  0.33859199926E+03  0.52654416659E+03  0.50400001928E-02 0.  1.
       -1    1    3    3    0  502 -0.25227379628E+03 -0.31458249965E+03 -0.42724547799E+03  0.58748865169E+03  0.50400001928E-02 0. -1.
</event>
<event>
 5   0  0.3642161E-04  0.1100702E+04  0.7818609E-02  0.9204508E-01
        1   -1    0    0  501    0  0.00000000000E+00  0.00000000000E+00  0.87848037604E+03  0.87848037606E+03  0.50400001928E-02 0. -1.
       -1   -1    0    0    0  501  0.00000000000E+00  0.00000000000E+00 -0.34478413741E+03  0.34478413744E+03  0.50400001928E-02 0.  1.
    10030    2    1    2    0    0  0.00000000000E+00  0.00000000000E+00  0.53369623864E+03  0.12232645135E+04  0.11007017738E+04 0.  0.
        2    1    3    3  502    0 -0.14430945649E+02  0.50089518671E+03  0.51974270263E+03  0.72196725494E+03  0.25500000920E-02 0. -1.
       -2    1    3    3    0  502  0.14430945649E+02 -0.50089518671E+03  0.13953536007E+02  0.50129725856E+03  0.25500000920E-02 0.  1.
</event>
<event>
 5   0  0.3642161E-04  0.1093273E+04  0.7818609E-02  0.9211773E-01
        1   -1    0    0  501    0  0.00000000000E+00  0.00000000000E+00  0.61888365549E+03  0.61888365551E+03  0.50400001928E-02 0. -1.
       -1   -1    0    0    0  501  0.00000000000E+00  0.00000000000E+00 -0.48282364188E+03  0.48282364190E+03  0.50400001928E-02 0.  1.
    10030    2    1    2    0    0  0.00000000000E+00  0.00000000000E+00  0.13606001362E+03  0.11017072974E+04  0.10932733610E+04 0.  0.
        2    1    3    3  502    0  0.49615392650E+03  0.22294619783E+03  0.13409148730E+02  0.54410801426E+03  0.25500000920E-02 0. -1.
       -2    1    3    3    0  502 -0.49615392650E+03 -0.22294619783E+03  0.12265086488E+03  0.55759928315E+03  0.25500000920E-02 0.  1.
</event>
<event>
 5   0  0.6109149E-04  0.1091533E+04  0.7818609E-02  0.9213484E-01
        2   -1    0    0  501    0  0.00000000000E+00  0.00000000000E+00  0.21363847412E+04  0.21363847412E+04  0.25500000920E-02 0. -1.
       -2   -1    0    0    0  501  0.00000000000E+00  0.00000000000E+00 -0.13942293906E+03  0.13942293908E+03  0.25500000920E-02 0.  1.
    10030    2    1    2    0    0  0.00000000000E+00  0.00000000000E+00  0.19969618021E+04  0.22758076803E+04  0.10915329397E+04 0.  0.
        1    1    3    3  502    0  0.41866818820E+03 -0.34294293492E+03  0.11454395800E+04  0.12668562427E+04  0.50400001928E-02 0. -1.
       -1    1    3    3    0  502 -0.41866818820E+03  0.34294293492E+03  0.85152222218E+03  0.10089514375E+04  0.50400001928E-02 0.  1.
</event>
<event>
 5   0  0.6264830E-04  0.1099814E+04  0.7818609E-02  0.9205374E-01
        2   -1    0    0  501    0  0.00000000000E+00  0.00000000000E+00  0.18022503459E+04  0.18022503459E+04  0.25500000920E-02 0.  1.
       -2   -1    0    0    0  501  0.00000000000E+00  0.00000000000E+00 -0.16778884594E+03  0.16778884596E+03  0.25500000920E-02 0. -1.
    10030    2    1    2    0    0  0.00000000000E+00  0.00000000000E+00  0.16344615000E+04  0.19700391919E+04  0.10998136309E+04 0.  0.
        4    1    3    3  502    0 -0.48414370998E+03  0.17671138982E+03  0.11607296036E+04  0.12700066429E+04  0.12699999809E+01 0.  1.
       -4    1    3    3    0  502  0.48414370998E+03 -0.17671138982E+03  0.47373189636E+03  0.70003254905E+03  0.12699999809E+01 0. -1.
</event>
<event>
 5   0  0.6264830E-04  0.1100160E+04  0.7818609E-02  0.9205036E-01
       -2   -1    0    0    0  501  0.00000000000E+00  0.00000000000E+00  0.17335850299E+03  0.17335850301E+03  0.25500000920E-02 0.  1.
        2   -1    0    0  501    0  0.00000000000E+00  0.00000000000E+00 -0.17454477131E+04  0.17454477131E+04  0.25500000920E-02 0. -1.
    10030    2    1    2    0    0  0.00000000000E+00  0.00000000000E+00 -0.15720892102E+04  0.19188062162E+04  0.11001603567E+04 0.  0.
        4    1    3    3  502    0 -0.17761151882E+02  0.23405265057E+03  0.81624994138E+02  0.24851630595E+03  0.12699999809E+01 0.  1.
       -4    1    3    3    0  502  0.17761151882E+02 -0.23405265057E+03 -0.16537142043E+04  0.16702899102E+04  0.12699999809E+01 0. -1.
</event>
<event>
 5   0  0.3621403E-04  0.1099413E+04  0.7818609E-02  0.9205764E-01
        1   -1    0    0  501    0  0.00000000000E+00  0.00000000000E+00  0.14906383400E+04  0.14906383400E+04  0.50400001928E-02 0. -1.
       -1   -1    0    0    0  501  0.00000000000E+00  0.00000000000E+00 -0.20271673887E+03  0.20271673894E+03  0.50400001928E-02 0.  1.
    10030    2    1    2    0    0  0.00000000000E+00  0.00000000000E+00  0.12879216011E+04  0.16933550790E+04  0.10994131947E+04 0.  0.
        3    1    3    3  502    0  0.26396501727E+03  0.25680945233E+03  0.15384903871E+02  0.36859914625E+03  0.10100000352E+00 0.  1.
       -3    1    3    3    0  502 -0.26396501727E+03 -0.25680945233E+03  0.12725366973E+04  0.13247559327E+04  0.10100000352E+00 0. -1.
</event>
<event>
 5   0  0.2403875E-04  0.1100304E+04  0.7818609E-02  0.9204896E-01
       -3   -1    0    0    0  501  0.00000000000E+00  0.00000000000E+00  0.11272816665E+04  0.11272816710E+04  0.10100000352E+00 0. -1.
        3   -1    0    0  501    0  0.00000000000E+00  0.00000000000E+00 -0.26849290474E+03  0.26849292374E+03  0.10100000352E+00 0.  1.
    10030    2    1    2    0    0  0.00000000000E+00  0.00000000000E+00  0.85878876178E+03  0.13957745948E+04  0.11003038590E+04 0.  0.
        1    1    3    3  502    0  0.48878645619E+03 -0.20603565714E+03  0.61454953934E+03  0.81180910817E+03  0.50400001928E-02 0. -1.
       -1    1    3    3    0  502 -0.48878645619E+03  0.20603565714E+03  0.24423922244E+03  0.58396548662E+03  0.50400001928E-02 0.  1.
</event>
<event>
 5   0  0.3621403E-04  0.1107703E+04  0.7818609E-02  0.9197716E-01
       -1   -1    0    0    0  501  0.00000000000E+00  0.00000000000E+00  0.55803768148E+03  0.55803768150E+03  0.50400001928E-02 0.  1.
        1   -1    0    0  501    0  0.00000000000E+00  0.00000000000E+00 -0.54969712118E+03  0.54969712120E+03  0.50400001928E-02 0. -1.
    10030    2    1    2    0    0  0.00000000000E+00  0.00000000000E+00  0.83405603035E+01  0.11077348027E+04  0.11077034026E+04 0.  0.
        3    1    3    3  502    0  0.28480309371E+03  0.17780409822E+03 -0.43632443889E+03  0.55055074762E+03  0.10100000352E+00 0. -1.
       -3    1    3    3    0  502 -0.28480309371E+03 -0.17780409822E+03  0.44466499919E+03  0.55718405508E+03  0.10100000352E+00 0.  1.
</event>
<event>
 5   0  0.6412712E-04  0.1095579E+04  0.7818609E-02  0.9209512E-01
       -2   -1    0    0    0  501  0.00000000000E+00  0.00000000000E+00  0.91822543771E+03  0.91822543771E+03  0.25500000920E-02 0.  1.
        2   -1    0    0  501    0  0.00000000000E+00  0.00000000000E+00 -0.32679688552E+03  0.32679688553E+03  0.25500000920E-02 0. -1.
    10030    2    1    2    0    0  0.00000000000E+00  0.00000000000E+00  0.59142855219E+03  0.12450223232E+04  0.10955787754E+04 0.  0.
        2    1    3    3  502    0 -0.20531601202E+03 -0.10925090108E+03 -0.26790506649E+03  0.35477253112E+03  0.25500000920E-02 0. -1.
       -2    1    3    3    0  502  0.20531601202E+03  0.10925090108E+03  0.85933361868E+03  0.89024979212E+03  0.25500000920E-02 0.  1.
</event>
<event>
 5   0  0.3642161E-04  0.1098338E+04  0.7818609E-02  0.9206813E-01
       -1   -1    0    0    0  501  0.00000000000E+00  0.00000000000E+00  0.43811857204E+03  0.43811857207E+03  0.50400001928E-02 0.  1.
        1   -1    0    0  501    0  0.00000000000E+00  0.00000000000E+00 -0.68836792258E+03  0.68836792260E+03  0.50400001928E-02 0. -1.
    10030    2    1    2    0    0  0.00000000000E+00  0.00000000000E+00 -0.25024935054E+03  0.11264864947E+04  0.10983383291E+04 0.  0.
        2    1    3    3  502    0 -0.52708858030E+03 -0.14136324677E+03 -0.62060378760E+02  0.54923349283E+03  0.25500000920E-02 0. -1.
       -2    1    3    3    0  502  0.52708858030E+03  0.14136324677E+03 -0.18818897178E+03  0.57725300184E+03  0.25500000920E-02 0.  1.
</event>
<event>
 5   0  0.3642161E-04  0.1101381E+04  0.7818609E-02  0.9203847E-01
       -1   -1    0    0    0  501  0.00000000000E+00  0.00000000000E+00  0.85852971163E+03  0.85852971164E+03  0.50400001928E-02 0.  1.
        1   -1    0    0  501    0  0.00000000000E+00  0.00000000000E+00 -0.35323207463E+03  0.35323207466E+03  0.50400001928E-02 0. -1.
    10030    2    1    2    0    0  0.00000000000E+00  0.00000000000E+00  0.50529763700E+03  0.12117617863E+04  0.11013813712E+04 0.  0.
        2    1    3    3  502    0 -0.32015104409E+03 -0.39015408683E+02  0.74374804592E+03  0.81066642275E+03  0.25500000920E-02 0.  1.
       -2    1    3    3    0  502  0.32015104409E+03  0.39015408683E+02 -0.23845040892E+03  0.40109536356E+03  0.25500000920E-02 0. -1.
</event>
<event>
 5   0  0.3423758E-04  0.1098420E+04  0.7818609E-02  0.9206733E-01
        1   -1    0    0  501    0  0.00000000000E+00  0.00000000000E+00  0.14305436592E+04  0.14305436592E+04  0.50400001928E-02 0. -1.
       -1   -1    0    0    0  501  0.00000000000E+00  0.00000000000E+00 -0.21085098887E+03  0.21085098893E+03  0.50400001928E-02 0.  1.
    10030    2    1    2    0    0  0.00000000000E+00  0.00000000000E+00  0.12196926704E+04  0.16413946482E+04  0.10984198564E+04 0.  0.
        1    1    3    3  502    0  0.29216788879E+03  0.92856371547E+02  0.12907844439E+04  0.13266909442E+04  0.50400001928E-02 0. -1.
       -1    1    3    3    0  502 -0.29216788879E+03 -0.92856371547E+02 -0.71091773511E+02  0.31470370392E+03  0.50400001928E-02 0.  1.
</event>
<event>
 5   0  0.6412712E-04  0.1102269E+04  0.7818609E-02  0.9202983E-01
        2   -1    0    0  501    0  0.00000000000E+00  0.00000000000E+00  0.19306471756E+04  0.19306471756E+04  0.25500000920E-02 0. -1.
       -2   -1    0    0    0  501  0.00000000000E+00  0.00000000000E+00 -0.15733019049E+03  0.15733019051E+03  0.25500000920E-02 0.  1.
    10030    2    1    2    0    0  0.00000000000E+00  0.00000000000E+00  0.17733169851E+04  0.20879773661E+04  0.11022687293E+04 0.  0.
        2    1    3    3  502    0  0.44626581537E+03 -0.30905713941E+03  0.70616085309E+03  0.89069222734E+03  0.25500000920E-02 0.  1.
       -2    1    3    3    0  502 -0.44626581537E+03  0.30905713941E+03  0.10671561320E+04  0.11972851387E+04  0.25500000920E-02 0. -1.
</event>
<event>
 5   0  0.6264830E-04  0.1099957E+04  0.7818609E-02  0.9205234E-01
       -2   -1    0    0    0  501  0.00000000000E+00  0.00000000000E+00  0.36487650009E+03  0.36487650010E+03  0.25500000920E-02 0. -1.
        2   -1    0    0  501    0  0.00000000000E+00  0.00000000000E+00 -0.82898268679E+03  0.82898268680E+03  0.25500000920E-02 0.  1.
    10030    2    1    2    0    0  0.00000000000E+00  0.00000000000E+00 -0.46410618671E+03  0.11938591869E+04  0.10999569108E+04 0.  0.
        4    1    3    3  502    0  0.47848887585E+03  0.26922738393E+03 -0.19705604327E+03  0.58332468289E+03  0.12699999809E+01 0. -1.
       -4    1    3    3    0  502 -0.47848887585E+03 -0.26922738393E+03 -0.26705014344E+03  0.61053450401E+03  0.12699999809E+01 0.  1.
</event>
<event>
 5   0  0.3423758E-04  0.1105332E+04  0.7818609E-02  0.9200011E-01
        1   -1    0    0  501    0  0.00000000000E+00  0.00000000000E+00  0.64234644885E+03  0.64234644887E+03  0.50400001928E-02 0. -1.
       -1   -1    0    0    0  501  0.00000000000E+00  0.00000000000E+00 -0.47550614467E+03  0.47550614470E+03  0.50400001928E-02 0.  1.
    10030    2    1    2    0    0  0.00000000000E+00  0.00000000000E+00  0.16684030418E+03  0.11178525936E+04  0.11053319564E+04 0.  0.
        1    1    3    3  502    0 -0.32286690207E+03 -0.13847055706E+02 -0.36999407319E+03  0.49125389731E+03  0.50400001928E-02 0.  1.
       -1    1    3    3    0  502  0.32286690207E+03  0.13847055706E+02  0.53683437736E+03  0.62659869626E+03  0.50400001928E-02 0. -1.
</event>
<event>
 5   0  0.6109149E-04  0.1101607E+04  0.7818609E-02  0.9203627E-01
        2   -1    0    0  501    0  0.00000000000E+00  0.00000000000E+00  0.15039527792E+04  0.15039527792E+04  0.25500000920E-02 0. -1.
       -2   -1    0    0    0  501  0.00000000000E+00  0.00000000000E+00 -0.20172461970E+03  0.20172461972E+03  0.25500000920E-02 0.  1.
    10030    2    1    2    0    0  0.00000000000E+00  0.00000000000E+00  0.13022281595E+04  0.17056773989E+04  0.11016066493E+04 0.  0.
        1    1    3    3  502    0  0.40835649571E+03 -0.28483818192E+03  0.28635754221E+03  0.57435917288E+03  0.50400001928E-02 0.  1.
       -1    1    3    3    0  502 -0.40835649571E+03  0.28483818192E+03  0.10158706173E+04  0.11313182261E+04  0.50400001928E-02 0. -1.
</event>
<event>
 5   0  0.3642161E-04  0.1107283E+04  0.7818609E-02  0.9198123E-01
       -1   -1    0    0    0  501  0.00000000000E+00  0.00000000000E+00  0.38751715290E+03  0.38751715293E+03  0.50400001928E-02 0.  1.
        1   -1    0    0  501    0  0.00000000000E+00  0.00000000000E+00 -0.79098104152E+03  0.79098104153E+03  0.50400001928E-02 0. -1.
    10030    2    1    2    0    0  0.00000000000E+00  0.00000000000E+00 -0.40346388862E+03  0.11784981945E+04  0.11072826581E+04 0.  0.
        2    1    3    3  502    0  0.58072816098E+02 -0.11530092452E+03 -0.77473712502E+03  0.78541986736E+03  0.25500000920E-02 0. -1.
       -2    1    3    3    0  502 -0.58072816098E+02  0.11530092452E+03  0.37127323640E+03  0.39307832710E+03  0.25500000920E-02 0.  1.
</event>
<event>
 5   0  0.3657529E-04  0.1099864E+04  0.7818609E-02  0.9205325E-01
       -1   -1    0    0    0  501  0.00000000000E+00  0.00000000000E+00  0.61945376316E+03  0.61945376318E+03  0.50400001928E-02 0. -1.
        1   -1    0    0  501    0  0.00000000000E+00  0.00000000000E+00 -0.48821248920E+03  0.48821248923E+03  0.50400001928E-02 0.  1.
    10030    2    1    2    0    0  0.00000000000E+00  0.00000000000E+00  0.13124127395E+03  0.11076662524E+04  0.10998637437E+04 0.  0.
        4    1    3    3  502    0 -0.11818332213E+03 -0.52511677740E+03 -0.47911178302E+02  0.54038136667E+03  0.12699999809E+01 0. -1.
       -4    1    3    3    0  502  0.11818332213E+03  0.52511677740E+03  0.17915245225E+03  0.56728488574E+03  0.12699999809E+01 0.  1.
</event>
<event>
 5   0  0.3423758E-04  0.1104051E+04  0.7818609E-02  0.9201253E-01
        1   -1    0    0  501    0  0.00000000000E+00  0.00000000000E+00  0.64706909518E+03  0.64706909520E+03  0.50400001928E-02 0.  1.
       -1   -1    0    0    0  501  0.00000000000E+00  0.00000000000E+00 -0.47094210802E+03  0.47094210804E+03  0.50400001928E-02 0. -1.
    10030    2    1    2    0    0  0.00000000000E+00  0.00000000000E+00  0.17612698716E+03  0.11180112032E+04  0.11040508752E+04 0.  0.
        1    1    3    3  502    0  0.26137393023E+03  0.11093433653E+03  0.56745135516E+03  0.63452643674E+03  0.50400001928E-02 0.  1.
       -1    1    3    3    0  502 -0.26137393023E+03 -0.11093433653E+03 -0.39132436800E+03  0.48348476650E+03  0.50400001928E-02 0. -1.
</event>
<event>
 5   0  0.3423758E-04  0.1097570E+04  0.7818609E-02  0.9207563E-01
       -1   -1    0    0    0  501  0.00000000000E+00  0.00000000000E+00  0.20556494737E+03  0.20556494743E+03  0.50400001928E-02 0.  1.
        1   -1    0    0  501    0  0.00000000000E+00  0.00000000000E+00 -0.14650607287E+04  0.14650607287E+04  0.50400001928E-02 0. -1.
    10030    2    1    2    0    0  0.00000000000E+00  0.00000000000E+00 -0.12594957813E+04  0.16706256761E+04  0.10975702832E+04 0.  0.
        1    1    3    3  502    0 -0.29654988114E+03 -0.21436046600E+03 -0.12522768977E+04  0.13046415867E+04  0.50400001928E-02 0. -1.
       -1    1    3    3    0  502  0.29654988114E+03  0.21436046600E+03 -0.72188836732E+01  0.36598408941E+03  0.50400001928E-02 0.  1.
</event>
<event>
 5   0  0.3423758E-04  0.1099662E+04  0.7818609E-02  0.9205522E-01
        1   -1    0    0  501    0  0.00000000000E+00  0.00000000000E+00  0.13978343585E+04  0.13978343585E+04  0.50400001928E-02 0. -1.
       -1   -1    0    0    0  501  0.00000000000E+00  0.00000000000E+00 -0.21627308968E+03  0.21627308974E+03  0.50400001928E-02 0.  1.
    10030    2    1    2    0    0  0.00000000000E+00  0.00000000000E+00  0.11815612688E+04  0.16141074482E+04  0.10996616855E+04 0.  0.
        1    1    3    3  502    0  0.24670785394E+03 -0.38679368547E+03  0.10356053359E+04  0.11326749455E+04  0.50400001928E-02 0. -1.
       -1    1    3    3    0  502 -0.24670785394E+03  0.38679368547E+03  0.14595593287E+03  0.48143250273E+03  0.50400001928E-02 0.  1.
</event>
<event>
 5   0  0.3642161E-04  0.1100830E+04  0.7818609E-02  0.9204383E-01
        1   -1    0    0  501    0  0.00000000000E+00  0.00000000000E+00  0.73502665997E+03  0.73502665999E+03  0.50400001928E-02 0. -1.
       -1   -1    0    0    0  501  0.00000000000E+00  0.00000000000E+00 -0.41217083374E+03  0.41217083377E+03  0.50400001928E-02 0.  1.
    10030    2    1    2    0    0  0.00000000000E+00  0.00000000000E+00  0.32285582623E+03  0.11471974938E+04  0.11008297803E+04 0.  0.
        2    1    3    3  502    0  0.73196692096E+02  0.48862103632E+03  0.41423247166E+03  0.64474554163E+03  0.25500000920E-02 0. -1.
       -2    1    3    3    0  502 -0.73196692096E+02 -0.48862103632E+03 -0.91376645429E+02  0.50245195213E+03  0.25500000920E-02 0.  1.
</event>
<event>
 5   0  0.3657529E-04  0.1125985E+04  0.7818609E-02  0.9180229E-01
       -1   -1    0    0    0  501  0.00000000000E+00  0.00000000000E+00  0.24620732044E+03  0.24620732049E+03  0.50400001928E-02 0.  1.
        1   -1    0    0  501    0  0.00000000000E+00  0.00000000000E+00 -0.12873718877E+04  0.12873718877E+04  0.50400001928E-02 0. -1.
    10030    2    1    2    0    0  0.00000000000E+00  0.00000000000E+00 -0.10411645672E+04  0.15335792082E+04  0.11259846942E+04 0.  0.
        4    1    3    3  502    0  0.20983334099E+03 -0.52189336295E+03 -0.55269915832E+03  0.78859411980E+03  0.12699999809E+01 0. -1.
       -4    1    3    3    0  502 -0.20983334099E+03  0.52189336295E+03 -0.48846540891E+03  0.74498508836E+03  0.12699999809E+01 0.  1.
</event>
<event>
 5   0  0.6412712E-04  0.1100520E+04  0.7818609E-02  0.9204685E-01
       -2   -1    0    0    0  501  0.00000000000E+00  0.00000000000E+00  0.62984035426E+03  0.62984035426E+03  0.25500000920E-02 0.  1.
        2   -1    0    0  501    0  0.00000000000E+00  0.00000000000E+00 -0.48073441640E+03  0.48073441641E+03  0.25500000920E-02 0. -1.
    10030    2    1    2    0    0  0.00000000000E+00  0.00000000000E+00  0.14910593786E+03  0.11105747707E+04  0.11005197593E+04 0.  0.
        2    1    3    3  502    0 -0.42100933779E+03 -0.14155395200E+02 -0.28271088781E+03  0.50732108552E+03  0.25500000920E-02 0. -1.
       -2    1    3    3    0  502  0.42100933779E+03  0.14155395200E+02  0.43181682567E+03  0.60325368516E+03  0.25500000920E-02 0.  1.
</event>
<event>
 5   0  0.3642161E-04  0.1101877E+04  0.7818609E-02  0.9203365E-01
       -1   -1    0    0    0  501  0.00000000000E+00  0.00000000000E+00  0.60893574961E+03  0.60893574964E+03  0.50400001928E-02 0.  1.
        1   -1    0    0  501    0  0.00000000000E+00  0.00000000000E+00 -0.49846470444E+03  0.49846470447E+03  0.50400001928E-02 0. -1.
    10030    2    1    2    0    0  0.00000000000E+00  0.00000000000E+00  0.11047104517E+03  0.11074004541E+04  0.11018765421E+04 0.  0.
        2    1    3    3  502    0 -0.13697510815E+03 -0.43019941154E+03 -0.26209930389E+03  0.52204382867E+03  0.25500000920E-02 0. -1.
       -2    1    3    3    0  502  0.13697510815E+03  0.43019941154E+03  0.37257034906E+03  0.58535662544E+03  0.25500000920E-02 0.  1.
</event>
<event>
 5   0  0.3523525E-04  0.1101038E+04  0.7818609E-02  0.9204181E-01
       -1   -1    0    0    0  501  0.00000000000E+00  0.00000000000E+00  0.44962789605E+03  0.44962789608E+03  0.50400001928E-02 0. -1.
        1   -1    0    0  501    0  0.00000000000E+00  0.00000000000E+00 -0.67404891951E+03  0.67404891953E+03  0.50400001928E-02 0.  1.
    10030    2    1    2    0    0  0.00000000000E+00  0.00000000000E+00 -0.22442102346E+03  0.11236768156E+04  0.11010380512E+04 0.  0.
        5    1    3    3  502    0  0.48089567557E+03  0.44443578647E+02  0.15744415620E+03  0.50798290797E+03  0.46999998093E+01 0. -1.
       -5    1    3    3    0  502 -0.48089567557E+03 -0.44443578647E+02 -0.38186517966E+03  0.61569390764E+03  0.46999998093E+01 0.  1.
</event>
<event>
 5   0  0.6109149E-04  0.1100546E+04  0.7818609E-02  0.9204659E-01
        2   -1    0    0  501    0  0.00000000000E+00  0.00000000000E+00  0.48689000264E+03  0.48689000265E+03  0.25500000920E-02 0. -1.
       -2   -1    0    0    0  501  0.00000000000E+00  0.00000000000E+00 -0.62190763640E+03  0.62190763640E+03  0.25500000920E-02 0.  1.
    10030    2    1    2    0    0  0.00000000000E+00  0.00000000000E+00 -0.13501763376E+03  0.11087976391E+04  0.11005464293E+04 0.  0.
        1    1    3    3  502    0  0.53999082036E+03  0.42758261285E+02 -0.16509707284E+03  0.56628208383E+03  0.50400001928E-02 0.  1.
       -1    1    3    3    0  502 -0.53999082036E+03 -0.42758261285E+02  0.30079439080E+02  0.54251555522E+03  0.50400001928E-02 0. -1.
</event>
<event>
 5   0  0.6109149E-04  0.1095327E+04  0.7818609E-02  0.9209759E-01
       -2   -1    0    0    0  501  0.00000000000E+00  0.00000000000E+00  0.71369241189E+03  0.71369241189E+03  0.25500000920E-02 0.  1.
        2   -1    0    0  501    0  0.00000000000E+00  0.00000000000E+00 -0.42025844655E+03  0.42025844656E+03  0.25500000920E-02 0. -1.
    10030    2    1    2    0    0  0.00000000000E+00  0.00000000000E+00  0.29343396533E+03  0.11339508585E+04  0.10953269180E+04 0.  0.
        1    1    3    3  502    0  0.22533346125E+03 -0.60397666867E+02  0.65968114865E+03  0.69971584578E+03  0.50400001928E-02 0.  1.
       -1    1    3    3    0  502 -0.22533346125E+03  0.60397666867E+02 -0.36624718332E+03  0.43423501268E+03  0.50400001928E-02 0. -1.
</event>
<event>
 5   0  0.6412712E-04  0.1099507E+04  0.7818609E-02  0.9205672E-01
        2   -1    0    0  501    0  0.00000000000E+00  0.00000000000E+00  0.96762452780E+03  0.96762452780E+03  0.25500000920E-02 0. -1.
       -2   -1    0    0    0  501  0.00000000000E+00  0.00000000000E+00 -0.31234126758E+03  0.31234126759E+03  0.25500000920E-02 0.  1.
    10030    2    1    2    0    0  0.00000000000E+00  0.00000000000E+00  0.65528326022E+03  0.12799657954E+04  0.10995072925E+04 0.  0.
        2    1    3    3  502    0  0.10732827941E+03 -0.16170352341E+03 -0.27113345600E+03  0.33343776033E+03  0.25500000920E-02 0.  1.
       -2    1    3    3    0  502 -0.10732827941E+03  0.16170352341E+03  0.92641671623E+03  0.94652803506E+03  0.25500000920E-02 0. -1.
</event>
<event>
 5   0  0.6245176E-04  0.1100792E+04  0.7818609E-02  0.9204420E-01
       -2   -1    0    0    0  501  0.00000000000E+00  0.00000000000E+00  0.26402923980E+03  0.26402923982E+03  0.25500000920E-02 0. -1.
        2   -1    0    0  501    0  0.00000000000E+00  0.00000000000E+00 -0.11473570677E+04  0.11473570678E+04  0.25500000920E-02 0.  1.
    10030    2    1    2    0    0  0.00000000000E+00  0.00000000000E+00 -0.88332782794E+03  0.14113863076E+04  0.11007921046E+04 0.  0.
        5    1    3    3  502    0  0.29055258763E+03 -0.46625584043E+03 -0.39917039184E+03  0.67909823048E+03  0.46999998093E+01 0.  1.
       -5    1    3    3    0  502 -0.29055258763E+03  0.46625584043E+03 -0.48415743611E+03  0.73228807709E+03  0.46999998093E+01 0. -1.
</event>
<event>
 5   0  0.3657529E-04  0.1097298E+04  0.7818609E-02  0.9207830E-01
        1   -1    0    0  501    0  0.00000000000E+00  0.00000000000E+00  0.20070258766E+04  0.20070258766E+04  0.50400001928E-02 0. -1.
       -1   -1    0    0    0  501  0.00000000000E+00  0.00000000000E+00 -0.14998095414E+03  0.14998095422E+03  0.50400001928E-02 0.  1.
    10030    2    1    2    0    0  0.00000000000E+00  0.00000000000E+00  0.18570449224E+04  0.21570068308E+04  0.10972978740E+04 0.  0.
        4    1    3    3  502    0  0.92471042802E+02  0.11558288458E+03  0.19670303874E+04  0.19725923184E+04  0.12699999809E+01 0. -1.
       -4    1    3    3    0  502 -0.92471042802E+02 -0.11558288458E+03 -0.10998546496E+03  0.18441451235E+03  0.12699999809E+01 0.  1.
</event>
<event>
 5   0  0.6109149E-04  0.1091834E+04  0.7818609E-02  0.9213188E-01
        2   -1    0    0  501    0  0.00000000000E+00  0.00000000000E+00  0.96036520883E+03  0.96036520883E+03  0.25500000920E-02 0.  1.
       -2   -1    0    0    0  501  0.00000000000E+00  0.00000000000E+00 -0.31032516215E+03  0.31032516216E+03  0.25500000920E-02 0. -1.
    10030    2    1    2    0    0  0.00000000000E+00  0.00000000000E+00  0.65004004668E+03  0.12706903710E+04  0.10918342166E+04 0.  0.
        1    1    3    3  502    0  0.19024352834E+03  0.16862752144E+03 -0.23723232270E+03  0.34771686186E+03  0.50400001928E-02 0. -1.
       -1    1    3    3    0  502 -0.19024352834E+03 -0.16862752144E+03  0.88727236938E+03  0.92297350913E+03  0.50400001928E-02 0.  1.
</event>
<event>
 5   0  0.3423758E-04  0.1099955E+04  0.7818609E-02  0.9205236E-01
        1   -1    0    0  501    0  0.00000000000E+00  0.00000000000E+00  0.11242996836E+04  0.11242996836E+04  0.50400001928E-02 0. -1.
       -1   -1    0    0    0  501  0.00000000000E+00  0.00000000000E+00 -0.26903416350E+03  0.26903416355E+03  0.50400001928E-02 0.  1.
    10030    2    1    2    0    0  0.00000000000E+00  0.00000000000E+00  0.85526552012E+03  0.13933338472E+04  0.10999545899E+04 0.  0.
        1    1    3    3  502    0  0.36772364310E+03  0.76265095239E+02 -0.81326817940E+02  0.38425394440E+03  0.50400001928E-02 0.  1.
       -1    1    3    3    0  502 -0.36772364310E+03 -0.76265095239E+02  0.93659233806E+03  0.10090799028E+04  0.50400001928E-02 0. -1.
</event>
<event>
 5   0  0.2403875E-04  0.1096953E+04  0.7818609E-02  0.9208166E-01
        4   -1    0    0  501    0  0.00000000000E+00  0.00000000000E+00  0.48268231881E+03  0.48268398957E+03  0.12699999809E+01 0. -1.
       -4   -1    0    0    0  501  0.00000000000E+00  0.00000000000E+00 -0.62323599843E+03  0.62323729240E+03  0.12699999809E+01 0.  1.
    10030    2    1    2    0    0  0.00000000000E+00  0.00000000000E+00 -0.14055367962E+03  0.11059212820E+04  0.10969533012E+04 0.  0.
        3    1    3    3  502    0  0.15847056594E+03  0.45453029977E+03 -0.33532518604E+03  0.58664614912E+03  0.10100000352E+00 0.  1.
       -3    1    3    3    0  502 -0.15847056594E+03 -0.45453029977E+03  0.19477150643E+03  0.51927513285E+03  0.10100000352E+00 0. -1.
</event>
<event>
 5   0  0.3423758E-04  0.1100489E+04  0.7818609E-02  0.9204716E-01
        1   -1    0    0  501    0  0.00000000000E+00  0.00000000000E+00  0.84181959244E+03  0.84181959245E+03  0.50400001928E-02 0.  1.
       -1   -1    0    0    0  501  0.00000000000E+00  0.00000000000E+00 -0.35966003678E+03  0.35966003682E+03  0.50400001928E-02 0. -1.
    10030    2    1    2    0    0  0.00000000000E+00  0.00000000000E+00  0.48215955565E+03  0.12014796293E+04  0.11004887380E+04 0.  0.
        1    1    3    3  502    0 -0.63934618741E+02  0.52447703039E+03  0.40881856516E+03  0.66805419700E+03  0.50400001928E-02 0.  1.
       -1    1    3    3    0  502  0.63934618741E+02 -0.52447703039E+03  0.73340990495E+02  0.53342543227E+03  0.50400001928E-02 0. -1.
</event>
<event>
 5   0  0.3523525E-04  0.1103548E+04  0.7818609E-02  0.9201740E-01
        1   -1    0    0  501    0  0.00000000000E+00  0.00000000000E+00  0.43274946604E+03  0.43274946607E+03  0.50400001928E-02 0.  1.
       -1   -1    0    0    0  501  0.00000000000E+00  0.00000000000E+00 -0.70353570066E+03  0.70353570067E+03  0.50400001928E-02 0. -1.
    10030    2    1    2    0    0  0.00000000000E+00  0.00000000000E+00 -0.27078623461E+03  0.11362851667E+04  0.11035482750E+04 0.  0.
        5    1    3    3  502    0 -0.52388965731E+02 -0.39491725359E+03 -0.52846144554E+03  0.66181404514E+03  0.46999998093E+01 0. -1.
       -5    1    3    3    0  502  0.52388965731E+02  0.39491725359E+03  0.25767521093E+03  0.47447112161E+03  0.46999998093E+01 0.  1.
</event>
<event>
 5   0  0.2403875E-04  0.1099482E+04  0.7818609E-02  0.9205697E-01
       -4   -1    0    0    0  501  0.00000000000E+00  0.00000000000E+00  0.97571556821E+03  0.97571639473E+03  0.12699999809E+01 0. -1.
        4   -1    0    0  501    0  0.00000000000E+00  0.00000000000E+00 -0.30973482632E+03  0.30973742998E+03  0.12699999809E+01 0.  1.
    10030    2    1    2    0    0  0.00000000000E+00  0.00000000000E+00  0.66598074190E+03  0.12854538247E+04  0.10994822358E+04 0.  0.
        5    1    3    3  502    0  0.32461070388E+03  0.39725798712E+02 -0.18361147524E+03  0.37508067399E+03  0.46999998093E+01 0.  1.
       -5    1    3    3    0  502 -0.32461070388E+03 -0.39725798712E+02  0.84959221714E+03  0.91037315073E+03  0.46999998093E+01 0. -1.
</event>
<event>
 5   0  0.6109149E-04  0.1100648E+04  0.7818609E-02  0.9204560E-01
        2   -1    0    0  501    0  0.00000000000E+00  0.00000000000E+00  0.38095424467E+03  0.38095424468E+03  0.25500000920E-02 0.  1.
       -2   -1    0    0    0  501  0.00000000000E+00  0.00000000000E+00 -0.79499477984E+03  0.79499477985E+03  0.25500000920E-02 0. -1.
    10030    2    1    2    0    0  0.00000000000E+00  0.00000000000E+00 -0.41404053517E+03  0.11759490245E+04  0.11006482379E+04 0.  0.
        1    1    3    3  502    0  0.51743665068E+03 -0.42199317087E+02 -0.40209061830E+03  0.65665693873E+03  0.50400001928E-02 0. -1.
       -1    1    3    3    0  502 -0.51743665068E+03  0.42199317087E+02 -0.11949916873E+02  0.51929208579E+03  0.50400001928E-02 0.  1.
</event>
<event>
 5   0  0.5948818E-04  0.1110082E+04  0.7818609E-02  0.9195421E-01
        2   -1    0    0  501    0  0.00000000000E+00  0.00000000000E+00  0.13304027972E+04  0.13304027972E+04  0.25500000920E-02 0. -1.
       -2   -1    0    0    0  501  0.00000000000E+00  0.00000000000E+00 -0.23156173228E+03  0.23156173229E+03  0.25500000920E-02 0.  1.
    10030    2    1    2    0    0  0.00000000000E+00  0.00000000000E+00  0.10988410649E+04  0.15619645295E+04  0.11100817562E+04 0.  0.
        3    1    3    3  502    0  0.20040926425E+03  0.53781147212E+01 -0.17883597908E+03  0.26865426654E+03  0.10100000352E+00 0.  1.
       -3    1    3    3    0  502 -0.20040926425E+03 -0.53781147212E+01  0.12776770440E+04  0.12933102630E+04  0.10100000352E+00 0. -1.
</event>
<event>
 5   0  0.3423758E-04  0.1102024E+04  0.7818609E-02  0.9203221E-01
        1   -1    0    0  501    0  0.00000000000E+00  0.00000000000E+00  0.72161196919E+03  0.72161196920E+03  0.50400001928E-02 0.  1.
       -1   -1    0    0    0  501  0.00000000000E+00  0.00000000000E+00 -0.42074469812E+03  0.42074469815E+03  0.50400001928E-02 0. -1.
    10030    2    1    2    0    0  0.00000000000E+00  0.00000000000E+00  0.30086727107E+03  0.11423566674E+04  0.11020243376E+04 0.  0.
        1    1    3    3  502    0 -0.37577385310E+03 -0.31407438654E+03 -0.11132686042E+03  0.50223737299E+03  0.50400001928E-02 0. -1.
       -1    1    3    3    0  502  0.37577385310E+03  0.31407438654E+03  0.41219413148E+03  0.64011929436E+03  0.50400001928E-02 0.  1.
</event>
<event>
 5   0  0.3642161E-04  0.1095295E+04  0.7818609E-02  0.9209790E-01
       -1   -1    0    0    0  501  0.00000000000E+00  0.00000000000E+00  0.20859268074E+03  0.20859268080E+03  0.50400001928E-02 0.  1.
        1   -1    0    0  501    0  0.00000000000E+00  0.00000000000E+00 -0.14378163503E+04  0.14378163504E+04  0.50400001928E-02 0. -1.
    10030    2    1    2    0    0  0.00000000000E+00  0.00000000000E+00 -0.12292236696E+04  0.16464090312E+04  0.10952953337E+04 0.  0.
        2    1    3    3  502    0  0.50888131599E+02 -0.90366342164E+02  0.19369700700E+03  0.21971392369E+03  0.25500000920E-02 0.  1.
       -2    1    3    3    0  502 -0.50888131599E+02  0.90366342164E+02 -0.14229206766E+04  0.14266951075E+04  0.25500000920E-02 0. -1.
</event>
<event>
 5   0  0.2403875E-04  0.1100213E+04  0.7818609E-02  0.9204984E-01
        3   -1    0    0  501    0  0.00000000000E+00  0.00000000000E+00  0.53152350453E+03  0.53152351413E+03  0.10100000352E+00 0. -1.
       -3   -1    0    0    0  501  0.00000000000E+00  0.00000000000E+00 -0.56933905183E+03  0.56933906079E+03  0.10100000352E+00 0.  1.
    10030    2    1    2    0    0  0.00000000000E+00  0.00000000000E+00 -0.37815547303E+02  0.11008625749E+04  0.11002128854E+04 0.  0.
        4    1    3    3  502    0 -0.26066932838E+03  0.32835895521E+02  0.46468786972E+03  0.53381937391E+03  0.12699999809E+01 0. -1.
       -4    1    3    3    0  502  0.26066932838E+03 -0.32835895521E+02 -0.50250341702E+03  0.56704320101E+03  0.12699999809E+01 0.  1.
</event>
<event>
 5   0  0.3657529E-04  0.1103825E+04  0.7818609E-02  0.9201472E-01
        1   -1    0    0  501    0  0.00000000000E+00  0.00000000000E+00  0.92905950942E+03  0.92905950943E+03  0.50400001928E-02 0. -1.
       -1   -1    0    0    0  501  0.00000000000E+00  0.00000000000E+00 -0.32786622270E+03  0.32786622274E+03  0.50400001928E-02 0.  1.
    10030    2    1    2    0    0  0.00000000000E+00  0.00000000000E+00  0.60119328672E+03  0.12569257322E+04  0.11038246818E+04 0.  0.
        4    1    3    3  502    0  0.41378395132E+03  0.23771489748E+02  0.71559538091E+03  0.82695864720E+03  0.12699999809E+01 0. -1.
       -4    1    3    3    0  502 -0.41378395132E+03 -0.23771489748E+02 -0.11440209419E+03  0.42996708496E+03  0.12699999809E+01 0.  1.
</event>
<event>
 5   0  0.3642161E-04  0.1100252E+04  0.7818609E-02  0.9204947E-01
        1   -1    0    0  501    0  0.00000000000E+00  0.00000000000E+00  0.46927246383E+03  0.46927246385E+03  0.50400001928E-02 0. -1.
       -1   -1    0    0    0  501  0.00000000000E+00  0.00000000000E+00 -0.64490978936E+03  0.64490978937E+03  0.50400001928E-02 0.  1.
    10030    2    1    2    0    0  0.00000000000E+00  0.00000000000E+00 -0.17563732553E+03  0.11141822532E+04  0.11002516182E+04 0.  0.
        2    1    3    3  502    0 -0.53906833716E+03 -0.23304792886E+00  0.23314535637E+02  0.53957232510E+03  0.25500000920E-02 0. -1.
       -2    1    3    3    0  502  0.53906833716E+03  0.23304792886E+00 -0.19895186117E+03  0.57460992813E+03  0.25500000920E-02 0.  1.
</event>
<event>
 5   0  0.3621403E-04  0.1100556E+04  0.7818609E-02  0.9204650E-01
        1   -1    0    0  501    0  0.00000000000E+00  0.00000000000E+00  0.67851304524E+03  0.67851304525E+03  0.50400001928E-02 0. -1.
       -1   -1    0    0    0  501  0.00000000000E+00  0.00000000000E+00 -0.44627883082E+03  0.44627883085E+03  0.50400001928E-02 0.  1.
    10030    2    1    2    0    0  0.00000000000E+00  0.00000000000E+00  0.23223421441E+03  0.11247918761E+04  0.11005562385E+04 0.  0.
        3    1    3    3  502    0  0.23125779473E+03  0.49878456921E+03  0.92372224315E+02  0.55749336510E+03  0.10100000352E+00 0.  1.
       -3    1    3    3    0  502 -0.23125779473E+03 -0.49878456921E+03  0.13986199010E+03  0.56729851100E+03  0.10100000352E+00 0. -1.
</event>
<event>
 5   0  0.6109149E-04  0.1099730E+04  0.7818609E-02  0.9205455E-01
        2   -1    0    0  501    0  0.00000000000E+00  0.00000000000E+00  0.19135227763E+04  0.19135227763E+04  0.25500000920E-02 0. -1.
       -2   -1    0    0    0  501  0.00000000000E+00  0.00000000000E+00 -0.15800777232E+03  0.15800777234E+03  0.25500000920E-02 0.  1.
    10030    2    1    2    0    0  0.00000000000E+00  0.00000000000E+00  0.17555150040E+04  0.20715305486E+04  0.10997299145E+04 0.  0.
        1    1    3    3  502    0 -0.18492075684E+03  0.46694419112E+03  0.45605507539E+03  0.67839427750E+03  0.50400001928E-02 0.  1.
       -1    1    3    3    0  502  0.18492075684E+03 -0.46694419112E+03  0.12994599286E+04  0.13931362711E+04  0.50400001928E-02 0. -1.
</event>
<event>
 5   0  0.3523525E-04  0.1097809E+04  0.7818609E-02  0.9207330E-01
        1   -1    0    0  501    0  0.00000000000E+00  0.00000000000E+00  0.19723812946E+04  0.19723812946E+04  0.50400001928E-02 0.  1.
       -1   -1    0    0    0  501  0.00000000000E+00  0.00000000000E+00 -0.15275757460E+03  0.15275757469E+03  0.50400001928E-02 0. -1.
    10030    2    1    2    0    0  0.00000000000E+00  0.00000000000E+00  0.18196237200E+04  0.21251388693E+04  0.10978090596E+04 0.  0.
        5    1    3    3  502    0  0.15851324572E+03  0.27713273949E+03  0.17741093947E+04  0.18026134468E+04  0.46999998093E+01 0.  1.
       -5    1    3    3    0  502 -0.15851324572E+03 -0.27713273949E+03  0.45514325375E+02  0.32252542253E+03  0.46999998093E+01 0. -1.
</event>
<event>
 5   0  0.6412712E-04  0.1104128E+04  0.7818609E-02  0.9201178E-01
        2   -1    0    0  501    0  0.00000000000E+00  0.00000000000E+00  0.38136103041E+03  0.38136103042E+03  0.25500000920E-02 0. -1.
       -2   -1    0    0    0  501  0.00000000000E+00  0.00000000000E+00 -0.79917643228E+03  0.79917643229E+03  0.25500000920E-02 0.  1.
    10030    2    1    2    0    0  0.00000000000E+00  0.00000000000E+00 -0.41781540188E+03  0.11805374627E+04  0.11041281587E+04 0.  0.
        2    1    3    3  502    0 -0.32657702583E+03  0.44062615797E+03 -0.14153276675E+03  0.56642341844E+03  0.25500000920E-02 0. -1.
       -2    1    3    3    0  502  0.32657702583E+03 -0.44062615797E+03 -0.27628263513E+03  0.61411404427E+03  0.25500000920E-02 0.  1.
</event>
<event>
 5   0  0.3642161E-04  0.1098160E+04  0.7818609E-02  0.9206987E-01
        1   -1    0    0  501    0  0.00000000000E+00  0.00000000000E+00  0.17563630621E+04  0.17563630621E+04  0.50400001928E-02 0. -1.
       -1   -1    0    0    0  501  0.00000000000E+00  0.00000000000E+00 -0.17165507452E+03  0.17165507459E+03  0.50400001928E-02 0.  1.
    10030    2    1    2    0    0  0.00000000000E+00  0.00000000000E+00  0.15847079876E+04  0.19280181367E+04  0.10981596102E+04 0.  0.
        2    1    3    3  502    0  0.21160105286E+03 -0.13203912037E+03 -0.66458217405E+02  0.25812018431E+03  0.25500000920E-02 0.  1.
       -2    1    3    3    0  502 -0.21160105286E+03  0.13203912037E+03  0.16511662050E+04  0.16698979524E+04  0.25500000920E-02 0. -1.
</event>
<event>
 5   0  0.5948818E-04  0.1102208E+04  0.7818609E-02  0.9203042E-01
       -2   -1    0    0    0  501  0.00000000000E+00  0.00000000000E+00  0.43079367484E+03  0.43079367485E+03  0.25500000920E-02 0. -1.
        2   -1    0    0  501    0  0.00000000000E+00  0.00000000000E+00 -0.70501444174E+03  0.70501444175E+03  0.25500000920E-02 0.  1.
    10030    2    1    2    0    0  0.00000000000E+00  0.00000000000E+00 -0.27422076690E+03  0.11358081166E+04  0.11022082601E+04 0.  0.
        3    1    3    3  502    0 -0.37701687700E+03 -0.11929656250E+03  0.25844300789E+03  0.47240469292E+03  0.10100000352E+00 0. -1.
       -3    1    3    3    0  502  0.37701687700E+03  0.11929656250E+03 -0.53266377479E+03  0.66340342367E+03  0.10100000352E+00 0.  1.
</event>
<event>
 5   0  0.3423758E-04  0.1101538E+04  0.7818609E-02  0.9203694E-01
        1   -1    0    0  501    0  0.00000000000E+00  0.00000000000E+00  0.77055055115E+03  0.77055055117E+03  0.50400001928E-02 0. -1.
       -1   -1    0    0    0  501  0.00000000000E+00  0.00000000000E+00 -0.39367512174E+03  0.39367512177E+03  0.50400001928E-02 0.  1.
    10030    2    1    2    0    0  0.00000000000E+00  0.00000000000E+00  0.37687542941E+03  0.11642256729E+04  0.11015381647E+04 0.  0.
        1    1    3    3  502    0 -0.27511426295E+03  0.38008701440E+03 -0.11640788811E+03  0.48343023555E+03  0.50400001928E-02 0.  1.
       -1    1    3    3    0  502  0.27511426295E+03 -0.38008701440E+03  0.49328331753E+03  0.68079543739E+03  0.50400001928E-02 0. -1.
</event>
<event>
 5   0  0.5948818E-04  0.1099430E+04  0.7818609E-02  0.9205747E-01
       -2   -1    0    0    0  501  0.00000000000E+00  0.00000000000E+00  0.14023404064E+03  0.14023404066E+03  0.25500000920E-02 0.  1.
        2   -1    0    0  501    0  0.00000000000E+00  0.00000000000E+00 -0.21548741559E+04  0.21548741559E+04  0.25500000920E-02 0. -1.
    10030    2    1    2    0    0  0.00000000000E+00  0.00000000000E+00 -0.20146401153E+04  0.22951081966E+04  0.10994302342E+04 0.  0.
        3    1    3    3  502    0 -0.16901553964E+03 -0.49863109919E+03 -0.67733318278E+03  0.85789246203E+03  0.10100000352E+00 0. -1.
       -3    1    3    3    0  502  0.16901553964E+03  0.49863109919E+03 -0.13373069325E+04  0.14372157346E+04  0.10100000352E+00 0.  1.
</event>
<event>
 5   0  0.3621403E-04  0.1114351E+04  0.7818609E-02  0.9191316E-01
       -1   -1    0    0    0  501  0.00000000000E+00  0.00000000000E+00  0.40010079252E+03  0.40010079255E+03  0.50400001928E-02 0. -1.
        1   -1    0    0  501    0  0.00000000000E+00  0.00000000000E+00 -0.77591558309E+03  0.77591558311E+03  0.50400001928E-02 0.  1.
    10030    2    1    2    0    0  0.00000000000E+00  0.00000000000E+00 -0.37581479057E+03  0.11760163757E+04  0.11143508240E+04 0.  0.
        3    1    3    3  502    0 -0.22066418292E+03  0.26402900792E+03  0.27456707810E+03  0.44021709329E+03  0.10100000352E+00 0. -1.
       -3    1    3    3    0  502  0.22066418292E+03 -0.26402900792E+03 -0.65038186867E+03  0.73579928237E+03  0.10100000352E+00 0.  1.
</event>
<event>
 5   0  0.3523525E-04  0.1096616E+04  0.7818609E-02  0.9208497E-01
       -1   -1    0    0    0  501  0.00000000000E+00  0.00000000000E+00  0.26800044539E+03  0.26800044544E+03  0.50400001928E-02 0.  1.
        1   -1    0    0  501    0  0.00000000000E+00  0.00000000000E+00 -0.11217948858E+04  0.11217948858E+04  0.50400001928E-02 0. -1.
    10030    2    1    2    0    0  0.00000000000E+00  0.00000000000E+00 -0.85379444039E+03  0.13897953312E+04  0.10966157560E+04 0.  0.
        5    1    3    3  502    0 -0.10976888892E+03  0.51688248556E+03 -0.61230626437E+03  0.80880020044E+03  0.46999998093E+01 0.  1.
       -5    1    3    3    0  502  0.10976888892E+03 -0.51688248556E+03 -0.24148817602E+03  0.58099513079E+03  0.46999998093E+01 0. -1.
</event>
<event>
 5   0  0.3621403E-04  0.1100130E+04  0.7818609E-02  0.9205065E-01
       -1   -1    0    0    0  501  0.00000000000E+00  0.00000000000E+00  0.14044932866E+04  0.14044932866E+04  0.50400001928E-02 0.  1.
        1   -1    0    0  501    0  0.00000000000E+00  0.00000000000E+00 -0.21543122247E+03  0.21543122253E+03  0.50400001928E-02 0. -1.
    10030    2    1    2    0    0  0.00000000000E+00  0.00000000000E+00  0.11890620641E+04  0.16199245092E+04  0.11001303663E+04 0.  0.
        3    1    3    3  502    0  0.28475996659E+03  0.42230671737E+03  0.90037025240E+03  0.10344553174E+04  0.10100000352E+00 0.  1.
       -3    1    3    3    0  502 -0.28475996659E+03 -0.42230671737E+03  0.28869181175E+03  0.58546919174E+03  0.10100000352E+00 0. -1.
</event>
<event>
 5   0  0.6245176E-04  0.1104424E+04  0.7818609E-02  0.9200890E-01
        2   -1    0    0  501    0  0.00000000000E+00  0.00000000000E+00  0.23912903918E+04  0.23912903918E+04  0.25500000920E-02 0.  1.
       -2   -1    0    0    0  501  0.00000000000E+00  0.00000000000E+00 -0.12752037696E+03  0.12752037698E+03  0.25500000920E-02 0. -1.
    10030    2    1    2    0    0  0.00000000000E+00  0.00000000000E+00  0.22637700149E+04  0.25188107688E+04  0.11044242884E+04 0.  0.
        5    1    3    3  502    0 -0.26490686664E+03 -0.87834540446E+00  0.26908856794E+02  0.26631296637E+03  0.46999998093E+01 0. -1.
       -5    1    3    3    0  502  0.26490686664E+03  0.87834540446E+00  0.22368611581E+04  0.22524978025E+04  0.46999998093E+01 0.  1.
</event>
<event>
 5   0  0.6109149E-04  0.1098432E+04  0.7818609E-02  0.9206721E-01
       -2   -1    0    0    0  501  0.00000000000E+00  0.00000000000E+00  0.20091076144E+03  0.20091076146E+03  0.25500000920E-02 0.  1.
        2   -1    0    0  501    0  0.00000000000E+00  0.00000000000E+00 -0.15013547868E+04  0.15013547868E+04  0.25500000920E-02 0. -1.
    10030    2    1    2    0    0  0.00000000000E+00  0.00000000000E+00 -0.13004440253E+04  0.17022655482E+04  0.10984322162E+04 0.  0.
        1    1    3    3  502    0  0.21565438662E+03  0.17756063789E+03  0.82591684400E+02  0.29130049940E+03  0.50400001928E-02 0.  1.
       -1    1    3    3    0  502 -0.21565438662E+03 -0.17756063789E+03 -0.13830357097E+04  0.14109650488E+04  0.50400001928E-02 0. -1.
</event>
<event>
 5   0  0.6109149E-04  0.1104401E+04  0.7818609E-02  0.9200913E-01
       -2   -1    0    0    0  501  0.00000000000E+00  0.00000000000E+00  0.32950628689E+03  0.32950628690E+03  0.25500000920E-02 0.  1.
        2   -1    0    0  501    0  0.00000000000E+00  0.00000000000E+00 -0.92540066342E+03  0.92540066343E+03  0.25500000920E-02 0. -1.
    10030    2    1    2    0    0  0.00000000000E+00  0.00000000000E+00 -0.59589437654E+03  0.12549069503E+04  0.11044008991E+04 0.  0.
        1    1    3    3  502    0  0.54110691912E+03  0.24458930020E+02 -0.17593395197E+03  0.56951531381E+03  0.50400001928E-02 0.  1.
       -1    1    3    3    0  502 -0.54110691912E+03 -0.24458930020E+02 -0.41996042456E+03  0.68539163651E+03  0.50400001928E-02 0. -1.
</event>
<event>
 5   0  0.3642161E-04  0.1099939E+04  0.7818609E-02  0.9205251E-01
        1   -1    0    0  501    0  0.00000000000E+00  0.00000000000E+00  0.34468349957E+03  0.34468349961E+03  0.50400001928E-02 0.  1.
       -1   -1    0    0    0  501  0.00000000000E+00  0.00000000000E+00 -0.87751966150E+03  0.87751966152E+03  0.50400001928E-02 0. -1.
    10030    2    1    2    0    0  0.00000000000E+00  0.00000000000E+00 -0.53283616193E+03  0.12222031611E+04  0.10999391763E+04 0.  0.
        2    1    3    3  502    0 -0.54851678149E+03  0.39073535950E+02 -0.27565786365E+03  0.61512979003E+03  0.25500000920E-02 0. -1.
       -2    1    3    3    0  502  0.54851678149E+03 -0.39073535950E+02 -0.25717829828E+03  0.60707337110E+03  0.25500000920E-02 0.  1.
</event>
<event>
 5   0  0.2403875E-04  0.1102140E+04  0.7818609E-02  0.9203108E-01
       -4   -1    0    0    0  501  0.00000000000E+00  0.00000000000E+00  0.32451551298E+03  0.32451799806E+03  0.12699999809E+01 0.  1.
        4   -1    0    0  501    0  0.00000000000E+00  0.00000000000E+00 -0.93578296263E+03  0.93578382442E+03  0.12699999809E+01 0. -1.
    10030    2    1    2    0    0  0.00000000000E+00  0.00000000000E+00 -0.61126744965E+03  0.12603018225E+04  0.11021400949E+04 0.  0.
        2    1    3    3  502    0 -0.43452190003E+03  0.22668854444E+03 -0.17522358170E+02  0.49041208267E+03  0.25500000920E-02 0.  1.
       -2    1    3    3    0  502  0.43452190003E+03 -0.22668854444E+03 -0.59374509148E+03  0.76988973980E+03  0.25500000920E-02 0. -1.
</event>
<event>
 5   0  0.6412712E-04  0.1070455E+04  0.7818609E-02  0.9234476E-01
       -2   -1    0    0    0  501  0.00000000000E+00  0.00000000000E+00  0.16393147419E+03  0.16393147421E+03  0.25500000920E-02 0.  1.
        2   -1    0    0  501    0  0.00000000000E+00  0.00000000000E+00 -0.17474903437E+04  0.17474903437E+04  0.25500000920E-02 0. -1.
    10030    2    1    2    0    0  0.00000000000E+00  0.00000000000E+00 -0.15835588695E+04  0.19114218180E+04  0.10704553577E+04 0.  0.
        2    1    3    3  502    0 -0.66713478461E+02  0.44507347124E+03 -0.27448197886E+03  0.52714460989E+03  0.25500000920E-02 0. -1.
       -2    1    3    3    0  502  0.66713478461E+02 -0.44507347124E+03 -0.13090768907E+04  0.13842772081E+04  0.25500000920E-02 0.  1.
</event>
<event>
 5   0  0.3523525E-04  0.1100551E+04  0.7818609E-02  0.9204655E-01
       -1   -1    0    0    0  501  0.00000000000E+00  0.00000000000E+00  0.65414916122E+03  0.65414916124E+03  0.50400001928E-02 0.  1.
        1   -1    0    0  501    0  0.00000000000E+00  0.00000000000E+00 -0.46289583218E+03  0.46289583220E+03  0.50400001928E-02 0. -1.
    10030    2    1    2    0    0  0.00000000000E+00  0.00000000000E+00  0.19125332905E+03  0.11170449934E+04  0.11005506265E+04 0.  0.
        5    1    3    3  502    0 -0.42676586492E+03  0.20693398526E+03 -0.18753489999E+03  0.51004137717E+03  0.46999998093E+01 0.  1.
       -5    1    3    3    0  502  0.42676586492E+03 -0.20693398526E+03  0.37878822904E+03  0.60700361628E+03  0.46999998093E+01 0. -1.
</event>
<event>
 5   0  0.3657529E-04  0.1099091E+04  0.7818609E-02  0.9206078E-01
       -1   -1    0    0    0  501  0.00000000000E+00  0.00000000000E+00  0.18878776666E+03  0.18878776673E+03  0.50400001928E-02 0.  1.
        1   -1    0    0  501    0  0.00000000000E+00  0.00000000000E+00 -0.15996813693E+04  0.15996813693E+04  0.50400001928E-02 0. -1.
    10030    2    1    2    0    0  0.00000000000E+00  0.00000000000E+00 -0.14108936026E+04  0.17884691360E+04  0.10990910301E+04 0.  0.
        4    1    3    3  502    0 -0.14655337112E+02  0.31713290018E+03 -0.14353633661E+04  0.14700536252E+04  0.12699999809E+01 0. -1.
       -4    1    3    3    0  502  0.14655337112E+02 -0.31713290018E+03  0.24469763522E+02  0.31841551079E+03  0.12699999809E+01 0.  1.
</event>
<event>
 5   0  0.3621403E-04  0.1097542E+04  0.7818609E-02  0.9207591E-01
       -1   -1    0    0    0  501  0.00000000000E+00  0.00000000000E+00  0.50777911742E+03  0.50777911744E+03  0.50400001928E-02 0.  1.
        1   -1    0    0  501    0  0.00000000000E+00  0.00000000000E+00 -0.59307248383E+03  0.59307248385E+03  0.50400001928E-02 0. -1.
    10030    2    1    2    0    0  0.00000000000E+00  0.00000000000E+00 -0.85293366415E+02  0.11008516013E+04  0.10975423863E+04 0.  0.
        3    1    3    3  502    0 -0.49199343712E+03 -0.16544537465E+03  0.13599168286E+03  0.53658499995E+03  0.10100000352E+00 0.  1.
       -3    1    3    3    0  502  0.49199343712E+03  0.16544537465E+03 -0.22128504927E+03  0.56426660135E+03  0.10100000352E+00 0. -1.
</event>
<event>
 5   0  0.3621403E-04  0.1100078E+04  0.7818609E-02  0.9205116E-01
       -1   -1    0    0    0  501  0.00000000000E+00  0.00000000000E+00  0.15180492261E+03  0.15180492270E+03  0.50400001928E-02 0.  1.
        1   -1    0    0  501    0  0.00000000000E+00  0.00000000000E+00 -0.19929705342E+04  0.19929705342E+04  0.50400001928E-02 0. -1.
    10030    2    1    2    0    0  0.00000000000E+00  0.00000000000E+00 -0.18411656115E+04  0.21447754569E+04  0.11000777024E+04 0.  0.
        3    1    3    3  502    0 -0.47903181499E+03  0.20579384793E+03 -0.12623025436E+04  0.13657343480E+04  0.10100000352E+00 0.  1.
       -3    1    3    3    0  502  0.47903181499E+03 -0.20579384793E+03 -0.57886306796E+03  0.77904110884E+03  0.10100000352E+00 0. -1.
</event>
<event>
 5   0  0.6412712E-04  0.1096156E+04  0.7818609E-02  0.9208947E-01
       -2   -1    0    0    0  501  0.00000000000E+00  0.00000000000E+00  0.73009394215E+03  0.73009394215E+03  0.25500000920E-02 0. -1.
        2   -1    0    0  501    0  0.00000000000E+00  0.00000000000E+00 -0.41143929736E+03  0.41143929737E+03  0.25500000920E-02 0.  1.
    10030    2    1    2    0    0  0.00000000000E+00  0.00000000000E+00  0.31865464478E+03  0.11415332395E+04  0.10961557163E+04 0.  0.
        2    1    3    3  502    0 -0.34388289628E+03  0.40779958148E+03  0.28287495016E+02  0.53418735233E+03  0.25500000920E-02 0.  1.
       -2    1    3    3    0  502  0.34388289628E+03 -0.40779958148E+03  0.29036714977E+03  0.60734588719E+03  0.25500000920E-02 0. -1.
</event>
<event>
 5   0  0.6412712E-04  0.1102677E+04  0.7818609E-02  0.9202587E-01
       -2   -1    0    0    0  501  0.00000000000E+00  0.00000000000E+00  0.29071124400E+03  0.29071124401E+03  0.25500000920E-02 0. -1.
        2   -1    0    0  501    0  0.00000000000E+00  0.00000000000E+00 -0.10456219803E+04  0.10456219803E+04  0.25500000920E-02 0.  1.
    10030    2    1    2    0    0  0.00000000000E+00  0.00000000000E+00 -0.75491073633E+03  0.13363332243E+04  0.11026768641E+04 0.  0.
        2    1    3    3  502    0  0.26669104742E+03  0.34167851826E+03 -0.79040145293E+03  0.90144482993E+03  0.25500000920E-02 0.  1.
       -2    1    3    3    0  502 -0.26669104742E+03 -0.34167851826E+03  0.35490716601E+02  0.43488839440E+03  0.25500000920E-02 0. -1.
</event>
<event>
 5   0  0.3657529E-04  0.1097573E+04  0.7818609E-02  0.9207560E-01
        1   -1    0    0  501    0  0.00000000000E+00  0.00000000000E+00  0.76901809033E+03  0.76901809035E+03  0.50400001928E-02 0.  1.
       -1   -1    0    0    0  501  0.00000000000E+00  0.00000000000E+00 -0.39162505825E+03  0.39162505828E+03  0.50400001928E-02 0. -1.
    10030    2    1    2    0    0  0.00000000000E+00  0.00000000000E+00  0.37739303208E+03  0.11606431486E+04  0.10975732403E+04 0.  0.
        4    1    3    3  502    0  0.82621378117E+02 -0.41647509184E+03  0.55636434099E+03  0.69987190761E+03  0.12699999809E+01 0.  1.
       -4    1    3    3    0  502 -0.82621378117E+02  0.41647509184E+03 -0.17897130891E+03  0.46077124102E+03  0.12699999809E+01 0. -1.
</event>
<event>
 5   0  0.3423758E-04  0.1097400E+04  0.7818609E-02  0.9207730E-01
       -1   -1    0    0    0  501  0.00000000000E+00  0.00000000000E+00  0.40488440913E+03  0.40488440917E+03  0.50400001928E-02 0. -1.
        1   -1    0    0  501    0  0.00000000000E+00  0.00000000000E+00 -0.74359904203E+03  0.74359904204E+03  0.50400001928E-02 0.  1.
    10030    2    1    2    0    0  0.00000000000E+00  0.00000000000E+00 -0.33871463289E+03  0.11484834512E+04  0.10973999431E+04 0.  0.
        1    1    3    3  502    0  0.45034447426E+03 -0.52508641105E+02 -0.49278068663E+03  0.66962684237E+03  0.50400001928E-02 0.  1.
       -1    1    3    3    0  502 -0.45034447426E+03  0.52508641105E+02  0.15406605374E+03  0.47885660884E+03  0.50400001928E-02 0. -1.
</event>
<event>
 5   0  0.3423758E-04  0.1099273E+04  0.7818609E-02  0.9205901E-01
        1   -1    0    0  501    0  0.00000000000E+00  0.00000000000E+00  0.15360658845E+04  0.15360658845E+04  0.50400001928E-02 0.  1.
       -1   -1    0    0    0  501  0.00000000000E+00  0.00000000000E+00 -0.19667151757E+03  0.19667151764E+03  0.50400001928E-02 0. -1.
    10030    2    1    2    0    0  0.00000000000E+00  0.00000000000E+00  0.13393943670E+04  0.17327374022E+04  0.10992732302E+04 0.  0.
        1    1    3    3  502    0 -0.21040374896E+03 -0.45578004265E+03  0.10224944881E+04  0.11390786466E+04  0.50400001928E-02 0.  1.
       -1    1    3    3    0  502  0.21040374896E+03  0.45578004265E+03  0.31689987885E+03  0.59365875559E+03  0.50400001928E-02 0. -1.
</event>
<event>
 5   0  0.2403875E-04  0.1099422E+04  0.7818609E-02  0.9205756E-01
       -3   -1    0    0    0  501  0.00000000000E+00  0.00000000000E+00  0.45798041482E+03  0.45798042595E+03  0.10100000352E+00 0. -1.
        3   -1    0    0  501    0  0.00000000000E+00  0.00000000000E+00 -0.65981415372E+03  0.65981416145E+03  0.10100000352E+00 0.  1.
    10030    2    1    2    0    0  0.00000000000E+00  0.00000000000E+00 -0.20183373890E+03  0.11177945874E+04  0.10994216122E+04 0.  0.
        1    1    3    3  502    0  0.20172270949E+03 -0.34609707738E+02 -0.61963116254E+03  0.65255854987E+03  0.50400001928E-02 0.  1.
       -1    1    3    3    0  502 -0.20172270949E+03  0.34609707738E+02  0.41779742364E+03  0.46523603753E+03  0.50400001928E-02 0. -1.
</event>
<event>
 5   0  0.3523525E-04  0.1097780E+04  0.7818609E-02  0.9207358E-01
        1   -1    0    0  501    0  0.00000000000E+00  0.00000000000E+00  0.24921094439E+03  0.24921094444E+03  0.50400001928E-02 0. -1.
       -1   -1    0    0    0  501  0.00000000000E+00  0.00000000000E+00 -0.12089368356E+04  0.12089368356E+04  0.50400001928E-02 0.  1.
    10030    2    1    2    0    0  0.00000000000E+00  0.00000000000E+00 -0.95972589120E+03  0.14581477800E+04  0.10977801065E+04 0.  0.
        5    1    3    3  502    0  0.31889837159E+03 -0.66219438189E+02 -0.10666770187E+04  0.11153040561E+04  0.46999998093E+01 0.  1.
       -5    1    3    3    0  502 -0.31889837159E+03  0.66219438189E+02  0.10695112745E+03  0.34284372395E+03  0.46999998093E+01 0. -1.
</event>
<event>
 5   0  0.6109149E-04  0.1101705E+04  0.7818609E-02  0.9203532E-01
        2   -1    0    0  501    0  0.00000000000E+00  0.00000000000E+00  0.14037296707E+04  0.14037296707E+04  0.25500000920E-02 0.  1.
       -2   -1    0    0    0  501  0.00000000000E+00  0.00000000000E+00 -0.21616571192E+03  0.21616571193E+03  0.25500000920E-02 0. -1.
    10030    2    1    2    0    0  0.00000000000E+00  0.00000000000E+00  0.11875639588E+04  0.16198953826E+04  0.11017045405E+04 0.  0.
        1    1    3    3  502    0 -0.20531894338E+03  0.46005885299E+03  0.92133840257E+03  0.10500830771E+04  0.50400001928E-02 0.  1.
       -1    1    3    3    0  502  0.20531894338E+03 -0.46005885299E+03  0.26622555619E+03  0.56981230552E+03  0.50400001928E-02 0. -1.
</event>
<event>
 5   0  0.5948818E-04  0.1099953E+04  0.7818609E-02  0.9205238E-01
       -2   -1    0    0    0  501  0.00000000000E+00  0.00000000000E+00  0.47093131191E+03  0.47093131192E+03  0.25500000920E-02 0. -1.
        2   -1    0    0  501    0  0.00000000000E+00  0.00000000000E+00 -0.64228908696E+03  0.64228908696E+03  0.25500000920E-02 0.  1.
    10030    2    1    2    0    0  0.00000000000E+00  0.00000000000E+00 -0.17135777505E+03  0.11132203989E+04  0.10999528033E+04 0.  0.
        3    1    3    3  502    0  0.30518621334E+03 -0.26580030677E+03 -0.46257598813E+03  0.61462588856E+03  0.10100000352E+00 0.  1.
       -3    1    3    3    0  502 -0.30518621334E+03  0.26580030677E+03  0.29121821309E+03  0.49859451032E+03  0.10100000352E+00 0. -1.
</event>
<event>
 5   0  0.6109149E-04  0.1097796E+04  0.7818609E-02  0.9207342E-01
        2   -1    0    0  501    0  0.00000000000E+00  0.00000000000E+00  0.79004664616E+03  0.79004664617E+03  0.25500000920E-02 0. -1.
       -2   -1    0    0    0  501  0.00000000000E+00  0.00000000000E+00 -0.38135615234E+03  0.38135615235E+03  0.25500000920E-02 0.  1.
    10030    2    1    2    0    0  0.00000000000E+00  0.00000000000E+00  0.40869049383E+03  0.11714027985E+04  0.10977962455E+04 0.  0.
        1    1    3    3  502    0  0.43446504628E+03 -0.26001007992E+03 -0.21818960742E+02  0.50679501297E+03  0.50400001928E-02 0.  1.
       -1    1    3    3    0  502 -0.43446504628E+03  0.26001007992E+03  0.43050945457E+03  0.66460778554E+03  0.50400001928E-02 0. -1.
</event>
<event>
 5   0  0.2403875E-04  0.1099354E+04  0.7818609E-02  0.9205822E-01
       -3   -1    0    0    0  501  0.00000000000E+00  0.00000000000E+00  0.47829013508E+03  0.47829014575E+03  0.10100000352E+00 0. -1.
        3   -1    0    0  501    0  0.00000000000E+00  0.00000000000E+00 -0.63171819105E+03  0.63171819913E+03  0.10100000352E+00 0.  1.
    10030    2    1    2    0    0  0.00000000000E+00  0.00000000000E+00 -0.15342805597E+03  0.11100083449E+04  0.10993536089E+04 0.  0.
        5    1    3    3  502    0 -0.41763769452E+03 -0.26746374436E+03  0.16257313611E+03  0.52192931802E+03  0.46999998093E+01 0. -1.
       -5    1    3    3    0  502  0.41763769452E+03  0.26746374436E+03 -0.31600119208E+03  0.58807902685E+03  0.46999998093E+01 0.  1.
</event>
<event>
 5   0  0.5948818E-04  0.1100693E+04  0.7818609E-02  0.9204517E-01
       -2   -1    0    0    0  501  0.00000000000E+00  0.00000000000E+00  0.17520249313E+04  0.17520249313E+04  0.25500000920E-02 0. -1.
        2   -1    0    0  501    0  0.00000000000E+00  0.00000000000E+00 -0.17287494288E+03  0.17287494290E+03  0.25500000920E-02 0.  1.
    10030    2    1    2    0    0  0.00000000000E+00  0.00000000000E+00  0.15791499884E+04  0.19248998742E+04  0.11006928908E+04 0.  0.
        3    1    3    3  502    0 -0.12104174436E+03 -0.37611003248E+03  0.14595561865E+04  0.15120893268E+04  0.10100000352E+00 0. -1.
       -3    1    3    3    0  502  0.12104174436E+03  0.37611003248E+03  0.11959380193E+03  0.41281054743E+03  0.10100000352E+00 0.  1.
</event>
<event>
 5   0  0.6245176E-04  0.1099030E+04  0.7818609E-02  0.9206138E-01
        2   -1    0    0  501    0  0.00000000000E+00  0.00000000000E+00  0.20403883815E+03  0.20403883817E+03  0.25500000920E-02 0. -1.
       -2   -1    0    0    0  501  0.00000000000E+00  0.00000000000E+00 -0.14799479844E+04  0.14799479844E+04  0.25500000920E-02 0.  1.
    10030    2    1    2    0    0  0.00000000000E+00  0.00000000000E+00 -0.12759091462E+04  0.16839868226E+04  0.10990302403E+04 0.  0.
        5    1    3    3  502    0  0.35938242618E+03  0.26919949303E+03 -0.11232702097E+04  0.12097033311E+04  0.46999998093E+01 0.  1.
       -5    1    3    3    0  502 -0.35938242618E+03 -0.26919949303E+03 -0.15263893650E+03  0.47428349142E+03  0.46999998093E+01 0. -1.
</event>
<event>
 5   0  0.2403875E-04  0.1098685E+04  0.7818609E-02  0.9206475E-01
        4   -1    0    0  501    0  0.00000000000E+00  0.00000000000E+00  0.19447450194E+04  0.19447454341E+04  0.12699999809E+01 0.  1.
       -4   -1    0    0    0  501  0.00000000000E+00  0.00000000000E+00 -0.15517258229E+03  0.15517777931E+03  0.12699999809E+01 0. -1.
    10030    2    1    2    0    0  0.00000000000E+00  0.00000000000E+00  0.17895724371E+04  0.20999232134E+04  0.10986846656E+04 0.  0.
        2    1    3    3  502    0 -0.16669146337E+03  0.11755415195E+03 -0.80114990664E+02  0.21914249779E+03  0.25500000920E-02 0. -1.
       -2    1    3    3    0  502  0.16669146337E+03 -0.11755415195E+03  0.18696874278E+04  0.18807807156E+04  0.25500000920E-02 0.  1.
</event>
<event>
 5   0  0.3423758E-04  0.1097270E+04  0.7818609E-02  0.9207856E-01
       -1   -1    0    0    0  501  0.00000000000E+00  0.00000000000E+00  0.41415355570E+03  0.41415355573E+03  0.50400001928E-02 0. -1.
        1   -1    0    0  501    0  0.00000000000E+00  0.00000000000E+00 -0.72678485737E+03  0.72678485739E+03  0.50400001928E-02 0.  1.
    10030    2    1    2    0    0  0.00000000000E+00  0.00000000000E+00 -0.31263130167E+03  0.11409384131E+04  0.10972703093E+04 0.  0.
        1    1    3    3  502    0 -0.14952040040E+03  0.14250436670E+02  0.39235944830E+03  0.42012541196E+03  0.50400001928E-02 0. -1.
       -1    1    3    3    0  502  0.14952040040E+03 -0.14250436670E+02 -0.70499074997E+03  0.72081300116E+03  0.50400001928E-02 0.  1.
</event>
<event>
 5   0  0.6109149E-04  0.1100486E+04  0.7818609E-02  0.9204718E-01
       -2   -1    0    0    0  501  0.00000000000E+00  0.00000000000E+00  0.34307218918E+03  0.34307218919E+03  0.25500000920E-02 0.  1.
        2   -1    0    0  501    0  0.00000000000E+00  0.00000000000E+00 -0.88251851294E+03  0.88251851294E+03  0.25500000920E-02 0. -1.
    10030    2    1    2    0    0  0.00000000000E+00  0.00000000000E+00 -0.53944632376E+03  0.12255907021E+04  0.11004863620E+04 0.  0.
        1    1    3    3  502    0 -0.14841839208E+03 -0.48511402595E+03 -0.32417843220E+02  0.50834491624E+03  0.50400001928E-02 0.  1.
       -1    1    3    3    0  502  0.14841839208E+03  0.48511402595E+03 -0.50702848054E+03  0.71724578589E+03  0.50400001928E-02 0. -1.
</event>
<event>
 5   0  0.3621403E-04  0.1097664E+04  0.7818609E-02  0.9207471E-01
       -1   -1    0    0    0  501  0.00000000000E+00  0.00000000000E+00  0.11892757565E+04  0.11892757565E+04  0.50400001928E-02 0.  1.
        1   -1    0    0  501    0  0.00000000000E+00  0.00000000000E+00 -0.25327746073E+03  0.25327746078E+03  0.50400001928E-02 0. -1.
    10030    2    1    2    0    0  0.00000000000E+00  0.00000000000E+00  0.93599829575E+03  0.14425532173E+04  0.10976643271E+04 0.  0.
        3    1    3    3  502    0  0.28795393584E+02  0.37120514589E+03  0.99792480827E+03  0.10651180067E+04  0.10100000352E+00 0.  1.
       -3    1    3    3    0  502 -0.28795393584E+02 -0.37120514589E+03 -0.61926512524E+02  0.37743521057E+03  0.10100000352E+00 0. -1.
</event>
<event>
 5   0  0.3642161E-04  0.1098258E+04  0.7818609E-02  0.9206891E-01
       -1   -1    0    0    0  501  0.00000000000E+00  0.00000000000E+00  0.65524919415E+03  0.65524919417E+03  0.50400001928E-02 0. -1.
        1   -1    0    0  501    0  0.00000000000E+00  0.00000000000E+00 -0.46019547747E+03  0.46019547749E+03  0.50400001928E-02 0.  1.
    10030    2    1    2    0    0  0.00000000000E+00  0.00000000000E+00  0.19505371668E+03  0.11154446717E+04  0.10982581041E+04 0.  0.
        2    1    3    3  502    0  0.25959812877E+03 -0.48152877207E+03  0.49013602864E+02  0.54923900086E+03  0.25500000920E-02 0.  1.
       -2    1    3    3    0  502 -0.25959812877E+03  0.48152877207E+03  0.14604011382E+03  0.56620567080E+03  0.25500000920E-02 0. -1.
</event>
<event>
 5   0  0.3657529E-04  0.1099787E+04  0.7818609E-02  0.9205399E-01
        1   -1    0    0  501    0  0.00000000000E+00  0.00000000000E+00  0.32167029767E+03  0.32167029771E+03  0.50400001928E-02 0. -1.
       -1   -1    0    0    0  501  0.00000000000E+00  0.00000000000E+00 -0.94004019137E+03  0.94004019138E+03  0.50400001928E-02 0.  1.
    10030    2    1    2    0    0  0.00000000000E+00  0.00000000000E+00 -0.61836989369E+03  0.12617104891E+04  0.10997872671E+04 0.  0.
        4    1    3    3  502    0  0.36977210669E+03 -0.68257925735E+02 -0.76949621834E+03  0.85645583555E+03  0.12699999809E+01 0.  1.
       -4    1    3    3    0  502 -0.36977210669E+03  0.68257925735E+02  0.15112632465E+03  0.40525465354E+03  0.12699999809E+01 0. -1.
</event>
<event>
 5   0  0.6264830E-04  0.1099310E+04  0.7818609E-02  0.9205865E-01
       -2   -1    0    0    0  501  0.00000000000E+00  0.00000000000E+00  0.19233085421E+03  0.19233085423E+03  0.25500000920E-02 0.  1.
        2   -1    0    0  501    0  0.00000000000E+00  0.00000000000E+00 -0.15708371209E+04  0.15708371209E+04  0.25500000920E-02 0. -1.
    10030    2    1    2    0    0  0.00000000000E+00  0.00000000000E+00 -0.13785062667E+04  0.17631679751E+04  0.10993096840E+04 0.  0.
        4    1    3    3  502    0  0.40288731342E+03  0.34248116451E+03 -0.92987511921E+03  0.10697106551E+04  0.12699999809E+01 0. -1.
       -4    1    3    3    0  502 -0.40288731342E+03 -0.34248116451E+03 -0.44863114750E+03  0.69345732007E+03  0.12699999809E+01 0.  1.
</event>
<event>
 5   0  0.3523525E-04  0.1106735E+04  0.7818609E-02  0.9198652E-01
       -1   -1    0    0    0  501  0.00000000000E+00  0.00000000000E+00  0.52671363452E+03  0.52671363455E+03  0.50400001928E-02 0. -1.
        1   -1    0    0  501    0  0.00000000000E+00  0.00000000000E+00 -0.58137001112E+03  0.58137001114E+03  0.50400001928E-02 0.  1.
    10030    2    1    2    0    0  0.00000000000E+00  0.00000000000E+00 -0.54656376595E+02  0.11080836457E+04  0.11067348582E+04 0.  0.
        5    1    3    3  502    0  0.10967740624E+02 -0.22955650710E+03 -0.53130725734E+03  0.57890065900E+03  0.46999998093E+01 0.  1.
       -5    1    3    3    0  502 -0.10967740624E+02  0.22955650710E+03  0.47665088075E+03  0.52918298669E+03  0.46999998093E+01 0. -1.
</event>
<event>
 5   0  0.3621403E-04  0.1099544E+04  0.7818609E-02  0.9205636E-01
       -1   -1    0    0    0  501  0.00000000000E+00  0.00000000000E+00  0.23060986429E+03  0.23060986434E+03  0.50400001928E-02 0. -1.
        1   -1    0    0  501    0  0.00000000000E+00  0.00000000000E+00 -0.13106530588E+04  0.13106530588E+04  0.50400001928E-02 0.  1.
    10030    2    1    2    0    0  0.00000000000E+00  0.00000000000E+00 -0.10800431945E+04  0.15412629231E+04  0.10995444949E+04 0.  0.
        3    1    3    3  502    0  0.23512709788E+03  0.45794170755E+03 -0.81057392602E+03  0.96022156788E+03  0.10100000352E+00 0.  1.
       -3    1    3    3    0  502 -0.23512709788E+03 -0.45794170755E+03 -0.26946926848E+03  0.58104135527E+03  0.10100000352E+00 0. -1.
</event>
<event>
 5   0  0.3523525E-04  0.1099109E+04  0.7818609E-02  0.9206060E-01
        1   -1    0    0  501    0  0.00000000000E+00  0.00000000000E+00  0.11874228218E+04  0.11874228218E+04  0.50400001928E-02 0.  1.
       -1   -1    0    0    0  501  0.00000000000E+00  0.00000000000E+00 -0.25434099745E+03  0.25434099750E+03  0.50400001928E-02 0. -1.
    10030    2    1    2    0    0  0.00000000000E+00  0.00000000000E+00  0.93308182439E+03  0.14417638193E+04  0.10991092847E+04 0.  0.
        5    1    3    3  502    0 -0.13662172935E+03  0.27247230829E+03  0.10663473342E+04  0.11090650940E+04  0.46999998093E+01 0.  1.
       -5    1    3    3    0  502  0.13662172935E+03 -0.27247230829E+03 -0.13326550979E+03  0.33269872530E+03  0.46999998093E+01 0. -1.
</event>
<event>
 5   0  0.6245176E-04  0.1096167E+04  0.7818609E-02  0.9208936E-01
        2   -1    0    0  501    0  0.00000000000E+00  0.00000000000E+00  0.94720500920E+03  0.94720500920E+03  0.25500000920E-02 0.  1.
       -2   -1    0    0    0  501  0.00000000000E+00  0.00000000000E+00 -0.31713884297E+03  0.31713884299E+03  0.25500000920E-02 0. -1.
    10030    2    1    2    0    0  0.00000000000E+00  0.00000000000E+00  0.63006616623E+03  0.12643438522E+04  0.10961669593E+04 0.  0.
        5    1    3    3  502    0 -0.33652228343E+03  0.40116789845E+03  0.12836922905E+03  0.53915088700E+03  0.46999998093E+01 0. -1.
       -5    1    3    3    0  502  0.33652228343E+03 -0.40116789845E+03  0.50169693717E+03  0.72519296519E+03  0.46999998093E+01 0.  1.
</event>
<event>
 5   0  0.6109149E-04  0.1098418E+04  0.7818609E-02  0.9206736E-01
        2   -1    0    0  501    0  0.00000000000E+00  0.00000000000E+00  0.12448423873E+04  0.12448423873E+04  0.25500000920E-02 0. -1.
       -2   -1    0    0    0  501  0.00000000000E+00  0.00000000000E+00 -0.24230398479E+03  0.24230398481E+03  0.25500000920E-02 0.  1.
    10030    2    1    2    0    0  0.00000000000E+00  0.00000000000E+00  0.10025384025E+04  0.14871463721E+04  0.10984175361E+04 0.  0.
        1    1    3    3  502    0 -0.32952340211E+03  0.40978152051E+03  0.28667000535E+03  0.59890421528E+03  0.50400001928E-02 0.  1.
       -1    1    3    3    0  502  0.32952340211E+03 -0.40978152051E+03  0.71586839719E+03  0.88824215685E+03  0.50400001928E-02 0. -1.
</event>
<event>
 5   0  0.3642161E-04  0.1098901E+04  0.7818609E-02  0.9206263E-01
       -1   -1    0    0    0  501  0.00000000000E+00  0.00000000000E+00  0.36290026271E+03  0.36290026274E+03  0.50400001928E-02 0.  1.
        1   -1    0    0  501    0  0.00000000000E+00  0.00000000000E+00 -0.83189828732E+03  0.83189828734E+03  0.50400001928E-02 0. -1.
    10030    2    1    2    0    0  0.00000000000E+00  0.00000000000E+00 -0.46899802461E+03  0.11947985501E+04  0.10989014643E+04 0.  0.
        2    1    3    3  502    0 -0.27834395002E+03  0.24643822117E+03 -0.67439056659E+03  0.77007128740E+03  0.25500000920E-02 0. -1.
       -2    1    3    3    0  502  0.27834395002E+03 -0.24643822117E+03  0.20539254197E+03  0.42472726269E+03  0.25500000920E-02 0.  1.
</event>
<event>
 5   0  0.6245176E-04  0.1098971E+04  0.7818609E-02  0.9206196E-01
       -2   -1    0    0    0  501  0.00000000000E+00  0.00000000000E+00  0.16660706022E+03  0.16660706024E+03  0.25500000920E-02 0. -1.
        2   -1    0    0  501    0  0.00000000000E+00  0.00000000000E+00 -0.18122535111E+04  0.18122535111E+04  0.25500000920E-02 0.  1.
    10030    2    1    2    0    0  0.00000000000E+00  0.00000000000E+00 -0.16456464508E+04  0.19788605713E+04  0.10989708456E+04 0.  0.
        5    1    3    3  502    0  0.33908908512E+03 -0.43084036022E+03 -0.75771747440E+03  0.93528748770E+03  0.46999998093E+01 0. -1.
       -5    1    3    3    0  502 -0.33908908512E+03  0.43084036022E+03 -0.88792897645E+03  0.10435730836E+04  0.46999998093E+01 0.  1.
</event>
<event>
 5   0  0.6109149E-04  0.1099451E+04  0.7818609E-02  0.9205727E-01
       -2   -1    0    0    0  501  0.00000000000E+00  0.00000000000E+00  0.10346899882E+04  0.10346899882E+04  0.25500000920E-02 0.  1.
        2   -1    0    0  501    0  0.00000000000E+00  0.00000000000E+00 -0.29206642273E+03  0.29206642275E+03  0.25500000920E-02 0. -1.
    10030    2    1    2    0    0  0.00000000000E+00  0.00000000000E+00  0.74262356543E+03  0.13267564109E+04  0.10994511421E+04 0.  0.
        1    1    3    3  502    0  0.19457901399E+03 -0.42639904507E+03  0.24656619954E+02  0.46934538163E+03  0.50400001928E-02 0.  1.
       -1    1    3    3    0  502 -0.19457901399E+03  0.42639904507E+03  0.71796694548E+03  0.85741102929E+03  0.50400001928E-02 0. -1.
</event>
<event>
 5   0  0.2403875E-04  0.1099821E+04  0.7818609E-02  0.9205366E-01
       -3   -1    0    0    0  501  0.00000000000E+00  0.00000000000E+00  0.46987276908E+03  0.46987277994E+03  0.10100000352E+00 0.  1.
        3   -1    0    0  501    0  0.00000000000E+00  0.00000000000E+00 -0.64358210312E+03  0.64358211105E+03  0.10100000352E+00 0. -1.
    10030    2    1    2    0    0  0.00000000000E+00  0.00000000000E+00 -0.17370933404E+03  0.11134548910E+04  0.10998212862E+04 0.  0.
        2    1    3    3  502    0 -0.53986632037E+03 -0.56179767502E+02  0.24998668065E+01  0.54278730594E+03  0.25500000920E-02 0.  1.
       -2    1    3    3    0  502  0.53986632037E+03  0.56179767502E+02 -0.17620920085E+03  0.57066758504E+03  0.25500000920E-02 0. -1.
</event>
<event>
 5   0  0.6109149E-04  0.1099776E+04  0.7818609E-02  0.9205410E-01
        2   -1    0    0  501    0  0.00000000000E+00  0.00000000000E+00  0.99565256104E+03  0.99565256105E+03  0.25500000920E-02 0.  1.
       -2   -1    0    0    0  501  0.00000000000E+00  0.00000000000E+00 -0.30369728277E+03  0.30369728278E+03  0.25500000920E-02 0. -1.
    10030    2    1    2    0    0  0.00000000000E+00  0.00000000000E+00  0.69195527828E+03  0.12993498438E+04  0.10997762998E+04 0.  0.
        1    1    3    3  502    0  0.16001381703E+03 -0.42343728521E+03 -0.22885150977E+02  0.45324087007E+03  0.50400001928E-02 0. -1.
       -1    1    3    3    0  502 -0.16001381703E+03  0.42343728521E+03  0.71484042925E+03  0.84610897375E+03  0.50400001928E-02 0.  1.
</event>
<event>
 5   0  0.5948818E-04  0.1099697E+04  0.7818609E-02  0.9205487E-01
       -2   -1    0    0    0  501  0.00000000000E+00  0.00000000000E+00  0.17545069701E+03  0.17545069703E+03  0.25500000920E-02 0.  1.
        2   -1    0    0  501    0  0.00000000000E+00  0.00000000000E+00 -0.17231814005E+04  0.17231814005E+04  0.25500000920E-02 0. -1.
    10030    2    1    2    0    0  0.00000000000E+00  0.00000000000E+00 -0.15477307035E+04  0.18986320975E+04  0.10996970088E+04 0.  0.
        3    1    3    3  502    0 -0.13447323817E+03 -0.51132947636E+03 -0.51321183481E+03  0.73683599449E+03  0.10100000352E+00 0.  1.
       -3    1    3    3    0  502  0.13447323817E+03  0.51132947636E+03 -0.10345188687E+04  0.11617961031E+04  0.10100000352E+00 0. -1.
</event>
<event>
 5   0  0.3657529E-04  0.1098983E+04  0.7818609E-02  0.9206184E-01
       -1   -1    0    0    0  501  0.00000000000E+00  0.00000000000E+00  0.95217212312E+02  0.95217212445E+02  0.50400001928E-02 0. -1.
        1   -1    0    0  501    0  0.00000000000E+00  0.00000000000E+00 -0.31710745849E+04  0.31710745849E+04  0.50400001928E-02 0.  1.
    10030    2    1    2    0    0  0.00000000000E+00  0.00000000000E+00 -0.30758573726E+04  0.32662917973E+04  0.10989829521E+04 0.  0.
        4    1    3    3  502    0  0.28303870886E+02  0.35428771194E+03 -0.27834438086E+04  0.28060438237E+04  0.12699999809E+01 0.  1.
       -4    1    3    3    0  502 -0.28303870886E+02 -0.35428771194E+03 -0.29241356394E+03  0.46024797361E+03  0.12699999809E+01 0. -1.
</event>
<event>
 5   0  0.3657529E-04  0.1099806E+04  0.7818609E-02  0.9205381E-01
       -1   -1    0    0    0  501  0.00000000000E+00  0.00000000000E+00  0.32632356764E+03  0.32632356768E+03  0.50400001928E-02 0.  1.
        1   -1    0    0  501    0  0.00000000000E+00  0.00000000000E+00 -0.92666739862E+03  0.92666739864E+03  0.50400001928E-02 0. -1.
    10030    2    1    2    0    0  0.00000000000E+00  0.00000000000E+00 -0.60034383099E+03  0.12529909663E+04  0.10998061858E+04 0.  0.
        4    1    3    3  502    0  0.19233204392E+03 -0.80119030798E+02 -0.87995539720E+03  0.90428634192E+03  0.12699999809E+01 0. -1.
       -4    1    3    3    0  502 -0.19233204392E+03  0.80119030798E+02  0.27961156621E+03  0.34870462440E+03  0.12699999809E+01 0.  1.
</event>
<event>
 5   0  0.3423758E-04  0.1099405E+04  0.7818609E-02  0.9205772E-01
        1   -1    0    0  501    0  0.00000000000E+00  0.00000000000E+00  0.66208279332E+03  0.66208279334E+03  0.50400001928E-02 0. -1.
       -1   -1    0    0    0  501  0.00000000000E+00  0.00000000000E+00 -0.45639764287E+03  0.45639764290E+03  0.50400001928E-02 0.  1.
    10030    2    1    2    0    0  0.00000000000E+00  0.00000000000E+00  0.20568515045E+03  0.11184804362E+04  0.10994053416E+04 0.  0.
        1    1    3    3  502    0  0.14117612497E+03 -0.53054553448E+03  0.13095835254E+03  0.56441062405E+03  0.50400001928E-02 0.  1.
       -1    1    3    3    0  502 -0.14117612497E+03  0.53054553448E+03  0.74726797905E+02  0.55406981218E+03  0.50400001928E-02 0. -1.
</event>
<event>
 5   0  0.6245176E-04  0.1099078E+04  0.7818609E-02  0.9206091E-01
        2   -1    0    0  501    0  0.00000000000E+00  0.00000000000E+00  0.72815377108E+03  0.72815377109E+03  0.25500000920E-02 0.  1.
       -2   -1    0    0    0  501  0.00000000000E+00  0.00000000000E+00 -0.41473802801E+03  0.41473802802E+03  0.25500000920E-02 0. -1.
    10030    2    1    2    0    0  0.00000000000E+00  0.00000000000E+00  0.31341574307E+03  0.11428917991E+04  0.10990779028E+04 0.  0.
        5    1    3    3  502    0 -0.51583720401E+03  0.17313705728E+03  0.23662539526E+03  0.59336171879E+03  0.46999998093E+01 0. -1.
       -5    1    3    3    0  502  0.51583720401E+03 -0.17313705728E+03  0.76790347815E+02  0.54953008031E+03  0.46999998093E+01 0.  1.
</event>
<event>
 5   0  0.3423758E-04  0.1100252E+04  0.7818609E-02  0.9204947E-01
        1   -1    0    0  501    0  0.00000000000E+00  0.00000000000E+00  0.29890072055E+03  0.29890072059E+03  0.50400001928E-02 0.  1.
       -1   -1    0    0    0  501  0.00000000000E+00  0.00000000000E+00 -0.10125047061E+04  0.10125047061E+04  0.50400001928E-02 0. -1.
    10030    2    1    2    0    0  0.00000000000E+00  0.00000000000E+00 -0.71360398552E+03  0.13114054267E+04  0.11002515826E+04 0.  0.
        1    1    3    3  502    0  0.15983106509E+03  0.50125992367E+03 -0.16523759787E+03  0.55146255015E+03  0.50400001928E-02 0.  1.
       -1    1    3    3    0  502 -0.15983106509E+03 -0.50125992367E+03 -0.54836638765E+03  0.75994287652E+03  0.50400001928E-02 0. -1.
</event>
<event>
 5   0  0.2403875E-04  0.1100921E+04  0.7818609E-02  0.9204295E-01
        3   -1    0    0  501    0  0.00000000000E+00  0.00000000000E+00  0.48542856402E+03  0.48542857452E+03  0.10100000352E+00 0. -1.
       -3   -1    0    0    0  501  0.00000000000E+00  0.00000000000E+00 -0.62420479733E+03  0.62420480550E+03  0.10100000352E+00 0.  1.
    10030    2    1    2    0    0  0.00000000000E+00  0.00000000000E+00 -0.13877623332E+03  0.11096333800E+04  0.11009211575E+04 0.  0.
        4    1    3    3  502    0  0.30637048277E+03  0.45730441884E+03 -0.65480364403E+02  0.55432796721E+03  0.12699999809E+01 0.  1.
       -4    1    3    3    0  502 -0.30637048277E+03 -0.45730441884E+03 -0.73295868912E+02  0.55530541282E+03  0.12699999809E+01 0. -1.
</event>
<event>
 5   0  0.6245176E-04  0.1097409E+04  0.7818609E-02  0.9207721E-01
       -2   -1    0    0    0  501  0.00000000000E+00  0.00000000000E+00  0.19177167689E+03  0.19177167691E+03  0.25500000920E-02 0. -1.
        2   -1    0    0  501    0  0.00000000000E+00  0.00000000000E+00 -0.15699744628E+04  0.15699744628E+04  0.25500000920E-02 0.  1.
    10030    2    1    2    0    0  0.00000000000E+00  0.00000000000E+00 -0.13782027859E+04  0.17617461397E+04  0.10974090129E+04 0.  0.
        5    1    3    3  502    0 -0.23440776566E+03  0.29373894960E+03 -0.47305213440E+02  0.37880000572E+03  0.46999998093E+01 0. -1.
       -5    1    3    3    0  502  0.23440776566E+03 -0.29373894960E+03 -0.13308975725E+04  0.13829461340E+04  0.46999998093E+01 0.  1.
</event>
<event>
 5   0  0.6109149E-04  0.1098560E+04  0.7818609E-02  0.9206597E-01
        2   -1    0    0  501    0  0.00000000000E+00  0.00000000000E+00  0.22844604800E+04  0.22844604800E+04  0.25500000920E-02 0.  1.
       -2   -1    0    0    0  501  0.00000000000E+00  0.00000000000E+00 -0.13206981150E+03  0.13206981152E+03  0.25500000920E-02 0. -1.
    10030    2    1    2    0    0  0.00000000000E+00  0.00000000000E+00  0.21523906685E+04  0.24165302916E+04  0.10985595387E+04 0.  0.
        1    1    3    3  502    0 -0.42063365888E+03  0.33828052948E+03  0.12998965024E+04  0.14075145856E+04  0.50400001928E-02 0.  1.
       -1    1    3    3    0  502  0.42063365888E+03 -0.33828052948E+03  0.85249416612E+03  0.10090157060E+04  0.50400001928E-02 0. -1.
</event>
<event>
 5   0  0.6264830E-04  0.1111410E+04  0.7818609E-02  0.9194142E-01
        2   -1    0    0  501    0  0.00000000000E+00  0.00000000000E+00  0.29568127729E+04  0.29568127729E+04  0.25500000920E-02 0.  1.
       -2   -1    0    0    0  501  0.00000000000E+00  0.00000000000E+00 -0.10443954376E+03  0.10443954380E+03  0.25500000920E-02 0. -1.
    10030    2    1    2    0    0  0.00000000000E+00  0.00000000000E+00  0.28523732291E+04  0.30612523167E+04  0.11114102340E+04 0.  0.
        4    1    3    3  502    0 -0.25981560332E+03  0.17678272096E+03  0.26885557682E+04  0.27068598061E+04  0.12699999809E+01 0.  1.
       -4    1    3    3    0  502  0.25981560332E+03 -0.17678272096E+03  0.16381746090E+03  0.35439251058E+03  0.12699999809E+01 0. -1.
</event>
<event>
 5   0  0.6245176E-04  0.1102270E+04  0.7818609E-02  0.9202982E-01
       -2   -1    0    0    0  501  0.00000000000E+00  0.00000000000E+00  0.32322548541E+03  0.32322548542E+03  0.25500000920E-02 0. -1.
        2   -1    0    0  501    0  0.00000000000E+00  0.00000000000E+00 -0.93974620093E+03  0.93974620094E+03  0.25500000920E-02 0.  1.
    10030    2    1    2    0    0  0.00000000000E+00  0.00000000000E+00 -0.61652071552E+03  0.12629716864E+04  0.11022702427E+04 0.  0.
        5    1    3    3  502    0  0.33158170265E+03  0.39738682202E+03 -0.52525133524E+03  0.73741017556E+03  0.46999998093E+01 0.  1.
       -5    1    3    3    0  502 -0.33158170265E+03 -0.39738682202E+03 -0.91269380284E+02  0.52556151079E+03  0.46999998093E+01 0. -1.
</event>
<event>
 5   0  0.3657529E-04  0.1100769E+04  0.7818609E-02  0.9204442E-01
        1   -1    0    0  501    0  0.00000000000E+00  0.00000000000E+00  0.58052261703E+03  0.58052261705E+03  0.50400001928E-02 0. -1.
       -1   -1    0    0    0  501  0.00000000000E+00  0.00000000000E+00 -0.52181120588E+03  0.52181120591E+03  0.50400001928E-02 0.  1.
    10030    2    1    2    0    0  0.00000000000E+00  0.00000000000E+00  0.58711411149E+02  0.11023338230E+04  0.11007691981E+04 0.  0.
        4    1    3    3  502    0  0.20382290631E+03  0.25778166225E+01 -0.48261570154E+03  0.52389879800E+03  0.12699999809E+01 0.  1.
       -4    1    3    3    0  502 -0.20382290631E+03 -0.25778166225E+01  0.54132711269E+03  0.57843502496E+03  0.12699999809E+01 0. -1.
</event>
<event>
 5   0  0.6109149E-04  0.1097185E+04  0.7818609E-02  0.9207940E-01
       -2   -1    0    0    0  501  0.00000000000E+00  0.00000000000E+00  0.18327654389E+03  0.18327654391E+03  0.25500000920E-02 0. -1.
        2   -1    0    0  501    0  0.00000000000E+00  0.00000000000E+00 -0.16420732487E+04  0.16420732487E+04  0.25500000920E-02 0.  1.
    10030    2    1    2    0    0  0.00000000000E+00  0.00000000000E+00 -0.14587967048E+04  0.18253497926E+04  0.10971845968E+04 0.  0.
        1    1    3    3  502    0  0.42812745482E+03 -0.76845686505E+02 -0.12855588489E+04  0.13571514032E+04  0.50400001928E-02 0.  1.
       -1    1    3    3    0  502 -0.42812745482E+03  0.76845686505E+02 -0.17323785586E+03  0.46819838939E+03  0.50400001928E-02 0. -1.
</event>
<event>
 5   0  0.3657529E-04  0.1099542E+04  0.7818609E-02  0.9205638E-01
       -1   -1    0    0    0  501  0.00000000000E+00  0.00000000000E+00  0.41903129156E+03  0.41903129159E+03  0.50400001928E-02 0. -1.
        1   -1    0    0  501    0  0.00000000000E+00  0.00000000000E+00 -0.72130208951E+03  0.72130208953E+03  0.50400001928E-02 0.  1.
    10030    2    1    2    0    0  0.00000000000E+00  0.00000000000E+00 -0.30227079795E+03  0.11403333811E+04  0.10995419886E+04 0.  0.
        4    1    3    3  502    0  0.11471054918E+03 -0.33813940704E+03 -0.58467454598E+03  0.68508591162E+03  0.12699999809E+01 0.  1.
       -4    1    3    3    0  502 -0.11471054918E+03  0.33813940704E+03  0.28240374803E+03  0.45524746950E+03  0.12699999809E+01 0. -1.
</event>
<event>
 5   0  0.3642161E-04  0.1101135E+04  0.7818609E-02  0.9204087E-01
       -1   -1    0    0    0  501  0.00000000000E+00  0.00000000000E+00  0.59498760842E+03  0.59498760844E+03  0.50400001928E-02 0.  1.
        1   -1    0    0  501    0  0.00000000000E+00  0.00000000000E+00 -0.50946323435E+03  0.50946323438E+03  0.50400001928E-02 0. -1.
    10030    2    1    2    0    0  0.00000000000E+00  0.00000000000E+00  0.85524374061E+02  0.11044508428E+04  0.11011345266E+04 0.  0.
        2    1    3    3  502    0 -0.35441870157E+03 -0.38482617988E+03  0.21480284086E+03  0.56554757995E+03  0.25500000920E-02 0.  1.
       -2    1    3    3    0  502  0.35441870157E+03  0.38482617988E+03 -0.12927846680E+03  0.53890326286E+03  0.25500000920E-02 0. -1.
</event>
<event>
 5   0  0.2403875E-04  0.1099918E+04  0.7818609E-02  0.9205272E-01
       -4   -1    0    0    0  501  0.00000000000E+00  0.00000000000E+00  0.15197910854E+04  0.15197916160E+04  0.12699999809E+01 0.  1.
        4   -1    0    0  501    0  0.00000000000E+00  0.00000000000E+00 -0.19900832213E+03  0.19901237443E+03  0.12699999809E+01 0. -1.
    10030    2    1    2    0    0  0.00000000000E+00  0.00000000000E+00  0.13207827633E+04  0.17188039905E+04  0.10999182014E+04 0.  0.
        1    1    3    3  502    0  0.49773998752E+03  0.21886423405E+03  0.78933129027E+03  0.95848345523E+03  0.50400001928E-02 0.  1.
       -1    1    3    3    0  502 -0.49773998752E+03 -0.21886423405E+03  0.53145147301E+03  0.76032053524E+03  0.50400001928E-02 0. -1.
</event>
<event>
 5   0  0.3423758E-04  0.1116933E+04  0.7818609E-02  0.9188843E-01
       -1   -1    0    0    0  501  0.00000000000E+00  0.00000000000E+00  0.59569596130E+03  0.59569596132E+03  0.50400001928E-02 0. -1.
        1   -1    0    0  501    0  0.00000000000E+00  0.00000000000E+00 -0.52356369866E+03  0.52356369868E+03  0.50400001928E-02 0.  1.
    10030    2    1    2    0    0  0.00000000000E+00  0.00000000000E+00  0.72132262647E+02  0.11192596600E+04  0.11169329090E+04 0.  0.
        1    1    3    3  502    0 -0.49169731593E+02 -0.19789969531E+03  0.55705573818E+03  0.59320573781E+03  0.50400001928E-02 0. -1.
       -1    1    3    3    0  502  0.49169731593E+02  0.19789969531E+03 -0.48492347553E+03  0.52605392219E+03  0.50400001928E-02 0.  1.
</event>
<event>
 5   0  0.3657529E-04  0.1098062E+04  0.7818609E-02  0.9207083E-01
       -1   -1    0    0    0  501  0.00000000000E+00  0.00000000000E+00  0.40852620579E+03  0.40852620582E+03  0.50400001928E-02 0. -1.
        1   -1    0    0  501    0  0.00000000000E+00  0.00000000000E+00 -0.73785998299E+03  0.73785998301E+03  0.50400001928E-02 0.  1.
    10030    2    1    2    0    0  0.00000000000E+00  0.00000000000E+00 -0.32933377720E+03  0.11463861888E+04  0.10980621827E+04 0.  0.
        4    1    3    3  502    0  0.15110718470E+03 -0.33658656808E+03  0.25980905645E+03  0.45124966237E+03  0.12699999809E+01 0. -1.
       -4    1    3    3    0  502 -0.15110718470E+03  0.33658656808E+03 -0.58914283365E+03  0.69513652646E+03  0.12699999809E+01 0.  1.
</event>
<event>
 5   0  0.6264830E-04  0.1095119E+04  0.7818609E-02  0.9209962E-01
        2   -1    0    0  501    0  0.00000000000E+00  0.00000000000E+00  0.25169925385E+03  0.25169925386E+03  0.25500000920E-02 0. -1.
       -2   -1    0    0    0  501  0.00000000000E+00  0.00000000000E+00 -0.11911889434E+04  0.11911889434E+04  0.25500000920E-02 0.  1.
    10030    2    1    2    0    0  0.00000000000E+00  0.00000000000E+00 -0.93948968956E+03  0.14428881973E+04  0.10951189310E+04 0.  0.
        4    1    3    3  502    0  0.30844870803E+03  0.42439202276E+02 -0.10632014122E+04  0.11078540280E+04  0.12699999809E+01 0.  1.
       -4    1    3    3    0  502 -0.30844870803E+03 -0.42439202276E+02  0.12371172268E+03  0.33503416931E+03  0.12699999809E+01 0. -1.
</event>
<event>
 5   0  0.6264830E-04  0.1101582E+04  0.7818609E-02  0.9203651E-01
       -2   -1    0    0    0  501  0.00000000000E+00  0.00000000000E+00  0.40000900411E+03  0.40000900412E+03  0.25500000920E-02 0. -1.
        2   -1    0    0  501    0  0.00000000000E+00  0.00000000000E+00 -0.75841037901E+03  0.75841037902E+03  0.25500000920E-02 0.  1.
    10030    2    1    2    0    0  0.00000000000E+00  0.00000000000E+00 -0.35840137490E+03  0.11584193831E+04  0.11015824625E+04 0.  0.
        4    1    3    3  502    0 -0.46940267870E+02 -0.60538589018E+02 -0.75277944616E+03  0.75666823442E+03  0.12699999809E+01 0.  1.
       -4    1    3    3    0  502  0.46940267870E+02  0.60538589018E+02  0.39437807126E+03  0.40175114872E+03  0.12699999809E+01 0. -1.
</event>
<event>
 5   0  0.3621403E-04  0.1101033E+04  0.7818609E-02  0.9204186E-01
        1   -1    0    0  501    0  0.00000000000E+00  0.00000000000E+00  0.10558168476E+04  0.10558168476E+04  0.50400001928E-02 0.  1.
       -1   -1    0    0    0  501  0.00000000000E+00  0.00000000000E+00 -0.28704643190E+03  0.28704643194E+03  0.50400001928E-02 0. -1.
    10030    2    1    2    0    0  0.00000000000E+00  0.00000000000E+00  0.76877041571E+03  0.13428632796E+04  0.11010330765E+04 0.  0.
        3    1    3    3  502    0 -0.12273339839E+03  0.39072555440E+03  0.83307079179E+03  0.92829785106E+03  0.10100000352E+00 0.  1.
       -3    1    3    3    0  502  0.12273339839E+03 -0.39072555440E+03 -0.64300376080E+02  0.41456542850E+03  0.10100000352E+00 0. -1.
</event>
<event>
 5   0  0.6412712E-04  0.1085495E+04  0.7818609E-02  0.9219446E-01
        2   -1    0    0  501    0  0.00000000000E+00  0.00000000000E+00  0.17161267144E+04  0.17161267144E+04  0.25500000920E-02 0. -1.
       -2   -1    0    0    0  501  0.00000000000E+00  0.00000000000E+00 -0.17165106935E+03  0.17165106937E+03  0.25500000920E-02 0.  1.
    10030    2    1    2    0    0  0.00000000000E+00  0.00000000000E+00  0.15444756450E+04  0.18877777838E+04  0.10854952523E+04 0.  0.
        2    1    3    3  502    0  0.35897027866E+03  0.40420265271E+03  0.68819190527E+03  0.87512715871E+03  0.25500000920E-02 0. -1.
       -2    1    3    3    0  502 -0.35897027866E+03 -0.40420265271E+03  0.85628373976E+03  0.10126506250E+04  0.25500000920E-02 0.  1.
</event>
<event>
 5   0  0.3523525E-04  0.1101035E+04  0.7818609E-02  0.9204183E-01
        1   -1    0    0  501    0  0.00000000000E+00  0.00000000000E+00  0.19023832609E+04  0.19023832609E+04  0.50400001928E-02 0.  1.
       -1   -1    0    0    0  501  0.00000000000E+00  0.00000000000E+00 -0.15931055884E+03  0.15931055892E+03  0.50400001928E-02 0. -1.
    10030    2    1    2    0    0  0.00000000000E+00  0.00000000000E+00  0.17430727020E+04  0.20616938198E+04  0.11010354045E+04 0.  0.
        5    1    3    3  502    0  0.53425002617E+03 -0.75610576554E+02  0.10758677072E+04  0.12036002090E+04  0.46999998093E+01 0.  1.
       -5    1    3    3    0  502 -0.53425002617E+03  0.75610576554E+02  0.66720499482E+03  0.85809361078E+03  0.46999998093E+01 0. -1.
</event>
<event>
 5   0  0.6109149E-04  0.1099421E+04  0.7818609E-02  0.9205757E-01
       -2   -1    0    0    0  501  0.00000000000E+00  0.00000000000E+00  0.14498281296E+03  0.14498281298E+03  0.25500000920E-02 0. -1.
        2   -1    0    0  501    0  0.00000000000E+00  0.00000000000E+00 -0.20842565579E+04  0.20842565579E+04  0.25500000920E-02 0.  1.
    10030    2    1    2    0    0  0.00000000000E+00  0.00000000000E+00 -0.19392737449E+04  0.22292393709E+04  0.10994205360E+04 0.  0.
        1    1    3    3  502    0 -0.24329097088E+03  0.84745772454E+02 -0.19542669122E+04  0.19711751588E+04  0.50400001928E-02 0.  1.
       -1    1    3    3    0  502  0.24329097088E+03 -0.84745772454E+02  0.14993167296E+02  0.25806421207E+03  0.50400001928E-02 0. -1.
</event>
<event>
 5   0  0.6264830E-04  0.1104675E+04  0.7818609E-02  0.9200647E-01
        2   -1    0    0  501    0  0.00000000000E+00  0.00000000000E+00  0.53410975116E+03  0.53410975116E+03  0.25500000920E-02 0. -1.
       -2   -1    0    0    0  501  0.00000000000E+00  0.00000000000E+00 -0.57118748649E+03  0.57118748650E+03  0.25500000920E-02 0.  1.
    10030    2    1    2    0    0  0.00000000000E+00  0.00000000000E+00 -0.37077735334E+02  0.11052972377E+04  0.11046751672E+04 0.  0.
        4    1    3    3  502    0 -0.52913399080E+03  0.15840289025E+03 -0.17570065864E+02  0.55261611990E+03  0.12699999809E+01 0.  1.
       -4    1    3    3    0  502  0.52913399080E+03 -0.15840289025E+03 -0.19507669470E+02  0.55268111776E+03  0.12699999809E+01 0. -1.
</event>
<event>
 5   0  0.3621403E-04  0.1100158E+04  0.7818609E-02  0.9205038E-01
       -1   -1    0    0    0  501  0.00000000000E+00  0.00000000000E+00  0.11174502930E+04  0.11174502930E+04  0.50400001928E-02 0.  1.
        1   -1    0    0  501    0  0.00000000000E+00  0.00000000000E+00 -0.27078332641E+03  0.27078332646E+03  0.50400001928E-02 0. -1.
    10030    2    1    2    0    0  0.00000000000E+00  0.00000000000E+00  0.84666696660E+03  0.13882336195E+04  0.11001580023E+04 0.  0.
        3    1    3    3  502    0 -0.33102002869E+03 -0.43353679508E+03  0.33358693855E+03  0.63938147287E+03  0.10100000352E+00 0. -1.
       -3    1    3    3    0  502  0.33102002869E+03  0.43353679508E+03  0.51308002805E+03  0.74885214660E+03  0.10100000352E+00 0.  1.
</event>
<event>
 5   0  0.6264830E-04  0.1098822E+04  0.7818609E-02  0.9206341E-01
       -2   -1    0    0    0  501  0.00000000000E+00  0.00000000000E+00  0.18281930493E+03  0.18281930495E+03  0.25500000920E-02 0.  1.
        2   -1    0    0  501    0  0.00000000000E+00  0.00000000000E+00 -0.16510973501E+04  0.16510973501E+04  0.25500000920E-02 0. -1.
    10030    2    1    2    0    0  0.00000000000E+00  0.00000000000E+00 -0.14682780452E+04  0.18339166551E+04  0.10988220419E+04 0.  0.
        4    1    3    3  502    0 -0.29204957775E+03  0.20720870211E+03 -0.14295718356E+04  0.14737386634E+04  0.12699999809E+01 0. -1.
       -4    1    3    3    0  502  0.29204957775E+03 -0.20720870211E+03 -0.38706209589E+02  0.36017799163E+03  0.12699999809E+01 0.  1.
</event>
<event>
 5   0  0.6245176E-04  0.1099137E+04  0.7818609E-02  0.9206034E-01
        2   -1    0    0  501    0  0.00000000000E+00  0.00000000000E+00  0.77823665988E+03  0.77823665988E+03  0.25500000920E-02 0. -1.
       -2   -1    0    0    0  501  0.00000000000E+00  0.00000000000E+00 -0.38808925134E+03  0.38808925135E+03  0.25500000920E-02 0.  1.
    10030    2    1    2    0    0  0.00000000000E+00  0.00000000000E+00  0.39014740854E+03  0.11663259112E+04  0.10991365388E+04 0.  0.
        5    1    3    3  502    0  0.48333277860E+03 -0.21870843425E+03  0.34722364669E+03  0.63405859737E+03  0.46999998093E+01 0. -1.
       -5    1    3    3    0  502 -0.48333277860E+03  0.21870843425E+03  0.42923761853E+02  0.53226731386E+03  0.46999998093E+01 0.  1.
</event>
<event>
 5   0  0.6109149E-04  0.1104479E+04  0.7818609E-02  0.9200837E-01
       -2   -1    0    0    0  501  0.00000000000E+00  0.00000000000E+00  0.55539066648E+03  0.55539066648E+03  0.25500000920E-02 0.  1.
        2   -1    0    0  501    0  0.00000000000E+00  0.00000000000E+00 -0.54910620858E+03  0.54910620859E+03  0.25500000920E-02 0. -1.
    10030    2    1    2    0    0  0.00000000000E+00  0.00000000000E+00  0.62844578905E+01  0.11044968751E+04  0.11044789960E+04 0.  0.
        1    1    3    3  502    0 -0.26417149597E+03  0.18302230174E+03  0.45224271951E+03  0.55480376674E+03  0.50400001928E-02 0.  1.
       -1    1    3    3    0  502  0.26417149597E+03 -0.18302230174E+03 -0.44595826162E+03  0.54969310833E+03  0.50400001928E-02 0. -1.
</event>
<event>
 5   0  0.3657529E-04  0.1104107E+04  0.7818609E-02  0.9201198E-01
       -1   -1    0    0    0  501  0.00000000000E+00  0.00000000000E+00  0.82189719628E+03  0.82189719630E+03  0.50400001928E-02 0. -1.
        1   -1    0    0  501    0  0.00000000000E+00  0.00000000000E+00 -0.37080429650E+03  0.37080429653E+03  0.50400001928E-02 0.  1.
    10030    2    1    2    0    0  0.00000000000E+00  0.00000000000E+00  0.45109289978E+03  0.11927014928E+04  0.11041069001E+04 0.  0.
        4    1    3    3  502    0 -0.20473792029E+03 -0.66073518720E+02 -0.32365603355E+03  0.38863629120E+03  0.12699999809E+01 0.  1.
       -4    1    3    3    0  502  0.20473792029E+03  0.66073518720E+02  0.77474893333E+03  0.80406520164E+03  0.12699999809E+01 0. -1.
</event>
<event>
 5   0  0.6109149E-04  0.1099989E+04  0.7818609E-02  0.9205203E-01
        2   -1    0    0  501    0  0.00000000000E+00  0.00000000000E+00  0.20644831716E+04  0.20644831716E+04  0.25500000920E-02 0.  1.
       -2   -1    0    0    0  501  0.00000000000E+00  0.00000000000E+00 -0.14652278336E+03  0.14652278339E+03  0.25500000920E-02 0. -1.
    10030    2    1    2    0    0  0.00000000000E+00  0.00000000000E+00  0.19179603883E+04  0.22110059550E+04  0.10999887646E+04 0.  0.
        1    1    3    3  502    0 -0.48944177776E+03  0.22590928697E+03  0.11782993627E+04  0.12957536988E+04  0.50400001928E-02 0. -1.
       -1    1    3    3    0  502  0.48944177776E+03 -0.22590928697E+03  0.73966102554E+03  0.91525225621E+03  0.50400001928E-02 0.  1.
</event>
<event>
 5   0  0.3642161E-04  0.1098519E+04  0.7818609E-02  0.9206637E-01
        1   -1    0    0  501    0  0.00000000000E+00  0.00000000000E+00  0.10267370882E+04  0.10267370882E+04  0.50400001928E-02 0.  1.
       -1   -1    0    0    0  501  0.00000000000E+00  0.00000000000E+00 -0.29382979446E+03  0.29382979450E+03  0.50400001928E-02 0. -1.
    10030    2    1    2    0    0  0.00000000000E+00  0.00000000000E+00  0.73290729373E+03  0.13205668827E+04  0.10985189077E+04 0.  0.
        2    1    3    3  502    0  0.11679686175E+03  0.47442346872E+03  0.66810739212E+03  0.82769959647E+03  0.25500000920E-02 0.  1.
       -2    1    3    3    0  502 -0.11679686175E+03 -0.47442346872E+03  0.64799901616E+02  0.49286728624E+03  0.25500000920E-02 0. -1.
</event>
<event>
 5   0  0.5948818E-04  0.1101693E+04  0.7818609E-02  0.9203544E-01
        2   -1    0    0  501    0  0.00000000000E+00  0.00000000000E+00  0.12608700071E+04  0.12608700071E+04  0.25500000920E-02 0. -1.
       -2   -1    0    0    0  501  0.00000000000E+00  0.00000000000E+00 -0.24065257457E+03  0.24065257458E+03  0.25500000920E-02 0.  1.
    10030    2    1    2    0    0  0.00000000000E+00  0.00000000000E+00  0.10202174326E+04  0.15015225817E+04  0.11016925405E+04 0.  0.
        3    1    3    3  502    0 -0.98049572813E+02 -0.54038086469E+03  0.56803545666E+03  0.79011991994E+03  0.10100000352E+00 0.  1.
       -3    1    3    3    0  502  0.98049572813E+02  0.54038086469E+03  0.45218197590E+03  0.71140266178E+03  0.10100000352E+00 0. -1.
</event>
<event>
 5   0  0.3657529E-04  0.1097517E+04  0.7818609E-02  0.9207616E-01
        1   -1    0    0  501    0  0.00000000000E+00  0.00000000000E+00  0.15708538075E+04  0.15708538075E+04  0.50400001928E-02 0. -1.
       -1   -1    0    0    0  501  0.00000000000E+00  0.00000000000E+00 -0.19170197856E+03  0.19170197863E+03  0.50400001928E-02 0.  1.
    10030    2    1    2    0    0  0.00000000000E+00  0.00000000000E+00  0.13791518289E+04  0.17625557861E+04  0.10975168026E+04 0.  0.
        4    1    3    3  502    0  0.21629668590E+02 -0.49709077219E+03  0.31788604202E+03  0.59044070572E+03  0.12699999809E+01 0.  1.
       -4    1    3    3    0  502 -0.21629668590E+02  0.49709077219E+03  0.10612657869E+04  0.11721150804E+04  0.12699999809E+01 0. -1.
</event>
<event>
 5   0  0.3657529E-04  0.1098624E+04  0.7818609E-02  0.9206534E-01
        1   -1    0    0  501    0  0.00000000000E+00  0.00000000000E+00  0.54071222644E+03  0.54071222647E+03  0.50400001928E-02 0.  1.
       -1   -1    0    0    0  501  0.00000000000E+00  0.00000000000E+00 -0.55804835636E+03  0.55804835638E+03  0.50400001928E-02 0. -1.
    10030    2    1    2    0    0  0.00000000000E+00  0.00000000000E+00 -0.17336129912E+02  0.10987605828E+04  0.10986238105E+04 0.  0.
        4    1    3    3  502    0 -0.14069278288E+03  0.42226972913E+03  0.31329711760E+03  0.54430035834E+03  0.12699999809E+01 0.  1.
       -4    1    3    3    0  502  0.14069278288E+03 -0.42226972913E+03 -0.33063324751E+03  0.55446022450E+03  0.12699999809E+01 0. -1.
</event>
<event>
 5   0  0.6109149E-04  0.1112582E+04  0.7818609E-02  0.9193014E-01
        2   -1    0    0  501    0  0.00000000000E+00  0.00000000000E+00  0.78257600922E+03  0.78257600923E+03  0.25500000920E-02 0. -1.
       -2   -1    0    0    0  501  0.00000000000E+00  0.00000000000E+00 -0.39543742838E+03  0.39543742839E+03  0.25500000920E-02 0.  1.
    10030    2    1    2    0    0  0.00000000000E+00  0.00000000000E+00  0.38713858084E+03  0.11780134376E+04  0.11125823019E+04 0.  0.
        1    1    3    3  502    0 -0.51891104897E+03 -0.20994998622E+02 -0.17530950036E+02  0.51963140873E+03  0.50400001928E-02 0.  1.
       -1    1    3    3    0  502  0.51891104897E+03  0.20994998622E+02  0.40466953088E+03  0.65838202888E+03  0.50400001928E-02 0. -1.
</event>
<event>
 5   0  0.6264830E-04  0.1099880E+04  0.7818609E-02  0.9205309E-01
        2   -1    0    0  501    0  0.00000000000E+00  0.00000000000E+00  0.21727397805E+04  0.21727397805E+04  0.25500000920E-02 0.  1.
       -2   -1    0    0    0  501  0.00000000000E+00  0.00000000000E+00 -0.13919469732E+03  0.13919469734E+03  0.25500000920E-02 0. -1.
    10030    2    1    2    0    0  0.00000000000E+00  0.00000000000E+00  0.20335450832E+04  0.23119344779E+04  0.10998797318E+04 0.  0.
        4    1    3    3  502    0 -0.87748980730E+02 -0.49357392249E+03  0.14920132202E+04  0.15739822625E+04  0.12699999809E+01 0. -1.
       -4    1    3    3    0  502  0.87748980730E+02  0.49357392249E+03  0.54153186301E+03  0.73795221535E+03  0.12699999809E+01 0.  1.
</event>
<event>
 5   0  0.3523525E-04  0.1100235E+04  0.7818609E-02  0.9204962E-01
       -1   -1    0    0    0  501  0.00000000000E+00  0.00000000000E+00  0.63498841150E+03  0.63498841152E+03  0.50400001928E-02 0.  1.
        1   -1    0    0  501    0  0.00000000000E+00  0.00000000000E+00 -0.47659062090E+03  0.47659062093E+03  0.50400001928E-02 0. -1.
    10030    2    1    2    0    0  0.00000000000E+00  0.00000000000E+00  0.15839779060E+03  0.11115790325E+04  0.11002354681E+04 0.  0.
        5    1    3    3  502    0 -0.41810516320E+03 -0.63988765524E+01  0.44031171572E+03  0.60724737144E+03  0.46999998093E+01 0.  1.
       -5    1    3    3    0  502  0.41810516320E+03  0.63988765524E+01 -0.28191392512E+03  0.50433166101E+03  0.46999998093E+01 0. -1.
</event>
<event>
 5   0  0.6109149E-04  0.1100232E+04  0.7818609E-02  0.9204966E-01
       -2   -1    0    0    0  501  0.00000000000E+00  0.00000000000E+00  0.27403174953E+03  0.27403174954E+03  0.25500000920E-02 0.  1.
        2   -1    0    0  501    0  0.00000000000E+00  0.00000000000E+00 -0.11043519932E+04  0.11043519932E+04  0.25500000920E-02 0. -1.
    10030    2    1    2    0    0  0.00000000000E+00  0.00000000000E+00 -0.83032024362E+03  0.13783837427E+04  0.11002318097E+04 0.  0.
        1    1    3    3  502    0 -0.31362244950E+03  0.54694180125E+02  0.14690034048E+03  0.35061403883E+03  0.50400001928E-02 0.  1.
       -1    1    3    3    0  502  0.31362244950E+03 -0.54694180125E+02 -0.97722058410E+03  0.10277697039E+04  0.50400001928E-02 0. -1.
</event>
<event>
 5   0  0.5948818E-04  0.1101656E+04  0.7818609E-02  0.9203579E-01
        2   -1    0    0  501    0  0.00000000000E+00  0.00000000000E+00  0.12611115810E+04  0.12611115810E+04  0.25500000920E-02 0. -1.
       -2   -1    0    0    0  501  0.00000000000E+00  0.00000000000E+00 -0.24059052558E+03  0.24059052560E+03  0.25500000920E-02 0.  1.
    10030    2    1    2    0    0  0.00000000000E+00  0.00000000000E+00  0.10205210554E+04  0.15017021066E+04  0.11016560227E+04 0.  0.
        3    1    3    3  502    0 -0.46670137298E+03 -0.20475484964E+03  0.22537983057E+03  0.55725290328E+03  0.10100000352E+00 0.  1.
       -3    1    3    3    0  502  0.46670137298E+03  0.20475484964E+03  0.79514122486E+03  0.94444920333E+03  0.10100000352E+00 0. -1.
</event>
<event>
 5   0  0.3423758E-04  0.1097266E+04  0.7818609E-02  0.9207861E-01
       -1   -1    0    0    0  501  0.00000000000E+00  0.00000000000E+00  0.40587990238E+03  0.40587990241E+03  0.50400001928E-02 0.  1.
        1   -1    0    0  501    0  0.00000000000E+00  0.00000000000E+00 -0.74159372311E+03  0.74159372312E+03  0.50400001928E-02 0. -1.
    10030    2    1    2    0    0  0.00000000000E+00  0.00000000000E+00 -0.33571382073E+03  0.11474736255E+04  0.10972656706E+04 0.  0.
        1    1    3    3  502    0  0.16245760423E+02  0.22819539089E+02 -0.74084541269E+03  0.74137479160E+03  0.50400001928E-02 0. -1.
       -1    1    3    3    0  502 -0.16245760423E+02 -0.22819539089E+02  0.40513159196E+03  0.40609883394E+03  0.50400001928E-02 0.  1.
</event>
<event>
 5   0  0.3657529E-04  0.1099982E+04  0.7818609E-02  0.9205210E-01
       -1   -1    0    0    0  501  0.00000000000E+00  0.00000000000E+00  0.14636606901E+03  0.14636606910E+03  0.50400001928E-02 0. -1.
        1   -1    0    0  501    0  0.00000000000E+00  0.00000000000E+00 -0.20666677717E+04  0.20666677717E+04  0.50400001928E-02 0.  1.
    10030    2    1    2    0    0  0.00000000000E+00  0.00000000000E+00 -0.19203017027E+04  0.22130338408E+04  0.10999818868E+04 0.  0.
        4    1    3    3  502    0  0.43270931186E+03 -0.64724940888E+02 -0.28967244743E+03  0.52472698258E+03  0.12699999809E+01 0.  1.
       -4    1    3    3    0  502 -0.43270931186E+03  0.64724940888E+02 -0.16306292553E+04  0.16883068582E+04  0.12699999809E+01 0. -1.
</event>
<event>
 5   0  0.3621403E-04  0.1100335E+04  0.7818609E-02  0.9204865E-01
        1   -1    0    0  501    0  0.00000000000E+00  0.00000000000E+00  0.75533447241E+03  0.75533447243E+03  0.50400001928E-02 0.  1.
       -1   -1    0    0    0  501  0.00000000000E+00  0.00000000000E+00 -0.40072879221E+03  0.40072879224E+03  0.50400001928E-02 0. -1.
    10030    2    1    2    0    0  0.00000000000E+00  0.00000000000E+00  0.35460568020E+03  0.11560632647E+04  0.11003349869E+04 0.  0.
        3    1    3    3  502    0 -0.40135763814E+03  0.31085687213E+03  0.40009025557E+03  0.64636844868E+03  0.10100000352E+00 0. -1.
       -3    1    3    3    0  502  0.40135763814E+03 -0.31085687213E+03 -0.45484575371E+02  0.50969481599E+03  0.10100000352E+00 0.  1.
</event>
<event>
 5   0  0.3523525E-04  0.1120290E+04  0.7818609E-02  0.9185639E-01
       -1   -1    0    0    0  501  0.00000000000E+00  0.00000000000E+00  0.70569535470E+03  0.70569535472E+03  0.50400001928E-02 0.  1.
        1   -1    0    0  501    0  0.00000000000E+00  0.00000000000E+00 -0.44461432212E+03  0.44461432215E+03  0.50400001928E-02 0. -1.
    10030    2    1    2    0    0  0.00000000000E+00  0.00000000000E+00  0.26108103258E+03  0.11503096769E+04  0.11202897157E+04 0.  0.
        5    1    3    3  502    0  0.24503204875E+03 -0.68864157147E+02 -0.38178591845E+03  0.45887422523E+03  0.46999998093E+01 0. -1.
       -5    1    3    3    0  502 -0.24503204875E+03  0.68864157147E+02  0.64286695104E+03  0.69143545164E+03  0.46999998093E+01 0.  1.
</event>
<event>
 5   0  0.2403875E-04  0.1092282E+04  0.7818609E-02  0.9212747E-01
        3   -1    0    0  501    0  0.00000000000E+00  0.00000000000E+00  0.12379843415E+04  0.12379843456E+04  0.10100000352E+00 0. -1.
       -3   -1    0    0    0  501  0.00000000000E+00  0.00000000000E+00 -0.24093207863E+03  0.24093209980E+03  0.10100000352E+00 0.  1.
    10030    2    1    2    0    0  0.00000000000E+00  0.00000000000E+00  0.99705226283E+03  0.14789164454E+04  0.10922823067E+04 0.  0.
        1    1    3    3  502    0 -0.41237571146E+03 -0.34917122255E+03  0.39109323571E+03  0.66702937649E+03  0.50400001928E-02 0.  1.
       -1    1    3    3    0  502  0.41237571146E+03  0.34917122255E+03  0.60595902712E+03  0.81188706889E+03  0.50400001928E-02 0. -1.
</event>
<event>
 5   0  0.3621403E-04  0.1099435E+04  0.7818609E-02  0.9205743E-01
        1   -1    0    0  501    0  0.00000000000E+00  0.00000000000E+00  0.16116624318E+04  0.16116624318E+04  0.50400001928E-02 0.  1.
       -1   -1    0    0    0  501  0.00000000000E+00  0.00000000000E+00 -0.18750151061E+03  0.18750151068E+03  0.50400001928E-02 0. -1.
    10030    2    1    2    0    0  0.00000000000E+00  0.00000000000E+00  0.14241609211E+04  0.17991639424E+04  0.10994346558E+04 0.  0.
        3    1    3    3  502    0 -0.67418220981E+02 -0.22670357378E+03 -0.99981018580E+02  0.25677994696E+03  0.10100000352E+00 0. -1.
       -3    1    3    3    0  502  0.67418220981E+02  0.22670357378E+03  0.15241419397E+04  0.15423839955E+04  0.10100000352E+00 0.  1.
</event>
<event>
 5   0  0.6264830E-04  0.1100947E+04  0.7818609E-02  0.9204269E-01
       -2   -1    0    0    0  501  0.00000000000E+00  0.00000000000E+00  0.19881531781E+03  0.19881531782E+03  0.25500000920E-02 0.  1.
        2   -1    0    0  501    0  0.00000000000E+00  0.00000000000E+00 -0.15241344047E+04  0.15241344047E+04  0.25500000920E-02 0. -1.
    10030    2    1    2    0    0  0.00000000000E+00  0.00000000000E+00 -0.13253190869E+04  0.17229497225E+04  0.11009473485E+04 0.  0.
        4    1    3    3  502    0  0.10435051586E+03 -0.18247389566E+03 -0.14588493865E+04  0.14739161775E+04  0.12699999809E+01 0. -1.
       -4    1    3    3    0  502 -0.10435051586E+03  0.18247389566E+03  0.13353029961E+03  0.24903354507E+03  0.12699999809E+01 0.  1.
</event>
<event>
 5   0  0.6109149E-04  0.1097295E+04  0.7818609E-02  0.9207833E-01
       -2   -1    0    0    0  501  0.00000000000E+00  0.00000000000E+00  0.67162339865E+03  0.67162339866E+03  0.25500000920E-02 0. -1.
        2   -1    0    0  501    0  0.00000000000E+00  0.00000000000E+00 -0.44818849796E+03  0.44818849797E+03  0.25500000920E-02 0.  1.
    10030    2    1    2    0    0  0.00000000000E+00  0.00000000000E+00  0.22343490070E+03  0.11198118966E+04  0.10972946409E+04 0.  0.
        1    1    3    3  502    0  0.16719358182E+03 -0.78095289238E+02 -0.41556823906E+03  0.45469718423E+03  0.50400001928E-02 0.  1.
       -1    1    3    3    0  502 -0.16719358182E+03  0.78095289238E+02  0.63900313976E+03  0.66511471240E+03  0.50400001928E-02 0. -1.
</event>
<event>
 5   0  0.3642161E-04  0.1099564E+04  0.7818609E-02  0.9205617E-01
       -1   -1    0    0    0  501  0.00000000000E+00  0.00000000000E+00  0.27693329135E+03  0.27693329140E+03  0.50400001928E-02 0.  1.
        1   -1    0    0  501    0  0.00000000000E+00  0.00000000000E+00 -0.10914544257E+04  0.10914544257E+04  0.50400001928E-02 0. -1.
    10030    2    1    2    0    0  0.00000000000E+00  0.00000000000E+00 -0.81452113438E+03  0.13683877171E+04  0.10995636708E+04 0.  0.
        2    1    3    3  502    0 -0.68871034083E+02 -0.34716931206E+02  0.27016736259E+03  0.28096065287E+03  0.25500000920E-02 0.  1.
       -2    1    3    3    0  502  0.68871034083E+02  0.34716931206E+02 -0.10846884970E+04  0.10874270643E+04  0.25500000920E-02 0. -1.
</event>
<event>
 5   0  0.6245176E-04  0.1110615E+04  0.7818609E-02  0.9194907E-01
        2   -1    0    0  501    0  0.00000000000E+00  0.00000000000E+00  0.17464550666E+04  0.17464550666E+04  0.25500000920E-02 0. -1.
       -2   -1    0    0    0  501  0.00000000000E+00  0.00000000000E+00 -0.17656699763E+03  0.17656699765E+03  0.25500000920E-02 0.  1.
    10030    2    1    2    0    0  0.00000000000E+00  0.00000000000E+00  0.15698880689E+04  0.19230220642E+04  0.11106148345E+04 0.  0.
        5    1    3    3  502    0  0.26318491380E+03  0.91332132144E+02  0.16166672711E+04  0.16405008421E+04  0.46999998093E+01 0. -1.
       -5    1    3    3    0  502 -0.26318491380E+03 -0.91332132144E+02 -0.46779202208E+02  0.28252122216E+03  0.46999998093E+01 0.  1.
</event>
<event>
 5   0  0.3642161E-04  0.1098714E+04  0.7818609E-02  0.9206446E-01
        1   -1    0    0  501    0  0.00000000000E+00  0.00000000000E+00  0.11014888615E+04  0.11014888615E+04  0.50400001928E-02 0. -1.
       -1   -1    0    0    0  501  0.00000000000E+00  0.00000000000E+00 -0.27398656150E+03  0.27398656155E+03  0.50400001928E-02 0.  1.
    10030    2    1    2    0    0  0.00000000000E+00  0.00000000000E+00  0.82750230000E+03  0.13754754231E+04  0.10987140588E+04 0.  0.
        2    1    3    3  502    0 -0.12702589432E+03  0.14418764300E+03  0.10580427696E+04  0.10753511782E+04  0.25500000920E-02 0. -1.
       -2    1    3    3    0  502  0.12702589432E+03 -0.14418764300E+03 -0.23054046958E+03  0.30012424484E+03  0.25500000920E-02 0.  1.
</event>
<event>
 5   0  0.6412712E-04  0.1079834E+04  0.7818609E-02  0.9225073E-01
        2   -1    0    0  501    0  0.00000000000E+00  0.00000000000E+00  0.12931211486E+04  0.12931211486E+04  0.25500000920E-02 0. -1.
       -2   -1    0    0    0  501  0.00000000000E+00  0.00000000000E+00 -0.22543158401E+03  0.22543158403E+03  0.25500000920E-02 0.  1.
    10030    2    1    2    0    0  0.00000000000E+00  0.00000000000E+00  0.10676895646E+04  0.15185527326E+04  0.10798339666E+04 0.  0.
        2    1    3    3  502    0  0.25638275991E+03 -0.25733545950E+03 -0.27888819517E+02  0.36432326930E+03  0.25500000920E-02 0.  1.
       -2    1    3    3    0  502 -0.25638275991E+03  0.25733545950E+03  0.10955783841E+04  0.11542294633E+04  0.25500000920E-02 0. -1.
</event>
<event>
 5   0  0.5948818E-04  0.1099833E+04  0.7818609E-02  0.9205354E-01
       -2   -1    0    0    0  501  0.00000000000E+00  0.00000000000E+00  0.87443395880E+03  0.87443395880E+03  0.25500000920E-02 0. -1.
        2   -1    0    0  501    0  0.00000000000E+00  0.00000000000E+00 -0.34583331717E+03  0.34583331718E+03  0.25500000920E-02 0.  1.
    10030    2    1    2    0    0  0.00000000000E+00  0.00000000000E+00  0.52860064163E+03  0.12202672760E+04  0.10998334358E+04 0.  0.
        3    1    3    3  502    0  0.53391137715E+03  0.40349526194E+01  0.11823850789E+03  0.54686195190E+03  0.10100000352E+00 0. -1.
       -3    1    3    3    0  502 -0.53391137715E+03 -0.40349526194E+01  0.41036213374E+03  0.67340532408E+03  0.10100000352E+00 0.  1.
</event>
<event>
 5   0  0.2403875E-04  0.1101431E+04  0.7818609E-02  0.9203798E-01
       -3   -1    0    0    0  501  0.00000000000E+00  0.00000000000E+00  0.19407430779E+03  0.19407433407E+03  0.10100000352E+00 0. -1.
        3   -1    0    0  501    0  0.00000000000E+00  0.00000000000E+00 -0.15627406089E+04  0.15627406121E+04  0.10100000352E+00 0.  1.
    10030    2    1    2    0    0  0.00000000000E+00  0.00000000000E+00 -0.13686663011E+04  0.17568149462E+04  0.11014314829E+04 0.  0.
        2    1    3    3  502    0 -0.43413660592E+03 -0.29855303037E+03 -0.93993283847E+03  0.10775352641E+04  0.25500000920E-02 0.  1.
       -2    1    3    3    0  502  0.43413660592E+03  0.29855303037E+03 -0.42873346260E+03  0.67927968209E+03  0.25500000920E-02 0. -1.
</event>
<event>
 5   0  0.6109149E-04  0.1104605E+04  0.7818609E-02  0.9200716E-01
       -2   -1    0    0    0  501  0.00000000000E+00  0.00000000000E+00  0.47058831938E+03  0.47058831938E+03  0.25500000920E-02 0. -1.
        2   -1    0    0  501    0  0.00000000000E+00  0.00000000000E+00 -0.64820517038E+03  0.64820517038E+03  0.25500000920E-02 0.  1.
    10030    2    1    2    0    0  0.00000000000E+00  0.00000000000E+00 -0.17761685100E+03  0.11187934898E+04  0.11046045116E+04 0.  0.
        1    1    3    3  502    0  0.37515547500E+03 -0.36227550586E+03  0.95330664220E+02  0.53016328441E+03  0.50400001928E-02 0. -1.
       -1    1    3    3    0  502 -0.37515547500E+03  0.36227550586E+03 -0.27294751522E+03  0.58863020536E+03  0.50400001928E-02 0.  1.
</event>
<event>
 5   0  0.6264830E-04  0.1098793E+04  0.7818609E-02  0.9206369E-01
       -2   -1    0    0    0  501  0.00000000000E+00  0.00000000000E+00  0.98494608920E+02  0.98494608953E+02  0.25500000920E-02 0. -1.
        2   -1    0    0  501    0  0.00000000000E+00  0.00000000000E+00 -0.30644997325E+04  0.30644997325E+04  0.25500000920E-02 0.  1.
    10030    2    1    2    0    0  0.00000000000E+00  0.00000000000E+00 -0.29660051236E+04  0.31629943415E+04  0.10987933432E+04 0.  0.
        4    1    3    3  502    0 -0.57262673980E+02  0.41945194118E+03 -0.24909925636E+04  0.25267102148E+04  0.12699999809E+01 0.  1.
       -4    1    3    3    0  502  0.57262673980E+02 -0.41945194118E+03 -0.47501255999E+03  0.63628412666E+03  0.12699999809E+01 0. -1.
</event>
<event>
 5   0  0.3523525E-04  0.1099782E+04  0.7818609E-02  0.9205405E-01
       -1   -1    0    0    0  501  0.00000000000E+00  0.00000000000E+00  0.63570779918E+03  0.63570779920E+03  0.50400001928E-02 0.  1.
        1   -1    0    0  501    0  0.00000000000E+00  0.00000000000E+00 -0.47565852967E+03  0.47565852970E+03  0.50400001928E-02 0. -1.
    10030    2    1    2    0    0  0.00000000000E+00  0.00000000000E+00  0.16004926951E+03  0.11113663289E+04  0.10997815003E+04 0.  0.
        5    1    3    3  502    0  0.11922005234E+03 -0.14661452506E+03 -0.44179498401E+03  0.48053526170E+03  0.46999998093E+01 0. -1.
       -5    1    3    3    0  502 -0.11922005234E+03  0.14661452506E+03  0.60184425352E+03  0.63083106719E+03  0.46999998093E+01 0.  1.
</event>
<event>
 5   0  0.3642161E-04  0.1099504E+04  0.7818609E-02  0.9205676E-01
        1   -1    0    0  501    0  0.00000000000E+00  0.00000000000E+00  0.82006106226E+03  0.82006106227E+03  0.50400001928E-02 0.  1.
       -1   -1    0    0    0  501  0.00000000000E+00  0.00000000000E+00 -0.36854211645E+03  0.36854211648E+03  0.50400001928E-02 0. -1.
    10030    2    1    2    0    0  0.00000000000E+00  0.00000000000E+00  0.45151894581E+03  0.11886031788E+04  0.10995035962E+04 0.  0.
        2    1    3    3  502    0 -0.32963035380E+03  0.40373486503E+03  0.36751097566E+02  0.52250230102E+03  0.25500000920E-02 0. -1.
       -2    1    3    3    0  502  0.32963035380E+03 -0.40373486503E+03  0.41476784824E+03  0.66610087774E+03  0.25500000920E-02 0.  1.
</event>
<event>
 5   0  0.3523525E-04  0.1097956E+04  0.7818609E-02  0.9207186E-01
       -1   -1    0    0    0  501  0.00000000000E+00  0.00000000000E+00  0.30034727110E+03  0.30034727115E+03  0.50400001928E-02 0.  1.
        1   -1    0    0  501    0  0.00000000000E+00  0.00000000000E+00 -0.10034280222E+04  0.10034280222E+04  0.50400001928E-02 0. -1.
    10030    2    1    2    0    0  0.00000000000E+00  0.00000000000E+00 -0.70308075105E+03  0.13037752933E+04  0.10979560433E+04 0.  0.
        5    1    3    3  502    0  0.33518479996E+03 -0.40667992116E+03 -0.53402805921E+03  0.75029691884E+03  0.46999998093E+01 0. -1.
       -5    1    3    3    0  502 -0.33518479996E+03  0.40667992116E+03 -0.16905269184E+03  0.55347837448E+03  0.46999998093E+01 0.  1.
</event>
<event>
 5   0  0.5948818E-04  0.1100517E+04  0.7818609E-02  0.9204688E-01
        2   -1    0    0  501    0  0.00000000000E+00  0.00000000000E+00  0.10468854741E+04  0.10468854741E+04  0.25500000920E-02 0. -1.
       -2   -1    0    0    0  501  0.00000000000E+00  0.00000000000E+00 -0.28922391642E+03  0.28922391643E+03  0.25500000920E-02 0.  1.
    10030    2    1    2    0    0  0.00000000000E+00  0.00000000000E+00  0.75766155764E+03  0.13361093905E+04  0.11005168183E+04 0.  0.
        3    1    3    3  502    0  0.78919403949E+02 -0.62905890952E+02  0.10355529289E+04  0.10404591785E+04  0.10100000352E+00 0. -1.
       -3    1    3    3    0  502 -0.78919403949E+02  0.62905890952E+02 -0.27789137124E+03  0.29565021199E+03  0.10100000352E+00 0.  1.
</event>
<event>
 5   0  0.6412712E-04  0.1099837E+04  0.7818609E-02  0.9205351E-01
       -2   -1    0    0    0  501  0.00000000000E+00  0.00000000000E+00  0.39253080354E+03  0.39253080355E+03  0.25500000920E-02 0.  1.
        2   -1    0    0  501    0  0.00000000000E+00  0.00000000000E+00 -0.77041179571E+03  0.77041179571E+03  0.25500000920E-02 0. -1.
    10030    2    1    2    0    0  0.00000000000E+00  0.00000000000E+00 -0.37788099217E+03  0.11629425993E+04  0.10998370083E+04 0.  0.
        2    1    3    3  502    0 -0.47562056418E+03 -0.17814773495E+03 -0.41189124672E+03  0.65391584754E+03  0.25500000920E-02 0. -1.
       -2    1    3    3    0  502  0.47562056418E+03  0.17814773495E+03  0.34010254545E+02  0.50902675171E+03  0.25500000920E-02 0.  1.
</event>
<event>
 5   0  0.6245176E-04  0.1104305E+04  0.7818609E-02  0.9201006E-01
        2   -1    0    0  501    0  0.00000000000E+00  0.00000000000E+00  0.10725294154E+04  0.10725294154E+04  0.25500000920E-02 0.  1.
       -2   -1    0    0    0  501  0.00000000000E+00  0.00000000000E+00 -0.28425529781E+03  0.28425529782E+03  0.25500000920E-02 0. -1.
    10030    2    1    2    0    0  0.00000000000E+00  0.00000000000E+00  0.78827411760E+03  0.13567847132E+04  0.11043046109E+04 0.  0.
        5    1    3    3  502    0  0.59963877130E+02  0.60285364132E+02 -0.27613817948E+03  0.28897123707E+03  0.46999998093E+01 0. -1.
       -5    1    3    3    0  502 -0.59963877130E+02 -0.60285364132E+02  0.10644122971E+04  0.10678134762E+04  0.46999998093E+01 0.  1.
</event>
<event>
 5   0  0.3657529E-04  0.1099601E+04  0.7818609E-02  0.9205581E-01
        1   -1    0    0  501    0  0.00000000000E+00  0.00000000000E+00  0.52417356143E+03  0.52417356145E+03  0.50400001928E-02 0. -1.
       -1   -1    0    0    0  501  0.00000000000E+00  0.00000000000E+00 -0.57668017293E+03  0.57668017295E+03  0.50400001928E-02 0.  1.
    10030    2    1    2    0    0  0.00000000000E+00  0.00000000000E+00 -0.52506611498E+02  0.11008537344E+04  0.10996008368E+04 0.  0.
        4    1    3    3  502    0  0.39723608352E+03 -0.15268511090E+03  0.32223761156E+03  0.53380515204E+03  0.12699999809E+01 0. -1.
       -4    1    3    3    0  502 -0.39723608352E+03  0.15268511090E+03 -0.37474422306E+03  0.56704858236E+03  0.12699999809E+01 0.  1.
</event>
<event>
 5   0  0.3423758E-04  0.1087188E+04  0.7818609E-02  0.9217770E-01
       -1   -1    0    0    0  501  0.00000000000E+00  0.00000000000E+00  0.45683233846E+03  0.45683233849E+03  0.50400001928E-02 0.  1.
        1   -1    0    0  501    0  0.00000000000E+00  0.00000000000E+00 -0.64683389344E+03  0.64683389346E+03  0.50400001928E-02 0. -1.
    10030    2    1    2    0    0  0.00000000000E+00  0.00000000000E+00 -0.19000155497E+03  0.11036662319E+04  0.10871883740E+04 0.  0.
        1    1    3    3  502    0  0.38239497958E+03  0.13661271280E+03 -0.46187229695E+03  0.61499184744E+03  0.50400001928E-02 0. -1.
       -1    1    3    3    0  502 -0.38239497958E+03 -0.13661271280E+03  0.27187074197E+03  0.48867438451E+03  0.50400001928E-02 0.  1.
</event>
<event>
 5   0  0.6412712E-04  0.1099379E+04  0.7818609E-02  0.9205798E-01
        2   -1    0    0  501    0  0.00000000000E+00  0.00000000000E+00  0.11636115069E+04  0.11636115069E+04  0.25500000920E-02 0.  1.
       -2   -1    0    0    0  501  0.00000000000E+00  0.00000000000E+00 -0.25967293361E+03  0.25967293362E+03  0.25500000920E-02 0. -1.
    10030    2    1    2    0    0  0.00000000000E+00  0.00000000000E+00  0.90393857329E+03  0.14232844405E+04  0.10993787584E+04 0.  0.
        2    1    3    3  502    0 -0.11595118083E+03  0.53484682364E+02  0.11441441650E+04  0.11512476528E+04  0.25500000920E-02 0.  1.
       -2    1    3    3    0  502  0.11595118083E+03 -0.53484682364E+02 -0.24020559175E+03  0.27203678777E+03  0.25500000920E-02 0. -1.
</event>
<event>
 5   0  0.2403875E-04  0.1100984E+04  0.7818609E-02  0.9204233E-01
       -3   -1    0    0    0  501  0.00000000000E+00  0.00000000000E+00  0.99890098894E+03  0.99890099405E+03  0.10100000352E+00 0. -1.
        3   -1    0    0  501    0  0.00000000000E+00  0.00000000000E+00 -0.30337494193E+03  0.30337495875E+03  0.10100000352E+00 0.  1.
    10030    2    1    2    0    0  0.00000000000E+00  0.00000000000E+00  0.69552604701E+03  0.13022759528E+04  0.11009841848E+04 0.  0.
        2    1    3    3  502    0  0.11783463887E+03 -0.50587625583E+03  0.56343317510E+03  0.76632416845E+03  0.25500000920E-02 0. -1.
       -2    1    3    3    0  502 -0.11783463887E+03  0.50587625583E+03  0.13209287190E+03  0.53595178435E+03  0.25500000920E-02 0.  1.
</event>
<event>
 5   0  0.3657529E-04  0.1111151E+04  0.7818609E-02  0.9194391E-01
        1   -1    0    0  501    0  0.00000000000E+00  0.00000000000E+00  0.75386580287E+03  0.75386580288E+03  0.50400001928E-02 0.  1.
       -1   -1    0    0    0  501  0.00000000000E+00  0.00000000000E+00 -0.40944162335E+03  0.40944162338E+03  0.50400001928E-02 0. -1.
    10030    2    1    2    0    0  0.00000000000E+00  0.00000000000E+00  0.34442417951E+03  0.11633074263E+04  0.11111508235E+04 0.  0.
        4    1    3    3  502    0  0.47675736290E+03  0.14243574952E+03 -0.86525768574E+02  0.50504836140E+03  0.12699999809E+01 0. -1.
       -4    1    3    3    0  502 -0.47675736290E+03 -0.14243574952E+03  0.43094994809E+03  0.65825906487E+03  0.12699999809E+01 0.  1.
</event>
<event>
 5   0  0.6264830E-04  0.1100246E+04  0.7818609E-02  0.9204952E-01
       -2   -1    0    0    0  501  0.00000000000E+00  0.00000000000E+00  0.24707222415E+03  0.24707222416E+03  0.25500000920E-02 0. -1.
        2   -1    0    0  501    0  0.00000000000E+00  0.00000000000E+00 -0.12248867745E+04  0.12248867745E+04  0.25500000920E-02 0.  1.
    10030    2    1    2    0    0  0.00000000000E+00  0.00000000000E+00 -0.97781455031E+03  0.14719589986E+04  0.11002463355E+04 0.  0.
        4    1    3    3  502    0 -0.71115336609E+01 -0.20951678109E+03  0.19153654037E+03  0.28396428414E+03  0.12699999809E+01 0. -1.
       -4    1    3    3    0  502  0.71115336609E+01  0.20951678109E+03 -0.11693510907E+04  0.11879947145E+04  0.12699999809E+01 0.  1.
</event>
<event>
 5   0  0.3523525E-04  0.1099494E+04  0.7818609E-02  0.9205686E-01
       -1   -1    0    0    0  501  0.00000000000E+00  0.00000000000E+00  0.11109231419E+03  0.11109231431E+03  0.50400001928E-02 0. -1.
        1   -1    0    0  501    0  0.00000000000E+00  0.00000000000E+00 -0.27204544596E+04  0.27204544596E+04  0.50400001928E-02 0.  1.
    10030    2    1    2    0    0  0.00000000000E+00  0.00000000000E+00 -0.26093621454E+04  0.28315467739E+04  0.10994936684E+04 0.  0.
        5    1    3    3  502    0  0.34248601613E+03 -0.40814145960E+03 -0.16532861245E+04  0.17370242433E+04  0.46999998093E+01 0.  1.
       -5    1    3    3    0  502 -0.34248601613E+03  0.40814145960E+03 -0.95607602089E+03  0.10945225306E+04  0.46999998093E+01 0. -1.
</event>
<event>
 5   0  0.5948818E-04  0.1101025E+04  0.7818609E-02  0.9204193E-01
       -2   -1    0    0    0  501  0.00000000000E+00  0.00000000000E+00  0.31109276252E+03  0.31109276253E+03  0.25500000920E-02 0. -1.
        2   -1    0    0  501    0  0.00000000000E+00  0.00000000000E+00 -0.97419242375E+03  0.97419242376E+03  0.25500000920E-02 0.  1.
    10030    2    1    2    0    0  0.00000000000E+00  0.00000000000E+00 -0.66309966124E+03  0.12852851863E+04  0.11010253627E+04 0.  0.
        3    1    3    3  502    0  0.14100805074E+03  0.51133847347E+03 -0.15953294972E+03  0.55389626924E+03  0.10100000352E+00 0. -1.
       -3    1    3    3    0  502 -0.14100805074E+03 -0.51133847347E+03 -0.50356671152E+03  0.73138891705E+03  0.10100000352E+00 0.  1.
</event>
<event>
 5   0  0.6109149E-04  0.1085174E+04  0.7818609E-02  0.9219764E-01
        2   -1    0    0  501    0  0.00000000000E+00  0.00000000000E+00  0.58900852200E+03  0.58900852200E+03  0.25500000920E-02 0.  1.
       -2   -1    0    0    0  501  0.00000000000E+00  0.00000000000E+00 -0.49982408822E+03  0.49982408823E+03  0.25500000920E-02 0. -1.
    10030    2    1    2    0    0  0.00000000000E+00  0.00000000000E+00  0.89184433773E+02  0.10888326102E+04  0.10851739906E+04 0.  0.
        1    1    3    3  502    0  0.42591816279E+03 -0.49778573779E+02  0.37815318475E+03  0.57173771868E+03  0.50400001928E-02 0.  1.
       -1    1    3    3    0  502 -0.42591816279E+03  0.49778573779E+02 -0.28896875098E+03  0.51709489155E+03  0.50400001928E-02 0. -1.
</event>
<event>
 5   0  0.3423758E-04  0.1101054E+04  0.7818609E-02  0.9204165E-01
       -1   -1    0    0    0  501  0.00000000000E+00  0.00000000000E+00  0.22497928138E+03  0.22497928144E+03  0.50400001928E-02 0.  1.
        1   -1    0    0  501    0  0.00000000000E+00  0.00000000000E+00 -0.13471468417E+04  0.13471468417E+04  0.50400001928E-02 0. -1.
    10030    2    1    2    0    0  0.00000000000E+00  0.00000000000E+00 -0.11221675604E+04  0.15721261232E+04  0.11010542737E+04 0.  0.
        1    1    3    3  502    0  0.37585938188E+03 -0.66692408606E+02  0.53231488266E+01  0.38176758407E+03  0.50400001928E-02 0.  1.
       -1    1    3    3    0  502 -0.37585938188E+03  0.66692408606E+02 -0.11274907092E+04  0.11903585391E+04  0.50400001928E-02 0. -1.
</event>
<event>
 5   0  0.2403875E-04  0.1099848E+04  0.7818609E-02  0.9205340E-01
       -3   -1    0    0    0  501  0.00000000000E+00  0.00000000000E+00  0.43394246113E+03  0.43394247289E+03  0.10100000352E+00 0.  1.
        3   -1    0    0  501    0  0.00000000000E+00  0.00000000000E+00 -0.69690474197E+03  0.69690474929E+03  0.10100000352E+00 0. -1.
    10030    2    1    2    0    0  0.00000000000E+00  0.00000000000E+00 -0.26296228084E+03  0.11308472222E+04  0.10998482981E+04 0.  0.
        3    1    3    3  502    0 -0.52104446920E+03 -0.48781747660E+02 -0.30520956089E+03  0.60582166027E+03  0.10100000352E+00 0. -1.
       -3    1    3    3    0  502  0.52104446920E+03  0.48781747660E+02  0.42247280046E+02  0.52502556191E+03  0.10100000352E+00 0.  1.
</event>
<event>
 5   0  0.3642161E-04  0.1099286E+04  0.7818609E-02  0.9205888E-01
       -1   -1    0    0    0  501  0.00000000000E+00  0.00000000000E+00  0.56178609701E+03  0.56178609703E+03  0.50400001928E-02 0. -1.
        1   -1    0    0  501    0  0.00000000000E+00  0.00000000000E+00 -0.53776251924E+03  0.53776251926E+03  0.50400001928E-02 0.  1.
    10030    2    1    2    0    0  0.00000000000E+00  0.00000000000E+00  0.24023577774E+02  0.10995486163E+04  0.10992861444E+04 0.  0.
        2    1    3    3  502    0 -0.29228696947E+03  0.45337627216E+03 -0.93492256952E+02  0.54746919438E+03  0.25500000920E-02 0. -1.
       -2    1    3    3    0  502  0.29228696947E+03 -0.45337627216E+03  0.11751583473E+03  0.55207942191E+03  0.25500000920E-02 0.  1.
</event>
<event>
 5   0  0.3657529E-04  0.1099716E+04  0.7818609E-02  0.9205468E-01
        1   -1    0    0  501    0  0.00000000000E+00  0.00000000000E+00  0.85595247614E+03  0.85595247616E+03  0.50400001928E-02 0. -1.
       -1   -1    0    0    0  501  0.00000000000E+00  0.00000000000E+00 -0.35322517571E+03  0.35322517575E+03  0.50400001928E-02 0.  1.
    10030    2    1    2    0    0  0.00000000000E+00  0.00000000000E+00  0.50272730043E+03  0.12091776519E+04  0.10997162613E+04 0.  0.
        4    1    3    3  502    0 -0.11726196438E+03 -0.51424376438E+03  0.80509289215E+02  0.53355447336E+03  0.12699999809E+01 0.  1.
       -4    1    3    3    0  502  0.11726196438E+03  0.51424376438E+03  0.42221801122E+03  0.67562317855E+03  0.12699999809E+01 0. -1.
</event>
<event>
 5   0  0.3657529E-04  0.1098730E+04  0.7818609E-02  0.9206430E-01
       -1   -1    0    0    0  501  0.00000000000E+00  0.00000000000E+00  0.39556760269E+03  0.39556760272E+03  0.50400001928E-02 0. -1.
        1   -1    0    0  501    0  0.00000000000E+00  0.00000000000E+00 -0.76295933658E+03  0.76295933660E+03  0.50400001928E-02 0.  1.
    10030    2    1    2    0    0  0.00000000000E+00  0.00000000000E+00 -0.36739173389E+03  0.11585269393E+04  0.10987301684E+04 0.  0.
        4    1    3    3  502    0 -0.36934943623E+03 -0.10657519105E+03  0.23012084474E+03  0.44803403160E+03  0.12699999809E+01 0. -1.
       -4    1    3    3    0  502  0.36934943623E+03  0.10657519105E+03 -0.59751257863E+03  0.71049290771E+03  0.12699999809E+01 0.  1.
</event>
<event>
 5   0  0.3423758E-04  0.1099746E+04  0.7818609E-02  0.9205440E-01
        1   -1    0    0  501    0  0.00000000000E+00  0.00000000000E+00  0.82003000514E+03  0.82003000516E+03  0.50400001928E-02 0. -1.
       -1   -1    0    0    0  501  0.00000000000E+00  0.00000000000E+00 -0.36871847290E+03  0.36871847294E+03  0.50400001928E-02 0.  1.
    10030    2    1    2    0    0  0.00000000000E+00  0.00000000000E+00  0.45131153224E+03  0.11887484781E+04  0.10997458093E+04 0.  0.
        1    1    3    3  502    0  0.23890823864E+03  0.25052136697E+03 -0.23614579624E+03  0.41905004344E+03  0.50400001928E-02 0.  1.
       -1    1    3    3    0  502 -0.23890823864E+03 -0.25052136697E+03  0.68745732848E+03  0.76969843465E+03  0.50400001928E-02 0. -1.
</event>
<event>
 5   0  0.6245176E-04  0.1100055E+04  0.7818609E-02  0.9205139E-01
       -2   -1    0    0    0  501  0.00000000000E+00  0.00000000000E+00  0.53778955278E+03  0.53778955279E+03  0.25500000920E-02 0.  1.
        2   -1    0    0  501    0  0.00000000000E+00  0.00000000000E+00 -0.56254364190E+03  0.56254364191E+03  0.25500000920E-02 0. -1.
    10030    2    1    2    0    0  0.00000000000E+00  0.00000000000E+00 -0.24754089117E+02  0.11003331947E+04  0.11000547143E+04 0.  0.
        5    1    3    3  502    0  0.54994846758E+03 -0.74094520331E+01 -0.15506195481E+02  0.55023699355E+03  0.46999998093E+01 0.  1.
       -5    1    3    3    0  502 -0.54994846758E+03  0.74094520331E+01 -0.92478936360E+01  0.55009620114E+03  0.46999998093E+01 0. -1.
</event>
<event>
 5   0  0.6412712E-04  0.1100931E+04  0.7818609E-02  0.9204284E-01
       -2   -1    0    0    0  501  0.00000000000E+00  0.00000000000E+00  0.52934852472E+03  0.52934852473E+03  0.25500000920E-02 0. -1.
        2   -1    0    0  501    0  0.00000000000E+00  0.00000000000E+00 -0.57242534554E+03  0.57242534554E+03  0.25500000920E-02 0.  1.
    10030    2    1    2    0    0  0.00000000000E+00  0.00000000000E+00 -0.43076820820E+02  0.11017738703E+04  0.11009314460E+04 0.  0.
        2    1    3    3  502    0  0.52797362586E+03  0.15319515124E+03  0.65474225471E+01  0.54978884375E+03  0.25500000920E-02 0. -1.
       -2    1    3    3    0  502 -0.52797362586E+03 -0.15319515124E+03 -0.49624243367E+02  0.55198502652E+03  0.25500000920E-02 0.  1.
</event>
<event>
 5   0  0.3642161E-04  0.1108306E+04  0.7818609E-02  0.9197134E-01
        1   -1    0    0  501    0  0.00000000000E+00  0.00000000000E+00  0.71769090778E+03  0.71769090780E+03  0.50400001928E-02 0.  1.
       -1   -1    0    0    0  501  0.00000000000E+00  0.00000000000E+00 -0.42787975053E+03  0.42787975056E+03  0.50400001928E-02 0. -1.
    10030    2    1    2    0    0  0.00000000000E+00  0.00000000000E+00  0.28981115725E+03  0.11455706584E+04  0.11083057459E+04 0.  0.
        2    1    3    3  502    0  0.22803081023E+02  0.12814839875E+03 -0.41185522768E+03  0.43193369998E+03  0.25500000920E-02 0. -1.
       -2    1    3    3    0  502 -0.22803081023E+02 -0.12814839875E+03  0.70166638493E+03  0.71363695837E+03  0.25500000920E-02 0.  1.
</event>
<event>
 5   0  0.3423758E-04  0.1099394E+04  0.7818609E-02  0.9205783E-01
        1   -1    0    0  501    0  0.00000000000E+00  0.00000000000E+00  0.16318995431E+04  0.16318995431E+04  0.50400001928E-02 0. -1.
       -1   -1    0    0    0  501  0.00000000000E+00  0.00000000000E+00 -0.18516248580E+03  0.18516248587E+03  0.50400001928E-02 0.  1.
    10030    2    1    2    0    0  0.00000000000E+00  0.00000000000E+00  0.14467370573E+04  0.18170620290E+04  0.10993936075E+04 0.  0.
        1    1    3    3  502    0  0.23105143192E+03  0.10500834778E+03  0.15292690353E+04  0.15501855694E+04  0.50400001928E-02 0. -1.
       -1    1    3    3    0  502 -0.23105143192E+03 -0.10500834778E+03 -0.82531977924E+02  0.26687645962E+03  0.50400001928E-02 0.  1.
</event>
<event>
 5   0  0.3621403E-04  0.1098724E+04  0.7818609E-02  0.9206436E-01
       -1   -1    0    0    0  501  0.00000000000E+00  0.00000000000E+00  0.77272153023E+03  0.77272153025E+03  0.50400001928E-02 0.  1.
        1   -1    0    0  501    0  0.00000000000E+00  0.00000000000E+00 -0.39056615208E+03  0.39056615211E+03  0.50400001928E-02 0. -1.
    10030    2    1    2    0    0  0.00000000000E+00  0.00000000000E+00  0.38215537815E+03  0.11632876824E+04  0.10987244872E+04 0.  0.
        3    1    3    3  502    0  0.33275822660E+03 -0.40718202351E+03  0.35939628924E+03  0.63693872590E+03  0.10100000352E+00 0. -1.
       -3    1    3    3    0  502 -0.33275822660E+03  0.40718202351E+03  0.22759088913E+02  0.52634895646E+03  0.10100000352E+00 0.  1.
</event>
<event>
 5   0  0.3423758E-04  0.1108095E+04  0.7818609E-02  0.9197338E-01
        1   -1    0    0  501    0  0.00000000000E+00  0.00000000000E+00  0.15492328551E+04  0.15492328551E+04  0.50400001928E-02 0. -1.
       -1   -1    0    0    0  501  0.00000000000E+00  0.00000000000E+00 -0.19814217841E+03  0.19814217847E+03  0.50400001928E-02 0.  1.
    10030    2    1    2    0    0  0.00000000000E+00  0.00000000000E+00  0.13510906767E+04  0.17473750336E+04  0.11080945318E+04 0.  0.
        1    1    3    3  502    0 -0.23832163049E+03  0.20596880822E+03 -0.43204507593E+02  0.31794178559E+03  0.50400001928E-02 0.  1.
       -1    1    3    3    0  502  0.23832163049E+03 -0.20596880822E+03  0.13942951843E+04  0.14294332480E+04  0.50400001928E-02 0. -1.
</event>
<event>
 5   0  0.3657529E-04  0.1100268E+04  0.7818609E-02  0.9204931E-01
        1   -1    0    0  501    0  0.00000000000E+00  0.00000000000E+00  0.10219184055E+04  0.10219184055E+04  0.50400001928E-02 0.  1.
       -1   -1    0    0    0  501  0.00000000000E+00  0.00000000000E+00 -0.29615623655E+03  0.29615623660E+03  0.50400001928E-02 0. -1.
    10030    2    1    2    0    0  0.00000000000E+00  0.00000000000E+00  0.72576216891E+03  0.13180746421E+04  0.11002681656E+04 0.  0.
        4    1    3    3  502    0 -0.21315384139E+03 -0.38189644736E+03 -0.36896670666E+02  0.43891050775E+03  0.12699999809E+01 0. -1.
       -4    1    3    3    0  502  0.21315384139E+03  0.38189644736E+03  0.76265883958E+03  0.87916413433E+03  0.12699999809E+01 0.  1.
</event>
<event>
 5   0  0.3657529E-04  0.1102131E+04  0.7818609E-02  0.9203117E-01
       -1   -1    0    0    0  501  0.00000000000E+00  0.00000000000E+00  0.30992049489E+03  0.30992049493E+03  0.50400001928E-02 0. -1.
        1   -1    0    0  501    0  0.00000000000E+00  0.00000000000E+00 -0.97984239454E+03  0.97984239455E+03  0.50400001928E-02 0.  1.
    10030    2    1    2    0    0  0.00000000000E+00  0.00000000000E+00 -0.66992189965E+03  0.12897628895E+04  0.11021310990E+04 0.  0.
        4    1    3    3  502    0 -0.15206464200E+03 -0.26107108909E+03 -0.87427720091E+03  0.92501027337E+03  0.12699999809E+01 0.  1.
       -4    1    3    3    0  502  0.15206464200E+03  0.26107108909E+03  0.20435530126E+03  0.36475261611E+03  0.12699999809E+01 0. -1.
</event>
<event>
 5   0  0.3621403E-04  0.1097175E+04  0.7818609E-02  0.9207950E-01
       -1   -1    0    0    0  501  0.00000000000E+00  0.00000000000E+00  0.32421483656E+03  0.32421483660E+03  0.50400001928E-02 0.  1.
        1   -1    0    0  501    0  0.00000000000E+00  0.00000000000E+00 -0.92823715685E+03  0.92823715686E+03  0.50400001928E-02 0. -1.
    10030    2    1    2    0    0  0.00000000000E+00  0.00000000000E+00 -0.60402232028E+03  0.12524519935E+04  0.10971750236E+04 0.  0.
        3    1    3    3  502    0 -0.24178645703E+01 -0.52175157980E+03 -0.10856508016E+03  0.53293240089E+03  0.10100000352E+00 0.  1.
       -3    1    3    3    0  502  0.24178645703E+01  0.52175157980E+03 -0.49545724013E+03  0.71951959257E+03  0.10100000352E+00 0. -1.
</event>
<event>
 5   0  0.6412712E-04  0.1099455E+04  0.7818609E-02  0.9205724E-01
       -2   -1    0    0    0  501  0.00000000000E+00  0.00000000000E+00  0.24389704632E+03  0.24389704634E+03  0.25500000920E-02 0. -1.
        2   -1    0    0  501    0  0.00000000000E+00  0.00000000000E+00 -0.12390479231E+04  0.12390479231E+04  0.25500000920E-02 0.  1.
    10030    2    1    2    0    0  0.00000000000E+00  0.00000000000E+00 -0.99515087676E+03  0.14829449694E+04  0.10994546443E+04 0.  0.
        2    1    3    3  502    0  0.19197968629E+03 -0.38834890898E+03 -0.95403840979E+03  0.10477883195E+04  0.25500000920E-02 0.  1.
       -2    1    3    3    0  502 -0.19197968629E+03  0.38834890898E+03 -0.41112466974E+02  0.43515664996E+03  0.25500000920E-02 0. -1.
</event>
<event>
 5   0  0.3523525E-04  0.1099842E+04  0.7818609E-02  0.9205345E-01
       -1   -1    0    0    0  501  0.00000000000E+00  0.00000000000E+00  0.75313705500E+03  0.75313705502E+03  0.50400001928E-02 0.  1.
        1   -1    0    0  501    0  0.00000000000E+00  0.00000000000E+00 -0.40153828690E+03  0.40153828694E+03  0.50400001928E-02 0. -1.
    10030    2    1    2    0    0  0.00000000000E+00  0.00000000000E+00  0.35159876810E+03  0.11546753420E+04  0.10998424667E+04 0.  0.
        5    1    3    3  502    0 -0.11029994186E+03  0.50935348236E+03  0.36000103764E+03  0.63342709467E+03  0.46999998093E+01 0.  1.
       -5    1    3    3    0  502  0.11029994186E+03 -0.50935348236E+03 -0.84022695364E+01  0.52124824729E+03  0.46999998093E+01 0. -1.
</event>
<event>
 5   0  0.6109149E-04  0.1103670E+04  0.7818609E-02  0.9201622E-01
       -2   -1    0    0    0  501  0.00000000000E+00  0.00000000000E+00  0.95822414143E+03  0.95822414143E+03  0.25500000920E-02 0. -1.
        2   -1    0    0  501    0  0.00000000000E+00  0.00000000000E+00 -0.31779811935E+03  0.31779811936E+03  0.25500000920E-02 0.  1.
    10030    2    1    2    0    0  0.00000000000E+00  0.00000000000E+00  0.64042602208E+03  0.12760222608E+04  0.11036699327E+04 0.  0.
        1    1    3    3  502    0 -0.38055894546E+02 -0.34562486059E+03  0.81563528053E+03  0.88665985938E+03  0.50400001928E-02 0. -1.
       -1    1    3    3    0  502  0.38055894546E+02  0.34562486059E+03 -0.17520925845E+03  0.38936240142E+03  0.50400001928E-02 0.  1.
</event>
<event>
 5   0  0.3621403E-04  0.1102375E+04  0.7818609E-02  0.9202880E-01
       -1   -1    0    0    0  501  0.00000000000E+00  0.00000000000E+00  0.31415264951E+04  0.31415264951E+04  0.50400001928E-02 0. -1.
        1   -1    0    0  501    0  0.00000000000E+00  0.00000000000E+00 -0.96707101284E+02  0.96707101416E+02  0.50400001928E-02 0.  1.
    10030    2    1    2    0    0  0.00000000000E+00  0.00000000000E+00  0.30448193938E+04  0.32382335965E+04  0.11023754735E+04 0.  0.
        3    1    3    3  502    0 -0.14209184000E+02  0.50306462058E+03  0.21827409693E+04  0.22400076033E+04  0.10100000352E+00 0. -1.
       -3    1    3    3    0  502  0.14209184000E+02 -0.50306462058E+03  0.86207842444E+03  0.99822599319E+03  0.10100000352E+00 0.  1.
</event>
<event>
 5   0  0.6109149E-04  0.1097496E+04  0.7818609E-02  0.9207636E-01
        2   -1    0    0  501    0  0.00000000000E+00  0.00000000000E+00  0.18668274973E+04  0.18668274974E+04  0.25500000920E-02 0. -1.
       -2   -1    0    0    0  501  0.00000000000E+00  0.00000000000E+00 -0.16130269967E+03  0.16130269969E+03  0.25500000920E-02 0.  1.
    10030    2    1    2    0    0  0.00000000000E+00  0.00000000000E+00  0.17055247977E+04  0.20281301970E+04  0.10974959046E+04 0.  0.
        1    1    3    3  502    0  0.33284741482E+03  0.41316252973E+03  0.11116989197E+04  0.12318137707E+04  0.50400001928E-02 0. -1.
       -1    1    3    3    0  502 -0.33284741482E+03 -0.41316252973E+03  0.59382587799E+03  0.79631642638E+03  0.50400001928E-02 0.  1.
</event>
<event>
 5   0  0.3423758E-04  0.1104257E+04  0.7818609E-02  0.9201052E-01
       -1   -1    0    0    0  501  0.00000000000E+00  0.00000000000E+00  0.12080465392E+04  0.12080465392E+04  0.50400001928E-02 0. -1.
        1   -1    0    0  501    0  0.00000000000E+00  0.00000000000E+00 -0.25234629927E+03  0.25234629932E+03  0.50400001928E-02 0.  1.
    10030    2    1    2    0    0  0.00000000000E+00  0.00000000000E+00  0.95570023994E+03  0.14603928385E+04  0.11042573496E+04 0.  0.
        1    1    3    3  502    0  0.54330236959E+03 -0.91256021756E+02  0.52627909054E+03  0.76188897320E+03  0.50400001928E-02 0.  1.
       -1    1    3    3    0  502 -0.54330236959E+03  0.91256021756E+02  0.42942114940E+03  0.69850386533E+03  0.50400001928E-02 0. -1.
</event>
<event>
 5   0  0.6245176E-04  0.1098243E+04  0.7818609E-02  0.9206906E-01
        2   -1    0    0  501    0  0.00000000000E+00  0.00000000000E+00  0.87782741782E+03  0.87782741783E+03  0.25500000920E-02 0.  1.
       -2   -1    0    0    0  501  0.00000000000E+00  0.00000000000E+00 -0.34350063544E+03  0.34350063545E+03  0.25500000920E-02 0. -1.
    10030    2    1    2    0    0  0.00000000000E+00  0.00000000000E+00  0.53432678238E+03  0.12213280533E+04  0.10982427343E+04 0.  0.
        5    1    3    3  502    0 -0.16962662622E+03  0.62833448587E+02  0.84371915234E+03  0.86290517012E+03  0.46999998093E+01 0.  1.
       -5    1    3    3    0  502  0.16962662622E+03 -0.62833448587E+02 -0.30939236996E+03  0.35842288316E+03  0.46999998093E+01 0. -1.
</event>
<event>
 5   0  0.3642161E-04  0.1098778E+04  0.7818609E-02  0.9206384E-01
        1   -1    0    0  501    0  0.00000000000E+00  0.00000000000E+00  0.75126287619E+03  0.75126287621E+03  0.50400001928E-02 0.  1.
       -1   -1    0    0    0  501  0.00000000000E+00  0.00000000000E+00 -0.40176098742E+03  0.40176098745E+03  0.50400001928E-02 0. -1.
    10030    2    1    2    0    0  0.00000000000E+00  0.00000000000E+00  0.34950188878E+03  0.11530238637E+04  0.10987777118E+04 0.  0.
        2    1    3    3  502    0  0.43565916981E+03  0.33465951183E+03  0.18070687917E+03  0.57831728081E+03  0.25500000920E-02 0. -1.
       -2    1    3    3    0  502 -0.43565916981E+03 -0.33465951183E+03  0.16879500960E+03  0.57470658285E+03  0.25500000920E-02 0.  1.
</event>
<event>
 5   0  0.5948818E-04  0.1100910E+04  0.7818609E-02  0.9204305E-01
        2   -1    0    0  501    0  0.00000000000E+00  0.00000000000E+00  0.13677385462E+04  0.13677385462E+04  0.25500000920E-02 0.  1.
       -2   -1    0    0    0  501  0.00000000000E+00  0.00000000000E+00 -0.22153423949E+03  0.22153423951E+03  0.25500000920E-02 0. -1.
    10030    2    1    2    0    0  0.00000000000E+00  0.00000000000E+00  0.11462043067E+04  0.15892727857E+04  0.11009103845E+04 0.  0.
        3    1    3    3  502    0 -0.19009539896E+02 -0.48913776533E+03  0.93654455081E+03  0.10567558005E+04  0.10100000352E+00 0.  1.
       -3    1    3    3    0  502  0.19009539896E+02  0.48913776533E+03  0.20965975591E+03  0.53251698521E+03  0.10100000352E+00 0. -1.
</event>
<event>
 5   0  0.6412712E-04  0.1103245E+04  0.7818609E-02  0.9202034E-01
        2   -1    0    0  501    0  0.00000000000E+00  0.00000000000E+00  0.50872517677E+03  0.50872517677E+03  0.25500000920E-02 0. -1.
       -2   -1    0    0    0  501  0.00000000000E+00  0.00000000000E+00 -0.59813744883E+03  0.59813744883E+03  0.25500000920E-02 0.  1.
    10030    2    1    2    0    0  0.00000000000E+00  0.00000000000E+00 -0.89412272060E+02  0.11068626256E+04  0.11032453569E+04 0.  0.
        2    1    3    3  502    0  0.28753757872E+02 -0.12893511868E+03 -0.58203336561E+03  0.59683656231E+03  0.25500000920E-02 0.  1.
       -2    1    3    3    0  502 -0.28753757872E+02  0.12893511868E+03  0.49262109355E+03  0.51002606329E+03  0.25500000920E-02 0. -1.
</event>
<event>
 5   0  0.2403875E-04  0.1100661E+04  0.7818609E-02  0.9204548E-01
        4   -1    0    0  501    0  0.00000000000E+00  0.00000000000E+00  0.25625089538E+03  0.25625404247E+03  0.12699999809E+01 0. -1.
       -4   -1    0    0    0  501  0.00000000000E+00  0.00000000000E+00 -0.11818918358E+04  0.11818925182E+04  0.12699999809E+01 0.  1.
    10030    2    1    2    0    0  0.00000000000E+00  0.00000000000E+00 -0.92564094046E+03  0.14381465606E+04  0.11006608829E+04 0.  0.
        3    1    3    3  502    0 -0.23410380635E+03 -0.10763230969E+03  0.17257127644E+03  0.31011314369E+03  0.10100000352E+00 0. -1.
       -3    1    3    3    0  502  0.23410380635E+03  0.10763230969E+03 -0.10982122169E+04  0.11280334170E+04  0.10100000352E+00 0.  1.
</event>
<event>
 5   0  0.6245176E-04  0.1097194E+04  0.7818609E-02  0.9207931E-01
        2   -1    0    0  501    0  0.00000000000E+00  0.00000000000E+00  0.26437559001E+04  0.26437559001E+04  0.25500000920E-02 0. -1.
       -2   -1    0    0    0  501  0.00000000000E+00  0.00000000000E+00 -0.11383749694E+03  0.11383749697E+03  0.25500000920E-02 0.  1.
    10030    2    1    2    0    0  0.00000000000E+00  0.00000000000E+00  0.25299184032E+04  0.27575933971E+04  0.10971937919E+04 0.  0.
        5    1    3    3  502    0 -0.68082754524E+02  0.27451337673E+03  0.24463337509E+04  0.24626335023E+04  0.46999998093E+01 0. -1.
       -5    1    3    3    0  502  0.68082754524E+02 -0.27451337673E+03  0.83584652226E+02  0.29495989482E+03  0.46999998093E+01 0.  1.
</event>
<event>
 5   0  0.6245176E-04  0.1100337E+04  0.7818609E-02  0.9204864E-01
        2   -1    0    0  501    0  0.00000000000E+00  0.00000000000E+00  0.60345224896E+03  0.60345224896E+03  0.25500000920E-02 0. -1.
       -2   -1    0    0    0  501  0.00000000000E+00  0.00000000000E+00 -0.50158918666E+03  0.50158918667E+03  0.25500000920E-02 0.  1.
    10030    2    1    2    0    0  0.00000000000E+00  0.00000000000E+00  0.10186306229E+03  0.11050414356E+04  0.11003365353E+04 0.  0.
        5    1    3    3  502    0  0.35413654477E+03 -0.41949997927E+03  0.15140573311E+02  0.54922149622E+03  0.46999998093E+01 0.  1.
       -5    1    3    3    0  502 -0.35413654477E+03  0.41949997927E+03  0.86722488980E+02  0.55581993941E+03  0.46999998093E+01 0. -1.
</event>
<event>
 5   0  0.5948818E-04  0.1100808E+04  0.7818609E-02  0.9204405E-01
       -2   -1    0    0    0  501  0.00000000000E+00  0.00000000000E+00  0.45184993688E+03  0.45184993688E+03  0.25500000920E-02 0. -1.
        2   -1    0    0  501    0  0.00000000000E+00  0.00000000000E+00 -0.67045347728E+03  0.67045347729E+03  0.25500000920E-02 0.  1.
    10030    2    1    2    0    0  0.00000000000E+00  0.00000000000E+00 -0.21860354041E+03  0.11223034142E+04  0.11008076333E+04 0.  0.
        3    1    3    3  502    0 -0.10485914454E+03 -0.17475608583E+03  0.41196411561E+03  0.45961894269E+03  0.10100000352E+00 0. -1.
       -3    1    3    3    0  502  0.10485914454E+03  0.17475608583E+03 -0.63056765602E+03  0.66268447148E+03  0.10100000352E+00 0.  1.
</event>
<event>
 5   0  0.6109149E-04  0.1103214E+04  0.7818609E-02  0.9202065E-01
        2   -1    0    0  501    0  0.00000000000E+00  0.00000000000E+00  0.83250033127E+03  0.83250033128E+03  0.25500000920E-02 0.  1.
       -2   -1    0    0    0  501  0.00000000000E+00  0.00000000000E+00 -0.36548994745E+03  0.36548994746E+03  0.25500000920E-02 0. -1.
    10030    2    1    2    0    0  0.00000000000E+00  0.00000000000E+00  0.46701038383E+03  0.11979902787E+04  0.11032143986E+04 0.  0.
        1    1    3    3  502    0 -0.59326699338E+02 -0.40552633167E+03  0.63440891425E+03  0.75527871242E+03  0.50400001928E-02 0. -1.
       -1    1    3    3    0  502  0.59326699338E+02  0.40552633167E+03 -0.16739853042E+03  0.44271156631E+03  0.50400001928E-02 0.  1.
</event>
<event>
 5   0  0.3523525E-04  0.1097526E+04  0.7818609E-02  0.9207607E-01
        1   -1    0    0  501    0  0.00000000000E+00  0.00000000000E+00  0.31915602652E+03  0.31915602656E+03  0.50400001928E-02 0. -1.
       -1   -1    0    0    0  501  0.00000000000E+00  0.00000000000E+00 -0.94355296627E+03  0.94355296628E+03  0.50400001928E-02 0.  1.
    10030    2    1    2    0    0  0.00000000000E+00  0.00000000000E+00 -0.62439693975E+03  0.12627089928E+04  0.10975256089E+04 0.  0.
        5    1    3    3  502    0  0.29829532181E+03 -0.29264495092E+03  0.96995608803E+02  0.42901212621E+03  0.46999998093E+01 0. -1.
       -5    1    3    3    0  502 -0.29829532181E+03  0.29264495092E+03 -0.72139254856E+03  0.83369686663E+03  0.46999998093E+01 0.  1.
</event>
<event>
 5   0  0.3423758E-04  0.1105276E+04  0.7818609E-02  0.9200065E-01
        1   -1    0    0  501    0  0.00000000000E+00  0.00000000000E+00  0.15825276801E+04  0.15825276801E+04  0.50400001928E-02 0. -1.
       -1   -1    0    0    0  501  0.00000000000E+00  0.00000000000E+00 -0.19298782493E+03  0.19298782499E+03  0.50400001928E-02 0.  1.
    10030    2    1    2    0    0  0.00000000000E+00  0.00000000000E+00  0.13895398551E+04  0.17755155051E+04  0.11052756668E+04 0.  0.
        1    1    3    3  502    0  0.33838699950E+03 -0.68739309597E+02  0.16351099182E+01  0.34530208185E+03  0.50400001928E-02 0.  1.
       -1    1    3    3    0  502 -0.33838699950E+03  0.68739309597E+02  0.13879047452E+04  0.14302134232E+04  0.50400001928E-02 0. -1.
</event>
<event>
 5   0  0.2403875E-04  0.1101781E+04  0.7818609E-02  0.9203458E-01
        3   -1    0    0  501    0  0.00000000000E+00  0.00000000000E+00  0.39962400857E+03  0.39962402134E+03  0.10100000352E+00 0. -1.
       -3   -1    0    0    0  501  0.00000000000E+00  0.00000000000E+00 -0.75941495826E+03  0.75941496498E+03  0.10100000352E+00 0.  1.
    10030    2    1    2    0    0  0.00000000000E+00  0.00000000000E+00 -0.35979094969E+03  0.11590389863E+04  0.11017812144E+04 0.  0.
        1    1    3    3  502    0  0.28422707825E+03 -0.75114560888E+02 -0.66999672407E+03  0.73165759721E+03  0.50400001928E-02 0.  1.
       -1    1    3    3    0  502 -0.28422707825E+03  0.75114560888E+02  0.31020577438E+03  0.42738138910E+03  0.50400001928E-02 0. -1.
</event>
<event>
 5   0  0.6412712E-04  0.1097695E+04  0.7818609E-02  0.9207441E-01
        2   -1    0    0  501    0  0.00000000000E+00  0.00000000000E+00  0.76846528372E+03  0.76846528372E+03  0.25500000920E-02 0. -1.
       -2   -1    0    0    0  501  0.00000000000E+00  0.00000000000E+00 -0.39199370572E+03  0.39199370573E+03  0.25500000920E-02 0.  1.
    10030    2    1    2    0    0  0.00000000000E+00  0.00000000000E+00  0.37647157799E+03  0.11604589895E+04  0.10976949563E+04 0.  0.
        2    1    3    3  502    0 -0.10691598500E+03  0.52012485899E+02 -0.37821557624E+03  0.39646355275E+03  0.25500000920E-02 0.  1.
       -2    1    3    3    0  502  0.10691598500E+03 -0.52012485899E+02  0.75468715423E+03  0.76399543671E+03  0.25500000920E-02 0. -1.
</event>
<event>
 5   0  0.3642161E-04  0.1099986E+04  0.7818609E-02  0.9205205E-01
       -1   -1    0    0    0  501  0.00000000000E+00  0.00000000000E+00  0.10383274211E+04  0.10383274211E+04  0.50400001928E-02 0. -1.
        1   -1    0    0  501    0  0.00000000000E+00  0.00000000000E+00 -0.29132661421E+03  0.29132661426E+03  0.50400001928E-02 0.  1.
    10030    2    1    2    0    0  0.00000000000E+00  0.00000000000E+00  0.74700080685E+03  0.13296540353E+04  0.10999862037E+04 0.  0.
        2    1    3    3  502    0 -0.13565354516E+03 -0.97853050201E+02  0.10068371718E+04  0.10206361713E+04  0.25500000920E-02 0. -1.
       -2    1    3    3    0  502  0.13565354516E+03  0.97853050201E+02 -0.25983636491E+03  0.30901786402E+03  0.25500000920E-02 0.  1.
</event>
<event>
 5   0  0.6109149E-04  0.1098179E+04  0.7818609E-02  0.9206969E-01
        2   -1    0    0  501    0  0.00000000000E+00  0.00000000000E+00  0.84243660098E+03  0.84243660098E+03  0.25500000920E-02 0.  1.
       -2   -1    0    0    0  501  0.00000000000E+00  0.00000000000E+00 -0.35788942378E+03  0.35788942379E+03  0.25500000920E-02 0. -1.
    10030    2    1    2    0    0  0.00000000000E+00  0.00000000000E+00  0.48454717720E+03  0.12003260248E+04  0.10981787645E+04 0.  0.
        1    1    3    3  502    0  0.39442550234E+02 -0.10443536866E+03 -0.34535466307E+03  0.36294945148E+03  0.50400001928E-02 0. -1.
       -1    1    3    3    0  502 -0.39442550234E+02  0.10443536866E+03  0.82990184027E+03  0.83737657330E+03  0.50400001928E-02 0.  1.
</event>
<event>
 5   0  0.6245176E-04  0.1096237E+04  0.7818609E-02  0.9208868E-01
        2   -1    0    0  501    0  0.00000000000E+00  0.00000000000E+00  0.17439726964E+04  0.17439726964E+04  0.25500000920E-02 0.  1.
       -2   -1    0    0    0  501  0.00000000000E+00  0.00000000000E+00 -0.17226975021E+03  0.17226975023E+03  0.25500000920E-02 0. -1.
    10030    2    1    2    0    0  0.00000000000E+00  0.00000000000E+00  0.15717029462E+04  0.19162424467E+04  0.10962367277E+04 0.  0.
        5    1    3    3  502    0 -0.48666952228E+03 -0.45118627965E+02  0.12194473117E+04  0.13137567319E+04  0.46999998093E+01 0.  1.
       -5    1    3    3    0  502  0.48666952228E+03  0.45118627965E+02  0.35225563454E+03  0.60248571482E+03  0.46999998093E+01 0. -1.
</event>
<event>
 5   0  0.2403875E-04  0.1106481E+04  0.7818609E-02  0.9198898E-01
        3   -1    0    0  501    0  0.00000000000E+00  0.00000000000E+00  0.59757970968E+03  0.59757971822E+03  0.10100000352E+00 0. -1.
       -3   -1    0    0    0  501  0.00000000000E+00  0.00000000000E+00 -0.51219142758E+03  0.51219143754E+03  0.10100000352E+00 0.  1.
    10030    2    1    2    0    0  0.00000000000E+00  0.00000000000E+00  0.85388282104E+02  0.11097711558E+04  0.11064812965E+04 0.  0.
        1    1    3    3  502    0  0.14257090770E+02 -0.13226389735E+03  0.58129938538E+03  0.59632707355E+03  0.50400001928E-02 0. -1.
       -1    1    3    3    0  502 -0.14257090770E+02  0.13226389735E+03 -0.49591110327E+03  0.51344408221E+03  0.50400001928E-02 0.  1.
</event>
<event>
 5   0  0.3621403E-04  0.1099798E+04  0.7818609E-02  0.9205388E-01
        1   -1    0    0  501    0  0.00000000000E+00  0.00000000000E+00  0.10174243872E+04  0.10174243872E+04  0.50400001928E-02 0. -1.
       -1   -1    0    0    0  501  0.00000000000E+00  0.00000000000E+00 -0.29721046471E+03  0.29721046475E+03  0.50400001928E-02 0.  1.
    10030    2    1    2    0    0  0.00000000000E+00  0.00000000000E+00  0.72021392248E+03  0.13146348520E+04  0.10997984815E+04 0.  0.
        3    1    3    3  502    0  0.30869884730E+03  0.31913216105E+03  0.74790062247E+03  0.86976759300E+03  0.10100000352E+00 0. -1.
       -3    1    3    3    0  502 -0.30869884730E+03 -0.31913216105E+03 -0.27686699993E+02  0.44486725896E+03  0.10100000352E+00 0.  1.
</event>
<event>
 5   0  0.3523525E-04  0.1099311E+04  0.7818609E-02  0.9205863E-01
       -1   -1    0    0    0  501  0.00000000000E+00  0.00000000000E+00  0.99753093737E+03  0.99753093739E+03  0.50400001928E-02 0. -1.
        1   -1    0    0  501    0  0.00000000000E+00  0.00000000000E+00 -0.30286917365E+03  0.30286917369E+03  0.50400001928E-02 0.  1.
    10030    2    1    2    0    0  0.00000000000E+00  0.00000000000E+00  0.69466176372E+03  0.13004001111E+04  0.10993113676E+04 0.  0.
        5    1    3    3  502    0  0.13229951885E+03 -0.46408466516E+03  0.36104135478E+02  0.48394559376E+03  0.46999998093E+01 0.  1.
       -5    1    3    3    0  502 -0.13229951885E+03  0.46408466516E+03  0.65855762824E+03  0.81645451732E+03  0.46999998093E+01 0. -1.
</event>
<event>
 5   0  0.6109149E-04  0.1099510E+04  0.7818609E-02  0.9205669E-01
       -2   -1    0    0    0  501  0.00000000000E+00  0.00000000000E+00  0.17707899630E+03  0.17707899632E+03  0.25500000920E-02 0.  1.
        2   -1    0    0  501    0  0.00000000000E+00  0.00000000000E+00 -0.17067568868E+04  0.17067568868E+04  0.25500000920E-02 0. -1.
    10030    2    1    2    0    0  0.00000000000E+00  0.00000000000E+00 -0.15296778905E+04  0.18838358831E+04  0.10995104301E+04 0.  0.
        1    1    3    3  502    0  0.36534140588E+03 -0.32221204127E+03 -0.12014412159E+04  0.12964397161E+04  0.50400001928E-02 0. -1.
       -1    1    3    3    0  502 -0.36534140588E+03  0.32221204127E+03 -0.32823667466E+03  0.58739616700E+03  0.50400001928E-02 0.  1.
</event>
<event>
 5   0  0.6264830E-04  0.1099374E+04  0.7818609E-02  0.9205802E-01
        2   -1    0    0  501    0  0.00000000000E+00  0.00000000000E+00  0.48913383022E+03  0.48913383023E+03  0.25500000920E-02 0.  1.
       -2   -1    0    0    0  501  0.00000000000E+00  0.00000000000E+00 -0.61773642461E+03  0.61773642462E+03  0.25500000920E-02 0. -1.
    10030    2    1    2    0    0  0.00000000000E+00  0.00000000000E+00 -0.12860259439E+03  0.11068702548E+04  0.10993739736E+04 0.  0.
        4    1    3    3  502    0 -0.22621111807E+03  0.18586668952E+03  0.40409805973E+03  0.49901377835E+03  0.12699999809E+01 0.  1.
       -4    1    3    3    0  502  0.22621111807E+03 -0.18586668952E+03 -0.53270065412E+03  0.60785647649E+03  0.12699999809E+01 0. -1.
</event>
<event>
 5   0  0.2403875E-04  0.1099546E+04  0.7818609E-02  0.9205634E-01
        4   -1    0    0  501    0  0.00000000000E+00  0.00000000000E+00  0.41098685088E+03  0.41098881310E+03  0.12699999809E+01 0.  1.
       -4   -1    0    0    0  501  0.00000000000E+00  0.00000000000E+00 -0.73542180728E+03  0.73542290386E+03  0.12699999809E+01 0. -1.
    10030    2    1    2    0    0  0.00000000000E+00  0.00000000000E+00 -0.32443495641E+03  0.11464117170E+04  0.10995461718E+04 0.  0.
        4    1    3    3  502    0 -0.39463032270E+03 -0.38272239412E+03 -0.16875452294E+03  0.57505584465E+03  0.12699999809E+01 0.  1.
       -4    1    3    3    0  502  0.39463032270E+03  0.38272239412E+03 -0.15568043346E+03  0.57135587231E+03  0.12699999809E+01 0. -1.
</event>
<event>
 5   0  0.3657529E-04  0.1087948E+04  0.7818609E-02  0.9217019E-01
        1   -1    0    0  501    0  0.00000000000E+00  0.00000000000E+00  0.12389742431E+04  0.12389742431E+04  0.50400001928E-02 0.  1.
       -1   -1    0    0    0  501  0.00000000000E+00  0.00000000000E+00 -0.23883292262E+03  0.23883292268E+03  0.50400001928E-02 0. -1.
    10030    2    1    2    0    0  0.00000000000E+00  0.00000000000E+00  0.10001413205E+04  0.14778071658E+04  0.10879482333E+04 0.  0.
        4    1    3    3  502    0 -0.43197170909E+03  0.11972955455E+03  0.91867737687E+03  0.10222056835E+04  0.12699999809E+01 0.  1.
       -4    1    3    3    0  502  0.43197170909E+03 -0.11972955455E+03  0.81463943635E+02  0.45560148233E+03  0.12699999809E+01 0. -1.
</event>
<event>
 5   0  0.5948818E-04  0.1099272E+04  0.7818609E-02  0.9205902E-01
        2   -1    0    0  501    0  0.00000000000E+00  0.00000000000E+00  0.74816348620E+03  0.74816348621E+03  0.25500000920E-02 0. -1.
       -2   -1    0    0    0  501  0.00000000000E+00  0.00000000000E+00 -0.40378824280E+03  0.40378824281E+03  0.25500000920E-02 0.  1.
    10030    2    1    2    0    0  0.00000000000E+00  0.00000000000E+00  0.34437524341E+03  0.11519517290E+04  0.10992717943E+04 0.  0.
        3    1    3    3  502    0  0.37268207959E+00 -0.33796436536E+02 -0.40269822458E+03  0.40411410307E+03  0.10100000352E+00 0.  1.
       -3    1    3    3    0  502 -0.37268207959E+00  0.33796436536E+02  0.74707346799E+03  0.74783762595E+03  0.10100000352E+00 0. -1.
</event>
<event>
 5   0  0.3423758E-04  0.1090365E+04  0.7818609E-02  0.9214634E-01
       -1   -1    0    0    0  501  0.00000000000E+00  0.00000000000E+00  0.73369855740E+03  0.73369855742E+03  0.50400001928E-02 0.  1.
        1   -1    0    0  501    0  0.00000000000E+00  0.00000000000E+00 -0.40510348685E+03  0.40510348688E+03  0.50400001928E-02 0. -1.
    10030    2    1    2    0    0  0.00000000000E+00  0.00000000000E+00  0.32859507055E+03  0.11388020443E+04  0.10903647902E+04 0.  0.
        1    1    3    3  502    0  0.77726295808E+02 -0.50822472423E+03  0.35371019097E+03  0.62405500286E+03  0.50400001928E-02 0.  1.
       -1    1    3    3    0  502 -0.77726295808E+02  0.50822472423E+03 -0.25115120418E+02  0.51474704144E+03  0.50400001928E-02 0. -1.
</event>
<event>
 5   0  0.6245176E-04  0.1100978E+04  0.7818609E-02  0.9204239E-01
       -2   -1    0    0    0  501  0.00000000000E+00  0.00000000000E+00  0.27743624779E+03  0.27743624781E+03  0.25500000920E-02 0. -1.
        2   -1    0    0  501    0  0.00000000000E+00  0.00000000000E+00 -0.10922810466E+04  0.10922810466E+04  0.25500000920E-02 0.  1.
    10030    2    1    2    0    0  0.00000000000E+00  0.00000000000E+00 -0.81484479880E+03  0.13697172944E+04  0.11009783924E+04 0.  0.
        5    1    3    3  502    0  0.25731378381E+03 -0.44617679150E+03 -0.64908415946E+03  0.82862322479E+03  0.46999998093E+01 0. -1.
       -5    1    3    3    0  502 -0.25731378381E+03  0.44617679150E+03 -0.16576063934E+03  0.54109406960E+03  0.46999998093E+01 0.  1.
</event>
<event>
 5   0  0.3642161E-04  0.1101161E+04  0.7818609E-02  0.9204061E-01
       -1   -1    0    0    0  501  0.00000000000E+00  0.00000000000E+00  0.37833818327E+03  0.37833818330E+03  0.50400001928E-02 0.  1.
        1   -1    0    0  501    0  0.00000000000E+00  0.00000000000E+00 -0.80123730401E+03  0.80123730402E+03  0.50400001928E-02 0. -1.
    10030    2    1    2    0    0  0.00000000000E+00  0.00000000000E+00 -0.42289912074E+03  0.11795754873E+04  0.11011605986E+04 0.  0.
        2    1    3    3  502    0 -0.50621139336E+03 -0.19395542234E+03 -0.31458658536E+03  0.62676423025E+03  0.25500000920E-02 0.  1.
       -2    1    3    3    0  502  0.50621139336E+03  0.19395542234E+03 -0.10831253538E+03  0.55281125708E+03  0.25500000920E-02 0. -1.
</event>
<event>
 5   0  0.6109149E-04  0.1096905E+04  0.7818609E-02  0.9208213E-01
       -2   -1    0    0    0  501  0.00000000000E+00  0.00000000000E+00  0.70970047491E+03  0.70970047492E+03  0.25500000920E-02 0.  1.
        2   -1    0    0  501    0  0.00000000000E+00  0.00000000000E+00 -0.42384126409E+03  0.42384126410E+03  0.25500000920E-02 0. -1.
    10030    2    1    2    0    0  0.00000000000E+00  0.00000000000E+00  0.28585921082E+03  0.11335417390E+04  0.10969053677E+04 0.  0.
        1    1    3    3  502    0  0.51031434859E+03 -0.16304309194E+03  0.26431146759E+03  0.59738123182E+03  0.50400001928E-02 0. -1.
       -1    1    3    3    0  502 -0.51031434859E+03  0.16304309194E+03  0.21547743229E+02  0.53616050719E+03  0.50400001928E-02 0.  1.
</event>
<event>
 5   0  0.6412712E-04  0.1099553E+04  0.7818609E-02  0.9205628E-01
        2   -1    0    0  501    0  0.00000000000E+00  0.00000000000E+00  0.90823016006E+03  0.90823016006E+03  0.25500000920E-02 0.  1.
       -2   -1    0    0    0  501  0.00000000000E+00  0.00000000000E+00 -0.33279480528E+03  0.33279480529E+03  0.25500000920E-02 0. -1.
    10030    2    1    2    0    0  0.00000000000E+00  0.00000000000E+00  0.57543535478E+03  0.12410249654E+04  0.10995531443E+04 0.  0.
        2    1    3    3  502    0  0.31651911572E+03  0.31027460812E+03  0.65483620126E+03  0.79073708245E+03  0.25500000920E-02 0.  1.
       -2    1    3    3    0  502 -0.31651911572E+03 -0.31027460812E+03 -0.79400846485E+02  0.45028788291E+03  0.25500000920E-02 0. -1.
</event>
<event>
 5   0  0.3523525E-04  0.1100490E+04  0.7818609E-02  0.9204715E-01
       -1   -1    0    0    0  501  0.00000000000E+00  0.00000000000E+00  0.34117419513E+03  0.34117419517E+03  0.50400001928E-02 0.  1.
        1   -1    0    0  501    0  0.00000000000E+00  0.00000000000E+00 -0.88743369958E+03  0.88743369960E+03  0.50400001928E-02 0. -1.
    10030    2    1    2    0    0  0.00000000000E+00  0.00000000000E+00 -0.54625950445E+03  0.12286078948E+04  0.11004898513E+04 0.  0.
        5    1    3    3  502    0 -0.54111453080E+03 -0.98444254281E+02 -0.29082355366E+03  0.62217090579E+03  0.46999998093E+01 0. -1.
       -5    1    3    3    0  502  0.54111453080E+03  0.98444254281E+02 -0.25543595079E+03  0.60643698898E+03  0.46999998093E+01 0.  1.
</event>
<event>
 5   0  0.3657529E-04  0.1101111E+04  0.7818609E-02  0.9204110E-01
       -1   -1    0    0    0  501  0.00000000000E+00  0.00000000000E+00  0.20074585509E+03  0.20074585515E+03  0.50400001928E-02 0. -1.
        1   -1    0    0  501    0  0.00000000000E+00  0.00000000000E+00 -0.15099260221E+04  0.15099260221E+04  0.50400001928E-02 0.  1.
    10030    2    1    2    0    0  0.00000000000E+00  0.00000000000E+00 -0.13091801670E+04  0.17106718773E+04  0.11011110580E+04 0.  0.
        4    1    3    3  502    0  0.22439339154E+03  0.19136207171E+03 -0.13768626116E+04  0.14080923623E+04  0.12699999809E+01 0.  1.
       -4    1    3    3    0  502 -0.22439339154E+03 -0.19136207171E+03  0.67682444601E+02  0.30257951494E+03  0.12699999809E+01 0. -1.
</event>
<event>
 5   0  0.2403875E-04  0.1099795E+04  0.7818609E-02  0.9205392E-01
       -3   -1    0    0    0  501  0.00000000000E+00  0.00000000000E+00  0.65568131962E+03  0.65568132740E+03  0.10100000352E+00 0. -1.
        3   -1    0    0  501    0  0.00000000000E+00  0.00000000000E+00 -0.46118003365E+03  0.46118004471E+03  0.10100000352E+00 0.  1.
    10030    2    1    2    0    0  0.00000000000E+00  0.00000000000E+00  0.19450128597E+03  0.11168613721E+04  0.10997947873E+04 0.  0.
        4    1    3    3  502    0  0.42954761486E+03 -0.16761069683E+03 -0.20703391226E+03  0.50543956399E+03  0.12699999809E+01 0.  1.
       -4    1    3    3    0  502 -0.42954761486E+03  0.16761069683E+03  0.40153519823E+03  0.61142180812E+03  0.12699999809E+01 0. -1.
</event>
<event>
 5   0  0.6264830E-04  0.1099723E+04  0.7818609E-02  0.9205462E-01
        2   -1    0    0  501    0  0.00000000000E+00  0.00000000000E+00  0.10872657433E+04  0.10872657433E+04  0.25500000920E-02 0.  1.
       -2   -1    0    0    0  501  0.00000000000E+00  0.00000000000E+00 -0.27808076375E+03  0.27808076376E+03  0.25500000920E-02 0. -1.
    10030    2    1    2    0    0  0.00000000000E+00  0.00000000000E+00  0.80918497951E+03  0.13653465070E+04  0.10997230348E+04 0.  0.
        4    1    3    3  502    0 -0.15142812444E+03  0.12605835987E+03 -0.23274634324E+03  0.30494861888E+03  0.12699999809E+01 0. -1.
       -4    1    3    3    0  502  0.15142812444E+03 -0.12605835987E+03  0.10419313227E+04  0.10603978881E+04  0.12699999809E+01 0.  1.
</event>
<event>
 5   0  0.6245176E-04  0.1101912E+04  0.7818609E-02  0.9203330E-01
        2   -1    0    0  501    0  0.00000000000E+00  0.00000000000E+00  0.91159357818E+03  0.91159357818E+03  0.25500000920E-02 0. -1.
       -2   -1    0    0    0  501  0.00000000000E+00  0.00000000000E+00 -0.33299098571E+03  0.33299098572E+03  0.25500000920E-02 0.  1.
    10030    2    1    2    0    0  0.00000000000E+00  0.00000000000E+00  0.57860259247E+03  0.12445845639E+04  0.11019118734E+04 0.  0.
        5    1    3    3  502    0 -0.13001910339E+03  0.50624100735E+03  0.92547014904E+02  0.53082197085E+03  0.46999998093E+01 0.  1.
       -5    1    3    3    0  502  0.13001910339E+03 -0.50624100735E+03  0.48605557756E+03  0.71376259306E+03  0.46999998093E+01 0. -1.
</event>
<event>
 5   0  0.3423758E-04  0.1099897E+04  0.7818609E-02  0.9205292E-01
       -1   -1    0    0    0  501  0.00000000000E+00  0.00000000000E+00  0.34600863459E+03  0.34600863463E+03  0.50400001928E-02 0.  1.
        1   -1    0    0  501    0  0.00000000000E+00  0.00000000000E+00 -0.87409157133E+03  0.87409157134E+03  0.50400001928E-02 0. -1.
    10030    2    1    2    0    0  0.00000000000E+00  0.00000000000E+00 -0.52808293674E+03  0.12201002060E+04  0.10998967790E+04 0.  0.
        1    1    3    3  502    0 -0.10591826572E+03  0.29923130505E+03 -0.76221489946E+03  0.82566918674E+03  0.50400001928E-02 0. -1.
       -1    1    3    3    0  502  0.10591826572E+03 -0.29923130505E+03  0.23413196273E+03  0.39443101923E+03  0.50400001928E-02 0.  1.
</event>
<event>
 5   0  0.6264830E-04  0.1098616E+04  0.7818609E-02  0.9206542E-01
        2   -1    0    0  501    0  0.00000000000E+00  0.00000000000E+00  0.88092432347E+03  0.88092432347E+03  0.25500000920E-02 0.  1.
       -2   -1    0    0    0  501  0.00000000000E+00  0.00000000000E+00 -0.34252565379E+03  0.34252565380E+03  0.25500000920E-02 0. -1.
    10030    2    1    2    0    0  0.00000000000E+00  0.00000000000E+00  0.53839866968E+03  0.12234499773E+04  0.10986158197E+04 0.  0.
        4    1    3    3  502    0  0.86792253879E+02 -0.15109541438E+03 -0.31093045191E+03  0.35642962616E+03  0.12699999809E+01 0. -1.
       -4    1    3    3    0  502 -0.86792253879E+02  0.15109541438E+03  0.84932912158E+03  0.86702035112E+03  0.12699999809E+01 0.  1.
</event>
<event>
 5   0  0.2403875E-04  0.1095854E+04  0.7818609E-02  0.9209242E-01
        3   -1    0    0  501    0  0.00000000000E+00  0.00000000000E+00  0.61477554913E+03  0.61477555742E+03  0.10100000352E+00 0. -1.
       -3   -1    0    0    0  501  0.00000000000E+00  0.00000000000E+00 -0.48834753698E+03  0.48834754742E+03  0.10100000352E+00 0.  1.
    10030    2    1    2    0    0  0.00000000000E+00  0.00000000000E+00  0.12642801215E+03  0.11031231048E+04  0.10958542523E+04 0.  0.
        4    1    3    3  502    0  0.27578548820E+03  0.15282737839E+01 -0.41338454143E+03  0.49693899335E+03  0.12699999809E+01 0.  1.
       -4    1    3    3    0  502 -0.27578548820E+03 -0.15282737839E+01  0.53981255358E+03  0.60618411149E+03  0.12699999809E+01 0. -1.
</event>
<event>
 5   0  0.3621403E-04  0.1099427E+04  0.7818609E-02  0.9205750E-01
       -1   -1    0    0    0  501  0.00000000000E+00  0.00000000000E+00  0.59852012707E+03  0.59852012709E+03  0.50400001928E-02 0.  1.
        1   -1    0    0  501    0  0.00000000000E+00  0.00000000000E+00 -0.50488721638E+03  0.50488721640E+03  0.50400001928E-02 0. -1.
    10030    2    1    2    0    0  0.00000000000E+00  0.00000000000E+00  0.93632910686E+02  0.11034073435E+04  0.10994274163E+04 0.  0.
        3    1    3    3  502    0 -0.10794389811E+03  0.29824025393E+03  0.49742508922E+03  0.58994140708E+03  0.10100000352E+00 0.  1.
       -3    1    3    3    0  502  0.10794389811E+03 -0.29824025393E+03 -0.40379217853E+03  0.51346593641E+03  0.10100000352E+00 0. -1.
</event>
<event>
 5   0  0.3642161E-04  0.1105198E+04  0.7818609E-02  0.9200140E-01
        1   -1    0    0  501    0  0.00000000000E+00  0.00000000000E+00  0.20065094498E+04  0.20065094498E+04  0.50400001928E-02 0.  1.
       -1   -1    0    0    0  501  0.00000000000E+00  0.00000000000E+00 -0.15218753064E+03  0.15218753072E+03  0.50400001928E-02 0. -1.
    10030    2    1    2    0    0  0.00000000000E+00  0.00000000000E+00  0.18543219192E+04  0.21586969805E+04  0.11051981152E+04 0.  0.
        2    1    3    3  502    0  0.30309883293E+03  0.39032840575E+03  0.44419533045E+03  0.66448074348E+03  0.25500000920E-02 0. -1.
       -2    1    3    3    0  502 -0.30309883293E+03 -0.39032840575E+03  0.14101265887E+04  0.14942162371E+04  0.25500000920E-02 0.  1.
</event>
<event>
 5   0  0.3642161E-04  0.1099001E+04  0.7818609E-02  0.9206166E-01
       -1   -1    0    0    0  501  0.00000000000E+00  0.00000000000E+00  0.19804209809E+03  0.19804209815E+03  0.50400001928E-02 0. -1.
        1   -1    0    0  501    0  0.00000000000E+00  0.00000000000E+00 -0.15246803132E+04  0.15246803132E+04  0.50400001928E-02 0.  1.
    10030    2    1    2    0    0  0.00000000000E+00  0.00000000000E+00 -0.13266382151E+04  0.17227224114E+04  0.10990011614E+04 0.  0.
        2    1    3    3  502    0  0.54571958909E+03 -0.63948443840E+02 -0.65205739695E+03  0.85268876051E+03  0.25500000920E-02 0.  1.
       -2    1    3    3    0  502 -0.54571958909E+03  0.63948443840E+02 -0.67458081819E+03  0.87003365088E+03  0.25500000920E-02 0. -1.
</event>
<event>
 5   0  0.3423758E-04  0.1101004E+04  0.7818609E-02  0.9204214E-01
       -1   -1    0    0    0  501  0.00000000000E+00  0.00000000000E+00  0.29260523415E+03  0.29260523420E+03  0.50400001928E-02 0.  1.
        1   -1    0    0  501    0  0.00000000000E+00  0.00000000000E+00 -0.10357045098E+04  0.10357045098E+04  0.50400001928E-02 0. -1.
    10030    2    1    2    0    0  0.00000000000E+00  0.00000000000E+00 -0.74309927562E+03  0.13283097440E+04  0.11010041973E+04 0.  0.
        1    1    3    3  502    0  0.29714899669E+03 -0.32940219448E+03  0.21704478086E+02  0.44415584693E+03  0.50400001928E-02 0.  1.
       -1    1    3    3    0  502 -0.29714899669E+03  0.32940219448E+03 -0.76480375370E+03  0.88415389705E+03  0.50400001928E-02 0. -1.
</event>
<event>
 5   0  0.3523525E-04  0.1101544E+04  0.7818609E-02  0.9203689E-01
        1   -1    0    0  501    0  0.00000000000E+00  0.00000000000E+00  0.16638812182E+04  0.16638812182E+04  0.50400001928E-02 0. -1.
       -1   -1    0    0    0  501  0.00000000000E+00  0.00000000000E+00 -0.18231442407E+03  0.18231442413E+03  0.50400001928E-02 0.  1.
    10030    2    1    2    0    0  0.00000000000E+00  0.00000000000E+00  0.14815667941E+04  0.18461956423E+04  0.11015435463E+04 0.  0.
        5    1    3    3  502    0  0.32958538262E+03  0.36125268160E+03  0.31612973067E+03  0.58231445200E+03  0.46999998093E+01 0.  1.
       -5    1    3    3    0  502 -0.32958538262E+03 -0.36125268160E+03  0.11654370634E+04  0.12638811903E+04  0.46999998093E+01 0. -1.
</event>
<event>
 5   0  0.3642161E-04  0.1091767E+04  0.7818609E-02  0.9213254E-01
       -1   -1    0    0    0  501  0.00000000000E+00  0.00000000000E+00  0.56450235894E+03  0.56450235896E+03  0.50400001928E-02 0. -1.
        1   -1    0    0  501    0  0.00000000000E+00  0.00000000000E+00 -0.52787852172E+03  0.52787852174E+03  0.50400001928E-02 0.  1.
    10030    2    1    2    0    0  0.00000000000E+00  0.00000000000E+00  0.36623837222E+02  0.10923808807E+04  0.10917667714E+04 0.  0.
        2    1    3    3  502    0  0.42968642536E+03 -0.69083402750E+02  0.34802076215E+03  0.55724446302E+03  0.25500000920E-02 0. -1.
       -2    1    3    3    0  502 -0.42968642536E+03  0.69083402750E+02 -0.31139692493E+03  0.53513641769E+03  0.25500000920E-02 0.  1.
</event>
<event>
 5   0  0.6264830E-04  0.1099598E+04  0.7818609E-02  0.9205584E-01
       -2   -1    0    0    0  501  0.00000000000E+00  0.00000000000E+00  0.12324716221E+03  0.12324716224E+03  0.25500000920E-02 0. -1.
        2   -1    0    0  501    0  0.00000000000E+00  0.00000000000E+00 -0.24526217966E+04  0.24526217966E+04  0.25500000920E-02 0.  1.
    10030    2    1    2    0    0  0.00000000000E+00  0.00000000000E+00 -0.23293746344E+04  0.25758689589E+04  0.10995975199E+04 0.  0.
        4    1    3    3  502    0 -0.18911453007E+03 -0.34754211076E+03 -0.20589402697E+04  0.20966130953E+04  0.12699999809E+01 0.  1.
       -4    1    3    3    0  502  0.18911453007E+03  0.34754211076E+03 -0.27043436468E+03  0.47925586354E+03  0.12699999809E+01 0. -1.
</event>
<event>
 5   0  0.6264830E-04  0.1098262E+04  0.7818609E-02  0.9206887E-01
        2   -1    0    0  501    0  0.00000000000E+00  0.00000000000E+00  0.56602729782E+03  0.56602729783E+03  0.25500000920E-02 0. -1.
       -2   -1    0    0    0  501  0.00000000000E+00  0.00000000000E+00 -0.53273916649E+03  0.53273916649E+03  0.25500000920E-02 0.  1.
    10030    2    1    2    0    0  0.00000000000E+00  0.00000000000E+00  0.33288131332E+02  0.10987664643E+04  0.10982621014E+04 0.  0.
        4    1    3    3  502    0 -0.31563775307E+03  0.40308104677E+03 -0.18204667673E+03  0.54336371505E+03  0.12699999809E+01 0.  1.
       -4    1    3    3    0  502  0.31563775307E+03 -0.40308104677E+03  0.21533480806E+03  0.55540274927E+03  0.12699999809E+01 0. -1.
</event>
<event>
 5   0  0.6109149E-04  0.1102360E+04  0.7818609E-02  0.9202895E-01
        2   -1    0    0  501    0  0.00000000000E+00  0.00000000000E+00  0.10724959978E+04  0.10724959978E+04  0.25500000920E-02 0. -1.
       -2   -1    0    0    0  501  0.00000000000E+00  0.00000000000E+00 -0.28326384283E+03  0.28326384284E+03  0.25500000920E-02 0.  1.
    10030    2    1    2    0    0  0.00000000000E+00  0.00000000000E+00  0.78923215496E+03  0.13557598406E+04  0.11023599009E+04 0.  0.
        1    1    3    3  502    0  0.12095605492E+03  0.95486527224E+02  0.10454619423E+04  0.10567585897E+04  0.50400001928E-02 0. -1.
       -1    1    3    3    0  502 -0.12095605492E+03 -0.95486527224E+02 -0.25622978734E+03  0.29900125092E+03  0.50400001928E-02 0.  1.
</event>
<event>
 5   0  0.3657529E-04  0.1098888E+04  0.7818609E-02  0.9206276E-01
        1   -1    0    0  501    0  0.00000000000E+00  0.00000000000E+00  0.13843418142E+04  0.13843418142E+04  0.50400001928E-02 0.  1.
       -1   -1    0    0    0  501  0.00000000000E+00  0.00000000000E+00 -0.21807389961E+03  0.21807389967E+03  0.50400001928E-02 0. -1.
    10030    2    1    2    0    0  0.00000000000E+00  0.00000000000E+00  0.11662679146E+04  0.16024157139E+04  0.10988881979E+04 0.  0.
        4    1    3    3  502    0 -0.38609157582E+03  0.34134230131E+03  0.30528390082E+03  0.59898342596E+03  0.12699999809E+01 0.  1.
       -4    1    3    3    0  502  0.38609157582E+03 -0.34134230131E+03  0.86098401376E+03  0.10034322879E+04  0.12699999809E+01 0. -1.
</event>
<event>
 5   0  0.3657529E-04  0.1099778E+04  0.7818609E-02  0.9205408E-01
        1   -1    0    0  501    0  0.00000000000E+00  0.00000000000E+00  0.13654733913E+04  0.13654733913E+04  0.50400001928E-02 0. -1.
       -1   -1    0    0    0  501  0.00000000000E+00  0.00000000000E+00 -0.22144563613E+03  0.22144563619E+03  0.50400001928E-02 0.  1.
    10030    2    1    2    0    0  0.00000000000E+00  0.00000000000E+00  0.11440277551E+04  0.15869190275E+04  0.10997783846E+04 0.  0.
        4    1    3    3  502    0  0.22279896336E+03 -0.28912096173E+03 -0.21431448190E+02  0.36563811133E+03  0.12699999809E+01 0.  1.
       -4    1    3    3    0  502 -0.22279896336E+03  0.28912096173E+03  0.11654592033E+04  0.12212809161E+04  0.12699999809E+01 0. -1.
</event>
<event>
 5   0  0.6245176E-04  0.1101193E+04  0.7818609E-02  0.9204030E-01
        2   -1    0    0  501    0  0.00000000000E+00  0.00000000000E+00  0.11203205738E+04  0.11203205738E+04  0.25500000920E-02 0. -1.
       -2   -1    0    0    0  501  0.00000000000E+00  0.00000000000E+00 -0.27059804064E+03  0.27059804066E+03  0.25500000920E-02 0.  1.
    10030    2    1    2    0    0  0.00000000000E+00  0.00000000000E+00  0.84972253320E+03  0.13909186145E+04  0.11011930842E+04 0.  0.
        5    1    3    3  502    0  0.51728061482E+03  0.18329977498E+03  0.36899247033E+03  0.66132864382E+03  0.46999998093E+01 0.  1.
       -5    1    3    3    0  502 -0.51728061482E+03 -0.18329977498E+03  0.48073006287E+03  0.72958997068E+03  0.46999998093E+01 0. -1.
</event>
<event>
 5   0  0.3523525E-04  0.1096876E+04  0.7818609E-02  0.9208242E-01
        1   -1    0    0  501    0  0.00000000000E+00  0.00000000000E+00  0.12475279255E+04  0.12475279255E+04  0.50400001928E-02 0.  1.
       -1   -1    0    0    0  501  0.00000000000E+00  0.00000000000E+00 -0.24110428051E+03  0.24110428056E+03  0.50400001928E-02 0. -1.
    10030    2    1    2    0    0  0.00000000000E+00  0.00000000000E+00  0.10064236450E+04  0.14886322061E+04  0.10968761515E+04 0.  0.
        5    1    3    3  502    0  0.54177601498E+03 -0.71824071225E+02  0.56514165931E+03  0.78618517711E+03  0.46999998093E+01 0. -1.
       -5    1    3    3    0  502 -0.54177601498E+03  0.71824071225E+02  0.44128198568E+03  0.70244702897E+03  0.46999998093E+01 0.  1.
</event>
<event>
 5   0  0.3523525E-04  0.1102076E+04  0.7818609E-02  0.9203170E-01
       -1   -1    0    0    0  501  0.00000000000E+00  0.00000000000E+00  0.15261470028E+04  0.15261470028E+04  0.50400001928E-02 0. -1.
        1   -1    0    0  501    0  0.00000000000E+00  0.00000000000E+00 -0.19896056899E+03  0.19896056906E+03  0.50400001928E-02 0.  1.
    10030    2    1    2    0    0  0.00000000000E+00  0.00000000000E+00  0.13271864338E+04  0.17251075718E+04  0.11020763605E+04 0.  0.
        5    1    3    3  502    0  0.96153544823E+02 -0.47296490665E+03  0.10797450181E+04  0.11827141249E+04  0.46999998093E+01 0. -1.
       -5    1    3    3    0  502 -0.96153544823E+02  0.47296490665E+03  0.24744141568E+03  0.54239344695E+03  0.46999998093E+01 0.  1.
</event>
<event>
 5   0  0.6412712E-04  0.1092853E+04  0.7818609E-02  0.9212186E-01
        2   -1    0    0  501    0  0.00000000000E+00  0.00000000000E+00  0.14397074320E+04  0.14397074320E+04  0.25500000920E-02 0. -1.
       -2   -1    0    0    0  501  0.00000000000E+00  0.00000000000E+00 -0.20739074311E+03  0.20739074312E+03  0.25500000920E-02 0.  1.
    10030    2    1    2    0    0  0.00000000000E+00  0.00000000000E+00  0.12323166888E+04  0.16470981751E+04  0.10928531359E+04 0.  0.
        2    1    3    3  502    0  0.15165967553E+03  0.68307930930E+02 -0.16830833317E+03  0.23663120173E+03  0.25500000920E-02 0.  1.
       -2    1    3    3    0  502 -0.15165967553E+03 -0.68307930930E+02  0.14006250220E+04  0.14104669733E+04  0.25500000920E-02 0. -1.
</event>
<event>
 5   0  0.3621403E-04  0.1100912E+04  0.7818609E-02  0.9204304E-01
       -1   -1    0    0    0  501  0.00000000000E+00  0.00000000000E+00  0.80281006802E+03  0.80281006804E+03  0.50400001928E-02 0.  1.
        1   -1    0    0  501    0  0.00000000000E+00  0.00000000000E+00 -0.37742632859E+03  0.37742632863E+03  0.50400001928E-02 0. -1.
    10030    2    1    2    0    0  0.00000000000E+00  0.00000000000E+00  0.42538373943E+03  0.11802363967E+04  0.11009117250E+04 0.  0.
        3    1    3    3  502    0  0.48779534698E+03 -0.22097450158E+03  0.34925826948E+03  0.63933980002E+03  0.10100000352E+00 0.  1.
       -3    1    3    3    0  502 -0.48779534698E+03  0.22097450158E+03  0.76125469945E+02  0.54089659665E+03  0.10100000352E+00 0. -1.
</event>
<event>
 5   0  0.5948818E-04  0.1107572E+04  0.7818609E-02  0.9197843E-01
        2   -1    0    0  501    0  0.00000000000E+00  0.00000000000E+00  0.16304839269E+04  0.16304839269E+04  0.25500000920E-02 0.  1.
       -2   -1    0    0    0  501  0.00000000000E+00  0.00000000000E+00 -0.18809064787E+03  0.18809064789E+03  0.25500000920E-02 0. -1.
    10030    2    1    2    0    0  0.00000000000E+00  0.00000000000E+00  0.14423932790E+04  0.18185745748E+04  0.11075717190E+04 0.  0.
        3    1    3    3  502    0  0.14930744870E+03  0.33778277453E+03  0.43629454499E+02  0.37187828184E+03  0.10100000352E+00 0. -1.
       -3    1    3    3    0  502 -0.14930744870E+03 -0.33778277453E+03  0.13987638245E+04  0.14466962930E+04  0.10100000352E+00 0.  1.
</event>
<event>
 5   0  0.2403875E-04  0.1098462E+04  0.7818609E-02  0.9206692E-01
       -3   -1    0    0    0  501  0.00000000000E+00  0.00000000000E+00  0.74535552616E+03  0.74535553300E+03  0.10100000352E+00 0. -1.
        3   -1    0    0  501    0  0.00000000000E+00  0.00000000000E+00 -0.40471235189E+03  0.40471236450E+03  0.10100000352E+00 0.  1.
    10030    2    1    2    0    0  0.00000000000E+00  0.00000000000E+00  0.34064317427E+03  0.11500678975E+04  0.10984618321E+04 0.  0.
        4    1    3    3  502    0  0.14468594431E+03 -0.56642803020E+02  0.72186317354E+03  0.73839723986E+03  0.12699999809E+01 0. -1.
       -4    1    3    3    0  502 -0.14468594431E+03  0.56642803020E+02 -0.38121999928E+03  0.41167065764E+03  0.12699999809E+01 0.  1.
</event>
<event>
 5   0  0.6264830E-04  0.1099483E+04  0.7818609E-02  0.9205696E-01
       -2   -1    0    0    0  501  0.00000000000E+00  0.00000000000E+00  0.29594865611E+03  0.29594865612E+03  0.25500000920E-02 0. -1.
        2   -1    0    0  501    0  0.00000000000E+00  0.00000000000E+00 -0.10211753972E+04  0.10211753972E+04  0.25500000920E-02 0.  1.
    10030    2    1    2    0    0  0.00000000000E+00  0.00000000000E+00 -0.72522674111E+03  0.13171240534E+04  0.10994825810E+04 0.  0.
        4    1    3    3  502    0  0.22403232362E+03 -0.19631858723E+03 -0.91611559408E+03  0.96332801493E+03  0.12699999809E+01 0.  1.
       -4    1    3    3    0  502 -0.22403232362E+03  0.19631858723E+03  0.19088885297E+03  0.35379603843E+03  0.12699999809E+01 0. -1.
</event>
<event>
 5   0  0.6264830E-04  0.1112574E+04  0.7818609E-02  0.9193022E-01
       -2   -1    0    0    0  501  0.00000000000E+00  0.00000000000E+00  0.20045908564E+03  0.20045908566E+03  0.25500000920E-02 0. -1.
        2   -1    0    0  501    0  0.00000000000E+00  0.00000000000E+00 -0.15437338141E+04  0.15437338141E+04  0.25500000920E-02 0.  1.
    10030    2    1    2    0    0  0.00000000000E+00  0.00000000000E+00 -0.13432747284E+04  0.17441928997E+04  0.11125744359E+04 0.  0.
        4    1    3    3  502    0 -0.53583545243E+03  0.97390011122E+02 -0.49392934571E+03  0.73523619184E+03  0.12699999809E+01 0. -1.
       -4    1    3    3    0  502  0.53583545243E+03 -0.97390011122E+02 -0.84934538270E+03  0.10089567079E+04  0.12699999809E+01 0.  1.
</event>
<event>
 5   0  0.3642161E-04  0.1096913E+04  0.7818609E-02  0.9208206E-01
        1   -1    0    0  501    0  0.00000000000E+00  0.00000000000E+00  0.68482089674E+03  0.68482089676E+03  0.50400001928E-02 0. -1.
       -1   -1    0    0    0  501  0.00000000000E+00  0.00000000000E+00 -0.43924532365E+03  0.43924532368E+03  0.50400001928E-02 0.  1.
    10030    2    1    2    0    0  0.00000000000E+00  0.00000000000E+00  0.24557557309E+03  0.11240662204E+04  0.10969127157E+04 0.  0.
        2    1    3    3  502    0 -0.39204180540E+03 -0.37443667825E+03  0.20793972451E+03  0.58063631667E+03  0.25500000920E-02 0. -1.
       -2    1    3    3    0  502  0.39204180540E+03  0.37443667825E+03  0.37635848579E+02  0.54342990377E+03  0.25500000920E-02 0.  1.
</event>
<event>
 5   0  0.6109149E-04  0.1103024E+04  0.7818609E-02  0.9202249E-01
        2   -1    0    0  501    0  0.00000000000E+00  0.00000000000E+00  0.61015139161E+03  0.61015139162E+03  0.25500000920E-02 0. -1.
       -2   -1    0    0    0  501  0.00000000000E+00  0.00000000000E+00 -0.49850867387E+03  0.49850867387E+03  0.25500000920E-02 0.  1.
    10030    2    1    2    0    0  0.00000000000E+00  0.00000000000E+00  0.11164271775E+03  0.11086600655E+04  0.11030244985E+04 0.  0.
        1    1    3    3  502    0  0.35245120283E+03  0.11421289751E+03  0.46644177209E+03  0.59567974879E+03  0.50400001928E-02 0. -1.
       -1    1    3    3    0  502 -0.35245120283E+03 -0.11421289751E+03 -0.35479905435E+03  0.51298031670E+03  0.50400001928E-02 0.  1.
</event>
<event>
 5   0  0.3423758E-04  0.1100180E+04  0.7818609E-02  0.9205016E-01
       -1   -1    0    0    0  501  0.00000000000E+00  0.00000000000E+00  0.94117483638E+03  0.94117483639E+03  0.50400001928E-02 0. -1.
        1   -1    0    0  501    0  0.00000000000E+00  0.00000000000E+00 -0.32151223552E+03  0.32151223556E+03  0.50400001928E-02 0.  1.
    10030    2    1    2    0    0  0.00000000000E+00  0.00000000000E+00  0.61966260086E+03  0.12626870720E+04  0.11001803956E+04 0.  0.
        1    1    3    3  502    0 -0.48833315613E+03 -0.21643163634E+03  0.46073345131E+03  0.70539863749E+03  0.50400001928E-02 0.  1.
       -1    1    3    3    0  502  0.48833315613E+03  0.21643163634E+03  0.15892914955E+03  0.55728843446E+03  0.50400001928E-02 0. -1.
</event>
<event>
 5   0  0.3523525E-04  0.1098448E+04  0.7818609E-02  0.9206706E-01
       -1   -1    0    0    0  501  0.00000000000E+00  0.00000000000E+00  0.37732159798E+03  0.37732159801E+03  0.50400001928E-02 0.  1.
        1   -1    0    0  501    0  0.00000000000E+00  0.00000000000E+00 -0.79944256883E+03  0.79944256885E+03  0.50400001928E-02 0. -1.
    10030    2    1    2    0    0  0.00000000000E+00  0.00000000000E+00 -0.42212097085E+03  0.11767641669E+04  0.10984479006E+04 0.  0.
        5    1    3    3  502    0 -0.10298577014E+03  0.41940415374E+03  0.15242190195E+03  0.45799611267E+03  0.46999998093E+01 0.  1.
       -5    1    3    3    0  502  0.10298577014E+03 -0.41940415374E+03 -0.57454287280E+03  0.71876805419E+03  0.46999998093E+01 0. -1.
</event>
<event>
 5   0  0.6109149E-04  0.1106269E+04  0.7818609E-02  0.9199103E-01
       -2   -1    0    0    0  501  0.00000000000E+00  0.00000000000E+00  0.12089152242E+04  0.12089152242E+04  0.25500000920E-02 0. -1.
        2   -1    0    0  501    0  0.00000000000E+00  0.00000000000E+00 -0.25308443443E+03  0.25308443445E+03  0.25500000920E-02 0.  1.
    10030    2    1    2    0    0  0.00000000000E+00  0.00000000000E+00  0.95583078979E+03  0.14619996587E+04  0.11062687301E+04 0.  0.
        1    1    3    3  502    0  0.17998212458E+03 -0.50891026401E+03  0.63745996697E+03  0.83530738743E+03  0.50400001928E-02 0. -1.
       -1    1    3    3    0  502 -0.17998212458E+03  0.50891026401E+03  0.31837082282E+03  0.62669227124E+03  0.50400001928E-02 0.  1.
</event>
<event>
 5   0  0.3523525E-04  0.1099878E+04  0.7818609E-02  0.9205311E-01
        1   -1    0    0  501    0  0.00000000000E+00  0.00000000000E+00  0.40689365153E+03  0.40689365156E+03  0.50400001928E-02 0.  1.
       -1   -1    0    0    0  501  0.00000000000E+00  0.00000000000E+00 -0.74327281862E+03  0.74327281864E+03  0.50400001928E-02 0. -1.
    10030    2    1    2    0    0  0.00000000000E+00  0.00000000000E+00 -0.33637916709E+03  0.11501664702E+04  0.10998781592E+04 0.  0.
        5    1    3    3  502    0 -0.17000324282E+03 -0.24611522441E+03 -0.65073899155E+03  0.71621025640E+03  0.46999998093E+01 0. -1.
       -5    1    3    3    0  502  0.17000324282E+03  0.24611522441E+03  0.31435982446E+03  0.43395621379E+03  0.46999998093E+01 0.  1.
</event>
<event>
 5   0  0.3621403E-04  0.1093566E+04  0.7818609E-02  0.9211485E-01
       -1   -1    0    0    0  501  0.00000000000E+00  0.00000000000E+00  0.71060111771E+03  0.71060111773E+03  0.50400001928E-02 0.  1.
        1   -1    0    0  501    0  0.00000000000E+00  0.00000000000E+00 -0.42073084414E+03  0.42073084417E+03  0.50400001928E-02 0. -1.
    10030    2    1    2    0    0  0.00000000000E+00  0.00000000000E+00  0.28987027357E+03  0.11313319619E+04  0.10935662909E+04 0.  0.
        3    1    3    3  502    0  0.39572974094E+03 -0.29211255591E+03 -0.10214327142E+03  0.50235946421E+03  0.10100000352E+00 0. -1.
       -3    1    3    3    0  502 -0.39572974094E+03  0.29211255591E+03  0.39201354500E+03  0.62897249769E+03  0.10100000352E+00 0.  1.
</event>
<event>
 5   0  0.3657529E-04  0.1100291E+04  0.7818609E-02  0.9204909E-01
        1   -1    0    0  501    0  0.00000000000E+00  0.00000000000E+00  0.10002936059E+04  0.10002936059E+04  0.50400001928E-02 0.  1.
       -1   -1    0    0    0  501  0.00000000000E+00  0.00000000000E+00 -0.30257099424E+03  0.30257099428E+03  0.50400001928E-02 0. -1.
    10030    2    1    2    0    0  0.00000000000E+00  0.00000000000E+00  0.69772261167E+03  0.13028646002E+04  0.11002905633E+04 0.  0.
        4    1    3    3  502    0  0.41806586997E+03  0.19532760262E+03  0.70355356682E+03  0.84138051931E+03  0.12699999809E+01 0.  1.
       -4    1    3    3    0  502 -0.41806586997E+03 -0.19532760262E+03 -0.58309551488E+01  0.46148408089E+03  0.12699999809E+01 0. -1.
</event>
<event>
 5   0  0.6245176E-04  0.1091426E+04  0.7818609E-02  0.9213589E-01
        2   -1    0    0  501    0  0.00000000000E+00  0.00000000000E+00  0.21037535626E+04  0.21037535626E+04  0.25500000920E-02 0. -1.
       -2   -1    0    0    0  501  0.00000000000E+00  0.00000000000E+00 -0.14155773389E+03  0.14155773392E+03  0.25500000920E-02 0.  1.
    10030    2    1    2    0    0  0.00000000000E+00  0.00000000000E+00  0.19621958287E+04  0.22453112965E+04  0.10914258326E+04 0.  0.
        5    1    3    3  502    0 -0.21594502753E+03  0.64271266573E+02 -0.41361661134E+02  0.22911989794E+03  0.46999998093E+01 0.  1.
       -5    1    3    3    0  502  0.21594502753E+03 -0.64271266573E+02  0.20035574899E+04  0.20161913986E+04  0.46999998093E+01 0. -1.
</event>
<event>
 5   0  0.6109149E-04  0.1098524E+04  0.7818609E-02  0.9206632E-01
       -2   -1    0    0    0  501  0.00000000000E+00  0.00000000000E+00  0.19549676864E+03  0.19549676866E+03  0.25500000920E-02 0. -1.
        2   -1    0    0  501    0  0.00000000000E+00  0.00000000000E+00 -0.15431890623E+04  0.15431890623E+04  0.25500000920E-02 0.  1.
    10030    2    1    2    0    0  0.00000000000E+00  0.00000000000E+00 -0.13476922937E+04  0.17386858310E+04  0.10985235093E+04 0.  0.
        1    1    3    3  502    0  0.21119827289E+03  0.26349600224E+03 -0.13594768135E+04  0.14007897987E+04  0.50400001928E-02 0.  1.
       -1    1    3    3    0  502 -0.21119827289E+03 -0.26349600224E+03  0.11784519867E+02  0.33789603224E+03  0.50400001928E-02 0. -1.
</event>
<event>
 5   0  0.3642161E-04  0.1100383E+04  0.7818609E-02  0.9204819E-01
       -1   -1    0    0    0  501  0.00000000000E+00  0.00000000000E+00  0.32701687024E+03  0.32701687027E+03  0.50400001928E-02 0. -1.
        1   -1    0    0  501    0  0.00000000000E+00  0.00000000000E+00 -0.92567263241E+03  0.92567263243E+03  0.50400001928E-02 0.  1.
    10030    2    1    2    0    0  0.00000000000E+00  0.00000000000E+00 -0.59865576218E+03  0.12526895027E+04  0.11003827828E+04 0.  0.
        2    1    3    3  502    0  0.61725789508E+02  0.48824945111E+03 -0.19285425504E+02  0.49251347925E+03  0.25500000920E-02 0. -1.
       -2    1    3    3    0  502 -0.61725789508E+02 -0.48824945111E+03 -0.57937033668E+03  0.76017602345E+03  0.25500000920E-02 0.  1.
</event>
<event>
 5   0  0.3523525E-04  0.1099705E+04  0.7818609E-02  0.9205480E-01
        1   -1    0    0  501    0  0.00000000000E+00  0.00000000000E+00  0.10067369990E+04  0.10067369990E+04  0.50400001928E-02 0.  1.
       -1   -1    0    0    0  501  0.00000000000E+00  0.00000000000E+00 -0.30031432181E+03  0.30031432186E+03  0.50400001928E-02 0. -1.
    10030    2    1    2    0    0  0.00000000000E+00  0.00000000000E+00  0.70642267718E+03  0.13070513209E+04  0.10997045769E+04 0.  0.
        5    1    3    3  502    0  0.50183093450E+03  0.31583728906E+02  0.61760277534E+03  0.79642143170E+03  0.46999998093E+01 0.  1.
       -5    1    3    3    0  502 -0.50183093450E+03 -0.31583728906E+02  0.88819901835E+02  0.51062988917E+03  0.46999998093E+01 0. -1.
</event>
<event>
 5   0  0.5948818E-04  0.1100221E+04  0.7818609E-02  0.9204977E-01
       -2   -1    0    0    0  501  0.00000000000E+00  0.00000000000E+00  0.37115416217E+03  0.37115416218E+03  0.25500000920E-02 0. -1.
        2   -1    0    0  501    0  0.00000000000E+00  0.00000000000E+00 -0.81535230688E+03  0.81535230689E+03  0.25500000920E-02 0.  1.
    10030    2    1    2    0    0  0.00000000000E+00  0.00000000000E+00 -0.44419814471E+03  0.11865064691E+04  0.11002207094E+04 0.  0.
        3    1    3    3  502    0  0.83662782510E+02 -0.35203009784E+03 -0.66895890771E+03  0.76054630456E+03  0.10100000352E+00 0.  1.
       -3    1    3    3    0  502 -0.83662782510E+02  0.35203009784E+03  0.22476076300E+03  0.42596016451E+03  0.10100000352E+00 0. -1.
</event>
<event>
 5   0  0.6109149E-04  0.1098700E+04  0.7818609E-02  0.9206460E-01
        2   -1    0    0  501    0  0.00000000000E+00  0.00000000000E+00  0.31543590010E+03  0.31543590011E+03  0.25500000920E-02 0.  1.
       -2   -1    0    0    0  501  0.00000000000E+00  0.00000000000E+00 -0.95672548727E+03  0.95672548728E+03  0.25500000920E-02 0. -1.
    10030    2    1    2    0    0  0.00000000000E+00  0.00000000000E+00 -0.64128958717E+03  0.12721613874E+04  0.10987002598E+04 0.  0.
        1    1    3    3  502    0  0.48951431235E+03 -0.22933559596E+03 -0.20739452522E+03  0.57899185373E+03  0.50400001928E-02 0.  1.
       -1    1    3    3    0  502 -0.48951431235E+03  0.22933559596E+03 -0.43389506196E+03  0.69316953366E+03  0.50400001928E-02 0. -1.
</event>
<event>
 5   0  0.2403875E-04  0.1093567E+04  0.7818609E-02  0.9211484E-01
        3   -1    0    0  501    0  0.00000000000E+00  0.00000000000E+00  0.53155878690E+03  0.53155879650E+03  0.10100000352E+00 0. -1.
       -3   -1    0    0    0  501  0.00000000000E+00  0.00000000000E+00 -0.56244469834E+03  0.56244470741E+03  0.10100000352E+00 0.  1.
    10030    2    1    2    0    0  0.00000000000E+00  0.00000000000E+00 -0.30885911440E+02  0.10940035039E+04  0.10935674314E+04 0.  0.
        1    1    3    3  502    0  0.42838240784E+03  0.28757402472E+03  0.16563232820E+03  0.54188963379E+03  0.50400001928E-02 0. -1.
       -1    1    3    3    0  502 -0.42838240784E+03 -0.28757402472E+03 -0.19651823964E+03  0.55211387012E+03  0.50400001928E-02 0.  1.
</event>
<event>
 5   0  0.3523525E-04  0.1100247E+04  0.7818609E-02  0.9204951E-01
       -1   -1    0    0    0  501  0.00000000000E+00  0.00000000000E+00  0.21945877841E+03  0.21945877847E+03  0.50400001928E-02 0.  1.
        1   -1    0    0  501    0  0.00000000000E+00  0.00000000000E+00 -0.13790092128E+04  0.13790092129E+04  0.50400001928E-02 0. -1.
    10030    2    1    2    0    0  0.00000000000E+00  0.00000000000E+00 -0.11595504344E+04  0.15984679913E+04  0.11002466584E+04 0.  0.
        5    1    3    3  502    0 -0.13803874558E+03  0.10038178095E+03 -0.13395389685E+04  0.13503769604E+04  0.46999998093E+01 0. -1.
       -5    1    3    3    0  502  0.13803874558E+03 -0.10038178095E+03  0.17998853403E+03  0.24809103089E+03  0.46999998093E+01 0.  1.
</event>
<event>
 5   0  0.3642161E-04  0.1096925E+04  0.7818609E-02  0.9208194E-01
        1   -1    0    0  501    0  0.00000000000E+00  0.00000000000E+00  0.95824236931E+03  0.95824236932E+03  0.50400001928E-02 0. -1.
       -1   -1    0    0    0  501  0.00000000000E+00  0.00000000000E+00 -0.31391977763E+03  0.31391977767E+03  0.50400001928E-02 0.  1.
    10030    2    1    2    0    0  0.00000000000E+00  0.00000000000E+00  0.64432259168E+03  0.12721621470E+04  0.10969252144E+04 0.  0.
        2    1    3    3  502    0  0.10634068626E+03 -0.28710239401E+03 -0.20559010532E+03  0.36878641191E+03  0.25500000920E-02 0.  1.
       -2    1    3    3    0  502 -0.10634068626E+03  0.28710239401E+03  0.84991269699E+03  0.90337573507E+03  0.25500000920E-02 0. -1.
</event>
<event>
 5   0  0.3523525E-04  0.1098995E+04  0.7818609E-02  0.9206172E-01
        1   -1    0    0  501    0  0.00000000000E+00  0.00000000000E+00  0.22757602399E+04  0.22757602399E+04  0.50400001928E-02 0. -1.
       -1   -1    0    0    0  501  0.00000000000E+00  0.00000000000E+00 -0.13267973823E+03  0.13267973832E+03  0.50400001928E-02 0.  1.
    10030    2    1    2    0    0  0.00000000000E+00  0.00000000000E+00  0.21430805017E+04  0.24084399783E+04  0.10989945824E+04 0.  0.
        5    1    3    3  502    0 -0.32354688510E+03  0.26689664614E+03  0.29360997605E+03  0.51200128380E+03  0.46999998093E+01 0.  1.
       -5    1    3    3    0  502  0.32354688510E+03 -0.26689664614E+03  0.18494705257E+04  0.18964386945E+04  0.46999998093E+01 0. -1.
</event>
<event>
 5   0  0.3642161E-04  0.1073904E+04  0.7818609E-02  0.9231007E-01
       -1   -1    0    0    0  501  0.00000000000E+00  0.00000000000E+00  0.81388124344E+03  0.81388124346E+03  0.50400001928E-02 0.  1.
        1   -1    0    0  501    0  0.00000000000E+00  0.00000000000E+00 -0.35424992382E+03  0.35424992386E+03  0.50400001928E-02 0. -1.
    10030    2    1    2    0    0  0.00000000000E+00  0.00000000000E+00  0.45963131962E+03  0.11681311673E+04  0.10739038477E+04 0.  0.
        2    1    3    3  502    0 -0.10767659701E+03  0.50299645414E+03  0.62297315650E+02  0.51815117289E+03  0.25500000920E-02 0. -1.
       -2    1    3    3    0  502  0.10767659701E+03 -0.50299645414E+03  0.39733400397E+03  0.64997999442E+03  0.25500000920E-02 0.  1.
</event>
<event>
 5   0  0.3523525E-04  0.1100657E+04  0.7818609E-02  0.9204552E-01
       -1   -1    0    0    0  501  0.00000000000E+00  0.00000000000E+00  0.67933096467E+03  0.67933096469E+03  0.50400001928E-02 0.  1.
        1   -1    0    0  501    0  0.00000000000E+00  0.00000000000E+00 -0.44582276740E+03  0.44582276742E+03  0.50400001928E-02 0. -1.
    10030    2    1    2    0    0  0.00000000000E+00  0.00000000000E+00  0.23350819728E+03  0.11251537321E+04  0.11006565507E+04 0.  0.
        5    1    3    3  502    0  0.49962460188E+03 -0.76296663287E+02 -0.10579100601E+03  0.51639108298E+03  0.46999998093E+01 0. -1.
       -5    1    3    3    0  502 -0.49962460188E+03  0.76296663287E+02  0.33929920329E+03  0.60876264914E+03  0.46999998093E+01 0.  1.
</event>
<event>
 5   0  0.2403875E-04  0.1099648E+04  0.7818609E-02  0.9205535E-01
        4   -1    0    0  501    0  0.00000000000E+00  0.00000000000E+00  0.11962879575E+04  0.11962886316E+04  0.12699999809E+01 0. -1.
       -4   -1    0    0    0  501  0.00000000000E+00  0.00000000000E+00 -0.25270160702E+03  0.25270479831E+03  0.12699999809E+01 0.  1.
    10030    2    1    2    0    0  0.00000000000E+00  0.00000000000E+00  0.94358635049E+03  0.14489934300E+04  0.10996484707E+04 0.  0.
        3    1    3    3  502    0 -0.12113996332E+03 -0.18402750977E+03 -0.19199417482E+03  0.29223755479E+03  0.10100000352E+00 0.  1.
       -3    1    3    3    0  502  0.12113996332E+03  0.18402750977E+03  0.11355805253E+04  0.11567558752E+04  0.10100000352E+00 0. -1.
</event>
<event>
 5   0  0.5948818E-04  0.1100513E+04  0.7818609E-02  0.9204692E-01
        2   -1    0    0  501    0  0.00000000000E+00  0.00000000000E+00  0.73411288938E+03  0.73411288939E+03  0.25500000920E-02 0. -1.
       -2   -1    0    0    0  501  0.00000000000E+00  0.00000000000E+00 -0.41244642665E+03  0.41244642666E+03  0.25500000920E-02 0.  1.
    10030    2    1    2    0    0  0.00000000000E+00  0.00000000000E+00  0.32166646273E+03  0.11465593160E+04  0.11005130403E+04 0.  0.
        3    1    3    3  502    0 -0.16248124300E+03  0.50987477801E+03  0.27372724628E+02  0.53583740055E+03  0.10100000352E+00 0.  1.
       -3    1    3    3    0  502  0.16248124300E+03 -0.50987477801E+03  0.29429373810E+03  0.61072191549E+03  0.10100000352E+00 0. -1.
</event>
<event>
 5   0  0.6412712E-04  0.1099125E+04  0.7818609E-02  0.9206045E-01
        2   -1    0    0  501    0  0.00000000000E+00  0.00000000000E+00  0.80894131132E+03  0.80894131132E+03  0.25500000920E-02 0. -1.
       -2   -1    0    0    0  501  0.00000000000E+00  0.00000000000E+00 -0.37335093846E+03  0.37335093847E+03  0.25500000920E-02 0.  1.
    10030    2    1    2    0    0  0.00000000000E+00  0.00000000000E+00  0.43559037286E+03  0.11822922498E+04  0.10991251025E+04 0.  0.
        2    1    3    3  502    0 -0.39660022799E+03 -0.18038440142E+03  0.57808528035E+03  0.72388732858E+03  0.25500000920E-02 0. -1.
       -2    1    3    3    0  502  0.39660022799E+03  0.18038440142E+03 -0.14249490749E+03  0.45840492121E+03  0.25500000920E-02 0.  1.
</event>
<event>
 5   0  0.6109149E-04  0.1099941E+04  0.7818609E-02  0.9205249E-01
       -2   -1    0    0    0  501  0.00000000000E+00  0.00000000000E+00  0.36370167833E+03  0.36370167834E+03  0.25500000920E-02 0.  1.
        2   -1    0    0  501    0  0.00000000000E+00  0.00000000000E+00 -0.83163673958E+03  0.83163673958E+03  0.25500000920E-02 0. -1.
    10030    2    1    2    0    0  0.00000000000E+00  0.00000000000E+00 -0.46793506125E+03  0.11953384179E+04  0.10999412311E+04 0.  0.
        1    1    3    3  502    0  0.38753415543E+03 -0.99832351066E+02 -0.64393746731E+03  0.75815874444E+03  0.50400001928E-02 0. -1.
       -1    1    3    3    0  502 -0.38753415543E+03  0.99832351066E+02  0.17600240606E+03  0.43717967349E+03  0.50400001928E-02 0.  1.
</event>
<event>
 5   0  0.3642161E-04  0.1100186E+04  0.7818609E-02  0.9205010E-01
        1   -1    0    0  501    0  0.00000000000E+00  0.00000000000E+00  0.60259539933E+03  0.60259539935E+03  0.50400001928E-02 0. -1.
       -1   -1    0    0    0  501  0.00000000000E+00  0.00000000000E+00 -0.50216518788E+03  0.50216518791E+03  0.50400001928E-02 0.  1.
    10030    2    1    2    0    0  0.00000000000E+00  0.00000000000E+00  0.10043021144E+03  0.11047605873E+04  0.11001862241E+04 0.  0.
        2    1    3    3  502    0  0.39444381594E+03 -0.16892811192E+03 -0.29542499865E+03  0.52095926977E+03  0.25500000920E-02 0.  1.
       -2    1    3    3    0  502 -0.39444381594E+03  0.16892811192E+03  0.39585521010E+03  0.58380131748E+03  0.25500000920E-02 0. -1.
</event>
<event>
 5   0  0.6264830E-04  0.1097093E+04  0.7818609E-02  0.9208030E-01
       -2   -1    0    0    0  501  0.00000000000E+00  0.00000000000E+00  0.40617551971E+03  0.40617551972E+03  0.25500000920E-02 0.  1.
        2   -1    0    0  501    0  0.00000000000E+00  0.00000000000E+00 -0.74082100662E+03  0.74082100662E+03  0.25500000920E-02 0. -1.
    10030    2    1    2    0    0  0.00000000000E+00  0.00000000000E+00 -0.33464548691E+03  0.11469965263E+04  0.10970931727E+04 0.  0.
        4    1    3    3  502    0  0.43065787010E+03 -0.28781331379E+03 -0.35608753569E+03  0.62857191367E+03  0.12699999809E+01 0. -1.
       -4    1    3    3    0  502 -0.43065787010E+03  0.28781331379E+03  0.21442048783E+02  0.51842461268E+03  0.12699999809E+01 0.  1.
</event>
<event>
 5   0  0.3423758E-04  0.1099730E+04  0.7818609E-02  0.9205455E-01
        1   -1    0    0  501    0  0.00000000000E+00  0.00000000000E+00  0.92497147923E+03  0.92497147924E+03  0.50400001928E-02 0.  1.
       -1   -1    0    0    0  501  0.00000000000E+00  0.00000000000E+00 -0.32687642521E+03  0.32687642524E+03  0.50400001928E-02 0. -1.
    10030    2    1    2    0    0  0.00000000000E+00  0.00000000000E+00  0.59809505402E+03  0.12518479045E+04  0.10997297315E+04 0.  0.
        1    1    3    3  502    0  0.44449005949E+02  0.45087702167E+03 -0.55637567296E+02  0.45646614520E+03  0.50400001928E-02 0. -1.
       -1    1    3    3    0  502 -0.44449005949E+02 -0.45087702167E+03  0.65373262132E+03  0.79538175928E+03  0.50400001928E-02 0.  1.
</event>
<event>
 5   0  0.3642161E-04  0.1100686E+04  0.7818609E-02  0.9204524E-01
       -1   -1    0    0    0  501  0.00000000000E+00  0.00000000000E+00  0.56408167761E+03  0.56408167763E+03  0.50400001928E-02 0. -1.
        1   -1    0    0  501    0  0.00000000000E+00  0.00000000000E+00 -0.53693849076E+03  0.53693849078E+03  0.50400001928E-02 0.  1.
    10030    2    1    2    0    0  0.00000000000E+00  0.00000000000E+00  0.27143186852E+02  0.11010201684E+04  0.11006855403E+04 0.  0.
        2    1    3    3  502    0  0.46078796698E+02 -0.33586916606E+03 -0.42008738272E+03  0.53981919319E+03  0.25500000920E-02 0.  1.
       -2    1    3    3    0  502 -0.46078796698E+02  0.33586916606E+03  0.44723056957E+03  0.56120097521E+03  0.25500000920E-02 0. -1.
</event>
<event>
 5   0  0.5948818E-04  0.1099921E+04  0.7818609E-02  0.9205269E-01
       -2   -1    0    0    0  501  0.00000000000E+00  0.00000000000E+00  0.71360380948E+03  0.71360380949E+03  0.25500000920E-02 0. -1.
        2   -1    0    0  501    0  0.00000000000E+00  0.00000000000E+00 -0.42384357413E+03  0.42384357414E+03  0.25500000920E-02 0.  1.
    10030    2    1    2    0    0  0.00000000000E+00  0.00000000000E+00  0.28976023535E+03  0.11374473836E+04  0.10999207047E+04 0.  0.
        3    1    3    3  502    0 -0.34068757378E+03  0.41318809911E+03  0.27430583881E+03  0.60169438387E+03  0.10100000352E+00 0. -1.
       -3    1    3    3    0  502  0.34068757378E+03 -0.41318809911E+03  0.15454396543E+02  0.53575299976E+03  0.10100000352E+00 0.  1.
</event>
<event>
 5   0  0.3523525E-04  0.1102723E+04  0.7818609E-02  0.9202542E-01
        1   -1    0    0  501    0  0.00000000000E+00  0.00000000000E+00  0.65330246039E+03  0.65330246041E+03  0.50400001928E-02 0.  1.
       -1   -1    0    0    0  501  0.00000000000E+00  0.00000000000E+00 -0.46532721585E+03  0.46532721588E+03  0.50400001928E-02 0. -1.
    10030    2    1    2    0    0  0.00000000000E+00  0.00000000000E+00  0.18797524454E+03  0.11186296763E+04  0.11027228392E+04 0.  0.
        5    1    3    3  502    0 -0.43307383489E+03 -0.32193085883E+02 -0.25060046500E+03  0.50141003610E+03  0.46999998093E+01 0. -1.
       -5    1    3    3    0  502  0.43307383489E+03  0.32193085883E+02  0.43857570954E+03  0.61721964019E+03  0.46999998093E+01 0.  1.
</event>
<event>
 5   0  0.5948818E-04  0.1097785E+04  0.7818609E-02  0.9207354E-01
       -2   -1    0    0    0  501  0.00000000000E+00  0.00000000000E+00  0.22241892859E+03  0.22241892861E+03  0.25500000920E-02 0.  1.
        2   -1    0    0  501    0  0.00000000000E+00  0.00000000000E+00 -0.13545733321E+04  0.13545733322E+04  0.25500000920E-02 0. -1.
    10030    2    1    2    0    0  0.00000000000E+00  0.00000000000E+00 -0.11321544036E+04  0.15769922608E+04  0.10977845859E+04 0.  0.
        3    1    3    3  502    0 -0.38580687261E+03 -0.38909811869E+03 -0.51978527528E+03  0.75526222699E+03  0.10100000352E+00 0. -1.
       -3    1    3    3    0  502  0.38580687261E+03  0.38909811869E+03 -0.61236912828E+03  0.82173003376E+03  0.10100000352E+00 0.  1.
</event>
<event>
 5   0  0.2403875E-04  0.1098536E+04  0.7818609E-02  0.9206620E-01
       -3   -1    0    0    0  501  0.00000000000E+00  0.00000000000E+00  0.22544382651E+03  0.22544384913E+03  0.10100000352E+00 0. -1.
        3   -1    0    0  501    0  0.00000000000E+00  0.00000000000E+00 -0.13382278024E+04  0.13382278062E+04  0.10100000352E+00 0.  1.
    10030    2    1    2    0    0  0.00000000000E+00  0.00000000000E+00 -0.11127839759E+04  0.15636716554E+04  0.10985357840E+04 0.  0.
        3    1    3    3  502    0  0.17743298822E+03  0.24030028699E+03 -0.12125049920E+04  0.12487574060E+04  0.10100000352E+00 0.  1.
       -3    1    3    3    0  502 -0.17743298822E+03 -0.24030028699E+03  0.99721016041E+02  0.31491424940E+03  0.10100000352E+00 0. -1.
</event>
<event>
 5   0  0.3657529E-04  0.1100472E+04  0.7818609E-02  0.9204732E-01
       -1   -1    0    0    0  501  0.00000000000E+00  0.00000000000E+00  0.29112380565E+03  0.29112380569E+03  0.50400001928E-02 0.  1.
        1   -1    0    0  501    0  0.00000000000E+00  0.00000000000E+00 -0.10399686022E+04  0.10399686022E+04  0.50400001928E-02 0. -1.
    10030    2    1    2    0    0  0.00000000000E+00  0.00000000000E+00 -0.74884479658E+03  0.13310924079E+04  0.11004719302E+04 0.  0.
        4    1    3    3  502    0  0.64504843016E+01  0.31692150434E+03  0.16958230697E+03  0.35950051516E+03  0.12699999809E+01 0.  1.
       -4    1    3    3    0  502 -0.64504843016E+01 -0.31692150434E+03 -0.91842710356E+03  0.97159189278E+03  0.12699999809E+01 0. -1.
</event>
<event>
 5   0  0.3523525E-04  0.1099032E+04  0.7818609E-02  0.9206136E-01
       -1   -1    0    0    0  501  0.00000000000E+00  0.00000000000E+00  0.80591346581E+03  0.80591346583E+03  0.50400001928E-02 0.  1.
        1   -1    0    0  501    0  0.00000000000E+00  0.00000000000E+00 -0.37468998539E+03  0.37468998542E+03  0.50400001928E-02 0. -1.
    10030    2    1    2    0    0  0.00000000000E+00  0.00000000000E+00  0.43122348042E+03  0.11806034513E+04  0.10990317643E+04 0.  0.
        5    1    3    3  502    0  0.77771159226E+02 -0.51455978523E+03  0.26093115890E+02  0.52107875266E+03  0.46999998093E+01 0. -1.
       -5    1    3    3    0  502 -0.77771159226E+02  0.51455978523E+03  0.40513036453E+03  0.65952469859E+03  0.46999998093E+01 0.  1.
</event>
<event>
 5   0  0.6245176E-04  0.1102983E+04  0.7818609E-02  0.9202289E-01
        2   -1    0    0  501    0  0.00000000000E+00  0.00000000000E+00  0.12097556280E+04  0.12097556280E+04  0.25500000920E-02 0. -1.
       -2   -1    0    0    0  501  0.00000000000E+00  0.00000000000E+00 -0.25140856223E+03  0.25140856224E+03  0.25500000920E-02 0.  1.
    10030    2    1    2    0    0  0.00000000000E+00  0.00000000000E+00  0.95834706580E+03  0.14611641903E+04  0.11029830880E+04 0.  0.
        5    1    3    3  502    0 -0.28638373234E+02 -0.27052029067E+03  0.11146607651E+04  0.11473848942E+04  0.46999998093E+01 0. -1.
       -5    1    3    3    0  502  0.28638373234E+02  0.27052029067E+03 -0.15631369930E+03  0.31377929612E+03  0.46999998093E+01 0.  1.
</event>
<event>
 5   0  0.3423758E-04  0.1099263E+04  0.7818609E-02  0.9205910E-01
       -1   -1    0    0    0  501  0.00000000000E+00  0.00000000000E+00  0.28443638378E+03  0.28443638383E+03  0.50400001928E-02 0.  1.
        1   -1    0    0  501    0  0.00000000000E+00  0.00000000000E+00 -0.10620824637E+04  0.10620824637E+04  0.50400001928E-02 0. -1.
    10030    2    1    2    0    0  0.00000000000E+00  0.00000000000E+00 -0.77764607989E+03  0.13465188475E+04  0.10992631992E+04 0.  0.
        1    1    3    3  502    0 -0.72236482906E+02  0.52334544041E+02 -0.10531566541E+04  0.10569276002E+04  0.50400001928E-02 0. -1.
       -1    1    3    3    0  502  0.72236482906E+02 -0.52334544041E+02  0.27551057424E+03  0.28959124729E+03  0.50400001928E-02 0.  1.
</event>
<event>
 5   0  0.6245176E-04  0.1100805E+04  0.7818609E-02  0.9204407E-01
       -2   -1    0    0    0  501  0.00000000000E+00  0.00000000000E+00  0.14238474977E+03  0.14238474979E+03  0.25500000920E-02 0. -1.
        2   -1    0    0  501    0  0.00000000000E+00  0.00000000000E+00 -0.21276367261E+04  0.21276367261E+04  0.25500000920E-02 0.  1.
    10030    2    1    2    0    0  0.00000000000E+00  0.00000000000E+00 -0.19852519764E+04  0.22700214759E+04  0.11008052014E+04 0.  0.
        5    1    3    3  502    0  0.18443354258E+03 -0.57316004142E+02 -0.20554220635E+04  0.20644812436E+04  0.46999998093E+01 0.  1.
       -5    1    3    3    0  502 -0.18443354258E+03  0.57316004142E+02  0.70170087187E+02  0.20554023230E+03  0.46999998093E+01 0. -1.
</event>
<event>
 5   0  0.3642161E-04  0.1099473E+04  0.7818609E-02  0.9205706E-01
        1   -1    0    0  501    0  0.00000000000E+00  0.00000000000E+00  0.66684375384E+03  0.66684375386E+03  0.50400001928E-02 0.  1.
       -1   -1    0    0    0  501  0.00000000000E+00  0.00000000000E+00 -0.45319462429E+03  0.45319462432E+03  0.50400001928E-02 0. -1.
    10030    2    1    2    0    0  0.00000000000E+00  0.00000000000E+00  0.21364912955E+03  0.11200383782E+04  0.10994726090E+04 0.  0.
        2    1    3    3  502    0  0.79877238965E+02 -0.40674488242E+03  0.47467196220E+03  0.63018667424E+03  0.25500000920E-02 0.  1.
       -2    1    3    3    0  502 -0.79877238965E+02  0.40674488242E+03 -0.26102283265E+03  0.48985170394E+03  0.25500000920E-02 0. -1.
</event>
<event>
 5   0  0.3621403E-04  0.1100712E+04  0.7818609E-02  0.9204499E-01
       -1   -1    0    0    0  501  0.00000000000E+00  0.00000000000E+00  0.36634974337E+03  0.36634974340E+03  0.50400001928E-02 0. -1.
        1   -1    0    0  501    0  0.00000000000E+00  0.00000000000E+00 -0.82678230222E+03  0.82678230223E+03  0.50400001928E-02 0.  1.
    10030    2    1    2    0    0  0.00000000000E+00  0.00000000000E+00 -0.46043255885E+03  0.11931320456E+04  0.11007115594E+04 0.  0.
        3    1    3    3  502    0  0.15052705217E+03 -0.51122446575E+03 -0.81264333394E+02  0.53908510450E+03  0.10100000352E+00 0. -1.
       -3    1    3    3    0  502 -0.15052705217E+03  0.51122446575E+03 -0.37916822546E+03  0.65404694114E+03  0.10100000352E+00 0.  1.
</event>
<event>
 5   0  0.2403875E-04  0.1098554E+04  0.7818609E-02  0.9206602E-01
       -3   -1    0    0    0  501  0.00000000000E+00  0.00000000000E+00  0.57793147078E+03  0.57793147961E+03  0.10100000352E+00 0. -1.
        3   -1    0    0  501    0  0.00000000000E+00  0.00000000000E+00 -0.52204360672E+03  0.52204361649E+03  0.10100000352E+00 0.  1.
    10030    2    1    2    0    0  0.00000000000E+00  0.00000000000E+00  0.55887864069E+02  0.10999750961E+04  0.10985543950E+04 0.  0.
        3    1    3    3  502    0 -0.15339907305E+03 -0.51615621817E+03  0.13651345410E+03  0.55550378084E+03  0.10100000352E+00 0. -1.
       -3    1    3    3    0  502  0.15339907305E+03  0.51615621817E+03 -0.80625590029E+02  0.54447131526E+03  0.10100000352E+00 0.  1.
</event>
<event>
 5   0  0.3523525E-04  0.1099092E+04  0.7818609E-02  0.9206077E-01
        1   -1    0    0  501    0  0.00000000000E+00  0.00000000000E+00  0.83439435521E+03  0.83439435523E+03  0.50400001928E-02 0.  1.
       -1   -1    0    0    0  501  0.00000000000E+00  0.00000000000E+00 -0.36194024332E+03  0.36194024336E+03  0.50400001928E-02 0. -1.
    10030    2    1    2    0    0  0.00000000000E+00  0.00000000000E+00  0.47245411189E+03  0.11963345986E+04  0.10990921635E+04 0.  0.
        5    1    3    3  502    0 -0.45049470772E+03  0.25432214760E+03  0.43797284853E+03  0.67784035178E+03  0.46999998093E+01 0.  1.
       -5    1    3    3    0  502  0.45049470772E+03 -0.25432214760E+03  0.34481263359E+02  0.51849424680E+03  0.46999998093E+01 0. -1.
</event>
<event>
 5   0  0.6412712E-04  0.1100645E+04  0.7818609E-02  0.9204563E-01
       -2   -1    0    0    0  501  0.00000000000E+00  0.00000000000E+00  0.44974747931E+03  0.44974747931E+03  0.25500000920E-02 0.  1.
        2   -1    0    0  501    0  0.00000000000E+00  0.00000000000E+00 -0.67338887238E+03  0.67338887238E+03  0.25500000920E-02 0. -1.
    10030    2    1    2    0    0  0.00000000000E+00  0.00000000000E+00 -0.22364139307E+03  0.11231363517E+04  0.11006451707E+04 0.  0.
        2    1    3    3  502    0 -0.10039037150E+03  0.53866643229E+03 -0.16400468523E+03  0.57195916703E+03  0.25500000920E-02 0. -1.
       -2    1    3    3    0  502  0.10039037150E+03 -0.53866643229E+03 -0.59636707837E+02  0.55117718466E+03  0.25500000920E-02 0.  1.
</event>
<event>
 5   0  0.6109149E-04  0.1102303E+04  0.7818609E-02  0.9202950E-01
        2   -1    0    0  501    0  0.00000000000E+00  0.00000000000E+00  0.83715905208E+03  0.83715905208E+03  0.25500000920E-02 0. -1.
       -2   -1    0    0    0  501  0.00000000000E+00  0.00000000000E+00 -0.36285592642E+03  0.36285592643E+03  0.25500000920E-02 0.  1.
    10030    2    1    2    0    0  0.00000000000E+00  0.00000000000E+00  0.47430312566E+03  0.12000149785E+04  0.11023032675E+04 0.  0.
        1    1    3    3  502    0  0.31754739366E+03 -0.16201145747E+03 -0.22044658924E+03  0.41914288531E+03  0.50400001928E-02 0.  1.
       -1    1    3    3    0  502 -0.31754739366E+03  0.16201145747E+03  0.69474971490E+03  0.78087209320E+03  0.50400001928E-02 0. -1.
</event>
<event>
 5   0  0.3423758E-04  0.1100428E+04  0.7818609E-02  0.9204775E-01
       -1   -1    0    0    0  501  0.00000000000E+00  0.00000000000E+00  0.38465484883E+03  0.38465484887E+03  0.50400001928E-02 0. -1.
        1   -1    0    0  501    0  0.00000000000E+00  0.00000000000E+00 -0.78703158802E+03  0.78703158804E+03  0.50400001928E-02 0.  1.
    10030    2    1    2    0    0  0.00000000000E+00  0.00000000000E+00 -0.40237673919E+03  0.11716864369E+04  0.11004281286E+04 0.  0.
        1    1    3    3  502    0 -0.41257031360E+03 -0.35133693695E+03 -0.99708722182E+02  0.55099340853E+03  0.50400001928E-02 0.  1.
       -1    1    3    3    0  502  0.41257031360E+03  0.35133693695E+03 -0.30266801700E+03  0.62069302838E+03  0.50400001928E-02 0. -1.
</event>
<event>
 5   0  0.3621403E-04  0.1098809E+04  0.7818609E-02  0.9206354E-01
       -1   -1    0    0    0  501  0.00000000000E+00  0.00000000000E+00  0.47851240660E+03  0.47851240662E+03  0.50400001928E-02 0.  1.
        1   -1    0    0  501    0  0.00000000000E+00  0.00000000000E+00 -0.63079890468E+03  0.63079890470E+03  0.50400001928E-02 0. -1.
    10030    2    1    2    0    0  0.00000000000E+00  0.00000000000E+00 -0.15228649808E+03  0.11093113113E+04  0.10988086312E+04 0.  0.
        3    1    3    3  502    0 -0.39903604902E+03 -0.36851627756E+03  0.71748321495E+01  0.54321773136E+03  0.10100000352E+00 0.  1.
       -3    1    3    3    0  502  0.39903604902E+03  0.36851627756E+03 -0.15946133023E+03  0.56609357997E+03  0.10100000352E+00 0. -1.
</event>
<event>
 5   0  0.3621403E-04  0.1097916E+04  0.7818609E-02  0.9207225E-01
       -1   -1    0    0    0  501  0.00000000000E+00  0.00000000000E+00  0.20975860847E+03  0.20975860853E+03  0.50400001928E-02 0. -1.
        1   -1    0    0  501    0  0.00000000000E+00  0.00000000000E+00 -0.14366746343E+04  0.14366746343E+04  0.50400001928E-02 0.  1.
    10030    2    1    2    0    0  0.00000000000E+00  0.00000000000E+00 -0.12269160258E+04  0.16464332428E+04  0.10979159752E+04 0.  0.
        3    1    3    3  502    0 -0.35443357747E+03 -0.20331226994E+03 -0.63704635765E+02  0.41354241713E+03  0.10100000352E+00 0. -1.
       -3    1    3    3    0  502  0.35443357747E+03  0.20331226994E+03 -0.11632113900E+04  0.12328908257E+04  0.10100000352E+00 0.  1.
</event>
<event>
 5   0  0.3642161E-04  0.1101104E+04  0.7818609E-02  0.9204116E-01
       -1   -1    0    0    0  501  0.00000000000E+00  0.00000000000E+00  0.34166941196E+03  0.34166941200E+03  0.50400001928E-02 0. -1.
        1   -1    0    0  501    0  0.00000000000E+00  0.00000000000E+00 -0.88713699545E+03  0.88713699546E+03  0.50400001928E-02 0.  1.
    10030    2    1    2    0    0  0.00000000000E+00  0.00000000000E+00 -0.54546758349E+03  0.12288064075E+04  0.11011041288E+04 0.  0.
        2    1    3    3  502    0  0.48605769413E+03  0.22452819748E+03 -0.12963364285E+03  0.55088099881E+03  0.25500000920E-02 0.  1.
       -2    1    3    3    0  502 -0.48605769413E+03 -0.22452819748E+03 -0.41583394064E+03  0.67792540864E+03  0.25500000920E-02 0. -1.
</event>
<event>
 5   0  0.6109149E-04  0.1101672E+04  0.7818609E-02  0.9203563E-01
        2   -1    0    0  501    0  0.00000000000E+00  0.00000000000E+00  0.33663550871E+03  0.33663550872E+03  0.25500000920E-02 0. -1.
       -2   -1    0    0    0  501  0.00000000000E+00  0.00000000000E+00 -0.90133235336E+03  0.90133235336E+03  0.25500000920E-02 0.  1.
    10030    2    1    2    0    0  0.00000000000E+00  0.00000000000E+00 -0.56469684464E+03  0.12379678621E+04  0.11016723202E+04 0.  0.
        1    1    3    3  502    0  0.22126933921E+03 -0.15312934066E+03  0.25775132847E+03  0.37261838763E+03  0.50400001928E-02 0. -1.
       -1    1    3    3    0  502 -0.22126933921E+03  0.15312934066E+03 -0.82244817311E+03  0.86534947445E+03  0.50400001928E-02 0.  1.
</event>
<event>
 5   0  0.5948818E-04  0.1100553E+04  0.7818609E-02  0.9204653E-01
       -2   -1    0    0    0  501  0.00000000000E+00  0.00000000000E+00  0.49206952007E+03  0.49206952008E+03  0.25500000920E-02 0.  1.
        2   -1    0    0  501    0  0.00000000000E+00  0.00000000000E+00 -0.61536864332E+03  0.61536864333E+03  0.25500000920E-02 0. -1.
    10030    2    1    2    0    0  0.00000000000E+00  0.00000000000E+00 -0.12329912325E+03  0.11074381634E+04  0.11005528665E+04 0.  0.
        3    1    3    3  502    0  0.10389041398E+03 -0.16793631267E+03  0.45518651389E+03  0.49617597268E+03  0.10100000352E+00 0.  1.
       -3    1    3    3    0  502 -0.10389041398E+03  0.16793631267E+03 -0.57848563714E+03  0.61126219073E+03  0.10100000352E+00 0. -1.
</event>
<event>
 5   0  0.3621403E-04  0.1103984E+04  0.7818609E-02  0.9201317E-01
       -1   -1    0    0    0  501  0.00000000000E+00  0.00000000000E+00  0.20044642701E+03  0.20044642707E+03  0.50400001928E-02 0.  1.
        1   -1    0    0  501    0  0.00000000000E+00  0.00000000000E+00 -0.15200841645E+04  0.15200841646E+04  0.50400001928E-02 0. -1.
    10030    2    1    2    0    0  0.00000000000E+00  0.00000000000E+00 -0.13196377375E+04  0.17205305916E+04  0.11039844919E+04 0.  0.
        3    1    3    3  502    0 -0.44322428509E+03 -0.31305706187E+03 -0.50208981090E+03  0.73928795424E+03  0.10100000352E+00 0.  1.
       -3    1    3    3    0  502  0.44322428509E+03  0.31305706187E+03 -0.81754792664E+03  0.98124263739E+03  0.10100000352E+00 0. -1.
</event>
<event>
 5   0  0.6264830E-04  0.1098663E+04  0.7818609E-02  0.9206496E-01
        2   -1    0    0  501    0  0.00000000000E+00  0.00000000000E+00  0.24223523085E+04  0.24223523085E+04  0.25500000920E-02 0.  1.
       -2   -1    0    0    0  501  0.00000000000E+00  0.00000000000E+00 -0.12457516290E+03  0.12457516292E+03  0.25500000920E-02 0. -1.
    10030    2    1    2    0    0  0.00000000000E+00  0.00000000000E+00  0.22977771456E+04  0.25469274714E+04  0.10986627025E+04 0.  0.
        4    1    3    3  502    0  0.48290291973E+03  0.25856173316E+03  0.10529159035E+04  0.11868794852E+04  0.12699999809E+01 0. -1.
       -4    1    3    3    0  502 -0.48290291973E+03 -0.25856173316E+03  0.12448612422E+04  0.13600479862E+04  0.12699999809E+01 0.  1.
</event>
<event>
 5   0  0.3621403E-04  0.1099362E+04  0.7818609E-02  0.9205814E-01
       -1   -1    0    0    0  501  0.00000000000E+00  0.00000000000E+00  0.29873248513E+03  0.29873248517E+03  0.50400001928E-02 0. -1.
        1   -1    0    0  501    0  0.00000000000E+00  0.00000000000E+00 -0.10114381229E+04  0.10114381229E+04  0.50400001928E-02 0.  1.
    10030    2    1    2    0    0  0.00000000000E+00  0.00000000000E+00 -0.71270563779E+03  0.13101706081E+04  0.10993624044E+04 0.  0.
        3    1    3    3  502    0  0.51530853169E+03 -0.17642985564E+03 -0.44456713878E+03  0.70307206450E+03  0.10100000352E+00 0. -1.
       -3    1    3    3    0  502 -0.51530853169E+03  0.17642985564E+03 -0.26813849901E+03  0.60709854360E+03  0.10100000352E+00 0.  1.
</event>
<event>
 5   0  0.3621403E-04  0.1100466E+04  0.7818609E-02  0.9204738E-01
       -1   -1    0    0    0  501  0.00000000000E+00  0.00000000000E+00  0.29528186710E+03  0.29528186714E+03  0.50400001928E-02 0. -1.
        1   -1    0    0  501    0  0.00000000000E+00  0.00000000000E+00 -0.10253127964E+04  0.10253127964E+04  0.50400001928E-02 0.  1.
    10030    2    1    2    0    0  0.00000000000E+00  0.00000000000E+00 -0.73003092926E+03  0.13205946635E+04  0.11004658594E+04 0.  0.
        3    1    3    3  502    0 -0.20100115117E+03 -0.22741713161E+02  0.24904195797E+03  0.32084350596E+03  0.10100000352E+00 0. -1.
       -3    1    3    3    0  502  0.20100115117E+03  0.22741713161E+02 -0.97907288724E+03  0.99975115754E+03  0.10100000352E+00 0.  1.
</event>
<event>
 5   0  0.5948818E-04  0.1100183E+04  0.7818609E-02  0.9205013E-01
       -2   -1    0    0    0  501  0.00000000000E+00  0.00000000000E+00  0.52485452240E+03  0.52485452241E+03  0.25500000920E-02 0.  1.
        2   -1    0    0  501    0  0.00000000000E+00  0.00000000000E+00 -0.57654235256E+03  0.57654235256E+03  0.25500000920E-02 0. -1.
    10030    2    1    2    0    0  0.00000000000E+00  0.00000000000E+00 -0.51687830154E+02  0.11013968750E+04  0.11001833685E+04 0.  0.
        3    1    3    3  502    0 -0.31131268045E+03 -0.19151102669E+03  0.38571632698E+03  0.53138418631E+03  0.10100000352E+00 0.  1.
       -3    1    3    3    0  502  0.31131268045E+03  0.19151102669E+03 -0.43740415714E+03  0.57001268866E+03  0.10100000352E+00 0. -1.
</event>
<event>
 5   0  0.3657529E-04  0.1099401E+04  0.7818609E-02  0.9205775E-01
        1   -1    0    0  501    0  0.00000000000E+00  0.00000000000E+00  0.59397309106E+03  0.59397309109E+03  0.50400001928E-02 0. -1.
       -1   -1    0    0    0  501  0.00000000000E+00  0.00000000000E+00 -0.50872825810E+03  0.50872825812E+03  0.50400001928E-02 0.  1.
    10030    2    1    2    0    0  0.00000000000E+00  0.00000000000E+00  0.85244832966E+02  0.11027013492E+04  0.10994014663E+04 0.  0.
        4    1    3    3  502    0  0.17888596238E+03  0.10190451710E+02 -0.47861543660E+03  0.51105614358E+03  0.12699999809E+01 0.  1.
       -4    1    3    3    0  502 -0.17888596238E+03 -0.10190451710E+02  0.56386026957E+03  0.59164520563E+03  0.12699999809E+01 0. -1.
</event>
<event>
 5   0  0.3621403E-04  0.1101885E+04  0.7818609E-02  0.9203356E-01
        1   -1    0    0  501    0  0.00000000000E+00  0.00000000000E+00  0.10345925612E+04  0.10345925612E+04  0.50400001928E-02 0.  1.
       -1   -1    0    0    0  501  0.00000000000E+00  0.00000000000E+00 -0.29338883867E+03  0.29338883871E+03  0.50400001928E-02 0. -1.
    10030    2    1    2    0    0  0.00000000000E+00  0.00000000000E+00  0.74120372252E+03  0.13279813999E+04  0.11018854933E+04 0.  0.
        3    1    3    3  502    0  0.24700839534E+03  0.13036514201E+03 -0.20174246346E+03  0.34454063532E+03  0.10100000352E+00 0. -1.
       -3    1    3    3    0  502 -0.24700839534E+03 -0.13036514201E+03  0.94294618597E+03  0.98344076459E+03  0.10100000352E+00 0.  1.
</event>
<event>
 5   0  0.6412712E-04  0.1096710E+04  0.7818609E-02  0.9208405E-01
        2   -1    0    0  501    0  0.00000000000E+00  0.00000000000E+00  0.12264926652E+04  0.12264926652E+04  0.25500000920E-02 0.  1.
       -2   -1    0    0    0  501  0.00000000000E+00  0.00000000000E+00 -0.24516505712E+03  0.24516505713E+03  0.25500000920E-02 0. -1.
    10030    2    1    2    0    0  0.00000000000E+00  0.00000000000E+00  0.98132760810E+03  0.14716577224E+04  0.10967098875E+04 0.  0.
        2    1    3    3  502    0 -0.40693641448E+02 -0.53979984814E+03  0.60805602123E+03  0.81410808463E+03  0.25500000920E-02 0. -1.
       -2    1    3    3    0  502  0.40693641448E+02  0.53979984814E+03  0.37327158686E+03  0.65754963772E+03  0.25500000920E-02 0.  1.
</event>
<event>
 5   0  0.3657529E-04  0.1100026E+04  0.7818609E-02  0.9205166E-01
       -1   -1    0    0    0  501  0.00000000000E+00  0.00000000000E+00  0.19362836004E+04  0.19362836004E+04  0.50400001928E-02 0.  1.
        1   -1    0    0  501    0  0.00000000000E+00  0.00000000000E+00 -0.15623452884E+03  0.15623452892E+03  0.50400001928E-02 0. -1.
    10030    2    1    2    0    0  0.00000000000E+00  0.00000000000E+00  0.17800490715E+04  0.20925181293E+04  0.11000261017E+04 0.  0.
        4    1    3    3  502    0  0.16720519035E+03  0.31608353482E+03  0.95063182028E+02  0.37000675419E+03  0.12699999809E+01 0. -1.
       -4    1    3    3    0  502 -0.16720519035E+03 -0.31608353482E+03  0.16849858895E+04  0.17225113751E+04  0.12699999809E+01 0.  1.
</event>
<event>
 5   0  0.6109149E-04  0.1098542E+04  0.7818609E-02  0.9206614E-01
       -2   -1    0    0    0  501  0.00000000000E+00  0.00000000000E+00  0.20824145019E+03  0.20824145020E+03  0.25500000920E-02 0.  1.
        2   -1    0    0  501    0  0.00000000000E+00  0.00000000000E+00 -0.14487922250E+04  0.14487922250E+04  0.25500000920E-02 0. -1.
    10030    2    1    2    0    0  0.00000000000E+00  0.00000000000E+00 -0.12405507748E+04  0.16570336752E+04  0.10985419318E+04 0.  0.
        1    1    3    3  502    0 -0.45116578329E+03  0.24053578041E+03 -0.31750291155E+03  0.60184393703E+03  0.50400001928E-02 0.  1.
       -1    1    3    3    0  502  0.45116578329E+03 -0.24053578041E+03 -0.92304786329E+03  0.10551897382E+04  0.50400001928E-02 0. -1.
</event>
<event>
 5   0  0.2403875E-04  0.1112203E+04  0.7818609E-02  0.9193379E-01
        4   -1    0    0  501    0  0.00000000000E+00  0.00000000000E+00  0.10667238073E+04  0.10667245633E+04  0.12699999809E+01 0.  1.
       -4   -1    0    0    0  501  0.00000000000E+00  0.00000000000E+00 -0.28990300146E+03  0.28990578324E+03  0.12699999809E+01 0. -1.
    10030    2    1    2    0    0  0.00000000000E+00  0.00000000000E+00  0.77682080585E+03  0.13566303465E+04  0.11122029189E+04 0.  0.
        5    1    3    3  502    0 -0.25226584153E+03  0.76886894546E+02 -0.20874966963E+03  0.33637503463E+03  0.46999998093E+01 0. -1.
       -5    1    3    3    0  502  0.25226584153E+03 -0.76886894546E+02  0.98557047548E+03  0.10202553119E+04  0.46999998093E+01 0.  1.
</event>
<event>
 5   0  0.3657529E-04  0.1099886E+04  0.7818609E-02  0.9205303E-01
       -1   -1    0    0    0  501  0.00000000000E+00  0.00000000000E+00  0.60362713969E+03  0.60362713971E+03  0.50400001928E-02 0. -1.
        1   -1    0    0  501    0  0.00000000000E+00  0.00000000000E+00 -0.50103294798E+03  0.50103294800E+03  0.50400001928E-02 0.  1.
    10030    2    1    2    0    0  0.00000000000E+00  0.00000000000E+00  0.10259419171E+03  0.11046600877E+04  0.10998856037E+04 0.  0.
        4    1    3    3  502    0 -0.45432236384E+02  0.44582066289E+03 -0.26885823795E+03  0.52259594007E+03  0.12699999809E+01 0.  1.
       -4    1    3    3    0  502  0.45432236384E+02 -0.44582066289E+03  0.37145242966E+03  0.58206414764E+03  0.12699999809E+01 0. -1.
</event>
<event>
 5   0  0.5948818E-04  0.1093822E+04  0.7818609E-02  0.9211235E-01
        2   -1    0    0  501    0  0.00000000000E+00  0.00000000000E+00  0.24258565693E+04  0.24258565693E+04  0.25500000920E-02 0. -1.
       -2   -1    0    0    0  501  0.00000000000E+00  0.00000000000E+00 -0.12330141755E+03  0.12330141758E+03  0.25500000920E-02 0.  1.
    10030    2    1    2    0    0  0.00000000000E+00  0.00000000000E+00  0.23025551517E+04  0.25491579868E+04  0.10938218389E+04 0.  0.
        3    1    3    3  502    0 -0.24890232096E+03 -0.38589535770E+03  0.45898028072E+03  0.64925380304E+03  0.10100000352E+00 0.  1.
       -3    1    3    3    0  502  0.24890232096E+03  0.38589535770E+03  0.18435748710E+04  0.18999041838E+04  0.10100000352E+00 0. -1.
</event>
<event>
 5   0  0.3621403E-04  0.1101465E+04  0.7818609E-02  0.9203765E-01
       -1   -1    0    0    0  501  0.00000000000E+00  0.00000000000E+00  0.27218617974E+03  0.27218617979E+03  0.50400001928E-02 0.  1.
        1   -1    0    0  501    0  0.00000000000E+00  0.00000000000E+00 -0.11143337597E+04  0.11143337597E+04  0.50400001928E-02 0. -1.
    10030    2    1    2    0    0  0.00000000000E+00  0.00000000000E+00 -0.84214757994E+03  0.13865199395E+04  0.11014649319E+04 0.  0.
        3    1    3    3  502    0 -0.36584384816E+03  0.39824376217E+03 -0.55229340467E+03  0.77296043261E+03  0.10100000352E+00 0. -1.
       -3    1    3    3    0  502  0.36584384816E+03 -0.39824376217E+03 -0.28985417528E+03  0.61355950687E+03  0.10100000352E+00 0.  1.
</event>
<event>
 5   0  0.6412712E-04  0.1098399E+04  0.7818609E-02  0.9206753E-01
       -2   -1    0    0    0  501  0.00000000000E+00  0.00000000000E+00  0.33358587306E+03  0.33358587307E+03  0.25500000920E-02 0.  1.
        2   -1    0    0  501    0  0.00000000000E+00  0.00000000000E+00 -0.90417563182E+03  0.90417563182E+03  0.25500000920E-02 0. -1.
    10030    2    1    2    0    0  0.00000000000E+00  0.00000000000E+00 -0.57058975876E+03  0.12377615049E+04  0.10983992308E+04 0.  0.
        2    1    3    3  502    0  0.52741047577E+03 -0.13818152816E+03 -0.21085036527E+03  0.58456293179E+03  0.25500000920E-02 0.  1.
       -2    1    3    3    0  502 -0.52741047577E+03  0.13818152816E+03 -0.35973939349E+03  0.65319857311E+03  0.25500000920E-02 0. -1.
</event>
<event>
 5   0  0.5948818E-04  0.1096817E+04  0.7818609E-02  0.9208299E-01
       -2   -1    0    0    0  501  0.00000000000E+00  0.00000000000E+00  0.18619932075E+03  0.18619932077E+03  0.25500000920E-02 0. -1.
        2   -1    0    0  501    0  0.00000000000E+00  0.00000000000E+00 -0.16152161352E+04  0.16152161352E+04  0.25500000920E-02 0.  1.
    10030    2    1    2    0    0  0.00000000000E+00  0.00000000000E+00 -0.14290168145E+04  0.18014154560E+04  0.10968174821E+04 0.  0.
        3    1    3    3  502    0  0.60215914686E+02  0.53379712393E+03 -0.89581957763E+03  0.10445372429E+04  0.10100000352E+00 0. -1.
       -3    1    3    3    0  502 -0.60215914686E+02 -0.53379712393E+03 -0.53319723682E+03  0.75687821309E+03  0.10100000352E+00 0.  1.
</event>
<event>
 5   0  0.6412712E-04  0.1100351E+04  0.7818609E-02  0.9204849E-01
       -2   -1    0    0    0  501  0.00000000000E+00  0.00000000000E+00  0.26939374086E+03  0.26939374088E+03  0.25500000920E-02 0.  1.
        2   -1    0    0  501    0  0.00000000000E+00  0.00000000000E+00 -0.11236092968E+04  0.11236092968E+04  0.25500000920E-02 0. -1.
    10030    2    1    2    0    0  0.00000000000E+00  0.00000000000E+00 -0.85421555597E+03  0.13930030377E+04  0.11003514198E+04 0.  0.
        2    1    3    3  502    0  0.21600112253E+03 -0.44648256158E+03 -0.12568611983E+03  0.51166411195E+03  0.25500000920E-02 0.  1.
       -2    1    3    3    0  502 -0.21600112253E+03  0.44648256158E+03 -0.72852943614E+03  0.88133892576E+03  0.25500000920E-02 0. -1.
</event>
<event>
 5   0  0.6264830E-04  0.1098828E+04  0.7818609E-02  0.9206335E-01
        2   -1    0    0  501    0  0.00000000000E+00  0.00000000000E+00  0.72115570783E+03  0.72115570783E+03  0.25500000920E-02 0.  1.
       -2   -1    0    0    0  501  0.00000000000E+00  0.00000000000E+00 -0.41857239746E+03  0.41857239746E+03  0.25500000920E-02 0. -1.
    10030    2    1    2    0    0  0.00000000000E+00  0.00000000000E+00  0.30258331037E+03  0.11397281053E+04  0.10988282369E+04 0.  0.
        4    1    3    3  502    0 -0.33165228024E+02 -0.53987969428E+03  0.51350418222E+02  0.54333092586E+03  0.12699999809E+01 0. -1.
       -4    1    3    3    0  502  0.33165228024E+02  0.53987969428E+03  0.25123289215E+03  0.59639717944E+03  0.12699999809E+01 0.  1.
</event>
<event>
 5   0  0.3523525E-04  0.1099162E+04  0.7818609E-02  0.9206009E-01
       -1   -1    0    0    0  501  0.00000000000E+00  0.00000000000E+00  0.61341238415E+03  0.61341238417E+03  0.50400001928E-02 0. -1.
        1   -1    0    0  501    0  0.00000000000E+00  0.00000000000E+00 -0.49239144345E+03  0.49239144348E+03  0.50400001928E-02 0.  1.
    10030    2    1    2    0    0  0.00000000000E+00  0.00000000000E+00  0.12102094070E+03  0.11058038276E+04  0.10991615155E+04 0.  0.
        5    1    3    3  502    0  0.42610644879E+03  0.11534610300E+03 -0.26879847084E+03  0.51686181625E+03  0.46999998093E+01 0. -1.
       -5    1    3    3    0  502 -0.42610644879E+03 -0.11534610300E+03  0.38981941154E+03  0.58894201140E+03  0.46999998093E+01 0.  1.
</event>
<event>
 5   0  0.3657529E-04  0.1100625E+04  0.7818609E-02  0.9204583E-01
       -1   -1    0    0    0  501  0.00000000000E+00  0.00000000000E+00  0.29808716484E+03  0.29808716488E+03  0.50400001928E-02 0. -1.
        1   -1    0    0  501    0  0.00000000000E+00  0.00000000000E+00 -0.10159571790E+04  0.10159571791E+04  0.50400001928E-02 0.  1.
    10030    2    1    2    0    0  0.00000000000E+00  0.00000000000E+00 -0.71787001421E+03  0.13140443439E+04  0.11006249046E+04 0.  0.
        4    1    3    3  502    0  0.55162589618E+02 -0.15479215432E+03  0.26810933383E+03  0.31446422709E+03  0.12699999809E+01 0. -1.
       -4    1    3    3    0  502 -0.55162589618E+02  0.15479215432E+03 -0.98597934804E+03  0.99958011685E+03  0.12699999809E+01 0.  1.
</event>
<event>
 5   0  0.6412712E-04  0.1102271E+04  0.7818609E-02  0.9202981E-01
        2   -1    0    0  501    0  0.00000000000E+00  0.00000000000E+00  0.43142566033E+03  0.43142566033E+03  0.25500000920E-02 0.  1.
       -2   -1    0    0    0  501  0.00000000000E+00  0.00000000000E+00 -0.70406234156E+03  0.70406234156E+03  0.25500000920E-02 0. -1.
    10030    2    1    2    0    0  0.00000000000E+00  0.00000000000E+00 -0.27263668123E+03  0.11354880019E+04  0.11022714015E+04 0.  0.
        2    1    3    3  502    0  0.16104256122E+03 -0.40335820107E+03  0.21319652940E+03  0.48382363011E+03  0.25500000920E-02 0.  1.
       -2    1    3    3    0  502 -0.16104256122E+03  0.40335820107E+03 -0.48583321063E+03  0.65166437179E+03  0.25500000920E-02 0. -1.
</event>
<event>
 5   0  0.6412712E-04  0.1100207E+04  0.7818609E-02  0.9204990E-01
        2   -1    0    0  501    0  0.00000000000E+00  0.00000000000E+00  0.59127272450E+03  0.59127272451E+03  0.25500000920E-02 0. -1.
       -2   -1    0    0    0  501  0.00000000000E+00  0.00000000000E+00 -0.51180058352E+03  0.51180058353E+03  0.25500000920E-02 0.  1.
    10030    2    1    2    0    0  0.00000000000E+00  0.00000000000E+00  0.79472140979E+02  0.11030733080E+04  0.11002067541E+04 0.  0.
        2    1    3    3  502    0 -0.16513587624E+03 -0.48966639186E+03  0.22882940877E+03  0.56516009348E+03  0.25500000920E-02 0. -1.
       -2    1    3    3    0  502  0.16513587624E+03  0.48966639186E+03 -0.14935726780E+03  0.53791321455E+03  0.25500000920E-02 0.  1.
</event>
<event>
 5   0  0.2403875E-04  0.1100677E+04  0.7818609E-02  0.9204532E-01
       -3   -1    0    0    0  501  0.00000000000E+00  0.00000000000E+00  0.20460561385E+03  0.20460563878E+03  0.10100000352E+00 0.  1.
        3   -1    0    0  501    0  0.00000000000E+00  0.00000000000E+00 -0.14802756620E+04  0.14802756654E+04  0.10100000352E+00 0. -1.
    10030    2    1    2    0    0  0.00000000000E+00  0.00000000000E+00 -0.12756700481E+04  0.16848813042E+04  0.11006774903E+04 0.  0.
        2    1    3    3  502    0  0.47995702876E+03 -0.23205550182E+03 -0.42870602747E+03  0.68410332800E+03  0.25500000920E-02 0.  1.
       -2    1    3    3    0  502 -0.47995702876E+03  0.23205550182E+03 -0.84696402067E+03  0.10007779762E+04  0.25500000920E-02 0. -1.
</event>
<event>
 5   0  0.5948818E-04  0.1101279E+04  0.7818609E-02  0.9203946E-01
        2   -1    0    0  501    0  0.00000000000E+00  0.00000000000E+00  0.20213116918E+04  0.20213116918E+04  0.25500000920E-02 0. -1.
       -2   -1    0    0    0  501  0.00000000000E+00  0.00000000000E+00 -0.15000342999E+03  0.15000343001E+03  0.25500000920E-02 0.  1.
    10030    2    1    2    0    0  0.00000000000E+00  0.00000000000E+00  0.18713082618E+04  0.21713151218E+04  0.11012786875E+04 0.  0.
        3    1    3    3  502    0 -0.35449824997E+03  0.42010909031E+03  0.99932955875E+03  0.11405350649E+04  0.10100000352E+00 0.  1.
       -3    1    3    3    0  502  0.35449824997E+03 -0.42010909031E+03  0.87197870303E+03  0.10307800569E+04  0.10100000352E+00 0. -1.
</event>
<event>
 5   0  0.2403875E-04  0.1098275E+04  0.7818609E-02  0.9206874E-01
        4   -1    0    0  501    0  0.00000000000E+00  0.00000000000E+00  0.72137913878E+03  0.72138025671E+03  0.12699999809E+01 0.  1.
       -4   -1    0    0    0  501  0.00000000000E+00  0.00000000000E+00 -0.41801940173E+03  0.41802133094E+03  0.12699999809E+01 0. -1.
    10030    2    1    2    0    0  0.00000000000E+00  0.00000000000E+00  0.30335973705E+03  0.11394015877E+04  0.10982753971E+04 0.  0.
        1    1    3    3  502    0  0.25506995600E+03 -0.16445586358E+03  0.62646968091E+03  0.69611110798E+03  0.50400001928E-02 0.  1.
       -1    1    3    3    0  502 -0.25506995600E+03  0.16445586358E+03 -0.32310994387E+03  0.44329047967E+03  0.50400001928E-02 0. -1.
</event>
<event>
 5   0  0.3423758E-04  0.1101063E+04  0.7818609E-02  0.9204156E-01
        1   -1    0    0  501    0  0.00000000000E+00  0.00000000000E+00  0.61453886276E+03  0.61453886278E+03  0.50400001928E-02 0. -1.
       -1   -1    0    0    0  501  0.00000000000E+00  0.00000000000E+00 -0.49319084829E+03  0.49319084832E+03  0.50400001928E-02 0.  1.
    10030    2    1    2    0    0  0.00000000000E+00  0.00000000000E+00  0.12134801447E+03  0.11077297111E+04  0.11010630192E+04 0.  0.
        1    1    3    3  502    0 -0.19781517773E+03  0.50767314146E+03 -0.18683756456E+02  0.54517148301E+03  0.50400001928E-02 0.  1.
       -1    1    3    3    0  502  0.19781517773E+03 -0.50767314146E+03  0.14003177093E+03  0.56255822809E+03  0.50400001928E-02 0. -1.
</event>
<event>
 5   0  0.6412712E-04  0.1100751E+04  0.7818609E-02  0.9204460E-01
        2   -1    0    0  501    0  0.00000000000E+00  0.00000000000E+00  0.70970388783E+03  0.70970388783E+03  0.25500000920E-02 0.  1.
       -2   -1    0    0    0  501  0.00000000000E+00  0.00000000000E+00 -0.42681620565E+03  0.42681620566E+03  0.25500000920E-02 0. -1.
    10030    2    1    2    0    0  0.00000000000E+00  0.00000000000E+00  0.28288768217E+03  0.11365200935E+04  0.11007508720E+04 0.  0.
        2    1    3    3  502    0 -0.11660389337E+03  0.14946523893E+03  0.67493206547E+03  0.70104894166E+03  0.25500000920E-02 0.  1.
       -2    1    3    3    0  502  0.11660389337E+03 -0.14946523893E+03 -0.39204438329E+03  0.43547115183E+03  0.25500000920E-02 0. -1.
</event>
<event>
 5   0  0.6245176E-04  0.1097715E+04  0.7818609E-02  0.9207422E-01
        2   -1    0    0  501    0  0.00000000000E+00  0.00000000000E+00  0.66507822649E+03  0.66507822650E+03  0.25500000920E-02 0. -1.
       -2   -1    0    0    0  501  0.00000000000E+00  0.00000000000E+00 -0.45294618048E+03  0.45294618049E+03  0.25500000920E-02 0.  1.
    10030    2    1    2    0    0  0.00000000000E+00  0.00000000000E+00  0.21213204601E+03  0.11180244070E+04  0.10977151587E+04 0.  0.
        5    1    3    3  502    0 -0.26930001950E+03 -0.30929429587E+03 -0.26542471640E+03  0.48852618357E+03  0.46999998093E+01 0.  1.
       -5    1    3    3    0  502  0.26930001950E+03  0.30929429587E+03  0.47755676241E+03  0.62949822342E+03  0.46999998093E+01 0. -1.
</event>
<event>
 5   0  0.2403875E-04  0.1101607E+04  0.7818609E-02  0.9203627E-01
        4   -1    0    0  501    0  0.00000000000E+00  0.00000000000E+00  0.26030285100E+03  0.26030594910E+03  0.12699999809E+01 0.  1.
       -4   -1    0    0    0  501  0.00000000000E+00  0.00000000000E+00 -0.11654956825E+04  0.11654963744E+04  0.12699999809E+01 0. -1.
    10030    2    1    2    0    0  0.00000000000E+00  0.00000000000E+00 -0.90519283149E+03  0.14258023235E+04  0.11016071004E+04 0.  0.
        4    1    3    3  502    0 -0.37419298452E+03  0.13832994640E+03  0.38940839618E+02  0.40084107278E+03  0.12699999809E+01 0.  1.
       -4    1    3    3    0  502  0.37419298452E+03 -0.13832994640E+03 -0.94413367110E+03  0.10249612508E+04  0.12699999809E+01 0. -1.
</event>
<event>
 5   0  0.3523525E-04  0.1101022E+04  0.7818609E-02  0.9204196E-01
       -1   -1    0    0    0  501  0.00000000000E+00  0.00000000000E+00  0.33873287543E+03  0.33873287547E+03  0.50400001928E-02 0.  1.
        1   -1    0    0  501    0  0.00000000000E+00  0.00000000000E+00 -0.89469413810E+03  0.89469413812E+03  0.50400001928E-02 0. -1.
    10030    2    1    2    0    0  0.00000000000E+00  0.00000000000E+00 -0.55596126267E+03  0.12334270136E+04  0.11010219218E+04 0.  0.
        5    1    3    3  502    0  0.11437682209E+03 -0.34292168649E+03 -0.74307316786E+03  0.82635171888E+03  0.46999998093E+01 0. -1.
       -5    1    3    3    0  502 -0.11437682209E+03  0.34292168649E+03  0.18711190519E+03  0.40707529470E+03  0.46999998093E+01 0.  1.
</event>
<event>
 5   0  0.6264830E-04  0.1100496E+04  0.7818609E-02  0.9204708E-01
        2   -1    0    0  501    0  0.00000000000E+00  0.00000000000E+00  0.58794806413E+03  0.58794806414E+03  0.25500000920E-02 0. -1.
       -2   -1    0    0    0  501  0.00000000000E+00  0.00000000000E+00 -0.51496539963E+03  0.51496539964E+03  0.25500000920E-02 0.  1.
    10030    2    1    2    0    0  0.00000000000E+00  0.00000000000E+00  0.72982664503E+02  0.11029134638E+04  0.11004960878E+04 0.  0.
        4    1    3    3  502    0  0.27144123391E+03  0.10472461935E+03  0.50455439586E+03  0.58242968730E+03  0.12699999809E+01 0. -1.
       -4    1    3    3    0  502 -0.27144123391E+03 -0.10472461935E+03 -0.43157173136E+03  0.52048377647E+03  0.12699999809E+01 0.  1.
</event>
<event>
 5   0  0.3621403E-04  0.1101747E+04  0.7818609E-02  0.9203491E-01
       -1   -1    0    0    0  501  0.00000000000E+00  0.00000000000E+00  0.11357802540E+04  0.11357802540E+04  0.50400001928E-02 0. -1.
        1   -1    0    0  501    0  0.00000000000E+00  0.00000000000E+00 -0.26718350057E+03  0.26718350062E+03  0.50400001928E-02 0.  1.
    10030    2    1    2    0    0  0.00000000000E+00  0.00000000000E+00  0.86859675341E+03  0.14029637546E+04  0.11017472381E+04 0.  0.
        3    1    3    3  502    0 -0.18815691106E+02 -0.53367925727E+03  0.60653307446E+03  0.80811506637E+03  0.10100000352E+00 0. -1.
       -3    1    3    3    0  502  0.18815691106E+02  0.53367925727E+03  0.26206367895E+03  0.59484868824E+03  0.10100000352E+00 0.  1.
</event>
<event>
 5   0  0.3642161E-04  0.1102961E+04  0.7818609E-02  0.9202311E-01
       -1   -1    0    0    0  501  0.00000000000E+00  0.00000000000E+00  0.90238035128E+03  0.90238035130E+03  0.50400001928E-02 0. -1.
        1   -1    0    0  501    0  0.00000000000E+00  0.00000000000E+00 -0.33703168783E+03  0.33703168787E+03  0.50400001928E-02 0.  1.
    10030    2    1    2    0    0  0.00000000000E+00  0.00000000000E+00  0.56534866345E+03  0.12394120392E+04  0.11029610562E+04 0.  0.
        2    1    3    3  502    0  0.39639550218E+03  0.34051600341E+03  0.48068470561E+03  0.71002699170E+03  0.25500000920E-02 0. -1.
       -2    1    3    3    0  502 -0.39639550218E+03 -0.34051600341E+03  0.84663957838E+02  0.52938504747E+03  0.25500000920E-02 0.  1.
</event>
<event>
 5   0  0.6412712E-04  0.1099023E+04  0.7818609E-02  0.9206145E-01
        2   -1    0    0  501    0  0.00000000000E+00  0.00000000000E+00  0.15974885095E+04  0.15974885095E+04  0.25500000920E-02 0.  1.
       -2   -1    0    0    0  501  0.00000000000E+00  0.00000000000E+00 -0.18902338968E+03  0.18902338970E+03  0.25500000920E-02 0. -1.
    10030    2    1    2    0    0  0.00000000000E+00  0.00000000000E+00  0.14084651198E+04  0.17865118992E+04  0.10990226441E+04 0.  0.
        2    1    3    3  502    0  0.18562128942E+03 -0.18209312177E+03 -0.82688759262E+02  0.27285637063E+03  0.25500000920E-02 0. -1.
       -2    1    3    3    0  502 -0.18562128942E+03  0.18209312177E+03  0.14911538791E+04  0.15136555286E+04  0.25500000920E-02 0.  1.
</event>
<event>
 5   0  0.5948818E-04  0.1099693E+04  0.7818609E-02  0.9205491E-01
        2   -1    0    0  501    0  0.00000000000E+00  0.00000000000E+00  0.46775274701E+03  0.46775274702E+03  0.25500000920E-02 0.  1.
       -2   -1    0    0    0  501  0.00000000000E+00  0.00000000000E+00 -0.64634800577E+03  0.64634800578E+03  0.25500000920E-02 0. -1.
    10030    2    1    2    0    0  0.00000000000E+00  0.00000000000E+00 -0.17859525876E+03  0.11141007528E+04  0.10996927848E+04 0.  0.
        3    1    3    3  502    0  0.23775203557E+03  0.38063129357E+03 -0.41114659057E+03  0.60864418276E+03  0.10100000352E+00 0. -1.
       -3    1    3    3    0  502 -0.23775203557E+03 -0.38063129357E+03  0.23255133181E+03  0.50545657004E+03  0.10100000352E+00 0.  1.
</event>
<event>
 5   0  0.3657529E-04  0.1095904E+04  0.7818609E-02  0.9209193E-01
        1   -1    0    0  501    0  0.00000000000E+00  0.00000000000E+00  0.12297082767E+04  0.12297082767E+04  0.50400001928E-02 0. -1.
       -1   -1    0    0    0  501  0.00000000000E+00  0.00000000000E+00 -0.24416492279E+03  0.24416492284E+03  0.50400001928E-02 0.  1.
    10030    2    1    2    0    0  0.00000000000E+00  0.00000000000E+00  0.98554335394E+03  0.14738731996E+04  0.10959044237E+04 0.  0.
        4    1    3    3  502    0 -0.35703106063E+03 -0.41558448655E+03  0.48165129140E+03  0.72950066698E+03  0.12699999809E+01 0. -1.
       -4    1    3    3    0  502  0.35703106063E+03  0.41558448655E+03  0.50389206254E+03  0.74437253261E+03  0.12699999809E+01 0.  1.
</event>
<event>
 5   0  0.5948818E-04  0.1100690E+04  0.7818609E-02  0.9204519E-01
       -2   -1    0    0    0  501  0.00000000000E+00  0.00000000000E+00  0.53448730215E+03  0.53448730216E+03  0.25500000920E-02 0.  1.
        2   -1    0    0  501    0  0.00000000000E+00  0.00000000000E+00 -0.56667338424E+03  0.56667338424E+03  0.25500000920E-02 0. -1.
    10030    2    1    2    0    0  0.00000000000E+00  0.00000000000E+00 -0.32186082084E+02  0.11011606864E+04  0.11006901986E+04 0.  0.
        3    1    3    3  502    0 -0.30365207674E+03  0.22563848645E+02  0.44254158001E+03  0.53717480508E+03  0.10100000352E+00 0.  1.
       -3    1    3    3    0  502  0.30365207674E+03 -0.22563848645E+02 -0.47472766209E+03  0.56398588132E+03  0.10100000352E+00 0. -1.
</event>
<event>
 5   0  0.2403875E-04  0.1105728E+04  0.7818609E-02  0.9199627E-01
       -3   -1    0    0    0  501  0.00000000000E+00  0.00000000000E+00  0.76844233853E+03  0.76844234517E+03  0.10100000352E+00 0. -1.
        3   -1    0    0  501    0  0.00000000000E+00  0.00000000000E+00 -0.39776397750E+03  0.39776399032E+03  0.10100000352E+00 0.  1.
    10030    2    1    2    0    0  0.00000000000E+00  0.00000000000E+00  0.37067836103E+03  0.11662063355E+04  0.11057281626E+04 0.  0.
        5    1    3    3  502    0  0.37407718083E+02  0.25145238149E+03 -0.33243885572E+03  0.41852756220E+03  0.46999998093E+01 0.  1.
       -5    1    3    3    0  502 -0.37407718083E+02 -0.25145238149E+03  0.70311721675E+03  0.74767877328E+03  0.46999998093E+01 0. -1.
</event>
<event>
 5   0  0.3621403E-04  0.1100093E+04  0.7818609E-02  0.9205101E-01
       -1   -1    0    0    0  501  0.00000000000E+00  0.00000000000E+00  0.27560793556E+03  0.27560793561E+03  0.50400001928E-02 0. -1.
        1   -1    0    0  501    0  0.00000000000E+00  0.00000000000E+00 -0.10977588155E+04  0.10977588155E+04  0.50400001928E-02 0.  1.
    10030    2    1    2    0    0  0.00000000000E+00  0.00000000000E+00 -0.82215087989E+03  0.13733667511E+04  0.11000927978E+04 0.  0.
        3    1    3    3  502    0 -0.22176679013E+02  0.54061315035E+02  0.27172215715E+03  0.27793411406E+03  0.10100000352E+00 0. -1.
       -3    1    3    3    0  502  0.22176679013E+02 -0.54061315035E+02 -0.10938730370E+04  0.10954326370E+04  0.10100000352E+00 0.  1.
</event>
<event>
 5   0  0.6412712E-04  0.1101545E+04  0.7818609E-02  0.9203687E-01
       -2   -1    0    0    0  501  0.00000000000E+00  0.00000000000E+00  0.27686227766E+03  0.27686227767E+03  0.25500000920E-02 0. -1.
        2   -1    0    0  501    0  0.00000000000E+00  0.00000000000E+00 -0.10956720704E+04  0.10956720704E+04  0.25500000920E-02 0.  1.
    10030    2    1    2    0    0  0.00000000000E+00  0.00000000000E+00 -0.81880979276E+03  0.13725343481E+04  0.11015448516E+04 0.  0.
        2    1    3    3  502    0 -0.30626475482E+03  0.39981233362E+03 -0.13161968744E+03  0.52054946383E+03  0.25500000920E-02 0. -1.
       -2    1    3    3    0  502  0.30626475482E+03 -0.39981233362E+03 -0.68719010532E+03  0.85198488427E+03  0.25500000920E-02 0.  1.
</event>
<event>
 5   0  0.5948818E-04  0.1099743E+04  0.7818609E-02  0.9205442E-01
       -2   -1    0    0    0  501  0.00000000000E+00  0.00000000000E+00  0.95765357418E+03  0.95765357419E+03  0.25500000920E-02 0.  1.
        2   -1    0    0  501    0  0.00000000000E+00  0.00000000000E+00 -0.31572885453E+03  0.31572885454E+03  0.25500000920E-02 0. -1.
    10030    2    1    2    0    0  0.00000000000E+00  0.00000000000E+00  0.64192471966E+03  0.12733824287E+04  0.10997433628E+04 0.  0.
        3    1    3    3  502    0  0.50240540409E+02  0.12236352351E+03  0.93895698177E+03  0.94822843640E+03  0.10100000352E+00 0.  1.
       -3    1    3    3    0  502 -0.50240540409E+02 -0.12236352351E+03 -0.29703226211E+03  0.32515399232E+03  0.10100000352E+00 0. -1.
</event>
<event>
 5   0  0.6109149E-04  0.1104117E+04  0.7818609E-02  0.9201188E-01
       -2   -1    0    0    0  501  0.00000000000E+00  0.00000000000E+00  0.20711924518E+03  0.20711924520E+03  0.25500000920E-02 0. -1.
        2   -1    0    0  501    0  0.00000000000E+00  0.00000000000E+00 -0.14714651974E+04  0.14714651974E+04  0.25500000920E-02 0.  1.
    10030    2    1    2    0    0  0.00000000000E+00  0.00000000000E+00 -0.12643459522E+04  0.16785844426E+04  0.11041173144E+04 0.  0.
        1    1    3    3  502    0  0.52455576257E+03  0.37538897833E+02 -0.37686814850E+03  0.64699112689E+03  0.50400001928E-02 0.  1.
       -1    1    3    3    0  502 -0.52455576257E+03 -0.37538897833E+02 -0.88747780371E+03  0.10315933157E+04  0.50400001928E-02 0. -1.
</event>
<event>
 5   0  0.3423758E-04  0.1097470E+04  0.7818609E-02  0.9207661E-01
        1   -1    0    0  501    0  0.00000000000E+00  0.00000000000E+00  0.19630250326E+04  0.19630250326E+04  0.50400001928E-02 0. -1.
       -1   -1    0    0    0  501  0.00000000000E+00  0.00000000000E+00 -0.15339098379E+03  0.15339098387E+03  0.50400001928E-02 0.  1.
    10030    2    1    2    0    0  0.00000000000E+00  0.00000000000E+00  0.18096340488E+04  0.21164160165E+04  0.10974704389E+04 0.  0.
        1    1    3    3  502    0  0.10724966266E+03  0.53814082099E+03  0.89805158362E+03  0.10524232420E+04  0.50400001928E-02 0.  1.
       -1    1    3    3    0  502 -0.10724966266E+03 -0.53814082099E+03  0.91158246520E+03  0.10639927745E+04  0.50400001928E-02 0. -1.
</event>
<event>
 5   0  0.5948818E-04  0.1099575E+04  0.7818609E-02  0.9205606E-01
        2   -1    0    0  501    0  0.00000000000E+00  0.00000000000E+00  0.14148945066E+04  0.14148945066E+04  0.25500000920E-02 0. -1.
       -2   -1    0    0    0  501  0.00000000000E+00  0.00000000000E+00 -0.21363186726E+03  0.21363186728E+03  0.25500000920E-02 0.  1.
    10030    2    1    2    0    0  0.00000000000E+00  0.00000000000E+00  0.12012626393E+04  0.16285263738E+04  0.10995754734E+04 0.  0.
        3    1    3    3  502    0  0.43096295134E+03 -0.21840710613E+03  0.98920822399E+03  0.11008922064E+04  0.10100000352E+00 0. -1.
       -3    1    3    3    0  502 -0.43096295134E+03  0.21840710613E+03  0.21205441531E+03  0.52763416748E+03  0.10100000352E+00 0.  1.
</event>
<event>
 5   0  0.3657529E-04  0.1103354E+04  0.7818609E-02  0.9201929E-01
        1   -1    0    0  501    0  0.00000000000E+00  0.00000000000E+00  0.34971343007E+03  0.34971343011E+03  0.50400001928E-02 0. -1.
       -1   -1    0    0    0  501  0.00000000000E+00  0.00000000000E+00 -0.87027710167E+03  0.87027710168E+03  0.50400001928E-02 0.  1.
    10030    2    1    2    0    0  0.00000000000E+00  0.00000000000E+00 -0.52056367160E+03  0.12199905318E+04  0.11033541415E+04 0.  0.
        4    1    3    3  502    0 -0.98089541696E+02  0.82483085851E+01 -0.86048662804E+03  0.86609955705E+03  0.12699999809E+01 0.  1.
       -4    1    3    3    0  502  0.98089541696E+02 -0.82483085851E+01  0.33992295644E+03  0.35389097474E+03  0.12699999809E+01 0. -1.
</event>
<event>
 5   0  0.6245176E-04  0.1099400E+04  0.7818609E-02  0.9205777E-01
        2   -1    0    0  501    0  0.00000000000E+00  0.00000000000E+00  0.26066180915E+03  0.26066180916E+03  0.25500000920E-02 0. -1.
       -2   -1    0    0    0  501  0.00000000000E+00  0.00000000000E+00 -0.11592410440E+04  0.11592410440E+04  0.25500000920E-02 0.  1.
    10030    2    1    2    0    0  0.00000000000E+00  0.00000000000E+00 -0.89857923483E+03  0.14199028532E+04  0.10993995957E+04 0.  0.
        5    1    3    3  502    0  0.46022501684E+03  0.23201292111E+03 -0.69607147810E+03  0.86612623463E+03  0.46999998093E+01 0.  1.
       -5    1    3    3    0  502 -0.46022501684E+03 -0.23201292111E+03 -0.20250775674E+03  0.55377661853E+03  0.46999998093E+01 0. -1.
</event>
<event>
 5   0  0.3657529E-04  0.1098036E+04  0.7818609E-02  0.9207108E-01
       -1   -1    0    0    0  501  0.00000000000E+00  0.00000000000E+00  0.82493587192E+03  0.82493587193E+03  0.50400001928E-02 0.  1.
        1   -1    0    0  501    0  0.00000000000E+00  0.00000000000E+00 -0.36538685954E+03  0.36538685957E+03  0.50400001928E-02 0. -1.
    10030    2    1    2    0    0  0.00000000000E+00  0.00000000000E+00  0.45954901238E+03  0.11903227315E+04  0.10980359331E+04 0.  0.
        4    1    3    3  502    0  0.24081323037E+03  0.43128574246E+03 -0.29991584232E+02  0.49487322780E+03  0.12699999809E+01 0. -1.
       -4    1    3    3    0  502 -0.24081323037E+03 -0.43128574246E+03  0.48954059661E+03  0.69544950370E+03  0.12699999809E+01 0.  1.
</event>
<event>
 5   0  0.3621403E-04  0.1100461E+04  0.7818609E-02  0.9204743E-01
        1   -1    0    0  501    0  0.00000000000E+00  0.00000000000E+00  0.80999897308E+03  0.80999897309E+03  0.50400001928E-02 0. -1.
       -1   -1    0    0    0  501  0.00000000000E+00  0.00000000000E+00 -0.37377041331E+03  0.37377041335E+03  0.50400001928E-02 0.  1.
    10030    2    1    2    0    0  0.00000000000E+00  0.00000000000E+00  0.43622855976E+03  0.11837693864E+04  0.11004610870E+04 0.  0.
        3    1    3    3  502    0 -0.26035814567E+03 -0.16912848498E+03  0.70677581412E+03  0.77196040707E+03  0.10100000352E+00 0. -1.
       -3    1    3    3    0  502  0.26035814567E+03  0.16912848498E+03 -0.27054725436E+03  0.41180897937E+03  0.10100000352E+00 0.  1.
</event>
<event>
 5   0  0.6109149E-04  0.1100972E+04  0.7818609E-02  0.9204245E-01
        2   -1    0    0  501    0  0.00000000000E+00  0.00000000000E+00  0.21615665372E+04  0.21615665372E+04  0.25500000920E-02 0.  1.
       -2   -1    0    0    0  501  0.00000000000E+00  0.00000000000E+00 -0.14019223684E+03  0.14019223687E+03  0.25500000920E-02 0. -1.
    10030    2    1    2    0    0  0.00000000000E+00  0.00000000000E+00  0.20213743003E+04  0.23017587740E+04  0.11009720214E+04 0.  0.
        1    1    3    3  502    0 -0.30630176395E+03 -0.19108594643E+03  0.14186678280E+03  0.38789276045E+03  0.50400001928E-02 0. -1.
       -1    1    3    3    0  502  0.30630176395E+03  0.19108594643E+03  0.18795075175E+04  0.19138660136E+04  0.50400001928E-02 0.  1.
</event>
<event>
 5   0  0.6264830E-04  0.1099279E+04  0.7818609E-02  0.9205895E-01
        2   -1    0    0  501    0  0.00000000000E+00  0.00000000000E+00  0.46560254811E+03  0.46560254811E+03  0.25500000920E-02 0.  1.
       -2   -1    0    0    0  501  0.00000000000E+00  0.00000000000E+00 -0.64884475727E+03  0.64884475727E+03  0.25500000920E-02 0. -1.
    10030    2    1    2    0    0  0.00000000000E+00  0.00000000000E+00 -0.18324220916E+03  0.11144473054E+04  0.10992793500E+04 0.  0.
        4    1    3    3  502    0 -0.17764325375E+03 -0.19681454823E+03  0.39648774155E+03  0.47696670125E+03  0.12699999809E+01 0.  1.
       -4    1    3    3    0  502  0.17764325375E+03  0.19681454823E+03 -0.57972995071E+03  0.63748060414E+03  0.12699999809E+01 0. -1.
</event>
<event>
 5   0  0.5948818E-04  0.1109305E+04  0.7818609E-02  0.9196170E-01
       -2   -1    0    0    0  501  0.00000000000E+00  0.00000000000E+00  0.71985088147E+03  0.71985088147E+03  0.25500000920E-02 0. -1.
        2   -1    0    0  501    0  0.00000000000E+00  0.00000000000E+00 -0.42736534549E+03  0.42736534550E+03  0.25500000920E-02 0.  1.
    10030    2    1    2    0    0  0.00000000000E+00  0.00000000000E+00  0.29248553598E+03  0.11472162270E+04  0.11093048646E+04 0.  0.
        3    1    3    3  502    0  0.17808391773E+03  0.12969894792E+03  0.67266121196E+03  0.70781976175E+03  0.10100000352E+00 0. -1.
       -3    1    3    3    0  502 -0.17808391773E+03 -0.12969894792E+03 -0.38017567598E+03  0.43939646523E+03  0.10100000352E+00 0.  1.
</event>
<event>
 5   0  0.3642161E-04  0.1099798E+04  0.7818609E-02  0.9205389E-01
        1   -1    0    0  501    0  0.00000000000E+00  0.00000000000E+00  0.91136951800E+03  0.91136951802E+03  0.50400001928E-02 0. -1.
       -1   -1    0    0    0  501  0.00000000000E+00  0.00000000000E+00 -0.33179631256E+03  0.33179631260E+03  0.50400001928E-02 0.  1.
    10030    2    1    2    0    0  0.00000000000E+00  0.00000000000E+00  0.57957320544E+03  0.12431658306E+04  0.10997982460E+04 0.  0.
        2    1    3    3  502    0  0.30031225125E+02 -0.44908770548E+02 -0.32878926635E+03  0.33319822003E+03  0.25500000920E-02 0.  1.
       -2    1    3    3    0  502 -0.30031225125E+02  0.44908770548E+02  0.90836247179E+03  0.90996761059E+03  0.25500000920E-02 0. -1.
</event>
<event>
 5   0  0.3642161E-04  0.1107831E+04  0.7818609E-02  0.9197592E-01
       -1   -1    0    0    0  501  0.00000000000E+00  0.00000000000E+00  0.35845902374E+03  0.35845902378E+03  0.50400001928E-02 0. -1.
        1   -1    0    0  501    0  0.00000000000E+00  0.00000000000E+00 -0.85594889326E+03  0.85594889327E+03  0.50400001928E-02 0.  1.
    10030    2    1    2    0    0  0.00000000000E+00  0.00000000000E+00 -0.49748986952E+03  0.12144079171E+04  0.11078314036E+04 0.  0.
        2    1    3    3  502    0 -0.17934157964E+03 -0.19918000467E+03 -0.78013373940E+03  0.82489073689E+03  0.25500000920E-02 0.  1.
       -2    1    3    3    0  502  0.17934157964E+03  0.19918000467E+03  0.28264386989E+03  0.38951718016E+03  0.25500000920E-02 0. -1.
</event>
<event>
 5   0  0.6245176E-04  0.1099956E+04  0.7818609E-02  0.9205235E-01
        2   -1    0    0  501    0  0.00000000000E+00  0.00000000000E+00  0.97087713588E+03  0.97087713588E+03  0.25500000920E-02 0. -1.
       -2   -1    0    0    0  501  0.00000000000E+00  0.00000000000E+00 -0.31154893478E+03  0.31154893479E+03  0.25500000920E-02 0.  1.
    10030    2    1    2    0    0  0.00000000000E+00  0.00000000000E+00  0.65932820111E+03  0.12824260707E+04  0.10999558855E+04 0.  0.
        5    1    3    3  502    0 -0.11910542515E+03 -0.53660767169E+03  0.30881613775E+03  0.63049456187E+03  0.46999998093E+01 0. -1.
       -5    1    3    3    0  502  0.11910542515E+03  0.53660767169E+03  0.35051206335E+03  0.65193150880E+03  0.46999998093E+01 0.  1.
</event>
<event>
 5   0  0.3423758E-04  0.1114246E+04  0.7818609E-02  0.9191416E-01
        1   -1    0    0  501    0  0.00000000000E+00  0.00000000000E+00  0.62272189866E+03  0.62272189868E+03  0.50400001928E-02 0.  1.
       -1   -1    0    0    0  501  0.00000000000E+00  0.00000000000E+00 -0.49843488027E+03  0.49843488030E+03  0.50400001928E-02 0. -1.
    10030    2    1    2    0    0  0.00000000000E+00  0.00000000000E+00  0.12428701838E+03  0.11211567790E+04  0.11142464988E+04 0.  0.
        1    1    3    3  502    0  0.39840119372E+03  0.33664330163E+03 -0.13486167536E+03  0.53873917177E+03  0.50400001928E-02 0.  1.
       -1    1    3    3    0  502 -0.39840119372E+03 -0.33664330163E+03  0.25914869374E+03  0.58241760721E+03  0.50400001928E-02 0. -1.
</event>
<event>
 5   0  0.5948818E-04  0.1099205E+04  0.7818609E-02  0.9205967E-01
       -2   -1    0    0    0  501  0.00000000000E+00  0.00000000000E+00  0.21906274342E+03  0.21906274344E+03  0.25500000920E-02 0. -1.
        2   -1    0    0  501    0  0.00000000000E+00  0.00000000000E+00 -0.13788870650E+04  0.13788870650E+04  0.25500000920E-02 0.  1.
    10030    2    1    2    0    0  0.00000000000E+00  0.00000000000E+00 -0.11598243215E+04  0.15979498084E+04  0.10992047732E+04 0.  0.
        3    1    3    3  502    0 -0.33190516637E+03 -0.26487885351E+03 -0.10871397058E+04  0.11671309253E+04  0.10100000352E+00 0.  1.
       -3    1    3    3    0  502  0.33190516637E+03  0.26487885351E+03 -0.72684615692E+02  0.43081888313E+03  0.10100000352E+00 0. -1.
</event>
<event>
 5   0  0.2403875E-04  0.1099965E+04  0.7818609E-02  0.9205226E-01
       -4   -1    0    0    0  501  0.00000000000E+00  0.00000000000E+00  0.54371716923E+03  0.54371865244E+03  0.12699999809E+01 0. -1.
        4   -1    0    0  501    0  0.00000000000E+00  0.00000000000E+00 -0.55631681659E+03  0.55631826621E+03  0.12699999809E+01 0.  1.
    10030    2    1    2    0    0  0.00000000000E+00  0.00000000000E+00 -0.12599647365E+02  0.11000369187E+04  0.10999647591E+04 0.  0.
        5    1    3    3  502    0 -0.47402365162E+03  0.19494337061E+03 -0.20570494958E+03  0.55230241383E+03  0.46999998093E+01 0.  1.
       -5    1    3    3    0  502  0.47402365162E+03 -0.19494337061E+03  0.19310530221E+03  0.54773450483E+03  0.46999998093E+01 0. -1.
</event>
<event>
 5   0  0.3657529E-04  0.1100209E+04  0.7818609E-02  0.9204988E-01
        1   -1    0    0  501    0  0.00000000000E+00  0.00000000000E+00  0.16762986491E+04  0.16762986491E+04  0.50400001928E-02 0. -1.
       -1   -1    0    0    0  501  0.00000000000E+00  0.00000000000E+00 -0.18052578475E+03  0.18052578482E+03  0.50400001928E-02 0.  1.
    10030    2    1    2    0    0  0.00000000000E+00  0.00000000000E+00  0.14957728644E+04  0.18568244339E+04  0.11002093059E+04 0.  0.
        4    1    3    3  502    0  0.28197259856E+03  0.32802020354E+03  0.17429715153E+03  0.46635491871E+03  0.12699999809E+01 0.  1.
       -4    1    3    3    0  502 -0.28197259856E+03 -0.32802020354E+03  0.13214757128E+04  0.13904695152E+04  0.12699999809E+01 0. -1.
</event>
<event>
 5   0  0.3523525E-04  0.1096523E+04  0.7818609E-02  0.9208587E-01
       -1   -1    0    0    0  501  0.00000000000E+00  0.00000000000E+00  0.11372538012E+04  0.11372538013E+04  0.50400001928E-02 0.  1.
        1   -1    0    0  501    0  0.00000000000E+00  0.00000000000E+00 -0.26431287384E+03  0.26431287389E+03  0.50400001928E-02 0. -1.
    10030    2    1    2    0    0  0.00000000000E+00  0.00000000000E+00  0.87294092741E+03  0.14015666751E+04  0.10965232702E+04 0.  0.
        5    1    3    3  502    0  0.10013182372E+03 -0.17120892859E+03 -0.21682149368E+03  0.29389203710E+03  0.46999998093E+01 0. -1.
       -5    1    3    3    0  502 -0.10013182372E+03  0.17120892859E+03  0.10897624211E+04  0.11076746380E+04  0.46999998093E+01 0.  1.
</event>
<event>
 5   0  0.6264830E-04  0.1100217E+04  0.7818609E-02  0.9204980E-01
       -2   -1    0    0    0  501  0.00000000000E+00  0.00000000000E+00  0.36118811474E+03  0.36118811475E+03  0.25500000920E-02 0. -1.
        2   -1    0    0  501    0  0.00000000000E+00  0.00000000000E+00 -0.83784440908E+03  0.83784440909E+03  0.25500000920E-02 0.  1.
    10030    2    1    2    0    0  0.00000000000E+00  0.00000000000E+00 -0.47665629434E+03  0.11990325238E+04  0.11002171469E+04 0.  0.
        4    1    3    3  502    0  0.45337414728E+03  0.33010594624E+02 -0.57595964572E+03  0.73373628994E+03  0.12699999809E+01 0.  1.
       -4    1    3    3    0  502 -0.45337414728E+03 -0.33010594624E+02  0.99303351374E+02  0.46529623389E+03  0.12699999809E+01 0. -1.
</event>
<event>
 5   0  0.3523525E-04  0.1102558E+04  0.7818609E-02  0.9202702E-01
        1   -1    0    0  501    0  0.00000000000E+00  0.00000000000E+00  0.20004389082E+04  0.20004389082E+04  0.50400001928E-02 0. -1.
       -1   -1    0    0    0  501  0.00000000000E+00  0.00000000000E+00 -0.15192087078E+03  0.15192087086E+03  0.50400001928E-02 0.  1.
    10030    2    1    2    0    0  0.00000000000E+00  0.00000000000E+00  0.18485180374E+04  0.21523597790E+04  0.11025577916E+04 0.  0.
        5    1    3    3  502    0 -0.50151141847E+02 -0.34888507437E+03  0.96836001387E+02  0.36556153150E+03  0.46999998093E+01 0.  1.
       -5    1    3    3    0  502  0.50151141847E+02  0.34888507437E+03  0.17516820360E+04  0.17867982475E+04  0.46999998093E+01 0. -1.
</event>
<event>
 5   0  0.6412712E-04  0.1100911E+04  0.7818609E-02  0.9204305E-01
        2   -1    0    0  501    0  0.00000000000E+00  0.00000000000E+00  0.14638472727E+04  0.14638472727E+04  0.25500000920E-02 0. -1.
       -2   -1    0    0    0  501  0.00000000000E+00  0.00000000000E+00 -0.20698951335E+03  0.20698951337E+03  0.25500000920E-02 0.  1.
    10030    2    1    2    0    0  0.00000000000E+00  0.00000000000E+00  0.12568577594E+04  0.16708367861E+04  0.11009105951E+04 0.  0.
        2    1    3    3  502    0  0.35429151775E+03  0.31645749999E+03  0.20637783086E+03  0.51793787072E+03  0.25500000920E-02 0.  1.
       -2    1    3    3    0  502 -0.35429151775E+03 -0.31645749999E+03  0.10504799285E+04  0.11528989154E+04  0.25500000920E-02 0. -1.
</event>
<event>
 5   0  0.3642161E-04  0.1101469E+04  0.7818609E-02  0.9203761E-01
       -1   -1    0    0    0  501  0.00000000000E+00  0.00000000000E+00  0.37028123491E+03  0.37028123495E+03  0.50400001928E-02 0.  1.
        1   -1    0    0  501    0  0.00000000000E+00  0.00000000000E+00 -0.81913000671E+03  0.81913000672E+03  0.50400001928E-02 0. -1.
    10030    2    1    2    0    0  0.00000000000E+00  0.00000000000E+00 -0.44884877180E+03  0.11894112417E+04  0.11014689655E+04 0.  0.
        2    1    3    3  502    0 -0.13901801894E+03  0.53247985411E+03 -0.24727178402E+03  0.60332755598E+03  0.25500000920E-02 0.  1.
       -2    1    3    3    0  502  0.13901801894E+03 -0.53247985411E+03 -0.20157698778E+03  0.58608368569E+03  0.25500000920E-02 0. -1.
</event>
<event>
 5   0  0.3423758E-04  0.1102588E+04  0.7818609E-02  0.9202673E-01
        1   -1    0    0  501    0  0.00000000000E+00  0.00000000000E+00  0.44274649662E+03  0.44274649665E+03  0.50400001928E-02 0. -1.
       -1   -1    0    0    0  501  0.00000000000E+00  0.00000000000E+00 -0.68645376993E+03  0.68645376995E+03  0.50400001928E-02 0.  1.
    10030    2    1    2    0    0  0.00000000000E+00  0.00000000000E+00 -0.24370727331E+03  0.11292002666E+04  0.11025878682E+04 0.  0.
        1    1    3    3  502    0 -0.27258360420E+03  0.42843515305E+03  0.97957843817E+02  0.51715978270E+03  0.50400001928E-02 0. -1.
       -1    1    3    3    0  502  0.27258360420E+03 -0.42843515305E+03 -0.34166511712E+03  0.61204048390E+03  0.50400001928E-02 0.  1.
</event>
<event>
 5   0  0.6412712E-04  0.1106279E+04  0.7818609E-02  0.9199093E-01
       -2   -1    0    0    0  501  0.00000000000E+00  0.00000000000E+00  0.29658007052E+03  0.29658007053E+03  0.25500000920E-02 0. -1.
        2   -1    0    0  501    0  0.00000000000E+00  0.00000000000E+00 -0.10316389834E+04  0.10316389834E+04  0.25500000920E-02 0.  1.
    10030    2    1    2    0    0  0.00000000000E+00  0.00000000000E+00 -0.73505891287E+03  0.13282190539E+04  0.11062794628E+04 0.  0.
        2    1    3    3  502    0 -0.20284033952E+03 -0.88404888973E+02  0.24113051625E+03  0.32726679270E+03  0.25500000920E-02 0. -1.
       -2    1    3    3    0  502  0.20284033952E+03  0.88404888973E+02 -0.97618942912E+03  0.10009522612E+04  0.25500000920E-02 0.  1.
</event>
<event>
 5   0  0.6109149E-04  0.1100138E+04  0.7818609E-02  0.9205058E-01
        2   -1    0    0  501    0  0.00000000000E+00  0.00000000000E+00  0.58015935935E+03  0.58015935935E+03  0.25500000920E-02 0. -1.
       -2   -1    0    0    0  501  0.00000000000E+00  0.00000000000E+00 -0.52153902789E+03  0.52153902790E+03  0.25500000920E-02 0.  1.
    10030    2    1    2    0    0  0.00000000000E+00  0.00000000000E+00  0.58620331453E+02  0.11016983873E+04  0.11001377156E+04 0.  0.
        1    1    3    3  502    0 -0.24383731157E+03 -0.12751187376E+03 -0.44766357131E+03  0.52546987122E+03  0.50400001928E-02 0.  1.
       -1    1    3    3    0  502  0.24383731157E+03  0.12751187376E+03  0.50628390276E+03  0.57622851603E+03  0.50400001928E-02 0. -1.
</event>
<event>
 5   0  0.3642161E-04  0.1098570E+04  0.7818609E-02  0.9206587E-01
       -1   -1    0    0    0  501  0.00000000000E+00  0.00000000000E+00  0.32318669415E+03  0.32318669419E+03  0.50400001928E-02 0. -1.
        1   -1    0    0  501    0  0.00000000000E+00  0.00000000000E+00 -0.93355978069E+03  0.93355978070E+03  0.50400001928E-02 0.  1.
    10030    2    1    2    0    0  0.00000000000E+00  0.00000000000E+00 -0.61037308654E+03  0.12567464749E+04  0.10985701604E+04 0.  0.
        2    1    3    3  502    0  0.19410585067E+03  0.44072515876E+03 -0.60741994772E+03  0.77516110566E+03  0.25500000920E-02 0.  1.
       -2    1    3    3    0  502 -0.19410585067E+03 -0.44072515876E+03 -0.29531388138E+01  0.48158536923E+03  0.25500000920E-02 0. -1.
</event>
<event>
 5   0  0.3423758E-04  0.1104841E+04  0.7818609E-02  0.9200486E-01
        1   -1    0    0  501    0  0.00000000000E+00  0.00000000000E+00  0.67031898511E+03  0.67031898513E+03  0.50400001928E-02 0.  1.
       -1   -1    0    0    0  501  0.00000000000E+00  0.00000000000E+00 -0.45525860919E+03  0.45525860922E+03  0.50400001928E-02 0. -1.
    10030    2    1    2    0    0  0.00000000000E+00  0.00000000000E+00  0.21506037592E+03  0.11255775943E+04  0.11048411450E+04 0.  0.
        1    1    3    3  502    0  0.14155514290E+03  0.29692742596E+03  0.55966696819E+03  0.64917707143E+03  0.50400001928E-02 0.  1.
       -1    1    3    3    0  502 -0.14155514290E+03 -0.29692742596E+03 -0.34460659227E+03  0.47640052291E+03  0.50400001928E-02 0. -1.
</event>
<event>
 5   0  0.3657529E-04  0.1100560E+04  0.7818609E-02  0.9204646E-01
       -1   -1    0    0    0  501  0.00000000000E+00  0.00000000000E+00  0.20068514085E+03  0.20068514091E+03  0.50400001928E-02 0. -1.
        1   -1    0    0  501    0  0.00000000000E+00  0.00000000000E+00 -0.15088720956E+04  0.15088720956E+04  0.50400001928E-02 0.  1.
    10030    2    1    2    0    0  0.00000000000E+00  0.00000000000E+00 -0.13081869548E+04  0.17095572365E+04  0.11005602375E+04 0.  0.
        4    1    3    3  502    0  0.36801327125E+03 -0.37493550804E+03 -0.39981688787E+03  0.66020115096E+03  0.12699999809E+01 0.  1.
       -4    1    3    3    0  502 -0.36801327125E+03  0.37493550804E+03 -0.90837006691E+03  0.10493560856E+04  0.12699999809E+01 0. -1.
</event>
<event>
 5   0  0.6264830E-04  0.1099356E+04  0.7818609E-02  0.9205820E-01
       -2   -1    0    0    0  501  0.00000000000E+00  0.00000000000E+00  0.26522038494E+03  0.26522038495E+03  0.25500000920E-02 0.  1.
        2   -1    0    0  501    0  0.00000000000E+00  0.00000000000E+00 -0.11392260350E+04  0.11392260350E+04  0.25500000920E-02 0. -1.
    10030    2    1    2    0    0  0.00000000000E+00  0.00000000000E+00 -0.87400565004E+03  0.14044464199E+04  0.10993561162E+04 0.  0.
        4    1    3    3  502    0 -0.19853907054E+03 -0.90744259564E+01 -0.10917154635E+04  0.11096595757E+04  0.12699999809E+01 0. -1.
       -4    1    3    3    0  502  0.19853907054E+03  0.90744259564E+01  0.21770981350E+03  0.29478684423E+03  0.12699999809E+01 0.  1.
</event>
<event>
 5   0  0.3621403E-04  0.1097880E+04  0.7818609E-02  0.9207260E-01
       -1   -1    0    0    0  501  0.00000000000E+00  0.00000000000E+00  0.51136938008E+03  0.51136938010E+03  0.50400001928E-02 0.  1.
        1   -1    0    0  501    0  0.00000000000E+00  0.00000000000E+00 -0.58927127002E+03  0.58927127005E+03  0.50400001928E-02 0. -1.
    10030    2    1    2    0    0  0.00000000000E+00  0.00000000000E+00 -0.77901889948E+02  0.11006406501E+04  0.10978802923E+04 0.  0.
        3    1    3    3  502    0  0.30342847741E+03  0.30958740682E+03 -0.37657963589E+03  0.57421723740E+03  0.10100000352E+00 0. -1.
       -3    1    3    3    0  502 -0.30342847741E+03 -0.30958740682E+03  0.29867774594E+03  0.52642341274E+03  0.10100000352E+00 0.  1.
</event>
<event>
 5   0  0.3423758E-04  0.1099559E+04  0.7818609E-02  0.9205622E-01
        1   -1    0    0  501    0  0.00000000000E+00  0.00000000000E+00  0.35764377565E+03  0.35764377569E+03  0.50400001928E-02 0.  1.
       -1   -1    0    0    0  501  0.00000000000E+00  0.00000000000E+00 -0.84513502150E+03  0.84513502151E+03  0.50400001928E-02 0. -1.
    10030    2    1    2    0    0  0.00000000000E+00  0.00000000000E+00 -0.48749124584E+03  0.12027787972E+04  0.10995586025E+04 0.  0.
        1    1    3    3  502    0  0.17534637588E+02 -0.75243877567E+02 -0.83916716451E+03  0.84271622427E+03  0.50400001928E-02 0. -1.
       -1    1    3    3    0  502 -0.17534637588E+02  0.75243877567E+02  0.35167591867E+03  0.36006257293E+03  0.50400001928E-02 0.  1.
</event>
<event>
 5   0  0.3423758E-04  0.1102075E+04  0.7818609E-02  0.9203172E-01
       -1   -1    0    0    0  501  0.00000000000E+00  0.00000000000E+00  0.20168679687E+03  0.20168679694E+03  0.50400001928E-02 0. -1.
        1   -1    0    0  501    0  0.00000000000E+00  0.00000000000E+00 -0.15055132327E+04  0.15055132327E+04  0.50400001928E-02 0.  1.
    10030    2    1    2    0    0  0.00000000000E+00  0.00000000000E+00 -0.13038264358E+04  0.17072000296E+04  0.11020746647E+04 0.  0.
        1    1    3    3  502    0  0.36837707565E+01  0.13250549798E+03 -0.14804469703E+04  0.14863695735E+04  0.50400001928E-02 0.  1.
       -1    1    3    3    0  502 -0.36837707565E+01 -0.13250549798E+03  0.17662053444E+03  0.22083045617E+03  0.50400001928E-02 0. -1.
</event>
<event>
 5   0  0.6264830E-04  0.1100800E+04  0.7818609E-02  0.9204412E-01
       -2   -1    0    0    0  501  0.00000000000E+00  0.00000000000E+00  0.21772753035E+03  0.21772753036E+03  0.25500000920E-02 0. -1.
        2   -1    0    0  501    0  0.00000000000E+00  0.00000000000E+00 -0.13913734100E+04  0.13913734100E+04  0.25500000920E-02 0.  1.
    10030    2    1    2    0    0  0.00000000000E+00  0.00000000000E+00 -0.11736458797E+04  0.16091009404E+04  0.11008002478E+04 0.  0.
        4    1    3    3  502    0 -0.28850007687E+03  0.39941690458E+03 -0.94539288899E+03  0.10660841831E+04  0.12699999809E+01 0.  1.
       -4    1    3    3    0  502  0.28850007687E+03 -0.39941690458E+03 -0.22825299066E+03  0.54301675726E+03  0.12699999809E+01 0. -1.
</event>
<event>
 5   0  0.5948818E-04  0.1096533E+04  0.7818609E-02  0.9208578E-01
       -2   -1    0    0    0  501  0.00000000000E+00  0.00000000000E+00  0.64302118749E+03  0.64302118749E+03  0.25500000920E-02 0. -1.
        2   -1    0    0  501    0  0.00000000000E+00  0.00000000000E+00 -0.46747472333E+03  0.46747472333E+03  0.25500000920E-02 0.  1.
    10030    2    1    2    0    0  0.00000000000E+00  0.00000000000E+00  0.17554646416E+03  0.11104959108E+04  0.10965329940E+04 0.  0.
        3    1    3    3  502    0 -0.38265972916E+03 -0.30174152732E+03  0.34220879014E+03  0.59546896131E+03  0.10100000352E+00 0. -1.
       -3    1    3    3    0  502  0.38265972916E+03  0.30174152732E+03 -0.16666232598E+03  0.51502694952E+03  0.10100000352E+00 0.  1.
</event>
<event>
 5   0  0.2403875E-04  0.1099884E+04  0.7818609E-02  0.9205305E-01
        3   -1    0    0  501    0  0.00000000000E+00  0.00000000000E+00  0.17153912816E+03  0.17153915789E+03  0.10100000352E+00 0.  1.
       -3   -1    0    0    0  501  0.00000000000E+00  0.00000000000E+00 -0.17630734995E+04  0.17630735024E+04  0.10100000352E+00 0. -1.
    10030    2    1    2    0    0  0.00000000000E+00  0.00000000000E+00 -0.15915343714E+04  0.19346126603E+04  0.10998838530E+04 0.  0.
        5    1    3    3  502    0  0.54788636710E+03 -0.35687391448E+02 -0.74124133791E+03  0.92244992937E+03  0.46999998093E+01 0. -1.
       -5    1    3    3    0  502 -0.54788636710E+03  0.35687391448E+02 -0.85029303344E+03  0.10121627309E+04  0.46999998093E+01 0.  1.
</event>
<event>
 5   0  0.6245176E-04  0.1099281E+04  0.7818609E-02  0.9205892E-01
       -2   -1    0    0    0  501  0.00000000000E+00  0.00000000000E+00  0.84594792054E+03  0.84594792055E+03  0.25500000920E-02 0.  1.
        2   -1    0    0  501    0  0.00000000000E+00  0.00000000000E+00 -0.35712001811E+03  0.35712001812E+03  0.25500000920E-02 0. -1.
    10030    2    1    2    0    0  0.00000000000E+00  0.00000000000E+00  0.48882790243E+03  0.12030679387E+04  0.10992814684E+04 0.  0.
        5    1    3    3  502    0  0.53215898855E+03 -0.16979146994E+01  0.94009688067E+02  0.54042204198E+03  0.46999998093E+01 0.  1.
       -5    1    3    3    0  502 -0.53215898855E+03  0.16979146994E+01  0.39481821436E+03  0.66264589669E+03  0.46999998093E+01 0. -1.
</event>
<event>
 5   0  0.5948818E-04  0.1100081E+04  0.7818609E-02  0.9205113E-01
       -2   -1    0    0    0  501  0.00000000000E+00  0.00000000000E+00  0.14237554508E+03  0.14237554510E+03  0.25500000920E-02 0.  1.
        2   -1    0    0  501    0  0.00000000000E+00  0.00000000000E+00 -0.21249762174E+04  0.21249762174E+04  0.25500000920E-02 0. -1.
    10030    2    1    2    0    0  0.00000000000E+00  0.00000000000E+00 -0.19826006723E+04  0.22673517625E+04  0.11000811738E+04 0.  0.
        3    1    3    3  502    0  0.40159025765E+03 -0.36024537574E+03 -0.12122605643E+04  0.13268862618E+04  0.10100000352E+00 0. -1.
       -3    1    3    3    0  502 -0.40159025765E+03  0.36024537574E+03 -0.77034010798E+03  0.94046550067E+03  0.10100000352E+00 0.  1.
</event>
<event>
 5   0  0.3523525E-04  0.1100543E+04  0.7818609E-02  0.9204663E-01
       -1   -1    0    0    0  501  0.00000000000E+00  0.00000000000E+00  0.16558750218E+03  0.16558750226E+03  0.50400001928E-02 0.  1.
        1   -1    0    0  501    0  0.00000000000E+00  0.00000000000E+00 -0.18286324250E+04  0.18286324250E+04  0.50400001928E-02 0. -1.
    10030    2    1    2    0    0  0.00000000000E+00  0.00000000000E+00 -0.16630449228E+04  0.19942199272E+04  0.11005429128E+04 0.  0.
        5    1    3    3  502    0 -0.38597291461E+03  0.18049770788E+03 -0.14624172244E+04  0.15232336464E+04  0.46999998093E+01 0. -1.
       -5    1    3    3    0  502  0.38597291461E+03 -0.18049770788E+03 -0.20062769840E+03  0.47098628082E+03  0.46999998093E+01 0.  1.
</event>
<event>
 5   0  0.6245176E-04  0.1099978E+04  0.7818609E-02  0.9205214E-01
       -2   -1    0    0    0  501  0.00000000000E+00  0.00000000000E+00  0.11690888912E+04  0.11690888912E+04  0.25500000920E-02 0.  1.
        2   -1    0    0  501    0  0.00000000000E+00  0.00000000000E+00 -0.25873795252E+03  0.25873795253E+03  0.25500000920E-02 0. -1.
    10030    2    1    2    0    0  0.00000000000E+00  0.00000000000E+00  0.91035093869E+03  0.14278268437E+04  0.10999775744E+04 0.  0.
        5    1    3    3  502    0 -0.12505722201E+03  0.20985422041E+03  0.10947701590E+04  0.11217049049E+04  0.46999998093E+01 0.  1.
       -5    1    3    3    0  502  0.12505722201E+03 -0.20985422041E+03 -0.18441922034E+03  0.30612193883E+03  0.46999998093E+01 0. -1.
</event>
<event>
 5   0  0.6412712E-04  0.1099454E+04  0.7818609E-02  0.9205725E-01
        2   -1    0    0  501    0  0.00000000000E+00  0.00000000000E+00  0.77753693471E+03  0.77753693472E+03  0.25500000920E-02 0. -1.
       -2   -1    0    0    0  501  0.00000000000E+00  0.00000000000E+00 -0.38866262496E+03  0.38866262497E+03  0.25500000920E-02 0.  1.
    10030    2    1    2    0    0  0.00000000000E+00  0.00000000000E+00  0.38887430975E+03  0.11661995597E+04  0.10994535844E+04 0.  0.
        2    1    3    3  502    0  0.37549213187E+03 -0.17715236426E+03  0.57661942064E+03  0.71054011676E+03  0.25500000920E-02 0.  1.
       -2    1    3    3    0  502 -0.37549213187E+03  0.17715236426E+03 -0.18774511089E+03  0.45565944293E+03  0.25500000920E-02 0. -1.
</event>
<event>
 5   0  0.6245176E-04  0.1100102E+04  0.7818609E-02  0.9205093E-01
        2   -1    0    0  501    0  0.00000000000E+00  0.00000000000E+00  0.52310226494E+03  0.52310226495E+03  0.25500000920E-02 0.  1.
       -2   -1    0    0    0  501  0.00000000000E+00  0.00000000000E+00 -0.57838761144E+03  0.57838761145E+03  0.25500000920E-02 0. -1.
    10030    2    1    2    0    0  0.00000000000E+00  0.00000000000E+00 -0.55285346501E+02  0.11014898764E+04  0.11001015763E+04 0.  0.
        5    1    3    3  502    0 -0.31089936730E+03 -0.10601131286E+03  0.41409087567E+03  0.52857370192E+03  0.46999998093E+01 0.  1.
       -5    1    3    3    0  502  0.31089936730E+03  0.10601131286E+03 -0.46937622217E+03  0.57291617448E+03  0.46999998093E+01 0. -1.
</event>
<event>
 5   0  0.3423758E-04  0.1100232E+04  0.7818609E-02  0.9204966E-01
       -1   -1    0    0    0  501  0.00000000000E+00  0.00000000000E+00  0.11686484291E+04  0.11686484291E+04  0.50400001928E-02 0.  1.
        1   -1    0    0  501    0  0.00000000000E+00  0.00000000000E+00 -0.25895505122E+03  0.25895505126E+03  0.50400001928E-02 0. -1.
    10030    2    1    2    0    0  0.00000000000E+00  0.00000000000E+00  0.90969337786E+03  0.14276034804E+04  0.11002316372E+04 0.  0.
        1    1    3    3  502    0  0.79599429158E+02 -0.45071658472E+03  0.58837418835E+02  0.46145785370E+03  0.50400001928E-02 0. -1.
       -1    1    3    3    0  502 -0.79599429158E+02  0.45071658472E+03  0.85085595903E+03  0.96614562665E+03  0.50400001928E-02 0.  1.
</event>
<event>
 5   0  0.6412712E-04  0.1098859E+04  0.7818609E-02  0.9206305E-01
       -2   -1    0    0    0  501  0.00000000000E+00  0.00000000000E+00  0.17106702694E+03  0.17106702696E+03  0.25500000920E-02 0.  1.
        2   -1    0    0  501    0  0.00000000000E+00  0.00000000000E+00 -0.17646450277E+04  0.17646450277E+04  0.25500000920E-02 0. -1.
    10030    2    1    2    0    0  0.00000000000E+00  0.00000000000E+00 -0.15935780008E+04  0.19357120547E+04  0.10988586415E+04 0.  0.
        2    1    3    3  502    0 -0.48338964888E+03  0.23830820476E+03 -0.60857141630E+03  0.81290560451E+03  0.25500000920E-02 0. -1.
       -2    1    3    3    0  502  0.48338964888E+03 -0.23830820476E+03 -0.98500658449E+03  0.11228064502E+04  0.25500000920E-02 0.  1.
</event>
<event>
 5   0  0.3523525E-04  0.1102094E+04  0.7818609E-02  0.9203153E-01
        1   -1    0    0  501    0  0.00000000000E+00  0.00000000000E+00  0.94763767798E+03  0.94763767800E+03  0.50400001928E-02 0.  1.
       -1   -1    0    0    0  501  0.00000000000E+00  0.00000000000E+00 -0.32043129226E+03  0.32043129230E+03  0.50400001928E-02 0. -1.
    10030    2    1    2    0    0  0.00000000000E+00  0.00000000000E+00  0.62720638572E+03  0.12680689703E+04  0.11020939448E+04 0.  0.
        5    1    3    3  502    0 -0.13107783129E+02 -0.94892232927E+02 -0.31075415730E+03  0.32521775186E+03  0.46999998093E+01 0. -1.
       -5    1    3    3    0  502  0.13107783129E+02  0.94892232927E+02  0.93796054302E+03  0.94285121844E+03  0.46999998093E+01 0.  1.
</event>
<event>
 5   0  0.3621403E-04  0.1099254E+04  0.7818609E-02  0.9205919E-01
       -1   -1    0    0    0  501  0.00000000000E+00  0.00000000000E+00  0.14250947198E+03  0.14250947207E+03  0.50400001928E-02 0. -1.
        1   -1    0    0  501    0  0.00000000000E+00  0.00000000000E+00 -0.21197895988E+04  0.21197895988E+04  0.50400001928E-02 0.  1.
    10030    2    1    2    0    0  0.00000000000E+00  0.00000000000E+00 -0.19772801268E+04  0.22622990709E+04  0.10992544683E+04 0.  0.
        3    1    3    3  502    0 -0.15377069088E+03 -0.25381399443E+03 -0.36541039158E+02  0.29900205164E+03  0.10100000352E+00 0. -1.
       -3    1    3    3    0  502  0.15377069088E+03  0.25381399443E+03 -0.19407390876E+04  0.19632970192E+04  0.10100000352E+00 0.  1.
</event>
<event>
 5   0  0.6264830E-04  0.1100297E+04  0.7818609E-02  0.9204902E-01
       -2   -1    0    0    0  501  0.00000000000E+00  0.00000000000E+00  0.64978607128E+03  0.64978607129E+03  0.25500000920E-02 0. -1.
        2   -1    0    0  501    0  0.00000000000E+00  0.00000000000E+00 -0.46578932605E+03  0.46578932605E+03  0.25500000920E-02 0.  1.
    10030    2    1    2    0    0  0.00000000000E+00  0.00000000000E+00  0.18399674524E+03  0.11155753973E+04  0.11002970803E+04 0.  0.
        4    1    3    3  502    0  0.99112191181E+02  0.40336711759E+02 -0.45513505325E+03  0.46754658202E+03  0.12699999809E+01 0.  1.
       -4    1    3    3    0  502 -0.99112191181E+02 -0.40336711759E+02  0.63913179849E+03  0.64802881533E+03  0.12699999809E+01 0. -1.
</event>
<event>
 5   0  0.3621403E-04  0.1097206E+04  0.7818609E-02  0.9207919E-01
        1   -1    0    0  501    0  0.00000000000E+00  0.00000000000E+00  0.77227128741E+03  0.77227128743E+03  0.50400001928E-02 0. -1.
       -1   -1    0    0    0  501  0.00000000000E+00  0.00000000000E+00 -0.38971472877E+03  0.38971472881E+03  0.50400001928E-02 0.  1.
    10030    2    1    2    0    0  0.00000000000E+00  0.00000000000E+00  0.38255655864E+03  0.11619860162E+04  0.10972064443E+04 0.  0.
        3    1    3    3  502    0  0.37646472695E+03 -0.82446959595E+02 -0.22221198527E+03  0.44486106639E+03  0.10100000352E+00 0.  1.
       -3    1    3    3    0  502 -0.37646472695E+03  0.82446959595E+02  0.60476854391E+03  0.71712494985E+03  0.10100000352E+00 0. -1.
</event>
<event>
 5   0  0.3657529E-04  0.1098414E+04  0.7818609E-02  0.9206739E-01
        1   -1    0    0  501    0  0.00000000000E+00  0.00000000000E+00  0.16413814324E+04  0.16413814324E+04  0.50400001928E-02 0.  1.
       -1   -1    0    0    0  501  0.00000000000E+00  0.00000000000E+00 -0.18376481459E+03  0.18376481466E+03  0.50400001928E-02 0. -1.
    10030    2    1    2    0    0  0.00000000000E+00  0.00000000000E+00  0.14576166178E+04  0.18251462470E+04  0.10984136828E+04 0.  0.
        4    1    3    3  502    0  0.13841964328E+03  0.13741533464E+03 -0.12427393645E+03  0.23127601696E+03  0.12699999809E+01 0. -1.
       -4    1    3    3    0  502 -0.13841964328E+03 -0.13741533464E+03  0.15818905542E+04  0.15938702301E+04  0.12699999809E+01 0.  1.
</event>
<event>
 5   0  0.3621403E-04  0.1099109E+04  0.7818609E-02  0.9206061E-01
       -1   -1    0    0    0  501  0.00000000000E+00  0.00000000000E+00  0.25771299764E+03  0.25771299768E+03  0.50400001928E-02 0.  1.
        1   -1    0    0  501    0  0.00000000000E+00  0.00000000000E+00 -0.11718849899E+04  0.11718849899E+04  0.50400001928E-02 0. -1.
    10030    2    1    2    0    0  0.00000000000E+00  0.00000000000E+00 -0.91417199229E+03  0.14295979876E+04  0.10991087183E+04 0.  0.
        3    1    3    3  502    0  0.24526612387E+03  0.31534312476E+03 -0.94793559113E+03  0.10286781095E+04  0.10100000352E+00 0. -1.
       -3    1    3    3    0  502 -0.24526612387E+03 -0.31534312476E+03  0.33763598842E+02  0.40091987811E+03  0.10100000352E+00 0.  1.
</event>
<event>
 5   0  0.6245176E-04  0.1095869E+04  0.7818609E-02  0.9209228E-01
       -2   -1    0    0    0  501  0.00000000000E+00  0.00000000000E+00  0.30322153326E+03  0.30322153327E+03  0.25500000920E-02 0.  1.
        2   -1    0    0  501    0  0.00000000000E+00  0.00000000000E+00 -0.99014133033E+03  0.99014133034E+03  0.25500000920E-02 0. -1.
    10030    2    1    2    0    0  0.00000000000E+00  0.00000000000E+00 -0.68691979707E+03  0.12933628636E+04  0.10958689198E+04 0.  0.
        5    1    3    3  502    0 -0.28857473895E+03 -0.31573420864E+03 -0.74758137189E+03  0.86131496450E+03  0.46999998093E+01 0. -1.
       -5    1    3    3    0  502  0.28857473895E+03  0.31573420864E+03  0.60661574816E+02  0.43204789911E+03  0.46999998093E+01 0.  1.
</event>
<event>
 5   0  0.3657529E-04  0.1101983E+04  0.7818609E-02  0.9203261E-01
       -1   -1    0    0    0  501  0.00000000000E+00  0.00000000000E+00  0.19071493413E+03  0.19071493420E+03  0.50400001928E-02 0. -1.
        1   -1    0    0  501    0  0.00000000000E+00  0.00000000000E+00 -0.15918610210E+04  0.15918610210E+04  0.50400001928E-02 0.  1.
    10030    2    1    2    0    0  0.00000000000E+00  0.00000000000E+00 -0.14011460869E+04  0.17825759552E+04  0.11019830667E+04 0.  0.
        4    1    3    3  502    0  0.48012417474E+03 -0.25884002585E+03 -0.57451715578E+03  0.79220512327E+03  0.12699999809E+01 0. -1.
       -4    1    3    3    0  502 -0.48012417474E+03  0.25884002585E+03 -0.82662893112E+03  0.99037083197E+03  0.12699999809E+01 0.  1.
</event>
<event>
 5   0  0.3523525E-04  0.1099253E+04  0.7818609E-02  0.9205920E-01
       -1   -1    0    0    0  501  0.00000000000E+00  0.00000000000E+00  0.17028102170E+03  0.17028102177E+03  0.50400001928E-02 0.  1.
        1   -1    0    0  501    0  0.00000000000E+00  0.00000000000E+00 -0.17740647602E+04  0.17740647602E+04  0.50400001928E-02 0. -1.
    10030    2    1    2    0    0  0.00000000000E+00  0.00000000000E+00 -0.16037837385E+04  0.19443457820E+04  0.10992534922E+04 0.  0.
        5    1    3    3  502    0 -0.54695075926E+03 -0.49578930172E+02 -0.83959097683E+03  0.10032688083E+04  0.46999998093E+01 0. -1.
       -5    1    3    3    0  502  0.54695075926E+03  0.49578930172E+02 -0.76419276166E+03  0.94107697365E+03  0.46999998093E+01 0.  1.
</event>
<event>
 5   0  0.6245176E-04  0.1102771E+04  0.7818609E-02  0.9202496E-01
        2   -1    0    0  501    0  0.00000000000E+00  0.00000000000E+00  0.72396384783E+03  0.72396384783E+03  0.25500000920E-02 0.  1.
       -2   -1    0    0    0  501  0.00000000000E+00  0.00000000000E+00 -0.41994611678E+03  0.41994611679E+03  0.25500000920E-02 0. -1.
    10030    2    1    2    0    0  0.00000000000E+00  0.00000000000E+00  0.30401773105E+03  0.11439099646E+04  0.11027707043E+04 0.  0.
        5    1    3    3  502    0 -0.45813673697E+03 -0.17510166024E+03 -0.10928886044E+03  0.50250970756E+03  0.46999998093E+01 0.  1.
       -5    1    3    3    0  502  0.45813673697E+03  0.17510166024E+03  0.41330659149E+03  0.64140025706E+03  0.46999998093E+01 0. -1.
</event>
<event>
 5   0  0.3523525E-04  0.1099773E+04  0.7818609E-02  0.9205413E-01
        1   -1    0    0  501    0  0.00000000000E+00  0.00000000000E+00  0.21872687445E+04  0.21872687445E+04  0.50400001928E-02 0. -1.
       -1   -1    0    0    0  501  0.00000000000E+00  0.00000000000E+00 -0.13824325863E+03  0.13824325873E+03  0.50400001928E-02 0.  1.
    10030    2    1    2    0    0  0.00000000000E+00  0.00000000000E+00  0.20490254858E+04  0.23255120032E+04  0.10997729927E+04 0.  0.
        5    1    3    3  502    0  0.15963781367E+03 -0.14856897684E+03 -0.42849706944E+02  0.22229520872E+03  0.46999998093E+01 0.  1.
       -5    1    3    3    0  502 -0.15963781367E+03  0.14856897684E+03  0.20918751928E+04  0.21032167945E+04  0.46999998093E+01 0. -1.
</event>
<event>
 5   0  0.6264830E-04  0.1103452E+04  0.7818609E-02  0.9201834E-01
       -2   -1    0    0    0  501  0.00000000000E+00  0.00000000000E+00  0.32298655422E+03  0.32298655423E+03  0.25500000920E-02 0.  1.
        2   -1    0    0  501    0  0.00000000000E+00  0.00000000000E+00 -0.94245828926E+03  0.94245828926E+03  0.25500000920E-02 0. -1.
    10030    2    1    2    0    0  0.00000000000E+00  0.00000000000E+00 -0.61947173504E+03  0.12654448435E+04  0.11034515945E+04 0.  0.
        4    1    3    3  502    0 -0.10755594934E+03  0.45614217915E+03  0.24151660138E+02  0.46927485062E+03  0.12699999809E+01 0.  1.
       -4    1    3    3    0  502  0.10755594934E+03 -0.45614217915E+03 -0.64362339517E+03  0.79616999287E+03  0.12699999809E+01 0. -1.
</event>
<event>
 5   0  0.3642161E-04  0.1101885E+04  0.7818609E-02  0.9203357E-01
        1   -1    0    0  501    0  0.00000000000E+00  0.00000000000E+00  0.44710177205E+03  0.44710177208E+03  0.50400001928E-02 0.  1.
       -1   -1    0    0    0  501  0.00000000000E+00  0.00000000000E+00 -0.67890053934E+03  0.67890053936E+03  0.50400001928E-02 0. -1.
    10030    2    1    2    0    0  0.00000000000E+00  0.00000000000E+00 -0.23179876729E+03  0.11260023114E+04  0.11018849926E+04 0.  0.
        2    1    3    3  502    0  0.14595192140E+03 -0.53047552216E+03 -0.14536433547E+03  0.56906680891E+03  0.25500000920E-02 0.  1.
       -2    1    3    3    0  502 -0.14595192140E+03  0.53047552216E+03 -0.86434431819E+02  0.55693550253E+03  0.25500000920E-02 0. -1.
</event>
<event>
 5   0  0.3642161E-04  0.1101557E+04  0.7818609E-02  0.9203676E-01
        1   -1    0    0  501    0  0.00000000000E+00  0.00000000000E+00  0.15624678420E+04  0.15624678420E+04  0.50400001928E-02 0.  1.
       -1   -1    0    0    0  501  0.00000000000E+00  0.00000000000E+00 -0.19415231091E+03  0.19415231098E+03  0.50400001928E-02 0. -1.
    10030    2    1    2    0    0  0.00000000000E+00  0.00000000000E+00  0.13683155311E+04  0.17566201530E+04  0.11015566119E+04 0.  0.
        2    1    3    3  502    0  0.41747111889E+03 -0.19838035313E+03  0.11618138245E+04  0.12503792475E+04  0.25500000920E-02 0.  1.
       -2    1    3    3    0  502 -0.41747111889E+03  0.19838035313E+03  0.20650170656E+03  0.50624090553E+03  0.25500000920E-02 0. -1.
</event>
<event>
 5   0  0.3423758E-04  0.1098567E+04  0.7818609E-02  0.9206589E-01
        1   -1    0    0  501    0  0.00000000000E+00  0.00000000000E+00  0.49716694027E+03  0.49716694030E+03  0.50400001928E-02 0.  1.
       -1   -1    0    0    0  501  0.00000000000E+00  0.00000000000E+00 -0.60686363758E+03  0.60686363760E+03  0.50400001928E-02 0. -1.
    10030    2    1    2    0    0  0.00000000000E+00  0.00000000000E+00 -0.10969669731E+03  0.11040305779E+04  0.10985673177E+04 0.  0.
        1    1    3    3  502    0  0.23670957318E+03 -0.82118587766E+02  0.43639504671E+03  0.50320524770E+03  0.50400001928E-02 0.  1.
       -1    1    3    3    0  502 -0.23670957318E+03  0.82118587766E+02 -0.54609174402E+03  0.60082533020E+03  0.50400001928E-02 0. -1.
</event>
<event>
 5   0  0.5948818E-04  0.1100109E+04  0.7818609E-02  0.9205086E-01
       -2   -1    0    0    0  501  0.00000000000E+00  0.00000000000E+00  0.10656254634E+04  0.10656254634E+04  0.25500000920E-02 0. -1.
        2   -1    0    0  501    0  0.00000000000E+00  0.00000000000E+00 -0.28392704975E+03  0.28392704976E+03  0.25500000920E-02 0.  1.
    10030    2    1    2    0    0  0.00000000000E+00  0.00000000000E+00  0.78169841364E+03  0.13495525132E+04  0.11001088927E+04 0.  0.
        3    1    3    3  502    0 -0.28280946866E+03  0.44666731307E+03  0.20453341462E+03  0.56685695905E+03  0.10100000352E+00 0. -1.
       -3    1    3    3    0  502  0.28280946866E+03 -0.44666731307E+03  0.57716499902E+03  0.78269555411E+03  0.10100000352E+00 0.  1.
</event>
<event>
 5   0  0.3642161E-04  0.1100801E+04  0.7818609E-02  0.9204412E-01
       -1   -1    0    0    0  501  0.00000000000E+00  0.00000000000E+00  0.26634236363E+03  0.26634236368E+03  0.50400001928E-02 0. -1.
        1   -1    0    0  501    0  0.00000000000E+00  0.00000000000E+00 -0.11374100334E+04  0.11374100334E+04  0.50400001928E-02 0.  1.
    10030    2    1    2    0    0  0.00000000000E+00  0.00000000000E+00 -0.87106766977E+03  0.14037523971E+04  0.11008005755E+04 0.  0.
        2    1    3    3  502    0  0.37206133683E+03 -0.24658085302E+03 -0.84620054849E+03  0.95670639368E+03  0.25500000920E-02 0.  1.
       -2    1    3    3    0  502 -0.37206133683E+03  0.24658085302E+03 -0.24867121280E+02  0.44704600342E+03  0.25500000920E-02 0. -1.
</event>
<event>
 5   0  0.2403875E-04  0.1098681E+04  0.7818609E-02  0.9206479E-01
       -3   -1    0    0    0  501  0.00000000000E+00  0.00000000000E+00  0.13140770806E+04  0.13140770845E+04  0.10100000352E+00 0.  1.
        3   -1    0    0  501    0  0.00000000000E+00  0.00000000000E+00 -0.22964772378E+03  0.22964774599E+03  0.10100000352E+00 0. -1.
    10030    2    1    2    0    0  0.00000000000E+00  0.00000000000E+00  0.10844293568E+04  0.15437248305E+04  0.10986807190E+04 0.  0.
        1    1    3    3  502    0 -0.87976956571E+02  0.11757595135E+03 -0.20155900393E+03  0.24937939232E+03  0.50400001928E-02 0. -1.
       -1    1    3    3    0  502  0.87976956571E+02 -0.11757595135E+03  0.12859883608E+04  0.12943454382E+04  0.50400001928E-02 0.  1.
</event>
<event>
 5   0  0.3642161E-04  0.1099855E+04  0.7818609E-02  0.9205334E-01
        1   -1    0    0  501    0  0.00000000000E+00  0.00000000000E+00  0.12658834339E+04  0.12658834339E+04  0.50400001928E-02 0.  1.
       -1   -1    0    0    0  501  0.00000000000E+00  0.00000000000E+00 -0.23890037179E+03  0.23890037184E+03  0.50400001928E-02 0. -1.
    10030    2    1    2    0    0  0.00000000000E+00  0.00000000000E+00  0.10269830621E+04  0.15047838057E+04  0.10998545777E+04 0.  0.
        2    1    3    3  502    0  0.11468536002E+03  0.93039455249E+02  0.12382464136E+04  0.12470217532E+04  0.25500000920E-02 0.  1.
       -2    1    3    3    0  502 -0.11468536002E+03 -0.93039455249E+02 -0.21126335152E+03  0.25776205256E+03  0.25500000920E-02 0. -1.
</event>
<event>
 5   0  0.6245176E-04  0.1103842E+04  0.7818609E-02  0.9201455E-01
       -2   -1    0    0    0  501  0.00000000000E+00  0.00000000000E+00  0.27443029565E+03  0.27443029567E+03  0.25500000920E-02 0. -1.
        2   -1    0    0  501    0  0.00000000000E+00  0.00000000000E+00 -0.11099977376E+04  0.11099977377E+04  0.25500000920E-02 0.  1.
    10030    2    1    2    0    0  0.00000000000E+00  0.00000000000E+00 -0.83556744199E+03  0.13844280333E+04  0.11038423933E+04 0.  0.
        5    1    3    3  502    0  0.27842954757E+03 -0.27703805808E+03 -0.90405019332E+03  0.98569870682E+03  0.46999998093E+01 0.  1.
       -5    1    3    3    0  502 -0.27842954757E+03  0.27703805808E+03  0.68482751327E+02  0.39872932650E+03  0.46999998093E+01 0. -1.
</event>
<event>
 5   0  0.6264830E-04  0.1098434E+04  0.7818609E-02  0.9206719E-01
       -2   -1    0    0    0  501  0.00000000000E+00  0.00000000000E+00  0.30152064590E+03  0.30152064591E+03  0.25500000920E-02 0.  1.
        2   -1    0    0  501    0  0.00000000000E+00  0.00000000000E+00 -0.10003936379E+04  0.10003936379E+04  0.25500000920E-02 0. -1.
    10030    2    1    2    0    0  0.00000000000E+00  0.00000000000E+00 -0.69887299197E+03  0.13019142838E+04  0.10984340415E+04 0.  0.
        4    1    3    3  502    0  0.11931433635E+03 -0.13959534723E+03 -0.96292564183E+03  0.98028066207E+03  0.12699999809E+01 0. -1.
       -4    1    3    3    0  502 -0.11931433635E+03  0.13959534723E+03  0.26405264986E+03  0.32163362173E+03  0.12699999809E+01 0.  1.
</event>
<event>
 5   0  0.3642161E-04  0.1088209E+04  0.7818609E-02  0.9216761E-01
        1   -1    0    0  501    0  0.00000000000E+00  0.00000000000E+00  0.15694556984E+04  0.15694556984E+04  0.50400001928E-02 0. -1.
       -1   -1    0    0    0  501  0.00000000000E+00  0.00000000000E+00 -0.18863212372E+03  0.18863212379E+03  0.50400001928E-02 0.  1.
    10030    2    1    2    0    0  0.00000000000E+00  0.00000000000E+00  0.13808235747E+04  0.17580878222E+04  0.10882091004E+04 0.  0.
        2    1    3    3  502    0  0.21310135888E+03 -0.15188356576E+03 -0.80287078161E+02  0.27372764133E+03  0.25500000920E-02 0.  1.
       -2    1    3    3    0  502 -0.21310135888E+03  0.15188356576E+03  0.14611106529E+04  0.14843601809E+04  0.25500000920E-02 0. -1.
</event>
<event>
 5   0  0.3423758E-04  0.1098293E+04  0.7818609E-02  0.9206858E-01
        1   -1    0    0  501    0  0.00000000000E+00  0.00000000000E+00  0.92826450313E+03  0.92826450314E+03  0.50400001928E-02 0.  1.
       -1   -1    0    0    0  501  0.00000000000E+00  0.00000000000E+00 -0.32486614120E+03  0.32486614123E+03  0.50400001928E-02 0. -1.
    10030    2    1    2    0    0  0.00000000000E+00  0.00000000000E+00  0.60339836193E+03  0.12531306444E+04  0.10982926881E+04 0.  0.
        1    1    3    3  502    0 -0.27735030823E+02 -0.49000624797E+03  0.20623174358E+02  0.49122364594E+03  0.50400001928E-02 0. -1.
       -1    1    3    3    0  502  0.27735030823E+02  0.49000624797E+03  0.58277518757E+03  0.76190699843E+03  0.50400001928E-02 0.  1.
</event>
<event>
 5   0  0.3621403E-04  0.1098880E+04  0.7818609E-02  0.9206284E-01
        1   -1    0    0  501    0  0.00000000000E+00  0.00000000000E+00  0.60930951219E+03  0.60930951221E+03  0.50400001928E-02 0. -1.
       -1   -1    0    0    0  501  0.00000000000E+00  0.00000000000E+00 -0.49545298086E+03  0.49545298088E+03  0.50400001928E-02 0.  1.
    10030    2    1    2    0    0  0.00000000000E+00  0.00000000000E+00  0.11385653133E+03  0.11047624931E+04  0.10988798189E+04 0.  0.
        3    1    3    3  502    0  0.40324073331E+03 -0.27988164369E+03 -0.19126857322E+03  0.52680214575E+03  0.10100000352E+00 0. -1.
       -3    1    3    3    0  502 -0.40324073331E+03  0.27988164369E+03  0.30512510455E+03  0.57796034734E+03  0.10100000352E+00 0.  1.
</event>
<event>
 5   0  0.6412712E-04  0.1075860E+04  0.7818609E-02  0.9229045E-01
        2   -1    0    0  501    0  0.00000000000E+00  0.00000000000E+00  0.38977878645E+03  0.38977878646E+03  0.25500000920E-02 0. -1.
       -2   -1    0    0    0  501  0.00000000000E+00  0.00000000000E+00 -0.74239182871E+03  0.74239182871E+03  0.25500000920E-02 0.  1.
    10030    2    1    2    0    0  0.00000000000E+00  0.00000000000E+00 -0.35261304226E+03  0.11321706152E+04  0.10758598163E+04 0.  0.
        2    1    3    3  502    0  0.21277069050E+03  0.40835422732E+03  0.11635769917E+03  0.47493542284E+03  0.25500000920E-02 0. -1.
       -2    1    3    3    0  502 -0.21277069050E+03 -0.40835422732E+03 -0.46897074143E+03  0.65723519233E+03  0.25500000920E-02 0.  1.
</event>
<event>
 5   0  0.3423758E-04  0.1100064E+04  0.7818609E-02  0.9205130E-01
        1   -1    0    0  501    0  0.00000000000E+00  0.00000000000E+00  0.32778991474E+03  0.32778991477E+03  0.50400001928E-02 0.  1.
       -1   -1    0    0    0  501  0.00000000000E+00  0.00000000000E+00 -0.92295378445E+03  0.92295378446E+03  0.50400001928E-02 0. -1.
    10030    2    1    2    0    0  0.00000000000E+00  0.00000000000E+00 -0.59516386971E+03  0.12507436992E+04  0.11000635297E+04 0.  0.
        1    1    3    3  502    0 -0.45866698204E+03  0.25005205177E+03 -0.49330505429E+03  0.71850630172E+03  0.50400001928E-02 0.  1.
       -1    1    3    3    0  502  0.45866698204E+03 -0.25005205177E+03 -0.10185881543E+03  0.53223739751E+03  0.50400001928E-02 0. -1.
</event>
<event>
 5   0  0.6245176E-04  0.1099371E+04  0.7818609E-02  0.9205805E-01
        2   -1    0    0  501    0  0.00000000000E+00  0.00000000000E+00  0.18206711021E+04  0.18206711021E+04  0.25500000920E-02 0.  1.
       -2   -1    0    0    0  501  0.00000000000E+00  0.00000000000E+00 -0.16595767778E+03  0.16595767780E+03  0.25500000920E-02 0. -1.
    10030    2    1    2    0    0  0.00000000000E+00  0.00000000000E+00  0.16547134243E+04  0.19866287799E+04  0.10993713624E+04 0.  0.
        5    1    3    3  502    0  0.35118539944E+03 -0.19219578544E+03  0.14673606806E+03  0.42640821801E+03  0.46999998093E+01 0. -1.
       -5    1    3    3    0  502 -0.35118539944E+03  0.19219578544E+03  0.15079773563E+04  0.15602205619E+04  0.46999998093E+01 0.  1.
</event>
<event>
 5   0  0.3423758E-04  0.1103203E+04  0.7818609E-02  0.9202076E-01
        1   -1    0    0  501    0  0.00000000000E+00  0.00000000000E+00  0.98385534677E+03  0.98385534678E+03  0.50400001928E-02 0. -1.
       -1   -1    0    0    0  501  0.00000000000E+00  0.00000000000E+00 -0.30925700487E+03  0.30925700492E+03  0.50400001928E-02 0.  1.
    10030    2    1    2    0    0  0.00000000000E+00  0.00000000000E+00  0.67459834189E+03  0.12931123517E+04  0.11032028967E+04 0.  0.
        1    1    3    3  502    0 -0.18118225832E+03  0.47222670883E+03  0.59527488362E+03  0.78113843994E+03  0.50400001928E-02 0. -1.
       -1    1    3    3    0  502  0.18118225832E+03 -0.47222670883E+03  0.79323458275E+02  0.51197391176E+03  0.50400001928E-02 0.  1.
</event>
<event>
 5   0  0.6412712E-04  0.1099797E+04  0.7818609E-02  0.9205390E-01
        2   -1    0    0  501    0  0.00000000000E+00  0.00000000000E+00  0.34875103512E+03  0.34875103513E+03  0.25500000920E-02 0. -1.
       -2   -1    0    0    0  501  0.00000000000E+00  0.00000000000E+00 -0.86706078931E+03  0.86706078932E+03  0.25500000920E-02 0.  1.
    10030    2    1    2    0    0  0.00000000000E+00  0.00000000000E+00 -0.51830975419E+03  0.12158118244E+04  0.10997969772E+04 0.  0.
        2    1    3    3  502    0  0.12833331500E+03  0.46694558850E+03 -0.54717781671E+03  0.73069226455E+03  0.25500000920E-02 0.  1.
       -2    1    3    3    0  502 -0.12833331500E+03 -0.46694558850E+03  0.28868062521E+02  0.48511955990E+03  0.25500000920E-02 0. -1.
</event>
<event>
 5   0  0.2403875E-04  0.1100940E+04  0.7818609E-02  0.9204276E-01
       -3   -1    0    0    0  501  0.00000000000E+00  0.00000000000E+00  0.23760560345E+04  0.23760560367E+04  0.10100000352E+00 0.  1.
        3   -1    0    0  501    0  0.00000000000E+00  0.00000000000E+00 -0.12752947642E+03  0.12752951642E+03  0.10100000352E+00 0. -1.
    10030    2    1    2    0    0  0.00000000000E+00  0.00000000000E+00  0.22485265581E+04  0.25035855531E+04  0.11009400252E+04 0.  0.
        2    1    3    3  502    0 -0.37653330150E+03  0.27385783036E+03  0.45644596754E+03  0.65201101193E+03  0.25500000920E-02 0. -1.
       -2    1    3    3    0  502  0.37653330150E+03 -0.27385783036E+03  0.17920805906E+04  0.18515745412E+04  0.25500000920E-02 0.  1.
</event>
<event>
 5   0  0.6245176E-04  0.1101048E+04  0.7818609E-02  0.9204171E-01
        2   -1    0    0  501    0  0.00000000000E+00  0.00000000000E+00  0.36634856269E+03  0.36634856270E+03  0.25500000920E-02 0. -1.
       -2   -1    0    0    0  501  0.00000000000E+00  0.00000000000E+00 -0.82728973984E+03  0.82728973985E+03  0.25500000920E-02 0.  1.
    10030    2    1    2    0    0  0.00000000000E+00  0.00000000000E+00 -0.46094117715E+03  0.11936383025E+04  0.11010475142E+04 0.  0.
        5    1    3    3  502    0 -0.38470142834E+03 -0.25616350461E+03 -0.55468408725E+03  0.72201901409E+03  0.46999998093E+01 0.  1.
       -5    1    3    3    0  502  0.38470142834E+03  0.25616350461E+03  0.93742910094E+02  0.47161928846E+03  0.46999998093E+01 0. -1.
</event>
<event>
 5   0  0.3423758E-04  0.1096812E+04  0.7818609E-02  0.9208305E-01
       -1   -1    0    0    0  501  0.00000000000E+00  0.00000000000E+00  0.57844855266E+03  0.57844855268E+03  0.50400001928E-02 0.  1.
        1   -1    0    0  501    0  0.00000000000E+00  0.00000000000E+00 -0.51992345135E+03  0.51992345138E+03  0.50400001928E-02 0. -1.
    10030    2    1    2    0    0  0.00000000000E+00  0.00000000000E+00  0.58525101301E+02  0.10983720041E+04  0.10968116848E+04 0.  0.
        1    1    3    3  502    0  0.33520261563E+03  0.40133188236E+03  0.19478802618E+03  0.55800577819E+03  0.50400001928E-02 0.  1.
       -1    1    3    3    0  502 -0.33520261563E+03 -0.40133188236E+03 -0.13626292488E+03  0.54036622586E+03  0.50400001928E-02 0. -1.
</event>
<event>
 5   0  0.3642161E-04  0.1097223E+04  0.7818609E-02  0.9207903E-01
        1   -1    0    0  501    0  0.00000000000E+00  0.00000000000E+00  0.53962971696E+03  0.53962971698E+03  0.50400001928E-02 0.  1.
       -1   -1    0    0    0  501  0.00000000000E+00  0.00000000000E+00 -0.55774265731E+03  0.55774265734E+03  0.50400001928E-02 0. -1.
    10030    2    1    2    0    0  0.00000000000E+00  0.00000000000E+00 -0.18112940356E+02  0.10973723743E+04  0.10972228804E+04 0.  0.
        2    1    3    3  502    0  0.41652179596E+03  0.30306512324E+03 -0.19785622675E+03  0.55180246638E+03  0.25500000920E-02 0. -1.
       -2    1    3    3    0  502 -0.41652179596E+03 -0.30306512324E+03  0.17974328639E+03  0.54556990794E+03  0.25500000920E-02 0.  1.
</event>
<event>
 5   0  0.5948818E-04  0.1099663E+04  0.7818609E-02  0.9205521E-01
        2   -1    0    0  501    0  0.00000000000E+00  0.00000000000E+00  0.16692936979E+04  0.16692936979E+04  0.25500000920E-02 0.  1.
       -2   -1    0    0    0  501  0.00000000000E+00  0.00000000000E+00 -0.18110327975E+03  0.18110327977E+03  0.25500000920E-02 0. -1.
    10030    2    1    2    0    0  0.00000000000E+00  0.00000000000E+00  0.14881904181E+04  0.18503969776E+04  0.10996627912E+04 0.  0.
        3    1    3    3  502    0 -0.60687958142E+02 -0.25414490633E+02  0.16626457132E+04  0.16639470251E+04  0.10100000352E+00 0.  1.
       -3    1    3    3    0  502  0.60687958142E+02  0.25414490633E+02 -0.17445529510E+03  0.18644995250E+03  0.10100000352E+00 0. -1.
</event>
<event>
 5   0  0.3621403E-04  0.1102091E+04  0.7818609E-02  0.9203156E-01
       -1   -1    0    0    0  501  0.00000000000E+00  0.00000000000E+00  0.99627615151E+03  0.99627615152E+03  0.50400001928E-02 0.  1.
        1   -1    0    0  501    0  0.00000000000E+00  0.00000000000E+00 -0.30478607149E+03  0.30478607153E+03  0.50400001928E-02 0. -1.
    10030    2    1    2    0    0  0.00000000000E+00  0.00000000000E+00  0.69149008003E+03  0.13010622231E+04  0.11020909116E+04 0.  0.
        3    1    3    3  502    0  0.47636928690E+03  0.27392433218E+03  0.29723006782E+03  0.62474631706E+03  0.10100000352E+00 0. -1.
       -3    1    3    3    0  502 -0.47636928690E+03 -0.27392433218E+03  0.39426001220E+03  0.67631590599E+03  0.10100000352E+00 0.  1.
</event>
<event>
 5   0  0.6109149E-04  0.1099779E+04  0.7818609E-02  0.9205407E-01
       -2   -1    0    0    0  501  0.00000000000E+00  0.00000000000E+00  0.13193147114E+03  0.13193147116E+03  0.25500000920E-02 0.  1.
        2   -1    0    0  501    0  0.00000000000E+00  0.00000000000E+00 -0.22919363540E+04  0.22919363540E+04  0.25500000920E-02 0. -1.
    10030    2    1    2    0    0  0.00000000000E+00  0.00000000000E+00 -0.21600048829E+04  0.24238678252E+04  0.10997791323E+04 0.  0.
        1    1    3    3  502    0  0.26658841290E+03 -0.27039203960E+03 -0.19566055162E+04  0.19931097267E+04  0.50400001928E-02 0. -1.
       -1    1    3    3    0  502 -0.26658841290E+03  0.27039203960E+03 -0.20339936675E+03  0.43075809846E+03  0.50400001928E-02 0.  1.
</event>
<event>
 5   0  0.3423758E-04  0.1099609E+04  0.7818609E-02  0.9205573E-01
        1   -1    0    0  501    0  0.00000000000E+00  0.00000000000E+00  0.94826882125E+03  0.94826882126E+03  0.50400001928E-02 0. -1.
       -1   -1    0    0    0  501  0.00000000000E+00  0.00000000000E+00 -0.31877542927E+03  0.31877542931E+03  0.50400001928E-02 0.  1.
    10030    2    1    2    0    0  0.00000000000E+00  0.00000000000E+00  0.62949339197E+03  0.12670442506E+04  0.10996086587E+04 0.  0.
        1    1    3    3  502    0 -0.49548782687E+02  0.54436490197E+03  0.24661097092E+03  0.59967090923E+03  0.50400001928E-02 0.  1.
       -1    1    3    3    0  502  0.49548782687E+02 -0.54436490197E+03  0.38288242105E+03  0.66737334135E+03  0.50400001928E-02 0. -1.
</event>
<event>
 5   0  0.6412712E-04  0.1100758E+04  0.7818609E-02  0.9204453E-01
        2   -1    0    0  501    0  0.00000000000E+00  0.00000000000E+00  0.64926315097E+03  0.64926315098E+03  0.25500000920E-02 0. -1.
       -2   -1    0    0    0  501  0.00000000000E+00  0.00000000000E+00 -0.46655553387E+03  0.46655553388E+03  0.25500000920E-02 0.  1.
    10030    2    1    2    0    0  0.00000000000E+00  0.00000000000E+00  0.18270761710E+03  0.11158186849E+04  0.11007584949E+04 0.  0.
        2    1    3    3  502    0  0.10141833382E+03  0.42440710899E+03 -0.24866083079E+03  0.50223428932E+03  0.25500000920E-02 0.  1.
       -2    1    3    3    0  502 -0.10141833382E+03 -0.42440710899E+03  0.43136844789E+03  0.61358439553E+03  0.25500000920E-02 0. -1.
</event>
<event>
 5   0  0.3621403E-04  0.1099301E+04  0.7818609E-02  0.9205874E-01
        1   -1    0    0  501    0  0.00000000000E+00  0.00000000000E+00  0.31427596829E+04  0.31427596829E+04  0.50400001928E-02 0.  1.
       -1   -1    0    0    0  501  0.00000000000E+00  0.00000000000E+00 -0.96130608556E+02  0.96130608688E+02  0.50400001928E-02 0. -1.
    10030    2    1    2    0    0  0.00000000000E+00  0.00000000000E+00  0.30466290743E+04  0.32388902916E+04  0.10993005068E+04 0.  0.
        3    1    3    3  502    0  0.49605246379E+02  0.50806359255E+03  0.92291498021E+03  0.10546854344E+04  0.10100000352E+00 0. -1.
       -3    1    3    3    0  502 -0.49605246379E+02 -0.50806359255E+03  0.21237140941E+04  0.21842048572E+04  0.10100000352E+00 0.  1.
</event>
<event>
 5   0  0.6264830E-04  0.1099479E+04  0.7818609E-02  0.9205699E-01
        2   -1    0    0  501    0  0.00000000000E+00  0.00000000000E+00  0.16681393221E+04  0.16681393221E+04  0.25500000920E-02 0.  1.
       -2   -1    0    0    0  501  0.00000000000E+00  0.00000000000E+00 -0.18116816079E+03  0.18116816081E+03  0.25500000920E-02 0. -1.
    10030    2    1    2    0    0  0.00000000000E+00  0.00000000000E+00  0.14869711613E+04  0.18493074830E+04  0.10994793913E+04 0.  0.
        4    1    3    3  502    0 -0.40087091754E+03 -0.37615008341E+03  0.73495172024E+03  0.91779192727E+03  0.12699999809E+01 0. -1.
       -4    1    3    3    0  502  0.40087091754E+03  0.37615008341E+03  0.75201944110E+03  0.93151555568E+03  0.12699999809E+01 0.  1.
</event>
<event>
 5   0  0.6109149E-04  0.1098639E+04  0.7818609E-02  0.9206520E-01
        2   -1    0    0  501    0  0.00000000000E+00  0.00000000000E+00  0.41772710255E+03  0.41772710255E+03  0.25500000920E-02 0.  1.
       -2   -1    0    0    0  501  0.00000000000E+00  0.00000000000E+00 -0.72236560701E+03  0.72236560702E+03  0.25500000920E-02 0. -1.
    10030    2    1    2    0    0  0.00000000000E+00  0.00000000000E+00 -0.30463850446E+03  0.11400927096E+04  0.10986385975E+04 0.  0.
        1    1    3    3  502    0  0.22409048078E+03  0.30851367451E+03 -0.56265603997E+03  0.67969040767E+03  0.50400001928E-02 0. -1.
       -1    1    3    3    0  502 -0.22409048078E+03 -0.30851367451E+03  0.25801753551E+03  0.46040230190E+03  0.50400001928E-02 0.  1.
</event>
<event>
 5   0  0.3621403E-04  0.1099706E+04  0.7818609E-02  0.9205479E-01
        1   -1    0    0  501    0  0.00000000000E+00  0.00000000000E+00  0.70189207557E+03  0.70189207559E+03  0.50400001928E-02 0. -1.
       -1   -1    0    0    0  501  0.00000000000E+00  0.00000000000E+00 -0.43074734254E+03  0.43074734257E+03  0.50400001928E-02 0.  1.
    10030    2    1    2    0    0  0.00000000000E+00  0.00000000000E+00  0.27114473303E+03  0.11326394182E+04  0.10997056812E+04 0.  0.
        3    1    3    3  502    0  0.24618788310E+03  0.45499388784E+03 -0.56313909164E+02  0.52038368376E+03  0.10100000352E+00 0.  1.
       -3    1    3    3    0  502 -0.24618788310E+03 -0.45499388784E+03  0.32745864219E+03  0.61225573440E+03  0.10100000352E+00 0. -1.
</event>
<event>
 5   0  0.3523525E-04  0.1098776E+04  0.7818609E-02  0.9206386E-01
       -1   -1    0    0    0  501  0.00000000000E+00  0.00000000000E+00  0.17047462808E+04  0.17047462808E+04  0.50400001928E-02 0.  1.
        1   -1    0    0  501    0  0.00000000000E+00  0.00000000000E+00 -0.17705101802E+03  0.17705101810E+03  0.50400001928E-02 0. -1.
    10030    2    1    2    0    0  0.00000000000E+00  0.00000000000E+00  0.15276952627E+04  0.18817972989E+04  0.10987757998E+04 0.  0.
        5    1    3    3  502    0 -0.27453530234E+03 -0.37463358310E+03  0.12663377772E+04  0.13488340928E+04  0.46999998093E+01 0.  1.
       -5    1    3    3    0  502  0.27453530234E+03  0.37463358310E+03  0.26135748553E+03  0.53296320610E+03  0.46999998093E+01 0. -1.
</event>
<event>
 5   0  0.3621403E-04  0.1100012E+04  0.7818609E-02  0.9205180E-01
       -1   -1    0    0    0  501  0.00000000000E+00  0.00000000000E+00  0.10382849361E+04  0.10382849361E+04  0.50400001928E-02 0.  1.
        1   -1    0    0  501    0  0.00000000000E+00  0.00000000000E+00 -0.29135226779E+03  0.29135226784E+03  0.50400001928E-02 0. -1.
    10030    2    1    2    0    0  0.00000000000E+00  0.00000000000E+00  0.74693266827E+03  0.13296372039E+04  0.11000121286E+04 0.  0.
        3    1    3    3  502    0  0.19591983249E+03  0.31360716748E+03  0.86561021667E+03  0.94128374769E+03  0.10100000352E+00 0.  1.
       -3    1    3    3    0  502 -0.19591983249E+03 -0.31360716748E+03 -0.11867754841E+03  0.38835345622E+03  0.10100000352E+00 0. -1.
</event>
<event>
 5   0  0.3523525E-04  0.1101329E+04  0.7818609E-02  0.9203897E-01
        1   -1    0    0  501    0  0.00000000000E+00  0.00000000000E+00  0.85540314893E+03  0.85540314895E+03  0.50400001928E-02 0.  1.
       -1   -1    0    0    0  501  0.00000000000E+00  0.00000000000E+00 -0.35448966435E+03  0.35448966439E+03  0.50400001928E-02 0. -1.
    10030    2    1    2    0    0  0.00000000000E+00  0.00000000000E+00  0.50091348458E+03  0.12098928133E+04  0.11013293335E+04 0.  0.
        5    1    3    3  502    0  0.11176013500E+03 -0.61197421877E+02 -0.33804938780E+03  0.36129618156E+03  0.46999998093E+01 0. -1.
       -5    1    3    3    0  502 -0.11176013500E+03  0.61197421877E+02  0.83896287238E+03  0.84859663177E+03  0.46999998093E+01 0.  1.
</event>
<event>
 5   0  0.6412712E-04  0.1098223E+04  0.7818609E-02  0.9206926E-01
       -2   -1    0    0    0  501  0.00000000000E+00  0.00000000000E+00  0.15042625614E+03  0.15042625616E+03  0.25500000920E-02 0. -1.
        2   -1    0    0  501    0  0.00000000000E+00  0.00000000000E+00 -0.20044584516E+04  0.20044584516E+04  0.25500000920E-02 0.  1.
    10030    2    1    2    0    0  0.00000000000E+00  0.00000000000E+00 -0.18540321954E+04  0.21548847077E+04  0.10982225284E+04 0.  0.
        2    1    3    3  502    0  0.30572812131E+03  0.44390042271E+03 -0.11328641157E+04  0.12545510648E+04  0.25500000920E-02 0.  1.
       -2    1    3    3    0  502 -0.30572812131E+03 -0.44390042271E+03 -0.72116807971E+03  0.90033364296E+03  0.25500000920E-02 0. -1.
</event>
<event>
 5   0  0.3621403E-04  0.1100775E+04  0.7818609E-02  0.9204436E-01
       -1   -1    0    0    0  501  0.00000000000E+00  0.00000000000E+00  0.41966830948E+03  0.41966830951E+03  0.50400001928E-02 0. -1.
        1   -1    0    0  501    0  0.00000000000E+00  0.00000000000E+00 -0.72182404136E+03  0.72182404138E+03  0.50400001928E-02 0.  1.
    10030    2    1    2    0    0  0.00000000000E+00  0.00000000000E+00 -0.30215573188E+03  0.11414923509E+04  0.11007754997E+04 0.  0.
        3    1    3    3  502    0 -0.17949596618E+03  0.49495272253E+03 -0.31741580709E+03  0.61477622287E+03  0.10100000352E+00 0. -1.
       -3    1    3    3    0  502  0.17949596618E+03 -0.49495272253E+03  0.15260075206E+02  0.52671612802E+03  0.10100000352E+00 0.  1.
</event>
<event>
 5   0  0.6109149E-04  0.1099505E+04  0.7818609E-02  0.9205675E-01
       -2   -1    0    0    0  501  0.00000000000E+00  0.00000000000E+00  0.13913944290E+03  0.13913944293E+03  0.25500000920E-02 0.  1.
        2   -1    0    0  501    0  0.00000000000E+00  0.00000000000E+00 -0.21721214106E+04  0.21721214106E+04  0.25500000920E-02 0. -1.
    10030    2    1    2    0    0  0.00000000000E+00  0.00000000000E+00 -0.20329819677E+04  0.23112608536E+04  0.10995049123E+04 0.  0.
        1    1    3    3  502    0 -0.62198809647E+02  0.49142010447E+03 -0.51521643420E+03  0.71471000069E+03  0.50400001928E-02 0.  1.
       -1    1    3    3    0  502  0.62198809647E+02 -0.49142010447E+03 -0.15177655335E+04  0.15965508529E+04  0.50400001928E-02 0. -1.
</event>
<event>
 5   0  0.6264830E-04  0.1101354E+04  0.7818609E-02  0.9203873E-01
        2   -1    0    0  501    0  0.00000000000E+00  0.00000000000E+00  0.95280612937E+03  0.95280612938E+03  0.25500000920E-02 0. -1.
       -2   -1    0    0    0  501  0.00000000000E+00  0.00000000000E+00 -0.31826536125E+03  0.31826536126E+03  0.25500000920E-02 0.  1.
    10030    2    1    2    0    0  0.00000000000E+00  0.00000000000E+00  0.63454076813E+03  0.12710714906E+04  0.11013540520E+04 0.  0.
        4    1    3    3  502    0  0.26230211370E+03  0.89971921064E+02  0.86634283655E+03  0.90964216524E+03  0.12699999809E+01 0. -1.
       -4    1    3    3    0  502 -0.26230211370E+03 -0.89971921064E+02 -0.23180206843E+03  0.36142932540E+03  0.12699999809E+01 0.  1.
</event>
<event>
 5   0  0.3621403E-04  0.1100611E+04  0.7818609E-02  0.9204597E-01
       -1   -1    0    0    0  501  0.00000000000E+00  0.00000000000E+00  0.56026609367E+03  0.56026609369E+03  0.50400001928E-02 0.  1.
        1   -1    0    0  501    0  0.00000000000E+00  0.00000000000E+00 -0.54052197757E+03  0.54052197759E+03  0.50400001928E-02 0. -1.
    10030    2    1    2    0    0  0.00000000000E+00  0.00000000000E+00  0.19744116101E+02  0.11007880713E+04  0.11006109884E+04 0.  0.
        3    1    3    3  502    0  0.41865647195E+03  0.38570762355E+02  0.36499985834E+03  0.55676373086E+03  0.10100000352E+00 0.  1.
       -3    1    3    3    0  502 -0.41865647195E+03 -0.38570762355E+02 -0.34525574224E+03  0.54402434042E+03  0.10100000352E+00 0. -1.
</event>
<event>
 5   0  0.5948818E-04  0.1099422E+04  0.7818609E-02  0.9205755E-01
        2   -1    0    0  501    0  0.00000000000E+00  0.00000000000E+00  0.12883746026E+04  0.12883746026E+04  0.25500000920E-02 0. -1.
       -2   -1    0    0    0  501  0.00000000000E+00  0.00000000000E+00 -0.23454537235E+03  0.23454537237E+03  0.25500000920E-02 0.  1.
    10030    2    1    2    0    0  0.00000000000E+00  0.00000000000E+00  0.10538292302E+04  0.15229199749E+04  0.10994222135E+04 0.  0.
        3    1    3    3  502    0  0.98779925372E+02  0.49745390810E+03  0.23318542752E+03  0.55820544440E+03  0.10100000352E+00 0.  1.
       -3    1    3    3    0  502 -0.98779925372E+02 -0.49745390810E+03  0.82064380270E+03  0.96471453055E+03  0.10100000352E+00 0. -1.
</event>
<event>
 5   0  0.5948818E-04  0.1103773E+04  0.7818609E-02  0.9201523E-01
       -2   -1    0    0    0  501  0.00000000000E+00  0.00000000000E+00  0.98514119721E+03  0.98514119721E+03  0.25500000920E-02 0. -1.
        2   -1    0    0  501    0  0.00000000000E+00  0.00000000000E+00 -0.30917238843E+03  0.30917238844E+03  0.25500000920E-02 0.  1.
    10030    2    1    2    0    0  0.00000000000E+00  0.00000000000E+00  0.67596880878E+03  0.12943135856E+04  0.11037725434E+04 0.  0.
        3    1    3    3  502    0  0.12803248851E+03 -0.10176814161E+03 -0.28010173293E+03  0.32435484235E+03  0.10100000352E+00 0.  1.
       -3    1    3    3    0  502 -0.12803248851E+03  0.10176814161E+03  0.95607054172E+03  0.96995874330E+03  0.10100000352E+00 0. -1.
</event>
<event>
 5   0  0.3642161E-04  0.1106071E+04  0.7818609E-02  0.9199295E-01
       -1   -1    0    0    0  501  0.00000000000E+00  0.00000000000E+00  0.49927488714E+03  0.49927488716E+03  0.50400001928E-02 0.  1.
        1   -1    0    0  501    0  0.00000000000E+00  0.00000000000E+00 -0.61258445599E+03  0.61258445601E+03  0.50400001928E-02 0. -1.
    10030    2    1    2    0    0  0.00000000000E+00  0.00000000000E+00 -0.11330956885E+03  0.11118593432E+04  0.11060705857E+04 0.  0.
        2    1    3    3  502    0 -0.94730194668E+02 -0.29288102388E+03 -0.51851006071E+03  0.60299733581E+03  0.25500000920E-02 0. -1.
       -2    1    3    3    0  502  0.94730194668E+02  0.29288102388E+03  0.40520049186E+03  0.50886200736E+03  0.25500000920E-02 0.  1.
</event>
<event>
 5   0  0.3523525E-04  0.1098368E+04  0.7818609E-02  0.9206784E-01
       -1   -1    0    0    0  501  0.00000000000E+00  0.00000000000E+00  0.27534691002E+03  0.27534691006E+03  0.50400001928E-02 0. -1.
        1   -1    0    0  501    0  0.00000000000E+00  0.00000000000E+00 -0.10953571483E+04  0.10953571483E+04  0.50400001928E-02 0.  1.
    10030    2    1    2    0    0  0.00000000000E+00  0.00000000000E+00 -0.82001023826E+03  0.13707040583E+04  0.10983682555E+04 0.  0.
        5    1    3    3  502    0  0.45352105252E+03  0.30736213671E+02 -0.79455685289E+03  0.91540632638E+03  0.46999998093E+01 0.  1.
       -5    1    3    3    0  502 -0.45352105252E+03 -0.30736213671E+02 -0.25453385369E+02  0.45529773197E+03  0.46999998093E+01 0. -1.
</event>
<event>
 5   0  0.3423758E-04  0.1091511E+04  0.7818609E-02  0.9213506E-01
        1   -1    0    0  501    0  0.00000000000E+00  0.00000000000E+00  0.73516758861E+03  0.73516758863E+03  0.50400001928E-02 0.  1.
       -1   -1    0    0    0  501  0.00000000000E+00  0.00000000000E+00 -0.40514425836E+03  0.40514425839E+03  0.50400001928E-02 0. -1.
    10030    2    1    2    0    0  0.00000000000E+00  0.00000000000E+00  0.33002333025E+03  0.11403118470E+04  0.10915107466E+04 0.  0.
        1    1    3    3  502    0  0.28290481994E+03 -0.11891197520E+02  0.65242487247E+03  0.71122060710E+03  0.50400001928E-02 0.  1.
       -1    1    3    3    0  502 -0.28290481994E+03  0.11891197520E+02 -0.32240154222E+03  0.42909123992E+03  0.50400001928E-02 0. -1.
</event>
<event>
 5   0  0.6245176E-04  0.1100015E+04  0.7818609E-02  0.9205178E-01
        2   -1    0    0  501    0  0.00000000000E+00  0.00000000000E+00  0.21369706711E+04  0.21369706711E+04  0.25500000920E-02 0.  1.
       -2   -1    0    0    0  501  0.00000000000E+00  0.00000000000E+00 -0.14155926989E+03  0.14155926992E+03  0.25500000920E-02 0. -1.
    10030    2    1    2    0    0  0.00000000000E+00  0.00000000000E+00  0.19954114012E+04  0.22785299410E+04  0.11000145599E+04 0.  0.
        5    1    3    3  502    0 -0.45837298237E+03 -0.30203697713E+03  0.92734664978E+03  0.10776483774E+04  0.46999998093E+01 0. -1.
       -5    1    3    3    0  502  0.45837298237E+03  0.30203697713E+03  0.10680647514E+04  0.12008815636E+04  0.46999998093E+01 0.  1.
</event>
<event>
 5   0  0.5948818E-04  0.1099618E+04  0.7818609E-02  0.9205564E-01
       -2   -1    0    0    0  501  0.00000000000E+00  0.00000000000E+00  0.80273786981E+03  0.80273786981E+03  0.25500000920E-02 0.  1.
        2   -1    0    0  501    0  0.00000000000E+00  0.00000000000E+00 -0.37657366327E+03  0.37657366328E+03  0.25500000920E-02 0. -1.
    10030    2    1    2    0    0  0.00000000000E+00  0.00000000000E+00  0.42616420654E+03  0.11793115331E+04  0.10996180069E+04 0.  0.
        3    1    3    3  502    0 -0.52466724581E+03 -0.68059056763E+02  0.37353141422E+03  0.64763684396E+03  0.10100000352E+00 0.  1.
       -3    1    3    3    0  502  0.52466724581E+03  0.68059056763E+02  0.52632792322E+02  0.53167468913E+03  0.10100000352E+00 0. -1.
</event>
<event>
 5   0  0.6264830E-04  0.1100563E+04  0.7818609E-02  0.9204643E-01
        2   -1    0    0  501    0  0.00000000000E+00  0.00000000000E+00  0.12669273415E+04  0.12669273415E+04  0.25500000920E-02 0.  1.
       -2   -1    0    0    0  501  0.00000000000E+00  0.00000000000E+00 -0.23901108610E+03  0.23901108611E+03  0.25500000920E-02 0. -1.
    10030    2    1    2    0    0  0.00000000000E+00  0.00000000000E+00  0.10279162554E+04  0.15059384276E+04  0.11005629104E+04 0.  0.
        4    1    3    3  502    0  0.34724426436E+03 -0.23758566798E+03  0.99924944373E+03  0.10842170412E+04  0.12699999809E+01 0.  1.
       -4    1    3    3    0  502 -0.34724426436E+03  0.23758566798E+03  0.28666811672E+02  0.42172138640E+03  0.12699999809E+01 0. -1.
</event>
<event>
 5   0  0.5948818E-04  0.1099785E+04  0.7818609E-02  0.9205402E-01
       -2   -1    0    0    0  501  0.00000000000E+00  0.00000000000E+00  0.29045120922E+03  0.29045120923E+03  0.25500000920E-02 0.  1.
        2   -1    0    0  501    0  0.00000000000E+00  0.00000000000E+00 -0.10410754278E+04  0.10410754278E+04  0.25500000920E-02 0. -1.
    10030    2    1    2    0    0  0.00000000000E+00  0.00000000000E+00 -0.75062421859E+03  0.13315266370E+04  0.10997847369E+04 0.  0.
        3    1    3    3  502    0 -0.32761048760E+03  0.76680357405E+02  0.15127698269E+03  0.36890817894E+03  0.10100000352E+00 0.  1.
       -3    1    3    3    0  502  0.32761048760E+03 -0.76680357405E+02 -0.90190120128E+03  0.96261845810E+03  0.10100000352E+00 0. -1.
</event>
<event>
 5   0  0.3523525E-04  0.1101660E+04  0.7818609E-02  0.9203575E-01
        1   -1    0    0  501    0  0.00000000000E+00  0.00000000000E+00  0.45686638899E+03  0.45686638902E+03  0.50400001928E-02 0. -1.
       -1   -1    0    0    0  501  0.00000000000E+00  0.00000000000E+00 -0.66411921278E+03  0.66411921280E+03  0.50400001928E-02 0.  1.
    10030    2    1    2    0    0  0.00000000000E+00  0.00000000000E+00 -0.20725282379E+03  0.11209856018E+04  0.11016601048E+04 0.  0.
        5    1    3    3  502    0 -0.23989472211E+03  0.17920934726E+03 -0.57404154331E+03  0.64746525103E+03  0.46999998093E+01 0.  1.
       -5    1    3    3    0  502  0.23989472211E+03 -0.17920934726E+03  0.36678871953E+03  0.47352035079E+03  0.46999998093E+01 0. -1.
</event>
<event>
 5   0  0.3657529E-04  0.1100268E+04  0.7818609E-02  0.9204930E-01
        1   -1    0    0  501    0  0.00000000000E+00  0.00000000000E+00  0.11861876942E+04  0.11861876942E+04  0.50400001928E-02 0. -1.
       -1   -1    0    0    0  501  0.00000000000E+00  0.00000000000E+00 -0.25514314051E+03  0.25514314056E+03  0.50400001928E-02 0.  1.
    10030    2    1    2    0    0  0.00000000000E+00  0.00000000000E+00  0.93104455369E+03  0.14413308348E+04  0.11002684283E+04 0.  0.
        4    1    3    3  502    0  0.38161981569E+03 -0.36837519373E+03  0.65676190037E+03  0.84419889466E+03  0.12699999809E+01 0. -1.
       -4    1    3    3    0  502 -0.38161981569E+03  0.36837519373E+03  0.27428265332E+03  0.59713194010E+03  0.12699999809E+01 0.  1.
</event>
<event>
 5   0  0.3523525E-04  0.1099562E+04  0.7818609E-02  0.9205619E-01
       -1   -1    0    0    0  501  0.00000000000E+00  0.00000000000E+00  0.41474685433E+03  0.41474685436E+03  0.50400001928E-02 0.  1.
        1   -1    0    0  501    0  0.00000000000E+00  0.00000000000E+00 -0.72878008688E+03  0.72878008690E+03  0.50400001928E-02 0. -1.
    10030    2    1    2    0    0  0.00000000000E+00  0.00000000000E+00 -0.31403323255E+03  0.11435269413E+04  0.10995621830E+04 0.  0.
        5    1    3    3  502    0  0.33489426409E+03 -0.23322241197E+03 -0.54010678134E+03  0.67696697616E+03  0.46999998093E+01 0. -1.
       -5    1    3    3    0  502 -0.33489426409E+03  0.23322241197E+03  0.22607354879E+03  0.46655996509E+03  0.46999998093E+01 0.  1.
</event>
<event>
 5   0  0.3657529E-04  0.1098735E+04  0.7818609E-02  0.9206426E-01
       -1   -1    0    0    0  501  0.00000000000E+00  0.00000000000E+00  0.68750190033E+03  0.68750190035E+03  0.50400001928E-02 0.  1.
        1   -1    0    0  501    0  0.00000000000E+00  0.00000000000E+00 -0.43898747528E+03  0.43898747531E+03  0.50400001928E-02 0. -1.
    10030    2    1    2    0    0  0.00000000000E+00  0.00000000000E+00  0.24851442505E+03  0.11264893757E+04  0.10987351337E+04 0.  0.
        4    1    3    3  502    0  0.28669681060E+03  0.45822346604E+03  0.23597209446E+02  0.54103811994E+03  0.12699999809E+01 0. -1.
       -4    1    3    3    0  502 -0.28669681060E+03 -0.45822346604E+03  0.22491721561E+03  0.58545125571E+03  0.12699999809E+01 0.  1.
</event>
<event>
 5   0  0.5948818E-04  0.1099124E+04  0.7818609E-02  0.9206046E-01
        2   -1    0    0  501    0  0.00000000000E+00  0.00000000000E+00  0.32790220081E+03  0.32790220082E+03  0.25500000920E-02 0.  1.
       -2   -1    0    0    0  501  0.00000000000E+00  0.00000000000E+00 -0.92106246561E+03  0.92106246561E+03  0.25500000920E-02 0. -1.
    10030    2    1    2    0    0  0.00000000000E+00  0.00000000000E+00 -0.59316026480E+03  0.12489646664E+04  0.10991240322E+04 0.  0.
        3    1    3    3  502    0 -0.19345250816E+03 -0.33335499941E+03 -0.74173767755E+03  0.83589725507E+03  0.10100000352E+00 0. -1.
       -3    1    3    3    0  502  0.19345250816E+03  0.33335499941E+03  0.14857741275E+03  0.41306741135E+03  0.10100000352E+00 0.  1.
</event>
<event>
 5   0  0.3621403E-04  0.1099894E+04  0.7818609E-02  0.9205295E-01
       -1   -1    0    0    0  501  0.00000000000E+00  0.00000000000E+00  0.33279165536E+03  0.33279165540E+03  0.50400001928E-02 0. -1.
        1   -1    0    0  501    0  0.00000000000E+00  0.00000000000E+00 -0.90880143931E+03  0.90880143932E+03  0.50400001928E-02 0.  1.
    10030    2    1    2    0    0  0.00000000000E+00  0.00000000000E+00 -0.57600978395E+03  0.12415930947E+04  0.10998936956E+04 0.  0.
        3    1    3    3  502    0  0.22390430692E+03  0.38801552851E+03  0.72076575948E+02  0.45374467713E+03  0.10100000352E+00 0. -1.
       -3    1    3    3    0  502 -0.22390430692E+03 -0.38801552851E+03 -0.64808635989E+03  0.78784841759E+03  0.10100000352E+00 0.  1.
</event>
<event>
 5   0  0.6245176E-04  0.1102097E+04  0.7818609E-02  0.9203151E-01
       -2   -1    0    0    0  501  0.00000000000E+00  0.00000000000E+00  0.63095716963E+03  0.63095716963E+03  0.25500000920E-02 0.  1.
        2   -1    0    0  501    0  0.00000000000E+00  0.00000000000E+00 -0.48125981903E+03  0.48125981904E+03  0.25500000920E-02 0. -1.
    10030    2    1    2    0    0  0.00000000000E+00  0.00000000000E+00  0.14969735060E+03  0.11122169887E+04  0.11020967894E+04 0.  0.
        5    1    3    3  502    0 -0.94861093649E+02  0.17713924055E+02  0.62234291159E+03  0.62979774515E+03  0.46999998093E+01 0.  1.
       -5    1    3    3    0  502  0.94861093649E+02 -0.17713924055E+02 -0.47264556099E+03  0.48241924352E+03  0.46999998093E+01 0. -1.
</event>
<event>
 5   0  0.5948818E-04  0.1100154E+04  0.7818609E-02  0.9205042E-01
        2   -1    0    0  501    0  0.00000000000E+00  0.00000000000E+00  0.53289081656E+03  0.53289081656E+03  0.25500000920E-02 0. -1.
       -2   -1    0    0    0  501  0.00000000000E+00  0.00000000000E+00 -0.56781708316E+03  0.56781708317E+03  0.25500000920E-02 0.  1.
    10030    2    1    2    0    0  0.00000000000E+00  0.00000000000E+00 -0.34926266604E+02  0.11007078997E+04  0.11001536422E+04 0.  0.
        3    1    3    3  502    0  0.35066436556E+03 -0.41554825927E+03  0.65877366981E+02  0.54770949484E+03  0.10100000352E+00 0. -1.
       -3    1    3    3    0  502 -0.35066436556E+03  0.41554825927E+03 -0.10080363358E+03  0.55299840488E+03  0.10100000352E+00 0.  1.
</event>
<event>
 5   0  0.3621403E-04  0.1100298E+04  0.7818609E-02  0.9204902E-01
        1   -1    0    0  501    0  0.00000000000E+00  0.00000000000E+00  0.46196986824E+03  0.46196986826E+03  0.50400001928E-02 0.  1.
       -1   -1    0    0    0  501  0.00000000000E+00  0.00000000000E+00 -0.65515937527E+03  0.65515937529E+03  0.50400001928E-02 0. -1.
    10030    2    1    2    0    0  0.00000000000E+00  0.00000000000E+00 -0.19318950703E+03  0.11171292436E+04  0.11002979420E+04 0.  0.
        3    1    3    3  502    0 -0.11854274688E+03 -0.52143907844E+03  0.34660752217E+02  0.53586609643E+03  0.10100000352E+00 0.  1.
       -3    1    3    3    0  502  0.11854274688E+03  0.52143907844E+03 -0.22785025925E+03  0.58126314712E+03  0.10100000352E+00 0. -1.
</event>
<event>
 5   0  0.6264830E-04  0.1099351E+04  0.7818609E-02  0.9205825E-01
        2   -1    0    0  501    0  0.00000000000E+00  0.00000000000E+00  0.56793165905E+03  0.56793165905E+03  0.25500000920E-02 0.  1.
       -2   -1    0    0    0  501  0.00000000000E+00  0.00000000000E+00 -0.53200618552E+03  0.53200618552E+03  0.25500000920E-02 0. -1.
    10030    2    1    2    0    0  0.00000000000E+00  0.00000000000E+00  0.35925473531E+02  0.10999378446E+04  0.10993510005E+04 0.  0.
        4    1    3    3  502    0  0.73694346524E+02 -0.68252605851E+02  0.55866982158E+03  0.56762915478E+03  0.12699999809E+01 0.  1.
       -4    1    3    3    0  502 -0.73694346524E+02  0.68252605851E+02 -0.52274434805E+03  0.53230868979E+03  0.12699999809E+01 0. -1.
</event>
<event>
 5   0  0.6245176E-04  0.1100005E+04  0.7818609E-02  0.9205187E-01
        2   -1    0    0  501    0  0.00000000000E+00  0.00000000000E+00  0.25115748981E+04  0.25115748981E+04  0.25500000920E-02 0.  1.
       -2   -1    0    0    0  501  0.00000000000E+00  0.00000000000E+00 -0.12044337870E+03  0.12044337873E+03  0.25500000920E-02 0. -1.
    10030    2    1    2    0    0  0.00000000000E+00  0.00000000000E+00  0.23911315194E+04  0.26320182768E+04  0.11000046666E+04 0.  0.
        5    1    3    3  502    0  0.20177186448E+03 -0.49585091898E+03  0.14972823443E+04  0.15901121116E+04  0.46999998093E+01 0.  1.
       -5    1    3    3    0  502 -0.20177186448E+03  0.49585091898E+03  0.89384917512E+03  0.10419061652E+04  0.46999998093E+01 0. -1.
</event>
<event>
 5   0  0.3642161E-04  0.1099663E+04  0.7818609E-02  0.9205520E-01
        1   -1    0    0  501    0  0.00000000000E+00  0.00000000000E+00  0.12700414576E+04  0.12700414576E+04  0.50400001928E-02 0. -1.
       -1   -1    0    0    0  501  0.00000000000E+00  0.00000000000E+00 -0.23803534158E+03  0.23803534163E+03  0.50400001928E-02 0.  1.
    10030    2    1    2    0    0  0.00000000000E+00  0.00000000000E+00  0.10320061160E+04  0.15080767992E+04  0.10996631343E+04 0.  0.
        2    1    3    3  502    0 -0.39513384948E+03 -0.33369770913E+03  0.77194383467E+03  0.92918362231E+03  0.25500000920E-02 0. -1.
       -2    1    3    3    0  502  0.39513384948E+03  0.33369770913E+03  0.26006228133E+03  0.57889317690E+03  0.25500000920E-02 0.  1.
</event>
<event>
 5   0  0.3657529E-04  0.1101109E+04  0.7818609E-02  0.9204112E-01
       -1   -1    0    0    0  501  0.00000000000E+00  0.00000000000E+00  0.67316878774E+03  0.67316878775E+03  0.50400001928E-02 0. -1.
        1   -1    0    0  501    0  0.00000000000E+00  0.00000000000E+00 -0.45027369671E+03  0.45027369674E+03  0.50400001928E-02 0.  1.
    10030    2    1    2    0    0  0.00000000000E+00  0.00000000000E+00  0.22289509102E+03  0.11234424845E+04  0.11011088931E+04 0.  0.
        4    1    3    3  502    0  0.24534572929E+03 -0.45568392287E+03  0.30304954503E+03  0.59973577856E+03  0.12699999809E+01 0.  1.
       -4    1    3    3    0  502 -0.24534572929E+03  0.45568392287E+03 -0.80154454007E+02  0.52370670594E+03  0.12699999809E+01 0. -1.
</event>
<event>
 5   0  0.3621403E-04  0.1099245E+04  0.7818609E-02  0.9205928E-01
        1   -1    0    0  501    0  0.00000000000E+00  0.00000000000E+00  0.56313433525E+03  0.56313433527E+03  0.50400001928E-02 0.  1.
       -1   -1    0    0    0  501  0.00000000000E+00  0.00000000000E+00 -0.53643483446E+03  0.53643483448E+03  0.50400001928E-02 0. -1.
    10030    2    1    2    0    0  0.00000000000E+00  0.00000000000E+00  0.26699500789E+02  0.10995691698E+04  0.10992449662E+04 0.  0.
        3    1    3    3  502    0 -0.37628345740E+03 -0.38481624803E+03 -0.98092616842E+02  0.54707856541E+03  0.10100000352E+00 0.  1.
       -3    1    3    3    0  502  0.37628345740E+03  0.38481624803E+03  0.12479211763E+03  0.55249060434E+03  0.10100000352E+00 0. -1.
</event>
<event>
 5   0  0.3523525E-04  0.1099215E+04  0.7818609E-02  0.9205957E-01
       -1   -1    0    0    0  501  0.00000000000E+00  0.00000000000E+00  0.29826447095E+03  0.29826447099E+03  0.50400001928E-02 0. -1.
        1   -1    0    0  501    0  0.00000000000E+00  0.00000000000E+00 -0.10127532831E+04  0.10127532831E+04  0.50400001928E-02 0.  1.
    10030    2    1    2    0    0  0.00000000000E+00  0.00000000000E+00 -0.71448881211E+03  0.13110177541E+04  0.10992148511E+04 0.  0.
        5    1    3    3  502    0 -0.92438118454E+02  0.52073101076E+03 -0.17897623880E+03  0.55835488300E+03  0.46999998093E+01 0.  1.
       -5    1    3    3    0  502  0.92438118454E+02 -0.52073101076E+03 -0.53551257332E+03  0.75266287107E+03  0.46999998093E+01 0. -1.
</event>
<event>
 5   0  0.5948818E-04  0.1100646E+04  0.7818609E-02  0.9204562E-01
        2   -1    0    0  501    0  0.00000000000E+00  0.00000000000E+00  0.66792158549E+03  0.66792158550E+03  0.25500000920E-02 0.  1.
       -2   -1    0    0    0  501  0.00000000000E+00  0.00000000000E+00 -0.45342999207E+03  0.45342999208E+03  0.25500000920E-02 0. -1.
    10030    2    1    2    0    0  0.00000000000E+00  0.00000000000E+00  0.21449159343E+03  0.11213515776E+04  0.11006464995E+04 0.  0.
        3    1    3    3  502    0  0.38946844833E+03 -0.38607185757E+03  0.15413900815E+03  0.56964549984E+03  0.10100000352E+00 0. -1.
       -3    1    3    3    0  502 -0.38946844833E+03  0.38607185757E+03  0.60352585280E+02  0.55170607773E+03  0.10100000352E+00 0.  1.
</event>
<event>
 5   0  0.3423758E-04  0.1107244E+04  0.7818609E-02  0.9198160E-01
        1   -1    0    0  501    0  0.00000000000E+00  0.00000000000E+00  0.12467137434E+04  0.12467137434E+04  0.50400001928E-02 0. -1.
       -1   -1    0    0    0  501  0.00000000000E+00  0.00000000000E+00 -0.24584420127E+03  0.24584420132E+03  0.50400001928E-02 0.  1.
    10030    2    1    2    0    0  0.00000000000E+00  0.00000000000E+00  0.10008695421E+04  0.14925579447E+04  0.11072440463E+04 0.  0.
        1    1    3    3  502    0  0.95683329005E+02 -0.80346151760E+02 -0.22659075681E+03  0.25875504758E+03  0.50400001928E-02 0.  1.
       -1    1    3    3    0  502 -0.95683329005E+02  0.80346151760E+02  0.12274602989E+04  0.12338028971E+04  0.50400001928E-02 0. -1.
</event>
<event>
 5   0  0.6109149E-04  0.1099800E+04  0.7818609E-02  0.9205387E-01
       -2   -1    0    0    0  501  0.00000000000E+00  0.00000000000E+00  0.26117446886E+03  0.26117446887E+03  0.25500000920E-02 0.  1.
        2   -1    0    0  501    0  0.00000000000E+00  0.00000000000E+00 -0.11578084788E+04  0.11578084788E+04  0.25500000920E-02 0. -1.
    10030    2    1    2    0    0  0.00000000000E+00  0.00000000000E+00 -0.89663400998E+03  0.14189829477E+04  0.10998000082E+04 0.  0.
        1    1    3    3  502    0  0.38133843562E+03  0.25676920381E+03 -0.59020069647E+02  0.46350058808E+03  0.50400001928E-02 0.  1.
       -1    1    3    3    0  502 -0.38133843562E+03 -0.25676920381E+03 -0.83761394034E+03  0.95548235964E+03  0.50400001928E-02 0. -1.
</event>
<event>
 5   0  0.3621403E-04  0.1099693E+04  0.7818609E-02  0.9205491E-01
       -1   -1    0    0    0  501  0.00000000000E+00  0.00000000000E+00  0.17522813077E+04  0.17522813077E+04  0.50400001928E-02 0. -1.
        1   -1    0    0  501    0  0.00000000000E+00  0.00000000000E+00 -0.17253567966E+03  0.17253567973E+03  0.50400001928E-02 0.  1.
    10030    2    1    2    0    0  0.00000000000E+00  0.00000000000E+00  0.15797456281E+04  0.19248169875E+04  0.10996927688E+04 0.  0.
        3    1    3    3  502    0 -0.28188251648E+03 -0.26940463610E+03  0.11131085415E+03  0.40549565658E+03  0.10100000352E+00 0.  1.
       -3    1    3    3    0  502  0.28188251648E+03  0.26940463610E+03  0.14684347739E+04  0.15193213309E+04  0.10100000352E+00 0. -1.
</event>
<event>
 5   0  0.3642161E-04  0.1101434E+04  0.7818609E-02  0.9203795E-01
       -1   -1    0    0    0  501  0.00000000000E+00  0.00000000000E+00  0.63113360506E+03  0.63113360508E+03  0.50400001928E-02 0.  1.
        1   -1    0    0  501    0  0.00000000000E+00  0.00000000000E+00 -0.48054681950E+03  0.48054681952E+03  0.50400001928E-02 0. -1.
    10030    2    1    2    0    0  0.00000000000E+00  0.00000000000E+00  0.15058678557E+03  0.11116804246E+04  0.11014340591E+04 0.  0.
        2    1    3    3  502    0 -0.23713804403E+03 -0.65650358958E+02 -0.42198140172E+03  0.48848001490E+03  0.25500000920E-02 0. -1.
       -2    1    3    3    0  502  0.23713804403E+03  0.65650358958E+02  0.57256818728E+03  0.62320040970E+03  0.25500000920E-02 0.  1.
</event>
<event>
 5   0  0.3523525E-04  0.1123571E+04  0.7818609E-02  0.9182518E-01
        1   -1    0    0  501    0  0.00000000000E+00  0.00000000000E+00  0.35483626528E+03  0.35483626531E+03  0.50400001928E-02 0. -1.
       -1   -1    0    0    0  501  0.00000000000E+00  0.00000000000E+00 -0.88943227253E+03  0.88943227254E+03  0.50400001928E-02 0.  1.
    10030    2    1    2    0    0  0.00000000000E+00  0.00000000000E+00 -0.53459600725E+03  0.12442685379E+04  0.11235707825E+04 0.  0.
        5    1    3    3  502    0  0.30298972228E+03  0.18718665427E+03  0.21381228679E+03  0.41542676771E+03  0.46999998093E+01 0. -1.
       -5    1    3    3    0  502 -0.30298972228E+03 -0.18718665427E+03 -0.74840829404E+03  0.82884177015E+03  0.46999998093E+01 0.  1.
</event>
<event>
 5   0  0.6245176E-04  0.1099827E+04  0.7818609E-02  0.9205361E-01
       -2   -1    0    0    0  501  0.00000000000E+00  0.00000000000E+00  0.22857234926E+03  0.22857234928E+03  0.25500000920E-02 0. -1.
        2   -1    0    0  501    0  0.00000000000E+00  0.00000000000E+00 -0.13230150575E+04  0.13230150575E+04  0.25500000920E-02 0.  1.
    10030    2    1    2    0    0  0.00000000000E+00  0.00000000000E+00 -0.10944427082E+04  0.15515874068E+04  0.10998266405E+04 0.  0.
        5    1    3    3  502    0 -0.33638372604E+03 -0.11559366597E+03  0.44399906515E+02  0.35848200576E+03  0.46999998093E+01 0. -1.
       -5    1    3    3    0  502  0.33638372604E+03  0.11559366597E+03 -0.11388426147E+04  0.11931054010E+04  0.46999998093E+01 0.  1.
</event>
<event>
 5   0  0.6245176E-04  0.1100092E+04  0.7818609E-02  0.9205102E-01
        2   -1    0    0  501    0  0.00000000000E+00  0.00000000000E+00  0.69831535479E+03  0.69831535480E+03  0.25500000920E-02 0. -1.
       -2   -1    0    0    0  501  0.00000000000E+00  0.00000000000E+00 -0.43325788775E+03  0.43325788775E+03  0.25500000920E-02 0.  1.
    10030    2    1    2    0    0  0.00000000000E+00  0.00000000000E+00  0.26505746705E+03  0.11315732426E+04  0.11000920609E+04 0.  0.
        5    1    3    3  502    0  0.35911238267E+03 -0.62845182298E+02  0.55616072000E+03  0.66501733571E+03  0.46999998093E+01 0. -1.
       -5    1    3    3    0  502 -0.35911238267E+03  0.62845182298E+02 -0.29110325295E+03  0.46655590684E+03  0.46999998093E+01 0.  1.
</event>
<event>
 5   0  0.6245176E-04  0.1101644E+04  0.7818609E-02  0.9203591E-01
        2   -1    0    0  501    0  0.00000000000E+00  0.00000000000E+00  0.12756739431E+04  0.12756739431E+04  0.25500000920E-02 0.  1.
       -2   -1    0    0    0  501  0.00000000000E+00  0.00000000000E+00 -0.23783901189E+03  0.23783901191E+03  0.25500000920E-02 0. -1.
    10030    2    1    2    0    0  0.00000000000E+00  0.00000000000E+00  0.10378349312E+04  0.15135129550E+04  0.11016442804E+04 0.  0.
        5    1    3    3  502    0  0.45364630459E+03  0.14354985494E+02  0.94764748278E+03  0.10507420601E+04  0.46999998093E+01 0.  1.
       -5    1    3    3    0  502 -0.45364630459E+03 -0.14354985494E+02  0.90187448384E+02  0.46277089485E+03  0.46999998093E+01 0. -1.
</event>
<event>
 5   0  0.3657529E-04  0.1100450E+04  0.7818609E-02  0.9204754E-01
       -1   -1    0    0    0  501  0.00000000000E+00  0.00000000000E+00  0.53600664031E+03  0.53600664033E+03  0.50400001928E-02 0. -1.
        1   -1    0    0  501    0  0.00000000000E+00  0.00000000000E+00 -0.56482039099E+03  0.56482039101E+03  0.50400001928E-02 0.  1.
    10030    2    1    2    0    0  0.00000000000E+00  0.00000000000E+00 -0.28813750683E+02  0.11008270313E+04  0.11004498720E+04 0.  0.
        4    1    3    3  502    0  0.19355993015E+02  0.17229411665E+03 -0.53677925077E+03  0.56408642428E+03  0.12699999809E+01 0.  1.
       -4    1    3    3    0  502 -0.19355993015E+02 -0.17229411665E+03  0.50796550009E+03  0.53674060707E+03  0.12699999809E+01 0. -1.
</event>
<event>
 5   0  0.6412712E-04  0.1100963E+04  0.7818609E-02  0.9204253E-01
        2   -1    0    0  501    0  0.00000000000E+00  0.00000000000E+00  0.18379630166E+04  0.18379630166E+04  0.25500000920E-02 0.  1.
       -2   -1    0    0    0  501  0.00000000000E+00  0.00000000000E+00 -0.16487278278E+03  0.16487278280E+03  0.25500000920E-02 0. -1.
    10030    2    1    2    0    0  0.00000000000E+00  0.00000000000E+00  0.16730902338E+04  0.20028357994E+04  0.11009633549E+04 0.  0.
        2    1    3    3  502    0 -0.47266557345E+03 -0.21119868608E+02  0.32467906646E+03  0.57382513833E+03  0.25500000920E-02 0. -1.
       -2    1    3    3    0  502  0.47266557345E+03  0.21119868608E+02  0.13484111673E+04  0.14290106610E+04  0.25500000920E-02 0.  1.
</event>
<event>
 5   0  0.5948818E-04  0.1100644E+04  0.7818609E-02  0.9204564E-01
       -2   -1    0    0    0  501  0.00000000000E+00  0.00000000000E+00  0.13810783717E+03  0.13810783720E+03  0.25500000920E-02 0. -1.
        2   -1    0    0  501    0  0.00000000000E+00  0.00000000000E+00 -0.21928840833E+04  0.21928840833E+04  0.25500000920E-02 0.  1.
    10030    2    1    2    0    0  0.00000000000E+00  0.00000000000E+00 -0.20547762462E+04  0.23309919205E+04  0.11006443167E+04 0.  0.
        3    1    3    3  502    0  0.30586326700E+03  0.34253597920E+02 -0.61204026920E+02  0.31380183266E+03  0.10100000352E+00 0.  1.
       -3    1    3    3    0  502 -0.30586326700E+03 -0.34253597920E+02 -0.19935722192E+04  0.20171900879E+04  0.10100000352E+00 0. -1.
</event>
<event>
 5   0  0.3423758E-04  0.1101484E+04  0.7818609E-02  0.9203747E-01
        1   -1    0    0  501    0  0.00000000000E+00  0.00000000000E+00  0.13180937158E+04  0.13180937159E+04  0.50400001928E-02 0. -1.
       -1   -1    0    0    0  501  0.00000000000E+00  0.00000000000E+00 -0.23011780536E+03  0.23011780542E+03  0.50400001928E-02 0.  1.
    10030    2    1    2    0    0  0.00000000000E+00  0.00000000000E+00  0.10879759105E+04  0.15482115213E+04  0.11014841500E+04 0.  0.
        1    1    3    3  502    0 -0.49561156376E+03  0.13614254059E+03  0.82210313324E+03  0.96954586029E+03  0.50400001928E-02 0.  1.
       -1    1    3    3    0  502  0.49561156376E+03 -0.13614254059E+03  0.26587277725E+03  0.57866566098E+03  0.50400001928E-02 0. -1.
</event>
<event>
 5   0  0.5948818E-04  0.1101074E+04  0.7818609E-02  0.9204145E-01
       -2   -1    0    0    0  501  0.00000000000E+00  0.00000000000E+00  0.17177299864E+03  0.17177299866E+03  0.25500000920E-02 0.  1.
        2   -1    0    0  501    0  0.00000000000E+00  0.00000000000E+00 -0.17644865577E+04  0.17644865577E+04  0.25500000920E-02 0. -1.
    10030    2    1    2    0    0  0.00000000000E+00  0.00000000000E+00 -0.15927135590E+04  0.19362595563E+04  0.11010742883E+04 0.  0.
        3    1    3    3  502    0  0.10223846309E+03 -0.21027385783E+03 -0.16728390783E+04  0.16890998758E+04  0.10100000352E+00 0. -1.
       -3    1    3    3    0  502 -0.10223846309E+03  0.21027385783E+03  0.80125519231E+02  0.24715968048E+03  0.10100000352E+00 0.  1.
</event>
<event>
 5   0  0.3657529E-04  0.1116071E+04  0.7818609E-02  0.9189668E-01
       -1   -1    0    0    0  501  0.00000000000E+00  0.00000000000E+00  0.19123170648E+03  0.19123170654E+03  0.50400001928E-02 0.  1.
        1   -1    0    0  501    0  0.00000000000E+00  0.00000000000E+00 -0.16284104490E+04  0.16284104490E+04  0.50400001928E-02 0. -1.
    10030    2    1    2    0    0  0.00000000000E+00  0.00000000000E+00 -0.14371787425E+04  0.18196421555E+04  0.11160711609E+04 0.  0.
        4    1    3    3  502    0 -0.46302514363E+03  0.74813718521E+01 -0.21092508262E+03  0.50886074514E+03  0.12699999809E+01 0.  1.
       -4    1    3    3    0  502  0.46302514363E+03 -0.74813718521E+01 -0.12262536599E+04  0.13107814104E+04  0.12699999809E+01 0. -1.
</event>
<event>
 5   0  0.6245176E-04  0.1098613E+04  0.7818609E-02  0.9206545E-01
       -2   -1    0    0    0  501  0.00000000000E+00  0.00000000000E+00  0.64835859606E+03  0.64835859607E+03  0.25500000920E-02 0. -1.
        2   -1    0    0  501    0  0.00000000000E+00  0.00000000000E+00 -0.46538680123E+03  0.46538680124E+03  0.25500000920E-02 0.  1.
    10030    2    1    2    0    0  0.00000000000E+00  0.00000000000E+00  0.18297179483E+03  0.11137453973E+04  0.10986128218E+04 0.  0.
        5    1    3    3  502    0 -0.24195231708E+03 -0.51301634375E+02  0.58869298986E+03  0.63855642487E+03  0.46999998093E+01 0. -1.
       -5    1    3    3    0  502  0.24195231708E+03  0.51301634375E+02 -0.40572119503E+03  0.47518897243E+03  0.46999998093E+01 0.  1.
</event>
<event>
 5   0  0.3621403E-04  0.1099118E+04  0.7818609E-02  0.9206052E-01
        1   -1    0    0  501    0  0.00000000000E+00  0.00000000000E+00  0.48608052840E+03  0.48608052843E+03  0.50400001928E-02 0. -1.
       -1   -1    0    0    0  501  0.00000000000E+00  0.00000000000E+00 -0.62132766223E+03  0.62132766225E+03  0.50400001928E-02 0.  1.
    10030    2    1    2    0    0  0.00000000000E+00  0.00000000000E+00 -0.13524713383E+03  0.11074081907E+04  0.10991183346E+04 0.  0.
        3    1    3    3  502    0 -0.24935876404E+03 -0.27689420570E+03 -0.47460713947E+03  0.60340876807E+03  0.10100000352E+00 0.  1.
       -3    1    3    3    0  502  0.24935876404E+03  0.27689420570E+03  0.33936000564E+03  0.50399942260E+03  0.10100000352E+00 0. -1.
</event>
<event>
 5   0  0.6412712E-04  0.1098942E+04  0.7818609E-02  0.9206223E-01
       -2   -1    0    0    0  501  0.00000000000E+00  0.00000000000E+00  0.70648602909E+03  0.70648602910E+03  0.25500000920E-02 0. -1.
        2   -1    0    0  501    0  0.00000000000E+00  0.00000000000E+00 -0.42735252269E+03  0.42735252270E+03  0.25500000920E-02 0.  1.
    10030    2    1    2    0    0  0.00000000000E+00  0.00000000000E+00  0.27913350640E+03  0.11338385518E+04  0.10989423766E+04 0.  0.
        2    1    3    3  502    0  0.34913800955E+03  0.30253061072E+03  0.44649670017E+03  0.64248067940E+03  0.25500000920E-02 0. -1.
       -2    1    3    3    0  502 -0.34913800955E+03 -0.30253061072E+03 -0.16736319377E+03  0.49135787240E+03  0.25500000920E-02 0.  1.
</event>
<event>
 5   0  0.3523525E-04  0.1102245E+04  0.7818609E-02  0.9203006E-01
        1   -1    0    0  501    0  0.00000000000E+00  0.00000000000E+00  0.14010492532E+04  0.14010492532E+04  0.50400001928E-02 0.  1.
       -1   -1    0    0    0  501  0.00000000000E+00  0.00000000000E+00 -0.21679185658E+03  0.21679185664E+03  0.50400001928E-02 0. -1.
    10030    2    1    2    0    0  0.00000000000E+00  0.00000000000E+00  0.11842573966E+04  0.16178411098E+04  0.11022451067E+04 0.  0.
        5    1    3    3  502    0 -0.35955548233E+03 -0.25822492345E+03  0.11032089536E+03  0.45623792687E+03  0.46999998093E+01 0. -1.
       -5    1    3    3    0  502  0.35955548233E+03  0.25822492345E+03  0.10739365012E+04  0.11616031830E+04  0.46999998093E+01 0.  1.
</event>
<event>
 5   0  0.3642161E-04  0.1100835E+04  0.7818609E-02  0.9204378E-01
       -1   -1    0    0    0  501  0.00000000000E+00  0.00000000000E+00  0.65359422534E+03  0.65359422536E+03  0.50400001928E-02 0. -1.
        1   -1    0    0  501    0  0.00000000000E+00  0.00000000000E+00 -0.46352846704E+03  0.46352846706E+03  0.50400001928E-02 0.  1.
    10030    2    1    2    0    0  0.00000000000E+00  0.00000000000E+00  0.19006575831E+03  0.11171226924E+04  0.11008351909E+04 0.  0.
        2    1    3    3  502    0 -0.21875748111E+03 -0.10161363346E+03  0.59710484209E+03  0.64398319737E+03  0.25500000920E-02 0. -1.
       -2    1    3    3    0  502  0.21875748111E+03  0.10161363346E+03 -0.40703908378E+03  0.47313949505E+03  0.25500000920E-02 0.  1.
</event>
<event>
 5   0  0.3523525E-04  0.1100573E+04  0.7818609E-02  0.9204633E-01
       -1   -1    0    0    0  501  0.00000000000E+00  0.00000000000E+00  0.19973502613E+03  0.19973502619E+03  0.50400001928E-02 0.  1.
        1   -1    0    0  501    0  0.00000000000E+00  0.00000000000E+00 -0.15160855871E+04  0.15160855871E+04  0.50400001928E-02 0. -1.
    10030    2    1    2    0    0  0.00000000000E+00  0.00000000000E+00 -0.13163505610E+04  0.17158206133E+04  0.11005732950E+04 0.  0.
        5    1    3    3  502    0 -0.28035616198E+03  0.37932144115E+03 -0.10999846700E+04  0.11968595145E+04  0.46999998093E+01 0. -1.
       -5    1    3    3    0  502  0.28035616198E+03 -0.37932144115E+03 -0.21636589099E+03  0.51896109879E+03  0.46999998093E+01 0.  1.
</event>
<event>
 5   0  0.6245176E-04  0.1101582E+04  0.7818609E-02  0.9203652E-01
       -2   -1    0    0    0  501  0.00000000000E+00  0.00000000000E+00  0.34053813172E+03  0.34053813173E+03  0.25500000920E-02 0. -1.
        2   -1    0    0  501    0  0.00000000000E+00  0.00000000000E+00 -0.89085614720E+03  0.89085614720E+03  0.25500000920E-02 0.  1.
    10030    2    1    2    0    0  0.00000000000E+00  0.00000000000E+00 -0.55031801548E+03  0.12313942789E+04  0.11015815685E+04 0.  0.
        5    1    3    3  502    0  0.24571779221E+03  0.19829920586E+03 -0.77961254776E+03  0.84114066782E+03  0.46999998093E+01 0.  1.
       -5    1    3    3    0  502 -0.24571779221E+03 -0.19829920586E+03  0.22929453228E+03  0.39025361111E+03  0.46999998093E+01 0. -1.
</event>
<event>
 5   0  0.3523525E-04  0.1096360E+04  0.7818609E-02  0.9208747E-01
        1   -1    0    0  501    0  0.00000000000E+00  0.00000000000E+00  0.15867859349E+04  0.15867859349E+04  0.50400001928E-02 0. -1.
       -1   -1    0    0    0  501  0.00000000000E+00  0.00000000000E+00 -0.18937733410E+03  0.18937733417E+03  0.50400001928E-02 0.  1.
    10030    2    1    2    0    0  0.00000000000E+00  0.00000000000E+00  0.13974086008E+04  0.17761632691E+04  0.10963599595E+04 0.  0.
        5    1    3    3  502    0 -0.58566672222E+01  0.22634067483E+03 -0.11005005451E+03  0.25178861398E+03  0.46999998093E+01 0.  1.
       -5    1    3    3    0  502  0.58566672222E+01 -0.22634067483E+03  0.15074586553E+04  0.15243746551E+04  0.46999998093E+01 0. -1.
</event>
<event>
 5   0  0.6109149E-04  0.1099085E+04  0.7818609E-02  0.9206084E-01
       -2   -1    0    0    0  501  0.00000000000E+00  0.00000000000E+00  0.28088144672E+03  0.28088144673E+03  0.25500000920E-02 0.  1.
        2   -1    0    0  501    0  0.00000000000E+00  0.00000000000E+00 -0.10751767036E+04  0.10751767036E+04  0.25500000920E-02 0. -1.
    10030    2    1    2    0    0  0.00000000000E+00  0.00000000000E+00 -0.79429525688E+03  0.13560581503E+04  0.10990854161E+04 0.  0.
        1    1    3    3  502    0  0.30185722614E+03  0.31720508847E+03 -0.80683872091E+03  0.91800085769E+03  0.50400001928E-02 0. -1.
       -1    1    3    3    0  502 -0.30185722614E+03 -0.31720508847E+03  0.12543464030E+02  0.43805729265E+03  0.50400001928E-02 0.  1.
</event>
<event>
 5   0  0.6245176E-04  0.1099811E+04  0.7818609E-02  0.9205376E-01
        2   -1    0    0  501    0  0.00000000000E+00  0.00000000000E+00  0.36502315759E+03  0.36502315760E+03  0.25500000920E-02 0. -1.
       -2   -1    0    0    0  501  0.00000000000E+00  0.00000000000E+00 -0.82842978811E+03  0.82842978812E+03  0.25500000920E-02 0.  1.
    10030    2    1    2    0    0  0.00000000000E+00  0.00000000000E+00 -0.46340663052E+03  0.11934529457E+04  0.10998109967E+04 0.  0.
        5    1    3    3  502    0  0.68484361345E+02 -0.22048903069E+03 -0.77326333969E+03  0.80700917151E+03  0.46999998093E+01 0.  1.
       -5    1    3    3    0  502 -0.68484361345E+02  0.22048903069E+03  0.30985670917E+03  0.38644377420E+03  0.46999998093E+01 0. -1.
</event>
<event>
 5   0  0.6245176E-04  0.1100177E+04  0.7818609E-02  0.9205019E-01
        2   -1    0    0  501    0  0.00000000000E+00  0.00000000000E+00  0.61414898934E+03  0.61414898935E+03  0.25500000920E-02 0.  1.
       -2   -1    0    0    0  501  0.00000000000E+00  0.00000000000E+00 -0.49271027104E+03  0.49271027104E+03  0.25500000920E-02 0. -1.
    10030    2    1    2    0    0  0.00000000000E+00  0.00000000000E+00  0.12143871831E+03  0.11068592604E+04  0.11001772857E+04 0.  0.
        5    1    3    3  502    0  0.19853939704E+03  0.39674457534E+02 -0.45383928350E+03  0.49697498931E+03  0.46999998093E+01 0. -1.
       -5    1    3    3    0  502 -0.19853939704E+03 -0.39674457534E+02  0.57527800180E+03  0.60988427108E+03  0.46999998093E+01 0.  1.
</event>
<event>
 5   0  0.3621403E-04  0.1098909E+04  0.7818609E-02  0.9206256E-01
        1   -1    0    0  501    0  0.00000000000E+00  0.00000000000E+00  0.44913144366E+03  0.44913144369E+03  0.50400001928E-02 0. -1.
       -1   -1    0    0    0  501  0.00000000000E+00  0.00000000000E+00 -0.67218725516E+03  0.67218725518E+03  0.50400001928E-02 0.  1.
    10030    2    1    2    0    0  0.00000000000E+00  0.00000000000E+00 -0.22305581150E+03  0.11213186989E+04  0.10989093363E+04 0.  0.
        3    1    3    3  502    0 -0.26086024211E+03 -0.33139705710E+03 -0.47088620459E+03  0.63214389441E+03  0.10100000352E+00 0.  1.
       -3    1    3    3    0  502  0.26086024211E+03  0.33139705710E+03  0.24783039310E+03  0.48917480445E+03  0.10100000352E+00 0. -1.
</event>
<event>
 5   0  0.3523525E-04  0.1094263E+04  0.7818609E-02  0.9210802E-01
       -1   -1    0    0    0  501  0.00000000000E+00  0.00000000000E+00  0.25678308101E+03  0.25678308106E+03  0.50400001928E-02 0. -1.
        1   -1    0    0  501    0  0.00000000000E+00  0.00000000000E+00 -0.11657809527E+04  0.11657809527E+04  0.50400001928E-02 0.  1.
    10030    2    1    2    0    0  0.00000000000E+00  0.00000000000E+00 -0.90899787167E+03  0.14225640337E+04  0.10942629023E+04 0.  0.
        5    1    3    3  502    0  0.31219810457E+03  0.44920023516E+03 -0.44271046142E+03  0.70374935198E+03  0.46999998093E+01 0.  1.
       -5    1    3    3    0  502 -0.31219810457E+03 -0.44920023516E+03 -0.46628741025E+03  0.71881468176E+03  0.46999998093E+01 0. -1.
</event>
<event>
 5   0  0.6245176E-04  0.1097604E+04  0.7818609E-02  0.9207530E-01
        2   -1    0    0  501    0  0.00000000000E+00  0.00000000000E+00  0.11935689980E+04  0.11935689980E+04  0.25500000920E-02 0.  1.
       -2   -1    0    0    0  501  0.00000000000E+00  0.00000000000E+00 -0.25233880315E+03  0.25233880316E+03  0.25500000920E-02 0. -1.
    10030    2    1    2    0    0  0.00000000000E+00  0.00000000000E+00  0.94123019483E+03  0.14459078011E+04  0.10976042500E+04 0.  0.
        5    1    3    3  502    0 -0.23280246995E+02  0.27882241453E+03 -0.15129584951E+03  0.31811386770E+03  0.46999998093E+01 0. -1.
       -5    1    3    3    0  502  0.23280246995E+02 -0.27882241453E+03  0.10925260443E+04  0.11277939334E+04  0.46999998093E+01 0.  1.
</event>
<event>
 5   0  0.3642161E-04  0.1098694E+04  0.7818609E-02  0.9206466E-01
       -1   -1    0    0    0  501  0.00000000000E+00  0.00000000000E+00  0.75945320606E+03  0.75945320608E+03  0.50400001928E-02 0. -1.
        1   -1    0    0  501    0  0.00000000000E+00  0.00000000000E+00 -0.39736739794E+03  0.39736739797E+03  0.50400001928E-02 0.  1.
    10030    2    1    2    0    0  0.00000000000E+00  0.00000000000E+00  0.36208580812E+03  0.11568206041E+04  0.10986936686E+04 0.  0.
        2    1    3    3  502    0 -0.33136560435E+03 -0.10334434286E+03  0.62936151831E+03  0.71873439996E+03  0.25500000920E-02 0. -1.
       -2    1    3    3    0  502  0.33136560435E+03  0.10334434286E+03 -0.26727571020E+03  0.43808620409E+03  0.25500000920E-02 0.  1.
</event>
<event>
 5   0  0.6109149E-04  0.1100593E+04  0.7818609E-02  0.9204614E-01
        2   -1    0    0  501    0  0.00000000000E+00  0.00000000000E+00  0.11555344269E+04  0.11555344269E+04  0.25500000920E-02 0.  1.
       -2   -1    0    0    0  501  0.00000000000E+00  0.00000000000E+00 -0.26206605905E+03  0.26206605906E+03  0.25500000920E-02 0. -1.
    10030    2    1    2    0    0  0.00000000000E+00  0.00000000000E+00  0.89346836780E+03  0.14176004859E+04  0.11005932098E+04 0.  0.
        1    1    3    3  502    0 -0.26230436242E+03  0.30911523334E+03 -0.32563939636E+02  0.40671392429E+03  0.50400001928E-02 0.  1.
       -1    1    3    3    0  502  0.26230436242E+03 -0.30911523334E+03  0.92603230744E+03  0.10108865616E+04  0.50400001928E-02 0. -1.
</event>
<event>
 5   0  0.3523525E-04  0.1095128E+04  0.7818609E-02  0.9209953E-01
        1   -1    0    0  501    0  0.00000000000E+00  0.00000000000E+00  0.51662428907E+03  0.51662428910E+03  0.50400001928E-02 0.  1.
       -1   -1    0    0    0  501  0.00000000000E+00  0.00000000000E+00 -0.58035675546E+03  0.58035675548E+03  0.50400001928E-02 0. -1.
    10030    2    1    2    0    0  0.00000000000E+00  0.00000000000E+00 -0.63732466389E+02  0.10969810446E+04  0.10951281135E+04 0.  0.
        5    1    3    3  502    0  0.52064136146E+03 -0.16544801146E+03  0.51263812019E+01  0.54634132330E+03  0.46999998093E+01 0. -1.
       -5    1    3    3    0  502 -0.52064136146E+03  0.16544801146E+03 -0.68858847591E+02  0.55063972128E+03  0.46999998093E+01 0.  1.
</event>
<event>
 5   0  0.3423758E-04  0.1100620E+04  0.7818609E-02  0.9204587E-01
       -1   -1    0    0    0  501  0.00000000000E+00  0.00000000000E+00  0.86369934375E+03  0.86369934377E+03  0.50400001928E-02 0. -1.
        1   -1    0    0  501    0  0.00000000000E+00  0.00000000000E+00 -0.35063285576E+03  0.35063285579E+03  0.50400001928E-02 0.  1.
    10030    2    1    2    0    0  0.00000000000E+00  0.00000000000E+00  0.51306648800E+03  0.12143321996E+04  0.11006204931E+04 0.  0.
        1    1    3    3  502    0  0.34634265168E+02  0.14642847576E+03  0.84056222363E+03  0.85392369838E+03  0.50400001928E-02 0. -1.
       -1    1    3    3    0  502 -0.34634265168E+02 -0.14642847576E+03 -0.32749573563E+03  0.36040850118E+03  0.50400001928E-02 0.  1.
</event>
<event>
 5   0  0.3423758E-04  0.1114773E+04  0.7818609E-02  0.9190912E-01
        1   -1    0    0  501    0  0.00000000000E+00  0.00000000000E+00  0.58822015777E+03  0.58822015779E+03  0.50400001928E-02 0.  1.
       -1   -1    0    0    0  501  0.00000000000E+00  0.00000000000E+00 -0.52816889906E+03  0.52816889908E+03  0.50400001928E-02 0. -1.
    10030    2    1    2    0    0  0.00000000000E+00  0.00000000000E+00  0.60051258710E+02  0.11163890569E+04  0.11147727897E+04 0.  0.
        1    1    3    3  502    0 -0.25899903654E+03  0.15058554818E+03  0.50073165805E+03  0.58351409721E+03  0.50400001928E-02 0.  1.
       -1    1    3    3    0  502  0.25899903654E+03 -0.15058554818E+03 -0.44068039934E+03  0.53287495966E+03  0.50400001928E-02 0. -1.
</event>
<event>
 5   0  0.3657529E-04  0.1099396E+04  0.7818609E-02  0.9205780E-01
        1   -1    0    0  501    0  0.00000000000E+00  0.00000000000E+00  0.67998281854E+03  0.67998281856E+03  0.50400001928E-02 0. -1.
       -1   -1    0    0    0  501  0.00000000000E+00  0.00000000000E+00 -0.44437610801E+03  0.44437610803E+03  0.50400001928E-02 0.  1.
    10030    2    1    2    0    0  0.00000000000E+00  0.00000000000E+00  0.23560671053E+03  0.11243589266E+04  0.10993964134E+04 0.  0.
        4    1    3    3  502    0  0.44345122055E+03  0.16215128377E+03  0.40566271810E+03  0.62249970087E+03  0.12699999809E+01 0. -1.
       -4    1    3    3    0  502 -0.44345122055E+03 -0.16215128377E+03 -0.17005600757E+03  0.50185922572E+03  0.12699999809E+01 0.  1.
</event>
<event>
 5   0  0.6264830E-04  0.1098497E+04  0.7818609E-02  0.9206658E-01
       -2   -1    0    0    0  501  0.00000000000E+00  0.00000000000E+00  0.12614642219E+03  0.12614642221E+03  0.25500000920E-02 0.  1.
        2   -1    0    0  501    0  0.00000000000E+00  0.00000000000E+00 -0.23914563000E+04  0.23914563000E+04  0.25500000920E-02 0. -1.
    10030    2    1    2    0    0  0.00000000000E+00  0.00000000000E+00 -0.22653098778E+04  0.25176027223E+04  0.10984965291E+04 0.  0.
        4    1    3    3  502    0 -0.44221481356E+02  0.14413664168E+03  0.77789306919E+02  0.16965759652E+03  0.12699999809E+01 0.  1.
       -4    1    3    3    0  502  0.44221481356E+02 -0.14413664168E+03 -0.23430991848E+04  0.23479451257E+04  0.12699999809E+01 0. -1.
</event>
<event>
 5   0  0.5948818E-04  0.1094297E+04  0.7818609E-02  0.9210769E-01
       -2   -1    0    0    0  501  0.00000000000E+00  0.00000000000E+00  0.65935609957E+03  0.65935609957E+03  0.25500000920E-02 0.  1.
        2   -1    0    0  501    0  0.00000000000E+00  0.00000000000E+00 -0.45403583513E+03  0.45403583514E+03  0.25500000920E-02 0. -1.
    10030    2    1    2    0    0  0.00000000000E+00  0.00000000000E+00  0.20532026444E+03  0.11133919347E+04  0.10942966642E+04 0.  0.
        3    1    3    3  502    0 -0.43081997189E+03 -0.27376135912E+03 -0.97806290467E+02  0.51972801597E+03  0.10100000352E+00 0.  1.
       -3    1    3    3    0  502  0.43081997189E+03  0.27376135912E+03  0.30312655491E+03  0.59366391874E+03  0.10100000352E+00 0. -1.
</event>
<event>
 5   0  0.3657529E-04  0.1100198E+04  0.7818609E-02  0.9204999E-01
       -1   -1    0    0    0  501  0.00000000000E+00  0.00000000000E+00  0.38896589381E+03  0.38896589384E+03  0.50400001928E-02 0.  1.
        1   -1    0    0  501    0  0.00000000000E+00  0.00000000000E+00 -0.77798347952E+03  0.77798347954E+03  0.50400001928E-02 0. -1.
    10030    2    1    2    0    0  0.00000000000E+00  0.00000000000E+00 -0.38901758571E+03  0.11669493734E+04  0.11001982358E+04 0.  0.
        4    1    3    3  502    0  0.42153539376E+03  0.77775476599E+02 -0.56019658980E+03  0.70538141815E+03  0.12699999809E+01 0.  1.
       -4    1    3    3    0  502 -0.42153539376E+03 -0.77775476599E+02  0.17117900409E+03  0.46156795523E+03  0.12699999809E+01 0. -1.
</event>
<event>
 5   0  0.6245176E-04  0.1102348E+04  0.7818609E-02  0.9202906E-01
        2   -1    0    0  501    0  0.00000000000E+00  0.00000000000E+00  0.63367667680E+03  0.63367667680E+03  0.25500000920E-02 0.  1.
       -2   -1    0    0    0  501  0.00000000000E+00  0.00000000000E+00 -0.47941329783E+03  0.47941329783E+03  0.25500000920E-02 0. -1.
    10030    2    1    2    0    0  0.00000000000E+00  0.00000000000E+00  0.15426337897E+03  0.11130899746E+04  0.11023484483E+04 0.  0.
        5    1    3    3  502    0  0.19474772805E+03  0.48081412916E+02  0.59548802850E+03  0.62838410382E+03  0.46999998093E+01 0.  1.
       -5    1    3    3    0  502 -0.19474772805E+03 -0.48081412916E+02 -0.44122464953E+03  0.48470587081E+03  0.46999998093E+01 0. -1.
</event>
<event>
 5   0  0.5948818E-04  0.1102163E+04  0.7818609E-02  0.9203086E-01
       -2   -1    0    0    0  501  0.00000000000E+00  0.00000000000E+00  0.36504779419E+03  0.36504779420E+03  0.25500000920E-02 0. -1.
        2   -1    0    0  501    0  0.00000000000E+00  0.00000000000E+00 -0.83192131313E+03  0.83192131314E+03  0.25500000920E-02 0.  1.
    10030    2    1    2    0    0  0.00000000000E+00  0.00000000000E+00 -0.46687351895E+03  0.11969691073E+04  0.11021634004E+04 0.  0.
        3    1    3    3  502    0 -0.95329998334E+02  0.53749276292E+03 -0.15141004519E+03  0.56649032716E+03  0.10100000352E+00 0. -1.
       -3    1    3    3    0  502  0.95329998334E+02 -0.53749276292E+03 -0.31546347376E+03  0.63047878018E+03  0.10100000352E+00 0.  1.
</event>
<event>
 5   0  0.6264830E-04  0.1099427E+04  0.7818609E-02  0.9205750E-01
        2   -1    0    0  501    0  0.00000000000E+00  0.00000000000E+00  0.86210875479E+03  0.86210875480E+03  0.25500000920E-02 0.  1.
       -2   -1    0    0    0  501  0.00000000000E+00  0.00000000000E+00 -0.35051852787E+03  0.35051852787E+03  0.25500000920E-02 0. -1.
    10030    2    1    2    0    0  0.00000000000E+00  0.00000000000E+00  0.51159022693E+03  0.12126272827E+04  0.10994272902E+04 0.  0.
        4    1    3    3  502    0 -0.36175250932E+03 -0.41376525991E+03  0.24386931711E+03  0.60128231724E+03  0.12699999809E+01 0. -1.
       -4    1    3    3    0  502  0.36175250932E+03  0.41376525991E+03  0.26772090982E+03  0.61134496543E+03  0.12699999809E+01 0.  1.
</event>
<event>
 5   0  0.6412712E-04  0.1101053E+04  0.7818609E-02  0.9204166E-01
        2   -1    0    0  501    0  0.00000000000E+00  0.00000000000E+00  0.19194321888E+04  0.19194321888E+04  0.25500000920E-02 0. -1.
       -2   -1    0    0    0  501  0.00000000000E+00  0.00000000000E+00 -0.15790050619E+03  0.15790050621E+03  0.25500000920E-02 0.  1.
    10030    2    1    2    0    0  0.00000000000E+00  0.00000000000E+00  0.17615316826E+04  0.20773326950E+04  0.11010527948E+04 0.  0.
        2    1    3    3  502    0 -0.30560326577E+02 -0.20072269263E+03  0.18462140838E+04  0.18573448727E+04  0.25500000920E-02 0. -1.
       -2    1    3    3    0  502  0.30560326577E+02  0.20072269263E+03 -0.84682401174E+02  0.21998782233E+03  0.25500000920E-02 0.  1.
</event>
<event>
 5   0  0.6412712E-04  0.1100277E+04  0.7818609E-02  0.9204922E-01
        2   -1    0    0  501    0  0.00000000000E+00  0.00000000000E+00  0.89988446859E+03  0.89988446859E+03  0.25500000920E-02 0. -1.
       -2   -1    0    0    0  501  0.00000000000E+00  0.00000000000E+00 -0.33632348250E+03  0.33632348251E+03  0.25500000920E-02 0.  1.
    10030    2    1    2    0    0  0.00000000000E+00  0.00000000000E+00  0.56356098609E+03  0.12362079511E+04  0.11002768349E+04 0.  0.
        2    1    3    3  502    0 -0.15132909727E+03 -0.42088851813E+03  0.64167321100E+03  0.78217143268E+03  0.25500000920E-02 0. -1.
       -2    1    3    3    0  502  0.15132909727E+03  0.42088851813E+03 -0.78112224911E+02  0.45403651842E+03  0.25500000920E-02 0.  1.
</event>
<event>
 5   0  0.6412712E-04  0.1099983E+04  0.7818609E-02  0.9205208E-01
       -2   -1    0    0    0  501  0.00000000000E+00  0.00000000000E+00  0.23443259893E+03  0.23443259895E+03  0.25500000920E-02 0.  1.
        2   -1    0    0  501    0  0.00000000000E+00  0.00000000000E+00 -0.12903102425E+04  0.12903102425E+04  0.25500000920E-02 0. -1.
    10030    2    1    2    0    0  0.00000000000E+00  0.00000000000E+00 -0.10558776435E+04  0.15247428414E+04  0.10999832428E+04 0.  0.
        2    1    3    3  502    0 -0.19130796713E+02 -0.54422555020E+03 -0.63480150297E+03  0.83637335267E+03  0.25500000920E-02 0. -1.
       -2    1    3    3    0  502  0.19130796713E+02  0.54422555020E+03 -0.42107614057E+03  0.68836948875E+03  0.25500000920E-02 0.  1.
</event>
<event>
 5   0  0.5948818E-04  0.1101258E+04  0.7818609E-02  0.9203967E-01
        2   -1    0    0  501    0  0.00000000000E+00  0.00000000000E+00  0.58385723029E+03  0.58385723029E+03  0.25500000920E-02 0. -1.
       -2   -1    0    0    0  501  0.00000000000E+00  0.00000000000E+00 -0.51929162012E+03  0.51929162013E+03  0.25500000920E-02 0.  1.
    10030    2    1    2    0    0  0.00000000000E+00  0.00000000000E+00  0.64565610163E+02  0.11031488504E+04  0.11012577665E+04 0.  0.
        3    1    3    3  502    0 -0.27319809350E+03  0.46478713742E+03 -0.79837390284E+02  0.54501220215E+03  0.10100000352E+00 0.  1.
       -3    1    3    3    0  502  0.27319809350E+03 -0.46478713742E+03  0.14440300045E+03  0.55813664827E+03  0.10100000352E+00 0. -1.
</event>
<event>
 5   0  0.6264830E-04  0.1102122E+04  0.7818609E-02  0.9203126E-01
       -2   -1    0    0    0  501  0.00000000000E+00  0.00000000000E+00  0.11662673753E+03  0.11662673756E+03  0.25500000920E-02 0.  1.
        2   -1    0    0  501    0  0.00000000000E+00  0.00000000000E+00 -0.26037635027E+04  0.26037635027E+04  0.25500000920E-02 0. -1.
    10030    2    1    2    0    0  0.00000000000E+00  0.00000000000E+00 -0.24871367652E+04  0.27203902402E+04  0.11021223937E+04 0.  0.
        4    1    3    3  502    0  0.51398058204E+03  0.17149718914E+03 -0.99575715044E+03  0.11336318804E+04  0.12699999809E+01 0.  1.
       -4    1    3    3    0  502 -0.51398058204E+03 -0.17149718914E+03 -0.14913796147E+04  0.15867583599E+04  0.12699999809E+01 0. -1.
</event>
<event>
 5   0  0.6109149E-04  0.1102780E+04  0.7818609E-02  0.9202486E-01
        2   -1    0    0  501    0  0.00000000000E+00  0.00000000000E+00  0.69297072046E+03  0.69297072046E+03  0.25500000920E-02 0.  1.
       -2   -1    0    0    0  501  0.00000000000E+00  0.00000000000E+00 -0.43873568651E+03  0.43873568652E+03  0.25500000920E-02 0. -1.
    10030    2    1    2    0    0  0.00000000000E+00  0.00000000000E+00  0.25423503394E+03  0.11317064070E+04  0.11027800955E+04 0.  0.
        1    1    3    3  502    0  0.18751311135E+03  0.27001666503E+03 -0.32716861380E+03  0.46379895235E+03  0.50400001928E-02 0. -1.
       -1    1    3    3    0  502 -0.18751311135E+03 -0.27001666503E+03  0.58140364774E+03  0.66790745463E+03  0.50400001928E-02 0.  1.
</event>
<event>
 5   0  0.3423758E-04  0.1099523E+04  0.7818609E-02  0.9205657E-01
       -1   -1    0    0    0  501  0.00000000000E+00  0.00000000000E+00  0.88877842758E+03  0.88877842759E+03  0.50400001928E-02 0. -1.
        1   -1    0    0  501    0  0.00000000000E+00  0.00000000000E+00 -0.34005940103E+03  0.34005940107E+03  0.50400001928E-02 0.  1.
    10030    2    1    2    0    0  0.00000000000E+00  0.00000000000E+00  0.54871902654E+03  0.12288378287E+04  0.10995225505E+04 0.  0.
        1    1    3    3  502    0 -0.50176733907E+02 -0.45369505752E+03 -0.68075562897E+02  0.46150968802E+03  0.50400001928E-02 0.  1.
       -1    1    3    3    0  502  0.50176733907E+02  0.45369505752E+03  0.61679458944E+03  0.76732814065E+03  0.50400001928E-02 0. -1.
</event>
<event>
 5   0  0.3621403E-04  0.1102075E+04  0.7818609E-02  0.9203172E-01
        1   -1    0    0  501    0  0.00000000000E+00  0.00000000000E+00  0.31487625388E+03  0.31487625392E+03  0.50400001928E-02 0.  1.
       -1   -1    0    0    0  501  0.00000000000E+00  0.00000000000E+00 -0.96432291660E+03  0.96432291661E+03  0.50400001928E-02 0. -1.
    10030    2    1    2    0    0  0.00000000000E+00  0.00000000000E+00 -0.64944666272E+03  0.12791991705E+04  0.11020751109E+04 0.  0.
        3    1    3    3  502    0  0.29542373487E+02 -0.38131021101E+03 -0.78518227374E+03  0.87337359821E+03  0.10100000352E+00 0. -1.
       -3    1    3    3    0  502 -0.29542373487E+02  0.38131021101E+03  0.13573561102E+03  0.40582557232E+03  0.10100000352E+00 0.  1.
</event>
<event>
 5   0  0.3423758E-04  0.1098480E+04  0.7818609E-02  0.9206675E-01
        1   -1    0    0  501    0  0.00000000000E+00  0.00000000000E+00  0.56318533085E+03  0.56318533087E+03  0.50400001928E-02 0.  1.
       -1   -1    0    0    0  501  0.00000000000E+00  0.00000000000E+00 -0.53563986392E+03  0.53563986394E+03  0.50400001928E-02 0. -1.
    10030    2    1    2    0    0  0.00000000000E+00  0.00000000000E+00  0.27545466929E+02  0.10988251948E+04  0.10984798842E+04 0.  0.
        1    1    3    3  502    0  0.40630371498E+03  0.14962031389E+03 -0.32426184109E+03  0.54093871071E+03  0.50400001928E-02 0. -1.
       -1    1    3    3    0  502 -0.40630371498E+03 -0.14962031389E+03  0.35180730802E+03  0.55788648410E+03  0.50400001928E-02 0.  1.
</event>
<event>
 5   0  0.6264830E-04  0.1098764E+04  0.7818609E-02  0.9206397E-01
        2   -1    0    0  501    0  0.00000000000E+00  0.00000000000E+00  0.76224044351E+03  0.76224044352E+03  0.25500000920E-02 0. -1.
       -2   -1    0    0    0  501  0.00000000000E+00  0.00000000000E+00 -0.39596502874E+03  0.39596502875E+03  0.25500000920E-02 0.  1.
    10030    2    1    2    0    0  0.00000000000E+00  0.00000000000E+00  0.36627541477E+03  0.11582054723E+04  0.10987639585E+04 0.  0.
        4    1    3    3  502    0 -0.26888698156E+03  0.28528252545E+03 -0.22256373941E+03  0.45080212864E+03  0.12699999809E+01 0.  1.
       -4    1    3    3    0  502  0.26888698156E+03 -0.28528252545E+03  0.58883915419E+03  0.70740334363E+03  0.12699999809E+01 0. -1.
</event>
<event>
 5   0  0.6412712E-04  0.1099587E+04  0.7818609E-02  0.9205594E-01
       -2   -1    0    0    0  501  0.00000000000E+00  0.00000000000E+00  0.35033306309E+03  0.35033306310E+03  0.25500000920E-02 0. -1.
        2   -1    0    0  501    0  0.00000000000E+00  0.00000000000E+00 -0.86281638908E+03  0.86281638908E+03  0.25500000920E-02 0.  1.
    10030    2    1    2    0    0  0.00000000000E+00  0.00000000000E+00 -0.51248332599E+03  0.12131494522E+04  0.10995873926E+04 0.  0.
        2    1    3    3  502    0 -0.42816606659E+03  0.21771717703E+03  0.38864116839E+02  0.48191012579E+03  0.25500000920E-02 0. -1.
       -2    1    3    3    0  502  0.42816606659E+03 -0.21771717703E+03 -0.55134744282E+03  0.73123932640E+03  0.25500000920E-02 0.  1.
</event>
<event>
 5   0  0.6412712E-04  0.1111516E+04  0.7818609E-02  0.9194040E-01
       -2   -1    0    0    0  501  0.00000000000E+00  0.00000000000E+00  0.14291209792E+03  0.14291209794E+03  0.25500000920E-02 0.  1.
        2   -1    0    0  501    0  0.00000000000E+00  0.00000000000E+00 -0.21612353480E+04  0.21612353480E+04  0.25500000920E-02 0. -1.
    10030    2    1    2    0    0  0.00000000000E+00  0.00000000000E+00 -0.20183232501E+04  0.23041474460E+04  0.11115155018E+04 0.  0.
        2    1    3    3  502    0 -0.63197300318E+02 -0.37400512331E+03 -0.16713188228E+03  0.41449583485E+03  0.25500000920E-02 0.  1.
       -2    1    3    3    0  502  0.63197300318E+02  0.37400512331E+03 -0.18511913679E+04  0.18896516111E+04  0.25500000920E-02 0. -1.
</event>
<event>
 5   0  0.6109149E-04  0.1067856E+04  0.7818609E-02  0.9237100E-01
       -2   -1    0    0    0  501  0.00000000000E+00  0.00000000000E+00  0.18045227586E+03  0.18045227587E+03  0.25500000920E-02 0.  1.
        2   -1    0    0  501    0  0.00000000000E+00  0.00000000000E+00 -0.15798037279E+04  0.15798037279E+04  0.25500000920E-02 0. -1.
    10030    2    1    2    0    0  0.00000000000E+00  0.00000000000E+00 -0.13993514521E+04  0.17602560038E+04  0.10678561291E+04 0.  0.
        1    1    3    3  502    0  0.28548358584E+03  0.27146704524E+03 -0.12937501053E+04  0.13523995598E+04  0.50400001928E-02 0. -1.
       -1    1    3    3    0  502 -0.28548358584E+03 -0.27146704524E+03 -0.10560134678E+03  0.40785644398E+03  0.50400001928E-02 0.  1.
</event>
<event>
 5   0  0.6245176E-04  0.1098040E+04  0.7818609E-02  0.9207105E-01
        2   -1    0    0  501    0  0.00000000000E+00  0.00000000000E+00  0.64689018300E+03  0.64689018301E+03  0.25500000920E-02 0.  1.
       -2   -1    0    0    0  501  0.00000000000E+00  0.00000000000E+00 -0.46595653386E+03  0.46595653387E+03  0.25500000920E-02 0. -1.
    10030    2    1    2    0    0  0.00000000000E+00  0.00000000000E+00  0.18093364914E+03  0.11128467169E+04  0.10980395393E+04 0.  0.
        5    1    3    3  502    0  0.31091440835E+03 -0.44761208348E+03  0.23421350265E+02  0.54552268170E+03  0.46999998093E+01 0. -1.
       -5    1    3    3    0  502 -0.31091440835E+03  0.44761208348E+03  0.15751229887E+03  0.56732403518E+03  0.46999998093E+01 0.  1.
</event>
<event>
 5   0  0.3642161E-04  0.1100484E+04  0.7818609E-02  0.9204721E-01
        1   -1    0    0  501    0  0.00000000000E+00  0.00000000000E+00  0.98550294138E+03  0.98550294139E+03  0.50400001928E-02 0.  1.
       -1   -1    0    0    0  501  0.00000000000E+00  0.00000000000E+00 -0.30721981271E+03  0.30721981275E+03  0.50400001928E-02 0. -1.
    10030    2    1    2    0    0  0.00000000000E+00  0.00000000000E+00  0.67828312867E+03  0.12927227541E+04  0.11004835830E+04 0.  0.
        2    1    3    3  502    0 -0.23781101246E+03  0.40708866775E+03  0.58726085100E+01  0.47149734739E+03  0.25500000920E-02 0. -1.
       -2    1    3    3    0  502  0.23781101246E+03 -0.40708866775E+03  0.67241052016E+03  0.82122540675E+03  0.25500000920E-02 0.  1.
</event>
<event>
 5   0  0.3621403E-04  0.1100957E+04  0.7818609E-02  0.9204259E-01
        1   -1    0    0  501    0  0.00000000000E+00  0.00000000000E+00  0.13127237083E+04  0.13127237083E+04  0.50400001928E-02 0. -1.
       -1   -1    0    0    0  501  0.00000000000E+00  0.00000000000E+00 -0.23083814751E+03  0.23083814756E+03  0.50400001928E-02 0.  1.
    10030    2    1    2    0    0  0.00000000000E+00  0.00000000000E+00  0.10818855608E+04  0.15435618559E+04  0.11009572363E+04 0.  0.
        3    1    3    3  502    0  0.34859233158E+03  0.34730373167E+03  0.19498165658E+03  0.52929609131E+03  0.10100000352E+00 0.  1.
       -3    1    3    3    0  502 -0.34859233158E+03 -0.34730373167E+03  0.88690390422E+03  0.10142657646E+04  0.10100000352E+00 0. -1.
</event>
<event>
 5   0  0.3423758E-04  0.1099566E+04  0.7818609E-02  0.9205615E-01
        1   -1    0    0  501    0  0.00000000000E+00  0.00000000000E+00  0.37432836306E+03  0.37432836309E+03  0.50400001928E-02 0. -1.
       -1   -1    0    0    0  501  0.00000000000E+00  0.00000000000E+00 -0.80747716586E+03  0.80747716588E+03  0.50400001928E-02 0.  1.
    10030    2    1    2    0    0  0.00000000000E+00  0.00000000000E+00 -0.43314880280E+03  0.11818055290E+04  0.10995664704E+04 0.  0.
        1    1    3    3  502    0 -0.26665228475E+03  0.44191105404E+03 -0.42014126102E+03  0.66551295996E+03  0.50400001928E-02 0.  1.
       -1    1    3    3    0  502  0.26665228475E+03 -0.44191105404E+03 -0.13007541776E+02  0.51629256900E+03  0.50400001928E-02 0. -1.
</event>
<event>
 5   0  0.3642161E-04  0.1096324E+04  0.7818609E-02  0.9208782E-01
        1   -1    0    0  501    0  0.00000000000E+00  0.00000000000E+00  0.61658962062E+03  0.61658962064E+03  0.50400001928E-02 0.  1.
       -1   -1    0    0    0  501  0.00000000000E+00  0.00000000000E+00 -0.48732854139E+03  0.48732854141E+03  0.50400001928E-02 0. -1.
    10030    2    1    2    0    0  0.00000000000E+00  0.00000000000E+00  0.12926107923E+03  0.11039181621E+04  0.10963242595E+04 0.  0.
        2    1    3    3  502    0  0.47604571850E+03 -0.41264500002E+02 -0.20585522747E+03  0.52028709358E+03  0.25500000920E-02 0. -1.
       -2    1    3    3    0  502 -0.47604571850E+03  0.41264500002E+02  0.33511630670E+03  0.58363106847E+03  0.25500000920E-02 0.  1.
</event>
<event>
 5   0  0.5948818E-04  0.1099241E+04  0.7818609E-02  0.9205932E-01
       -2   -1    0    0    0  501  0.00000000000E+00  0.00000000000E+00  0.56136073353E+03  0.56136073354E+03  0.25500000920E-02 0. -1.
        2   -1    0    0  501    0  0.00000000000E+00  0.00000000000E+00 -0.53812551721E+03  0.53812551721E+03  0.25500000920E-02 0.  1.
    10030    2    1    2    0    0  0.00000000000E+00  0.00000000000E+00  0.23235216323E+02  0.10994862507E+04  0.10992407108E+04 0.  0.
        3    1    3    3  502    0 -0.31179279219E+03 -0.16469736980E+03  0.43330703225E+03  0.55865460106E+03  0.10100000352E+00 0. -1.
       -3    1    3    3    0  502  0.31179279219E+03  0.16469736980E+03 -0.41007181593E+03  0.54083164969E+03  0.10100000352E+00 0.  1.
</event>
<event>
 5   0  0.3642161E-04  0.1099978E+04  0.7818609E-02  0.9205214E-01
       -1   -1    0    0    0  501  0.00000000000E+00  0.00000000000E+00  0.28792986372E+03  0.28792986376E+03  0.50400001928E-02 0. -1.
        1   -1    0    0  501    0  0.00000000000E+00  0.00000000000E+00 -0.10505603464E+04  0.10505603464E+04  0.50400001928E-02 0.  1.
    10030    2    1    2    0    0  0.00000000000E+00  0.00000000000E+00 -0.76263048267E+03  0.13384902102E+04  0.10999776314E+04 0.  0.
        2    1    3    3  502    0  0.45980076051E+00  0.23186671544E+03  0.22554870623E+03  0.32347272533E+03  0.25500000920E-02 0. -1.
       -2    1    3    3    0  502 -0.45980076051E+00 -0.23186671544E+03 -0.98817918890E+03  0.10150174848E+04  0.25500000920E-02 0.  1.
</event>
<event>
 5   0  0.6245176E-04  0.1102730E+04  0.7818609E-02  0.9202535E-01
        2   -1    0    0  501    0  0.00000000000E+00  0.00000000000E+00  0.63731291607E+03  0.63731291608E+03  0.25500000920E-02 0.  1.
       -2   -1    0    0    0  501  0.00000000000E+00  0.00000000000E+00 -0.47700832844E+03  0.47700832845E+03  0.25500000920E-02 0. -1.
    10030    2    1    2    0    0  0.00000000000E+00  0.00000000000E+00  0.16030458763E+03  0.11143212445E+04  0.11027303728E+04 0.  0.
        5    1    3    3  502    0 -0.16688685247E+03  0.49179425978E+02 -0.44852140887E+03  0.48110641410E+03  0.46999998093E+01 0. -1.
       -5    1    3    3    0  502  0.16688685247E+03 -0.49179425978E+02  0.60882599650E+03  0.63321483043E+03  0.46999998093E+01 0.  1.
</event>
<event>
 5   0  0.6109149E-04  0.1099601E+04  0.7818609E-02  0.9205581E-01
       -2   -1    0    0    0  501  0.00000000000E+00  0.00000000000E+00  0.73037314633E+03  0.73037314633E+03  0.25500000920E-02 0.  1.
        2   -1    0    0  501    0  0.00000000000E+00  0.00000000000E+00 -0.41387165472E+03  0.41387165473E+03  0.25500000920E-02 0. -1.
    10030    2    1    2    0    0  0.00000000000E+00  0.00000000000E+00  0.31650149161E+03  0.11442448011E+04  0.10996012780E+04 0.  0.
        1    1    3    3  502    0  0.22718088196E+03 -0.22818142073E+02 -0.36220406787E+03  0.42816306186E+03  0.50400001928E-02 0. -1.
       -1    1    3    3    0  502 -0.22718088196E+03  0.22818142073E+02  0.67870555947E+03  0.71608173920E+03  0.50400001928E-02 0.  1.
</event>
<event>
 5   0  0.3523525E-04  0.1100991E+04  0.7818609E-02  0.9204227E-01
        1   -1    0    0  501    0  0.00000000000E+00  0.00000000000E+00  0.31257939175E+03  0.31257939179E+03  0.50400001928E-02 0. -1.
       -1   -1    0    0    0  501  0.00000000000E+00  0.00000000000E+00 -0.96949832693E+03  0.96949832695E+03  0.50400001928E-02 0.  1.
    10030    2    1    2    0    0  0.00000000000E+00  0.00000000000E+00 -0.65691893519E+03  0.12820777187E+04  0.11009908217E+04 0.  0.
        5    1    3    3  502    0 -0.69092174318E+02 -0.20944956292E+02  0.30701893294E+03  0.31542849416E+03  0.46999998093E+01 0. -1.
       -5    1    3    3    0  502  0.69092174318E+02  0.20944956292E+02 -0.96393786813E+03  0.96664922457E+03  0.46999998093E+01 0.  1.
</event>
<event>
 5   0  0.3621403E-04  0.1099449E+04  0.7818609E-02  0.9205729E-01
        1   -1    0    0  501    0  0.00000000000E+00  0.00000000000E+00  0.21383228820E+03  0.21383228826E+03  0.50400001928E-02 0. -1.
       -1   -1    0    0    0  501  0.00000000000E+00  0.00000000000E+00 -0.14132426541E+04  0.14132426541E+04  0.50400001928E-02 0.  1.
    10030    2    1    2    0    0  0.00000000000E+00  0.00000000000E+00 -0.11994103659E+04  0.16270749424E+04  0.10994487902E+04 0.  0.
        3    1    3    3  502    0 -0.16011089657E+03 -0.60339266273E+02 -0.13728319137E+04  0.13834535770E+04  0.10100000352E+00 0.  1.
       -3    1    3    3    0  502  0.16011089657E+03  0.60339266273E+02  0.17342154775E+03  0.24362136540E+03  0.10100000352E+00 0. -1.
</event>
<event>
 5   0  0.3657529E-04  0.1103288E+04  0.7818609E-02  0.9201993E-01
        1   -1    0    0  501    0  0.00000000000E+00  0.00000000000E+00  0.77147704626E+03  0.77147704627E+03  0.50400001928E-02 0. -1.
       -1   -1    0    0    0  501  0.00000000000E+00  0.00000000000E+00 -0.39445260897E+03  0.39445260901E+03  0.50400001928E-02 0.  1.
    10030    2    1    2    0    0  0.00000000000E+00  0.00000000000E+00  0.37702443728E+03  0.11659296553E+04  0.11032880561E+04 0.  0.
        4    1    3    3  502    0 -0.36698801154E+03 -0.41061915312E+03  0.22228334016E+03  0.59388533046E+03  0.12699999809E+01 0. -1.
       -4    1    3    3    0  502  0.36698801154E+03  0.41061915312E+03  0.15474109712E+03  0.57204432482E+03  0.12699999809E+01 0.  1.
</event>
<event>
 5   0  0.3523525E-04  0.1100130E+04  0.7818609E-02  0.9205065E-01
       -1   -1    0    0    0  501  0.00000000000E+00  0.00000000000E+00  0.25430231218E+03  0.25430231223E+03  0.50400001928E-02 0.  1.
        1   -1    0    0  501    0  0.00000000000E+00  0.00000000000E+00 -0.11898100123E+04  0.11898100123E+04  0.50400001928E-02 0. -1.
    10030    2    1    2    0    0  0.00000000000E+00  0.00000000000E+00 -0.93550770010E+03  0.14441123245E+04  0.11001298782E+04 0.  0.
        5    1    3    3  502    0 -0.33577230097E+03 -0.37215964948E+02 -0.10375532542E+04  0.10911768470E+04  0.46999998093E+01 0. -1.
       -5    1    3    3    0  502  0.33577230097E+03  0.37215964948E+02  0.10204555414E+03  0.35293547748E+03  0.46999998093E+01 0.  1.
</event>
<event>
 5   0  0.6412712E-04  0.1096932E+04  0.7818609E-02  0.9208187E-01
       -2   -1    0    0    0  501  0.00000000000E+00  0.00000000000E+00  0.17674101874E+03  0.17674101876E+03  0.25500000920E-02 0. -1.
        2   -1    0    0  501    0  0.00000000000E+00  0.00000000000E+00 -0.17020104064E+04  0.17020104064E+04  0.25500000920E-02 0.  1.
    10030    2    1    2    0    0  0.00000000000E+00  0.00000000000E+00 -0.15252693877E+04  0.18787514252E+04  0.10969321823E+04 0.  0.
        2    1    3    3  502    0  0.20535104827E+03 -0.50754103785E+03 -0.70718618466E+03  0.89435969157E+03  0.25500000920E-02 0.  1.
       -2    1    3    3    0  502 -0.20535104827E+03  0.50754103785E+03 -0.81808320303E+03  0.98439173362E+03  0.25500000920E-02 0. -1.
</event>
<event>
 5   0  0.3642161E-04  0.1099932E+04  0.7818609E-02  0.9205258E-01
        1   -1    0    0  501    0  0.00000000000E+00  0.00000000000E+00  0.48954142723E+03  0.48954142725E+03  0.50400001928E-02 0. -1.
       -1   -1    0    0    0  501  0.00000000000E+00  0.00000000000E+00 -0.61784923697E+03  0.61784923699E+03  0.50400001928E-02 0.  1.
    10030    2    1    2    0    0  0.00000000000E+00  0.00000000000E+00 -0.12830780974E+03  0.11073906642E+04  0.10999323567E+04 0.  0.
        2    1    3    3  502    0  0.42261584552E+03 -0.81751472323E+02  0.28047602641E+03  0.51376478811E+03  0.25500000920E-02 0. -1.
       -2    1    3    3    0  502 -0.42261584552E+03  0.81751472323E+02 -0.40878383615E+03  0.59362587613E+03  0.25500000920E-02 0.  1.
</event>
<event>
 5   0  0.6245176E-04  0.1100535E+04  0.7818609E-02  0.9204671E-01
        2   -1    0    0  501    0  0.00000000000E+00  0.00000000000E+00  0.10762846182E+04  0.10762846182E+04  0.25500000920E-02 0. -1.
       -2   -1    0    0    0  501  0.00000000000E+00  0.00000000000E+00 -0.28133274692E+03  0.28133274693E+03  0.25500000920E-02 0.  1.
    10030    2    1    2    0    0  0.00000000000E+00  0.00000000000E+00  0.79495187125E+03  0.13576173651E+04  0.11005346121E+04 0.  0.
        5    1    3    3  502    0 -0.35046583158E+03 -0.17597391994E+03  0.87361746003E+03  0.95761300955E+03  0.46999998093E+01 0. -1.
       -5    1    3    3    0  502  0.35046583158E+03  0.17597391994E+03 -0.78665588779E+02  0.40000435555E+03  0.46999998093E+01 0.  1.
</event>
<event>
 5   0  0.3423758E-04  0.1100942E+04  0.7818609E-02  0.9204274E-01
       -1   -1    0    0    0  501  0.00000000000E+00  0.00000000000E+00  0.18756620444E+03  0.18756620451E+03  0.50400001928E-02 0. -1.
        1   -1    0    0  501    0  0.00000000000E+00  0.00000000000E+00 -0.16155281479E+04  0.16155281479E+04  0.50400001928E-02 0.  1.
    10030    2    1    2    0    0  0.00000000000E+00  0.00000000000E+00 -0.14279619435E+04  0.18030943524E+04  0.11009422927E+04 0.  0.
        1    1    3    3  502    0  0.39199662829E+03 -0.33657204658E+03 -0.40290576613E+03  0.65519093060E+03  0.50400001928E-02 0. -1.
       -1    1    3    3    0  502 -0.39199662829E+03  0.33657204658E+03 -0.10250561774E+04  0.11479034218E+04  0.50400001928E-02 0.  1.
</event>
<event>
 5   0  0.5948818E-04  0.1104062E+04  0.7818609E-02  0.9201242E-01
        2   -1    0    0  501    0  0.00000000000E+00  0.00000000000E+00  0.14948011686E+04  0.14948011686E+04  0.25500000920E-02 0. -1.
       -2   -1    0    0    0  501  0.00000000000E+00  0.00000000000E+00 -0.20386549338E+03  0.20386549339E+03  0.25500000920E-02 0.  1.
    10030    2    1    2    0    0  0.00000000000E+00  0.00000000000E+00  0.12909356752E+04  0.16986666620E+04  0.11040622768E+04 0.  0.
        3    1    3    3  502    0  0.44779559291E+03 -0.32193325437E+03  0.68240784801E+03  0.87740663009E+03  0.10100000352E+00 0. -1.
       -3    1    3    3    0  502 -0.44779559291E+03  0.32193325437E+03  0.60852782722E+03  0.82126003190E+03  0.10100000352E+00 0.  1.
</event>
<event>
 5   0  0.6245176E-04  0.1100854E+04  0.7818609E-02  0.9204360E-01
       -2   -1    0    0    0  501  0.00000000000E+00  0.00000000000E+00  0.41883399589E+03  0.41883399590E+03  0.25500000920E-02 0. -1.
        2   -1    0    0  501    0  0.00000000000E+00  0.00000000000E+00 -0.72336441666E+03  0.72336441667E+03  0.25500000920E-02 0.  1.
    10030    2    1    2    0    0  0.00000000000E+00  0.00000000000E+00 -0.30453042077E+03  0.11421984126E+04  0.11008535036E+04 0.  0.
        5    1    3    3  502    0 -0.48542922317E+03 -0.25942158268E+03 -0.14963405603E+03  0.57039769371E+03  0.46999998093E+01 0.  1.
       -5    1    3    3    0  502  0.48542922317E+03  0.25942158268E+03 -0.15489636474E+03  0.57180071885E+03  0.46999998093E+01 0. -1.
</event>
<event>
 5   0  0.6245176E-04  0.1099728E+04  0.7818609E-02  0.9205457E-01
        2   -1    0    0  501    0  0.00000000000E+00  0.00000000000E+00  0.25418253397E+04  0.25418253397E+04  0.25500000920E-02 0. -1.
       -2   -1    0    0    0  501  0.00000000000E+00  0.00000000000E+00 -0.11895010552E+03  0.11895010555E+03  0.25500000920E-02 0.  1.
    10030    2    1    2    0    0  0.00000000000E+00  0.00000000000E+00  0.24228752342E+04  0.26607754453E+04  0.10997279526E+04 0.  0.
        5    1    3    3  502    0  0.50716868505E+03 -0.21152316866E+03  0.11651389851E+04  0.12882286562E+04  0.46999998093E+01 0.  1.
       -5    1    3    3    0  502 -0.50716868505E+03  0.21152316866E+03  0.12577362491E+04  0.13725467891E+04  0.46999998093E+01 0. -1.
</event>
<event>
 5   0  0.5948818E-04  0.1099980E+04  0.7818609E-02  0.9205211E-01
       -2   -1    0    0    0  501  0.00000000000E+00  0.00000000000E+00  0.52666192207E+03  0.52666192207E+03  0.25500000920E-02 0.  1.
        2   -1    0    0  501    0  0.00000000000E+00  0.00000000000E+00 -0.57435156766E+03  0.57435156766E+03  0.25500000920E-02 0. -1.
    10030    2    1    2    0    0  0.00000000000E+00  0.00000000000E+00 -0.47689645594E+02  0.11010134897E+04  0.10999801827E+04 0.  0.
        3    1    3    3  502    0 -0.91094465425E+02 -0.20483845835E+03  0.47885409742E+03  0.52873268527E+03  0.10100000352E+00 0.  1.
       -3    1    3    3    0  502  0.91094465425E+02  0.20483845835E+03 -0.52654374302E+03  0.57228080447E+03  0.10100000352E+00 0. -1.
</event>
<event>
 5   0  0.3423758E-04  0.1099758E+04  0.7818609E-02  0.9205428E-01
       -1   -1    0    0    0  501  0.00000000000E+00  0.00000000000E+00  0.87562623439E+03  0.87562623440E+03  0.50400001928E-02 0.  1.
        1   -1    0    0  501    0  0.00000000000E+00  0.00000000000E+00 -0.34531483153E+03  0.34531483157E+03  0.50400001928E-02 0. -1.
    10030    2    1    2    0    0  0.00000000000E+00  0.00000000000E+00  0.53031140286E+03  0.12209410660E+04  0.10997576563E+04 0.  0.
        1    1    3    3  502    0  0.57632222932E+02 -0.41877034735E+03  0.65558424568E+03  0.78005178042E+03  0.50400001928E-02 0.  1.
       -1    1    3    3    0  502 -0.57632222932E+02  0.41877034735E+03 -0.12527284282E+03  0.44088928555E+03  0.50400001928E-02 0. -1.
</event>
<event>
 5   0  0.3642161E-04  0.1099076E+04  0.7818609E-02  0.9206093E-01
       -1   -1    0    0    0  501  0.00000000000E+00  0.00000000000E+00  0.47043030018E+03  0.47043030020E+03  0.50400001928E-02 0. -1.
        1   -1    0    0  501    0  0.00000000000E+00  0.00000000000E+00 -0.64194824837E+03  0.64194824839E+03  0.50400001928E-02 0.  1.
    10030    2    1    2    0    0  0.00000000000E+00  0.00000000000E+00 -0.17151794819E+03  0.11123785486E+04  0.10990758067E+04 0.  0.
        2    1    3    3  502    0  0.19396807547E+03 -0.21986154833E+03 -0.55617399219E+03  0.62872269271E+03  0.25500000920E-02 0.  1.
       -2    1    3    3    0  502 -0.19396807547E+03  0.21986154833E+03  0.38465604400E+03  0.48365585588E+03  0.25500000920E-02 0. -1.
</event>
<event>
 5   0  0.3523525E-04  0.1104887E+04  0.7818609E-02  0.9200442E-01
       -1   -1    0    0    0  501  0.00000000000E+00  0.00000000000E+00  0.99323674422E+03  0.99323674423E+03  0.50400001928E-02 0.  1.
        1   -1    0    0  501    0  0.00000000000E+00  0.00000000000E+00 -0.30727178960E+03  0.30727178964E+03  0.50400001928E-02 0. -1.
    10030    2    1    2    0    0  0.00000000000E+00  0.00000000000E+00  0.68596495462E+03  0.13005085339E+04  0.11048866583E+04 0.  0.
        5    1    3    3  502    0  0.26460370017E+03 -0.35155157711E+03 -0.50173724137E+02  0.44288048286E+03  0.46999998093E+01 0. -1.
       -5    1    3    3    0  502 -0.26460370017E+03  0.35155157711E+03  0.73613867876E+03  0.85762805100E+03  0.46999998093E+01 0.  1.
</event>
<event>
 5   0  0.6412712E-04  0.1099990E+04  0.7818609E-02  0.9205202E-01
        2   -1    0    0  501    0  0.00000000000E+00  0.00000000000E+00  0.14099441870E+04  0.14099441870E+04  0.25500000920E-02 0. -1.
       -2   -1    0    0    0  501  0.00000000000E+00  0.00000000000E+00 -0.21454343341E+03  0.21454343342E+03  0.25500000920E-02 0.  1.
    10030    2    1    2    0    0  0.00000000000E+00  0.00000000000E+00  0.11954007536E+04  0.16244876204E+04  0.10999895759E+04 0.  0.
        2    1    3    3  502    0  0.40969383242E+03  0.28440445005E+03  0.94011696653E+03  0.10642155977E+04  0.25500000920E-02 0. -1.
       -2    1    3    3    0  502 -0.40969383242E+03 -0.28440445005E+03  0.25528378703E+03  0.56027202273E+03  0.25500000920E-02 0.  1.
</event>
<event>
 5   0  0.3621403E-04  0.1100827E+04  0.7818609E-02  0.9204386E-01
       -1   -1    0    0    0  501  0.00000000000E+00  0.00000000000E+00  0.31344147532E+03  0.31344147536E+03  0.50400001928E-02 0.  1.
        1   -1    0    0  501    0  0.00000000000E+00  0.00000000000E+00 -0.96654427296E+03  0.96654427297E+03  0.50400001928E-02 0. -1.
    10030    2    1    2    0    0  0.00000000000E+00  0.00000000000E+00 -0.65310279764E+03  0.12799857483E+04  0.11008270762E+04 0.  0.
        3    1    3    3  502    0 -0.64318060353E+02  0.11733642492E+03  0.29424167226E+03  0.32323802591E+03  0.10100000352E+00 0.  1.
       -3    1    3    3    0  502  0.64318060353E+02 -0.11733642492E+03 -0.94734446990E+03  0.95674772242E+03  0.10100000352E+00 0. -1.
</event>
<event>
 5   0  0.3657529E-04  0.1098655E+04  0.7818609E-02  0.9206504E-01
        1   -1    0    0  501    0  0.00000000000E+00  0.00000000000E+00  0.19260568365E+04  0.19260568365E+04  0.50400001928E-02 0. -1.
       -1   -1    0    0    0  501  0.00000000000E+00  0.00000000000E+00 -0.15667283681E+03  0.15667283689E+03  0.50400001928E-02 0.  1.
    10030    2    1    2    0    0  0.00000000000E+00  0.00000000000E+00  0.17693839997E+04  0.20827296734E+04  0.10986551570E+04 0.  0.
        4    1    3    3  502    0 -0.48178865732E+03 -0.24845615811E+03  0.71610817761E+03  0.89814436911E+03  0.12699999809E+01 0.  1.
       -4    1    3    3    0  502  0.48178865732E+03  0.24845615811E+03  0.10532758221E+04  0.11845853043E+04  0.12699999809E+01 0. -1.
</event>
<event>
 5   0  0.6264830E-04  0.1096208E+04  0.7818609E-02  0.9208895E-01
        2   -1    0    0  501    0  0.00000000000E+00  0.00000000000E+00  0.80338628429E+03  0.80338628429E+03  0.25500000920E-02 0.  1.
       -2   -1    0    0    0  501  0.00000000000E+00  0.00000000000E+00 -0.37393995766E+03  0.37393995767E+03  0.25500000920E-02 0. -1.
    10030    2    1    2    0    0  0.00000000000E+00  0.00000000000E+00  0.42944632663E+03  0.11773262420E+04  0.10962084348E+04 0.  0.
        4    1    3    3  502    0 -0.20584121914E+03  0.28273447138E+03  0.66798010209E+03  0.75399497246E+03  0.12699999809E+01 0.  1.
       -4    1    3    3    0  502  0.20584121914E+03 -0.28273447138E+03 -0.23853377546E+03  0.42333126950E+03  0.12699999809E+01 0. -1.
</event>
<event>
 5   0  0.2403875E-04  0.1098753E+04  0.7818609E-02  0.9206408E-01
        3   -1    0    0  501    0  0.00000000000E+00  0.00000000000E+00  0.59663385593E+03  0.59663386447E+03  0.10100000352E+00 0.  1.
       -3   -1    0    0    0  501  0.00000000000E+00  0.00000000000E+00 -0.50586214901E+03  0.50586215909E+03  0.10100000352E+00 0. -1.
    10030    2    1    2    0    0  0.00000000000E+00  0.00000000000E+00  0.90771706918E+02  0.11024960236E+04  0.10987529200E+04 0.  0.
        3    1    3    3  502    0  0.26639255346E+03 -0.11880029826E+03 -0.42174924301E+03  0.51278741949E+03  0.10100000352E+00 0. -1.
       -3    1    3    3    0  502 -0.26639255346E+03  0.11880029826E+03  0.51252094992E+03  0.58970860408E+03  0.10100000352E+00 0.  1.
</event>
<event>
 5   0  0.3657529E-04  0.1101218E+04  0.7818609E-02  0.9204006E-01
        1   -1    0    0  501    0  0.00000000000E+00  0.00000000000E+00  0.44082686314E+03  0.44082686317E+03  0.50400001928E-02 0.  1.
       -1   -1    0    0    0  501  0.00000000000E+00  0.00000000000E+00 -0.68773074471E+03  0.68773074473E+03  0.50400001928E-02 0. -1.
    10030    2    1    2    0    0  0.00000000000E+00  0.00000000000E+00 -0.24690388157E+03  0.11285576079E+04  0.11012178475E+04 0.  0.
        4    1    3    3  502    0 -0.72091134806E+02  0.54399663754E+03 -0.77174448141E+02  0.55415429415E+03  0.12699999809E+01 0. -1.
       -4    1    3    3    0  502  0.72091134806E+02 -0.54399663754E+03 -0.16972943343E+03  0.57440331375E+03  0.12699999809E+01 0.  1.
</event>
<event>
 5   0  0.3657529E-04  0.1100249E+04  0.7818609E-02  0.9204949E-01
        1   -1    0    0  501    0  0.00000000000E+00  0.00000000000E+00  0.68749183804E+03  0.68749183806E+03  0.50400001928E-02 0. -1.
       -1   -1    0    0    0  501  0.00000000000E+00  0.00000000000E+00 -0.44020437906E+03  0.44020437909E+03  0.50400001928E-02 0.  1.
    10030    2    1    2    0    0  0.00000000000E+00  0.00000000000E+00  0.24728745898E+03  0.11276962171E+04  0.11002489131E+04 0.  0.
        4    1    3    3  502    0 -0.17041417771E+03  0.51857563402E+03  0.53574379297E+02  0.54848291421E+03  0.12699999809E+01 0.  1.
       -4    1    3    3    0  502  0.17041417771E+03 -0.51857563402E+03  0.19371307969E+03  0.57921330294E+03  0.12699999809E+01 0. -1.
</event>
<event>
 5   0  0.3423758E-04  0.1096815E+04  0.7818609E-02  0.9208302E-01
       -1   -1    0    0    0  501  0.00000000000E+00  0.00000000000E+00  0.43934945737E+03  0.43934945740E+03  0.50400001928E-02 0.  1.
        1   -1    0    0  501    0  0.00000000000E+00  0.00000000000E+00 -0.68453642512E+03  0.68453642514E+03  0.50400001928E-02 0. -1.
    10030    2    1    2    0    0  0.00000000000E+00  0.00000000000E+00 -0.24518696774E+03  0.11238858825E+04  0.10968148558E+04 0.  0.
        1    1    3    3  502    0 -0.21329726352E+03  0.47619403861E+02  0.39279928113E+03  0.44950484483E+03  0.50400001928E-02 0.  1.
       -1    1    3    3    0  502  0.21329726352E+03 -0.47619403861E+02 -0.63798624887E+03  0.67438103771E+03  0.50400001928E-02 0. -1.
</event>
<event>
 5   0  0.6109149E-04  0.1099548E+04  0.7818609E-02  0.9205633E-01
        2   -1    0    0  501    0  0.00000000000E+00  0.00000000000E+00  0.12746452514E+04  0.12746452514E+04  0.25500000920E-02 0.  1.
       -2   -1    0    0    0  501  0.00000000000E+00  0.00000000000E+00 -0.23712593471E+03  0.23712593472E+03  0.25500000920E-02 0. -1.
    10030    2    1    2    0    0  0.00000000000E+00  0.00000000000E+00  0.10375193167E+04  0.15117711861E+04  0.10995479920E+04 0.  0.
        1    1    3    3  502    0  0.36775967888E+03  0.40266215260E+03  0.61468268985E+03  0.82171698277E+03  0.50400001928E-02 0.  1.
       -1    1    3    3    0  502 -0.36775967888E+03 -0.40266215260E+03  0.42283662685E+03  0.69005420336E+03  0.50400001928E-02 0. -1.
</event>
<event>
 5   0  0.3621403E-04  0.1099321E+04  0.7818609E-02  0.9205854E-01
       -1   -1    0    0    0  501  0.00000000000E+00  0.00000000000E+00  0.37943231450E+03  0.37943231453E+03  0.50400001928E-02 0. -1.
        1   -1    0    0  501    0  0.00000000000E+00  0.00000000000E+00 -0.79625944459E+03  0.79625944460E+03  0.50400001928E-02 0.  1.
    10030    2    1    2    0    0  0.00000000000E+00  0.00000000000E+00 -0.41682713009E+03  0.11756917591E+04  0.10993208158E+04 0.  0.
        3    1    3    3  502    0 -0.42511755269E+03 -0.26529091589E+03 -0.44998704310E+03  0.67349280086E+03  0.10100000352E+00 0.  1.
       -3    1    3    3    0  502  0.42511755269E+03  0.26529091589E+03  0.33159913007E+02  0.50219895827E+03  0.10100000352E+00 0. -1.
</event>
<event>
 5   0  0.6412712E-04  0.1100365E+04  0.7818609E-02  0.9204836E-01
        2   -1    0    0  501    0  0.00000000000E+00  0.00000000000E+00  0.18724429572E+04  0.18724429572E+04  0.25500000920E-02 0. -1.
       -2   -1    0    0    0  501  0.00000000000E+00  0.00000000000E+00 -0.16166095564E+03  0.16166095566E+03  0.25500000920E-02 0.  1.
    10030    2    1    2    0    0  0.00000000000E+00  0.00000000000E+00  0.17107820016E+04  0.20341039129E+04  0.11003652446E+04 0.  0.
        2    1    3    3  502    0 -0.12528615520E+03 -0.44276387853E+03  0.14129259646E+04  0.14859664378E+04  0.25500000920E-02 0. -1.
       -2    1    3    3    0  502  0.12528615520E+03  0.44276387853E+03  0.29785603697E+03  0.54813747508E+03  0.25500000920E-02 0.  1.
</event>
<event>
 5   0  0.5948818E-04  0.1100458E+04  0.7818609E-02  0.9204746E-01
       -2   -1    0    0    0  501  0.00000000000E+00  0.00000000000E+00  0.13159042045E+03  0.13159042047E+03  0.25500000920E-02 0.  1.
        2   -1    0    0  501    0  0.00000000000E+00  0.00000000000E+00 -0.23007126635E+04  0.23007126635E+04  0.25500000920E-02 0. -1.
    10030    2    1    2    0    0  0.00000000000E+00  0.00000000000E+00 -0.21691222431E+04  0.24323030840E+04  0.11004576262E+04 0.  0.
        3    1    3    3  502    0 -0.24636801203E+03  0.20772973366E+03 -0.20703068874E+04  0.20952373273E+04  0.10100000352E+00 0. -1.
       -3    1    3    3    0  502  0.24636801203E+03 -0.20772973366E+03 -0.98815355670E+02  0.33706575666E+03  0.10100000352E+00 0.  1.
</event>
<event>
 5   0  0.2403875E-04  0.1097932E+04  0.7818609E-02  0.9207210E-01
        3   -1    0    0  501    0  0.00000000000E+00  0.00000000000E+00  0.78187000146E+03  0.78187000798E+03  0.10100000352E+00 0.  1.
       -3   -1    0    0    0  501  0.00000000000E+00  0.00000000000E+00 -0.38543969313E+03  0.38543970637E+03  0.10100000352E+00 0. -1.
    10030    2    1    2    0    0  0.00000000000E+00  0.00000000000E+00  0.39643030833E+03  0.11673097143E+04  0.10979321381E+04 0.  0.
        2    1    3    3  502    0 -0.14106511372E+03 -0.26550663909E+03  0.68655433952E+03  0.74949983511E+03  0.25500000920E-02 0.  1.
       -2    1    3    3    0  502  0.14106511372E+03  0.26550663909E+03 -0.29012403119E+03  0.41780987924E+03  0.25500000920E-02 0. -1.
</event>
<event>
 5   0  0.3523525E-04  0.1099617E+04  0.7818609E-02  0.9205565E-01
        1   -1    0    0  501    0  0.00000000000E+00  0.00000000000E+00  0.37887770003E+03  0.37887770006E+03  0.50400001928E-02 0.  1.
       -1   -1    0    0    0  501  0.00000000000E+00  0.00000000000E+00 -0.79785506287E+03  0.79785506289E+03  0.50400001928E-02 0. -1.
    10030    2    1    2    0    0  0.00000000000E+00  0.00000000000E+00 -0.41897736285E+03  0.11767327629E+04  0.10996171901E+04 0.  0.
        5    1    3    3  502    0  0.53139269356E+03  0.14008917999E+03 -0.19209362622E+03  0.58217284749E+03  0.46999998093E+01 0. -1.
       -5    1    3    3    0  502 -0.53139269356E+03 -0.14008917999E+03 -0.22688373663E+03  0.59455991546E+03  0.46999998093E+01 0.  1.
</event>
<event>
 5   0  0.6264830E-04  0.1098056E+04  0.7818609E-02  0.9207089E-01
        2   -1    0    0  501    0  0.00000000000E+00  0.00000000000E+00  0.10975003223E+04  0.10975003223E+04  0.25500000920E-02 0. -1.
       -2   -1    0    0    0  501  0.00000000000E+00  0.00000000000E+00 -0.27465304717E+03  0.27465304718E+03  0.25500000920E-02 0.  1.
    10030    2    1    2    0    0  0.00000000000E+00  0.00000000000E+00  0.82284727518E+03  0.13721533695E+04  0.10980561148E+04 0.  0.
        4    1    3    3  502    0 -0.18646087347E+03  0.37809469686E+03 -0.28092828287E+02  0.42250926266E+03  0.12699999809E+01 0.  1.
       -4    1    3    3    0  502  0.18646087347E+03 -0.37809469686E+03  0.85094010346E+03  0.94964410687E+03  0.12699999809E+01 0. -1.
</event>
<event>
 5   0  0.6264830E-04  0.1100858E+04  0.7818609E-02  0.9204356E-01
        2   -1    0    0  501    0  0.00000000000E+00  0.00000000000E+00  0.15531934448E+04  0.15531934448E+04  0.25500000920E-02 0. -1.
       -2   -1    0    0    0  501  0.00000000000E+00  0.00000000000E+00 -0.19506412774E+03  0.19506412775E+03  0.25500000920E-02 0.  1.
    10030    2    1    2    0    0  0.00000000000E+00  0.00000000000E+00  0.13581293171E+04  0.17482575725E+04  0.11008584369E+04 0.  0.
        4    1    3    3  502    0  0.29029657185E+02  0.40628088779E+03  0.91121453054E+02  0.41738664675E+03  0.12699999809E+01 0.  1.
       -4    1    3    3    0  502 -0.29029657185E+02 -0.40628088779E+03  0.12670078640E+04  0.13308709258E+04  0.12699999809E+01 0. -1.
</event>
<event>
 5   0  0.6412712E-04  0.1100161E+04  0.7818609E-02  0.9205034E-01
        2   -1    0    0  501    0  0.00000000000E+00  0.00000000000E+00  0.31890918564E+03  0.31890918565E+03  0.25500000920E-02 0. -1.
       -2   -1    0    0    0  501  0.00000000000E+00  0.00000000000E+00 -0.94882443189E+03  0.94882443189E+03  0.25500000920E-02 0.  1.
    10030    2    1    2    0    0  0.00000000000E+00  0.00000000000E+00 -0.62991524625E+03  0.12677336175E+04  0.11001614916E+04 0.  0.
        2    1    3    3  502    0  0.21325278426E+03 -0.16396145968E+03 -0.86786363716E+03  0.90859639168E+03  0.25500000920E-02 0.  1.
       -2    1    3    3    0  502 -0.21325278426E+03  0.16396145968E+03  0.23794839091E+03  0.35913722586E+03  0.25500000920E-02 0. -1.
</event>
<event>
 5   0  0.3621403E-04  0.1099965E+04  0.7818609E-02  0.9205226E-01
        1   -1    0    0  501    0  0.00000000000E+00  0.00000000000E+00  0.14549619136E+04  0.14549619136E+04  0.50400001928E-02 0.  1.
       -1   -1    0    0    0  501  0.00000000000E+00  0.00000000000E+00 -0.20789614429E+03  0.20789614435E+03  0.50400001928E-02 0. -1.
    10030    2    1    2    0    0  0.00000000000E+00  0.00000000000E+00  0.12470657693E+04  0.16628580580E+04  0.10999654031E+04 0.  0.
        3    1    3    3  502    0  0.47055699889E+03 -0.12712023158E+03  0.10086476784E+04  0.11202471119E+04  0.10100000352E+00 0.  1.
       -3    1    3    3    0  502 -0.47055699889E+03  0.12712023158E+03  0.23841809095E+03  0.54261094605E+03  0.10100000352E+00 0. -1.
</event>
<event>
 5   0  0.5948818E-04  0.1102016E+04  0.7818609E-02  0.9203229E-01
        2   -1    0    0  501    0  0.00000000000E+00  0.00000000000E+00  0.14056499794E+04  0.14056499794E+04  0.25500000920E-02 0.  1.
       -2   -1    0    0    0  501  0.00000000000E+00  0.00000000000E+00 -0.21599236722E+03  0.21599236724E+03  0.25500000920E-02 0. -1.
    10030    2    1    2    0    0  0.00000000000E+00  0.00000000000E+00  0.11896576122E+04  0.16216423466E+04  0.11020157287E+04 0.  0.
        3    1    3    3  502    0 -0.45339335634E+03 -0.30815713317E+03  0.51311878544E+03  0.75087765479E+03  0.10100000352E+00 0. -1.
       -3    1    3    3    0  502  0.45339335634E+03  0.30815713317E+03  0.67653882674E+03  0.87076469185E+03  0.10100000352E+00 0.  1.
</event>
<event>
 5   0  0.3523525E-04  0.1099229E+04  0.7818609E-02  0.9205943E-01
        1   -1    0    0  501    0  0.00000000000E+00  0.00000000000E+00  0.14504244457E+04  0.14504244457E+04  0.50400001928E-02 0. -1.
       -1   -1    0    0    0  501  0.00000000000E+00  0.00000000000E+00 -0.20826756805E+03  0.20826756811E+03  0.50400001928E-02 0.  1.
    10030    2    1    2    0    0  0.00000000000E+00  0.00000000000E+00  0.12421568777E+04  0.16586920138E+04  0.10992294974E+04 0.  0.
        5    1    3    3  502    0 -0.30197262859E+03 -0.44419769955E+03  0.79676179594E+03  0.96091129360E+03  0.46999998093E+01 0. -1.
       -5    1    3    3    0  502  0.30197262859E+03  0.44419769955E+03  0.44539508172E+03  0.69778072023E+03  0.46999998093E+01 0.  1.
</event>
<event>
 5   0  0.3621403E-04  0.1099141E+04  0.7818609E-02  0.9206029E-01
        1   -1    0    0  501    0  0.00000000000E+00  0.00000000000E+00  0.66623241765E+03  0.66623241767E+03  0.50400001928E-02 0. -1.
       -1   -1    0    0    0  501  0.00000000000E+00  0.00000000000E+00 -0.45333690640E+03  0.45333690643E+03  0.50400001928E-02 0.  1.
    10030    2    1    2    0    0  0.00000000000E+00  0.00000000000E+00  0.21289551125E+03  0.11195693241E+04  0.10991410159E+04 0.  0.
        3    1    3    3  502    0  0.31425546655E+03  0.10600069968E+03  0.55281042750E+03  0.64466427351E+03  0.10100000352E+00 0. -1.
       -3    1    3    3    0  502 -0.31425546655E+03 -0.10600069968E+03 -0.33991491625E+03  0.47490505059E+03  0.10100000352E+00 0.  1.
</event>
<event>
 5   0  0.3523525E-04  0.1099614E+04  0.7818609E-02  0.9205569E-01
       -1   -1    0    0    0  501  0.00000000000E+00  0.00000000000E+00  0.31064833271E+03  0.31064833276E+03  0.50400001928E-02 0.  1.
        1   -1    0    0  501    0  0.00000000000E+00  0.00000000000E+00 -0.97308576174E+03  0.97308576175E+03  0.50400001928E-02 0. -1.
    10030    2    1    2    0    0  0.00000000000E+00  0.00000000000E+00 -0.66243742902E+03  0.12837340945E+04  0.10996135130E+04 0.  0.
        5    1    3    3  502    0 -0.22930053455E+03 -0.41861235789E+03 -0.64976191920E+03  0.80624294289E+03  0.46999998093E+01 0. -1.
       -5    1    3    3    0  502  0.22930053455E+03  0.41861235789E+03 -0.12675509826E+02  0.47749115162E+03  0.46999998093E+01 0.  1.
</event>
<event>
 5   0  0.6264830E-04  0.1097934E+04  0.7818609E-02  0.9207208E-01
        2   -1    0    0  501    0  0.00000000000E+00  0.00000000000E+00  0.82749954275E+03  0.82749954275E+03  0.25500000920E-02 0. -1.
       -2   -1    0    0    0  501  0.00000000000E+00  0.00000000000E+00 -0.36418694932E+03  0.36418694933E+03  0.25500000920E-02 0.  1.
    10030    2    1    2    0    0  0.00000000000E+00  0.00000000000E+00  0.46331259342E+03  0.11916864921E+04  0.10979335755E+04 0.  0.
        4    1    3    3  502    0  0.52326902666E+03 -0.11547906651E+03  0.36107302666E+03  0.64615882919E+03  0.12699999809E+01 0. -1.
       -4    1    3    3    0  502 -0.52326902666E+03  0.11547906651E+03  0.10223956676E+03  0.54552766289E+03  0.12699999809E+01 0.  1.
</event>
<event>
 5   0  0.3657529E-04  0.1100230E+04  0.7818609E-02  0.9204968E-01
        1   -1    0    0  501    0  0.00000000000E+00  0.00000000000E+00  0.14506004614E+04  0.14506004615E+04  0.50400001928E-02 0. -1.
       -1   -1    0    0    0  501  0.00000000000E+00  0.00000000000E+00 -0.20862159838E+03  0.20862159844E+03  0.50400001928E-02 0.  1.
    10030    2    1    2    0    0  0.00000000000E+00  0.00000000000E+00  0.12419788631E+04  0.16592220599E+04  0.11002301340E+04 0.  0.
        4    1    3    3  502    0 -0.67417354849E+02 -0.19479513363E+03  0.13901555521E+04  0.14053555834E+04  0.12699999809E+01 0. -1.
       -4    1    3    3    0  502  0.67417354849E+02  0.19479513363E+03 -0.14817668903E+03  0.25386647651E+03  0.12699999809E+01 0.  1.
</event>
<event>
 5   0  0.3621403E-04  0.1100337E+04  0.7818609E-02  0.9204863E-01
       -1   -1    0    0    0  501  0.00000000000E+00  0.00000000000E+00  0.19245957579E+03  0.19245957586E+03  0.50400001928E-02 0. -1.
        1   -1    0    0  501    0  0.00000000000E+00  0.00000000000E+00 -0.15727231768E+04  0.15727231768E+04  0.50400001928E-02 0.  1.
    10030    2    1    2    0    0  0.00000000000E+00  0.00000000000E+00 -0.13802636010E+04  0.17651827526E+04  0.11003374673E+04 0.  0.
        3    1    3    3  502    0 -0.36311613590E+03  0.41325731635E+02 -0.30400616626E+02  0.36672244538E+03  0.10100000352E+00 0. -1.
       -3    1    3    3    0  502  0.36311613590E+03 -0.41325731635E+02 -0.13498629844E+04  0.13984603073E+04  0.10100000352E+00 0.  1.
</event>
<event>
 5   0  0.6412712E-04  0.1099573E+04  0.7818609E-02  0.9205609E-01
       -2   -1    0    0    0  501  0.00000000000E+00  0.00000000000E+00  0.25509551768E+03  0.25509551770E+03  0.25500000920E-02 0.  1.
        2   -1    0    0  501    0  0.00000000000E+00  0.00000000000E+00 -0.11849088792E+04  0.11849088792E+04  0.25500000920E-02 0. -1.
    10030    2    1    2    0    0  0.00000000000E+00  0.00000000000E+00 -0.92981336151E+03  0.14400043969E+04  0.10995725423E+04 0.  0.
        2    1    3    3  502    0 -0.13171468700E+03  0.38739449486E+03 -0.94580363455E+03  0.10305182039E+04  0.25500000920E-02 0. -1.
       -2    1    3    3    0  502  0.13171468700E+03 -0.38739449486E+03  0.15990273046E+02  0.40948619300E+03  0.25500000920E-02 0.  1.
</event>
<event>
 5   0  0.3621403E-04  0.1099609E+04  0.7818609E-02  0.9205573E-01
        1   -1    0    0  501    0  0.00000000000E+00  0.00000000000E+00  0.44214513157E+03  0.44214513160E+03  0.50400001928E-02 0. -1.
       -1   -1    0    0    0  501  0.00000000000E+00  0.00000000000E+00 -0.68367810164E+03  0.68367810165E+03  0.50400001928E-02 0.  1.
    10030    2    1    2    0    0  0.00000000000E+00  0.00000000000E+00 -0.24153297007E+03  0.11258232333E+04  0.10996089200E+04 0.  0.
        3    1    3    3  502    0  0.46985246691E+03 -0.70737890594E+02 -0.40398308674E+03  0.62367261796E+03  0.10100000352E+00 0.  1.
       -3    1    3    3    0  502 -0.46985246691E+03  0.70737890594E+02  0.16245011668E+03  0.50215061529E+03  0.10100000352E+00 0. -1.
</event>
<event>
 5   0  0.6264830E-04  0.1101461E+04  0.7818609E-02  0.9203769E-01
        2   -1    0    0  501    0  0.00000000000E+00  0.00000000000E+00  0.78573895023E+03  0.78573895023E+03  0.25500000920E-02 0. -1.
       -2   -1    0    0    0  501  0.00000000000E+00  0.00000000000E+00 -0.38601146930E+03  0.38601146931E+03  0.25500000920E-02 0.  1.
    10030    2    1    2    0    0  0.00000000000E+00  0.00000000000E+00  0.39972748093E+03  0.11717504195E+04  0.11014612960E+04 0.  0.
        4    1    3    3  502    0  0.22480422704E+02 -0.78264371319E+02  0.77929793570E+03  0.78354168154E+03  0.12699999809E+01 0. -1.
       -4    1    3    3    0  502 -0.22480422704E+02  0.78264371319E+02 -0.37957045477E+03  0.38820873800E+03  0.12699999809E+01 0.  1.
</event>
<event>
 5   0  0.6109149E-04  0.1097166E+04  0.7818609E-02  0.9207959E-01
       -2   -1    0    0    0  501  0.00000000000E+00  0.00000000000E+00  0.22873369674E+03  0.22873369676E+03  0.25500000920E-02 0. -1.
        2   -1    0    0  501    0  0.00000000000E+00  0.00000000000E+00 -0.13156925675E+04  0.13156925676E+04  0.25500000920E-02 0.  1.
    10030    2    1    2    0    0  0.00000000000E+00  0.00000000000E+00 -0.10869588708E+04  0.15444262643E+04  0.10971658485E+04 0.  0.
        1    1    3    3  502    0  0.14291250509E+03  0.47535325521E+03 -0.87227519025E+03  0.10036178102E+04  0.50400001928E-02 0.  1.
       -1    1    3    3    0  502 -0.14291250509E+03 -0.47535325521E+03 -0.21468368055E+03  0.54080845414E+03  0.50400001928E-02 0. -1.
</event>
<event>
 5   0  0.5948818E-04  0.1081610E+04  0.7818609E-02  0.9223304E-01
        2   -1    0    0  501    0  0.00000000000E+00  0.00000000000E+00  0.10152610990E+04  0.10152610990E+04  0.25500000920E-02 0.  1.
       -2   -1    0    0    0  501  0.00000000000E+00  0.00000000000E+00 -0.28807374264E+03  0.28807374265E+03  0.25500000920E-02 0. -1.
    10030    2    1    2    0    0  0.00000000000E+00  0.00000000000E+00  0.72718735632E+03  0.13033348416E+04  0.10816100305E+04 0.  0.
        3    1    3    3  502    0 -0.11166316668E+03 -0.38151555768E+03  0.80542987753E+03  0.89818710822E+03  0.10100000352E+00 0.  1.
       -3    1    3    3    0  502  0.11166316668E+03  0.38151555768E+03 -0.78242521210E+02  0.40514773339E+03  0.10100000352E+00 0. -1.
</event>
<event>
 5   0  0.5948818E-04  0.1099282E+04  0.7818609E-02  0.9205892E-01
        2   -1    0    0  501    0  0.00000000000E+00  0.00000000000E+00  0.26633462466E+03  0.26633462467E+03  0.25500000920E-02 0. -1.
       -2   -1    0    0    0  501  0.00000000000E+00  0.00000000000E+00 -0.11343065013E+04  0.11343065013E+04  0.25500000920E-02 0.  1.
    10030    2    1    2    0    0  0.00000000000E+00  0.00000000000E+00 -0.86797187666E+03  0.14006411260E+04  0.10992817588E+04 0.  0.
        3    1    3    3  502    0  0.35843219815E+03 -0.37348117704E+03 -0.66942055487E+03  0.84621848229E+03  0.10100000352E+00 0.  1.
       -3    1    3    3    0  502 -0.35843219815E+03  0.37348117704E+03 -0.19855132178E+03  0.55442264371E+03  0.10100000352E+00 0. -1.
</event>
<event>
 5   0  0.6245176E-04  0.1099706E+04  0.7818609E-02  0.9205478E-01
        2   -1    0    0  501    0  0.00000000000E+00  0.00000000000E+00  0.99479356691E+03  0.99479356691E+03  0.25500000920E-02 0. -1.
       -2   -1    0    0    0  501  0.00000000000E+00  0.00000000000E+00 -0.30392073333E+03  0.30392073334E+03  0.25500000920E-02 0.  1.
    10030    2    1    2    0    0  0.00000000000E+00  0.00000000000E+00  0.69087283357E+03  0.12987143003E+04  0.10997061251E+04 0.  0.
        5    1    3    3  502    0  0.33107377262E+03  0.27952326521E+03  0.74517724075E+03  0.86200597958E+03  0.46999998093E+01 0. -1.
       -5    1    3    3    0  502 -0.33107377262E+03 -0.27952326521E+03 -0.54304407172E+02  0.43670832067E+03  0.46999998093E+01 0.  1.
</event>
<event>
 5   0  0.3621403E-04  0.1113365E+04  0.7818609E-02  0.9192263E-01
       -1   -1    0    0    0  501  0.00000000000E+00  0.00000000000E+00  0.13651639913E+03  0.13651639923E+03  0.50400001928E-02 0. -1.
        1   -1    0    0  501    0  0.00000000000E+00  0.00000000000E+00 -0.22700212785E+04  0.22700212785E+04  0.50400001928E-02 0.  1.
    10030    2    1    2    0    0  0.00000000000E+00  0.00000000000E+00 -0.21335048794E+04  0.24065376777E+04  0.11133645064E+04 0.  0.
        3    1    3    3  502    0  0.48324122959E+03  0.96984149202E+02 -0.16261055675E+04  0.16991607746E+04  0.10100000352E+00 0.  1.
       -3    1    3    3    0  502 -0.48324122959E+03 -0.96984149202E+02 -0.50739931190E+03  0.70737690314E+03  0.10100000352E+00 0. -1.
</event>
<event>
 5   0  0.3657529E-04  0.1097943E+04  0.7818609E-02  0.9207200E-01
       -1   -1    0    0    0  501  0.00000000000E+00  0.00000000000E+00  0.58535275539E+03  0.58535275541E+03  0.50400001928E-02 0. -1.
        1   -1    0    0  501    0  0.00000000000E+00  0.00000000000E+00 -0.51485102440E+03  0.51485102443E+03  0.50400001928E-02 0.  1.
    10030    2    1    2    0    0  0.00000000000E+00  0.00000000000E+00  0.70501730986E+02  0.11002037798E+04  0.10979425591E+04 0.  0.
        4    1    3    3  502    0 -0.35345046699E+01  0.16814943541E+03  0.55889875384E+03  0.58365756682E+03  0.12699999809E+01 0. -1.
       -4    1    3    3    0  502  0.35345046699E+01 -0.16814943541E+03 -0.48839702286E+03  0.51654621302E+03  0.12699999809E+01 0.  1.
</event>
<event>
 5   0  0.6264830E-04  0.1098918E+04  0.7818609E-02  0.9206247E-01
       -2   -1    0    0    0  501  0.00000000000E+00  0.00000000000E+00  0.22362230263E+03  0.22362230264E+03  0.25500000920E-02 0.  1.
        2   -1    0    0  501    0  0.00000000000E+00  0.00000000000E+00 -0.13500673255E+04  0.13500673255E+04  0.25500000920E-02 0. -1.
    10030    2    1    2    0    0  0.00000000000E+00  0.00000000000E+00 -0.11264450229E+04  0.15736896282E+04  0.10989179479E+04 0.  0.
        4    1    3    3  502    0  0.29789814874E+03  0.12668446190E+03  0.72561449193E+02  0.33175146830E+03  0.12699999809E+01 0.  1.
       -4    1    3    3    0  502 -0.29789814874E+03 -0.12668446190E+03 -0.11990064721E+04  0.12419381599E+04  0.12699999809E+01 0. -1.
</event>
<event>
 5   0  0.3621403E-04  0.1100237E+04  0.7818609E-02  0.9204961E-01
        1   -1    0    0  501    0  0.00000000000E+00  0.00000000000E+00  0.31244349394E+03  0.31244349398E+03  0.50400001928E-02 0.  1.
       -1   -1    0    0    0  501  0.00000000000E+00  0.00000000000E+00 -0.96859214141E+03  0.96859214142E+03  0.50400001928E-02 0. -1.
    10030    2    1    2    0    0  0.00000000000E+00  0.00000000000E+00 -0.65614864747E+03  0.12810356354E+04  0.11002369070E+04 0.  0.
        3    1    3    3  502    0  0.11108854737E+03  0.85021397141E+02 -0.94753682200E+03  0.95780757074E+03  0.10100000352E+00 0. -1.
       -3    1    3    3    0  502 -0.11108854737E+03 -0.85021397141E+02  0.29138817453E+03  0.32322806466E+03  0.10100000352E+00 0.  1.
</event>
<event>
 5   0  0.3642161E-04  0.1098981E+04  0.7818609E-02  0.9206186E-01
        1   -1    0    0  501    0  0.00000000000E+00  0.00000000000E+00  0.10590113750E+04  0.10590113751E+04  0.50400001928E-02 0.  1.
       -1   -1    0    0    0  501  0.00000000000E+00  0.00000000000E+00 -0.28511473930E+03  0.28511473934E+03  0.50400001928E-02 0. -1.
    10030    2    1    2    0    0  0.00000000000E+00  0.00000000000E+00  0.77389663575E+03  0.13441261144E+04  0.10989808955E+04 0.  0.
        2    1    3    3  502    0  0.26745637390E+03  0.15513396604E+02 -0.19982536343E+03  0.33422111437E+03  0.25500000920E-02 0. -1.
       -2    1    3    3    0  502 -0.26745637390E+03 -0.15513396604E+02  0.97372199917E+03  0.10099050000E+04  0.25500000920E-02 0.  1.
</event>
<event>
 5   0  0.3621403E-04  0.1104963E+04  0.7818609E-02  0.9200368E-01
        1   -1    0    0  501    0  0.00000000000E+00  0.00000000000E+00  0.73110890284E+03  0.73110890286E+03  0.50400001928E-02 0.  1.
       -1   -1    0    0    0  501  0.00000000000E+00  0.00000000000E+00 -0.41749727643E+03  0.41749727646E+03  0.50400001928E-02 0. -1.
    10030    2    1    2    0    0  0.00000000000E+00  0.00000000000E+00  0.31361162641E+03  0.11486061793E+04  0.11049633039E+04 0.  0.
        3    1    3    3  502    0  0.14540184531E+03  0.22529929412E+02  0.71036772501E+03  0.72544580037E+03  0.10100000352E+00 0.  1.
       -3    1    3    3    0  502 -0.14540184531E+03 -0.22529929412E+02 -0.39675609860E+03  0.42316037895E+03  0.10100000352E+00 0. -1.
</event>
<event>
 5   0  0.3621403E-04  0.1098847E+04  0.7818609E-02  0.9206316E-01
       -1   -1    0    0    0  501  0.00000000000E+00  0.00000000000E+00  0.17102415152E+03  0.17102415160E+03  0.50400001928E-02 0. -1.
        1   -1    0    0  501    0  0.00000000000E+00  0.00000000000E+00 -0.17650501353E+04  0.17650501353E+04  0.50400001928E-02 0.  1.
    10030    2    1    2    0    0  0.00000000000E+00  0.00000000000E+00 -0.15940259838E+04  0.19360742869E+04  0.10988470355E+04 0.  0.
        3    1    3    3  502    0 -0.49706086584E+03  0.17300111741E+03 -0.10748557613E+04  0.11967931353E+04  0.10100000352E+00 0. -1.
       -3    1    3    3    0  502  0.49706086584E+03 -0.17300111741E+03 -0.51917022252E+03  0.73928115161E+03  0.10100000352E+00 0.  1.
</event>
<event>
 5   0  0.3523525E-04  0.1099802E+04  0.7818609E-02  0.9205385E-01
        1   -1    0    0  501    0  0.00000000000E+00  0.00000000000E+00  0.75017158011E+03  0.75017158013E+03  0.50400001928E-02 0. -1.
       -1   -1    0    0    0  501  0.00000000000E+00  0.00000000000E+00 -0.40309595187E+03  0.40309595191E+03  0.50400001928E-02 0.  1.
    10030    2    1    2    0    0  0.00000000000E+00  0.00000000000E+00  0.34707562824E+03  0.11532675320E+04  0.10998020316E+04 0.  0.
        5    1    3    3  502    0  0.18772777254E+03 -0.26502807479E+03  0.63882870913E+03  0.71666296585E+03  0.46999998093E+01 0. -1.
       -5    1    3    3    0  502 -0.18772777254E+03  0.26502807479E+03 -0.29175308089E+03  0.43660456619E+03  0.46999998093E+01 0.  1.
</event>
<event>
 5   0  0.3642161E-04  0.1092790E+04  0.7818609E-02  0.9212248E-01
        1   -1    0    0  501    0  0.00000000000E+00  0.00000000000E+00  0.80203233893E+03  0.80203233894E+03  0.50400001928E-02 0. -1.
       -1   -1    0    0    0  501  0.00000000000E+00  0.00000000000E+00 -0.37223876951E+03  0.37223876954E+03  0.50400001928E-02 0.  1.
    10030    2    1    2    0    0  0.00000000000E+00  0.00000000000E+00  0.42979356942E+03  0.11742711085E+04  0.10927900640E+04 0.  0.
        2    1    3    3  502    0  0.30814971985E+03 -0.43178684718E+03  0.35562507858E+03  0.63864334942E+03  0.25500000920E-02 0. -1.
       -2    1    3    3    0  502 -0.30814971985E+03  0.43178684718E+03  0.74168490845E+02  0.53562775907E+03  0.25500000920E-02 0.  1.
</event>
<event>
 5   0  0.2403875E-04  0.1095614E+04  0.7818609E-02  0.9209477E-01
       -3   -1    0    0    0  501  0.00000000000E+00  0.00000000000E+00  0.81866981214E+03  0.81866981837E+03  0.10100000352E+00 0.  1.
        3   -1    0    0  501    0  0.00000000000E+00  0.00000000000E+00 -0.36656127061E+03  0.36656128452E+03  0.10100000352E+00 0. -1.
    10030    2    1    2    0    0  0.00000000000E+00  0.00000000000E+00  0.45210854153E+03  0.11852311029E+04  0.10956142724E+04 0.  0.
        4    1    3    3  502    0  0.10119069895E+03 -0.20825255839E+03  0.76313340525E+03  0.79748535581E+03  0.12699999809E+01 0.  1.
       -4    1    3    3    0  502 -0.10119069895E+03  0.20825255839E+03 -0.31102486372E+03  0.38774574708E+03  0.12699999809E+01 0. -1.
</event>
<event>
 5   0  0.2403875E-04  0.1098172E+04  0.7818609E-02  0.9206976E-01
        4   -1    0    0  501    0  0.00000000000E+00  0.00000000000E+00  0.32427599527E+03  0.32427848219E+03  0.12699999809E+01 0. -1.
       -4   -1    0    0    0  501  0.00000000000E+00  0.00000000000E+00 -0.92974245923E+03  0.92974332662E+03  0.12699999809E+01 0.  1.
    10030    2    1    2    0    0  0.00000000000E+00  0.00000000000E+00 -0.60546646396E+03  0.12540218088E+04  0.10981716888E+04 0.  0.
        3    1    3    3  502    0  0.32595041271E+02  0.25334802571E+03 -0.85776589886E+03  0.89499162359E+03  0.10100000352E+00 0.  1.
       -3    1    3    3    0  502 -0.32595041271E+02 -0.25334802571E+03  0.25229943490E+03  0.35903018522E+03  0.10100000352E+00 0. -1.
</event>
<event>
 5   0  0.6245176E-04  0.1109136E+04  0.7818609E-02  0.9196333E-01
        2   -1    0    0  501    0  0.00000000000E+00  0.00000000000E+00  0.19780007881E+04  0.19780007881E+04  0.25500000920E-02 0. -1.
       -2   -1    0    0    0  501  0.00000000000E+00  0.00000000000E+00 -0.15548304500E+03  0.15548304502E+03  0.25500000920E-02 0.  1.
    10030    2    1    2    0    0  0.00000000000E+00  0.00000000000E+00  0.18225177431E+04  0.21334838331E+04  0.11091358538E+04 0.  0.
        5    1    3    3  502    0  0.14272985827E+03 -0.20750900255E+03 -0.39085736770E+02  0.25491485519E+03  0.46999998093E+01 0.  1.
       -5    1    3    3    0  502 -0.14272985827E+03  0.20750900255E+03  0.18616034799E+04  0.18785689779E+04  0.46999998093E+01 0. -1.
</event>
<event>
 5   0  0.3423758E-04  0.1098458E+04  0.7818609E-02  0.9206696E-01
       -1   -1    0    0    0  501  0.00000000000E+00  0.00000000000E+00  0.44597380666E+03  0.44597380668E+03  0.50400001928E-02 0.  1.
        1   -1    0    0  501    0  0.00000000000E+00  0.00000000000E+00 -0.67639091329E+03  0.67639091330E+03  0.50400001928E-02 0. -1.
    10030    2    1    2    0    0  0.00000000000E+00  0.00000000000E+00 -0.23041710663E+03  0.11223647200E+04  0.10984582476E+04 0.  0.
        1    1    3    3  502    0 -0.41195291321E+03 -0.26786316280E+03  0.13548143399E+03  0.50971668177E+03  0.50400001928E-02 0.  1.
       -1    1    3    3    0  502  0.41195291321E+03  0.26786316280E+03 -0.36589854062E+03  0.61264803822E+03  0.50400001928E-02 0. -1.
</event>
<event>
 5   0  0.6245176E-04  0.1100530E+04  0.7818609E-02  0.9204676E-01
       -2   -1    0    0    0  501  0.00000000000E+00  0.00000000000E+00  0.19666750979E+03  0.19666750981E+03  0.25500000920E-02 0. -1.
        2   -1    0    0  501    0  0.00000000000E+00  0.00000000000E+00 -0.15396103044E+04  0.15396103044E+04  0.25500000920E-02 0.  1.
    10030    2    1    2    0    0  0.00000000000E+00  0.00000000000E+00 -0.13429427946E+04  0.17362778142E+04  0.11005295537E+04 0.  0.
        5    1    3    3  502    0  0.42895855706E+03 -0.74038002647E+02 -0.12024759894E+04  0.12788501337E+04  0.46999998093E+01 0.  1.
       -5    1    3    3    0  502 -0.42895855706E+03  0.74038002647E+02 -0.14046680524E+03  0.45742768050E+03  0.46999998093E+01 0. -1.
</event>
<event>
 5   0  0.3621403E-04  0.1100419E+04  0.7818609E-02  0.9204783E-01
        1   -1    0    0  501    0  0.00000000000E+00  0.00000000000E+00  0.12386562224E+04  0.12386562224E+04  0.50400001928E-02 0.  1.
       -1   -1    0    0    0  501  0.00000000000E+00  0.00000000000E+00 -0.24440242885E+03  0.24440242891E+03  0.50400001928E-02 0. -1.
    10030    2    1    2    0    0  0.00000000000E+00  0.00000000000E+00  0.99425379352E+03  0.14830586513E+04  0.11004191734E+04 0.  0.
        3    1    3    3  502    0 -0.10923051558E+03  0.53301040143E+03  0.38681783747E+03  0.66757729377E+03  0.10100000352E+00 0. -1.
       -3    1    3    3    0  502  0.10923051558E+03 -0.53301040143E+03  0.60743595604E+03  0.81548135752E+03  0.10100000352E+00 0.  1.
</event>
<event>
 5   0  0.6264830E-04  0.1099285E+04  0.7818609E-02  0.9205889E-01
       -2   -1    0    0    0  501  0.00000000000E+00  0.00000000000E+00  0.18316826715E+03  0.18316826716E+03  0.25500000920E-02 0. -1.
        2   -1    0    0  501    0  0.00000000000E+00  0.00000000000E+00 -0.16493395721E+04  0.16493395721E+04  0.25500000920E-02 0.  1.
    10030    2    1    2    0    0  0.00000000000E+00  0.00000000000E+00 -0.14661713050E+04  0.18325078393E+04  0.10992846244E+04 0.  0.
        4    1    3    3  502    0 -0.81562982067E+02 -0.50975091913E+03 -0.10476435314E+04  0.11679285515E+04  0.12699999809E+01 0.  1.
       -4    1    3    3    0  502  0.81562982067E+02  0.50975091913E+03 -0.41852777354E+03  0.66457928776E+03  0.12699999809E+01 0. -1.
</event>
<event>
 5   0  0.3657529E-04  0.1099760E+04  0.7818609E-02  0.9205426E-01
       -1   -1    0    0    0  501  0.00000000000E+00  0.00000000000E+00  0.14970045973E+03  0.14970045981E+03  0.50400001928E-02 0. -1.
        1   -1    0    0  501    0  0.00000000000E+00  0.00000000000E+00 -0.20198208952E+04  0.20198208952E+04  0.50400001928E-02 0.  1.
    10030    2    1    2    0    0  0.00000000000E+00  0.00000000000E+00 -0.18701204355E+04  0.21695213550E+04  0.10997601860E+04 0.  0.
        4    1    3    3  502    0 -0.32794014684E+03  0.40835374056E+03 -0.12655661824E+04  0.13696557568E+04  0.12699999809E+01 0.  1.
       -4    1    3    3    0  502  0.32794014684E+03 -0.40835374056E+03 -0.60455425312E+03  0.79986559822E+03  0.12699999809E+01 0. -1.
</event>
<event>
 5   0  0.6264830E-04  0.1097124E+04  0.7818609E-02  0.9208000E-01
        2   -1    0    0  501    0  0.00000000000E+00  0.00000000000E+00  0.98313431471E+03  0.98313431471E+03  0.25500000920E-02 0. -1.
       -2   -1    0    0    0  501  0.00000000000E+00  0.00000000000E+00 -0.30608256738E+03  0.30608256739E+03  0.25500000920E-02 0.  1.
    10030    2    1    2    0    0  0.00000000000E+00  0.00000000000E+00  0.67705174733E+03  0.12892168821E+04  0.10971240133E+04 0.  0.
        4    1    3    3  502    0  0.12744679698E+02 -0.19995382057E+03  0.93859736509E+03  0.95974506192E+03  0.12699999809E+01 0. -1.
       -4    1    3    3    0  502 -0.12744679698E+02  0.19995382057E+03 -0.26154561776E+03  0.32947182018E+03  0.12699999809E+01 0.  1.
</event>
<event>
 5   0  0.6412712E-04  0.1100731E+04  0.7818609E-02  0.9204479E-01
        2   -1    0    0  501    0  0.00000000000E+00  0.00000000000E+00  0.11999269562E+04  0.11999269562E+04  0.25500000920E-02 0. -1.
       -2   -1    0    0    0  501  0.00000000000E+00  0.00000000000E+00 -0.25243406652E+03  0.25243406654E+03  0.25500000920E-02 0.  1.
    10030    2    1    2    0    0  0.00000000000E+00  0.00000000000E+00  0.94749288964E+03  0.14523610227E+04  0.11007314679E+04 0.  0.
        2    1    3    3  502    0 -0.46998182253E+03  0.11167290400E+03  0.82171314135E+03  0.95318740953E+03  0.25500000920E-02 0. -1.
       -2    1    3    3    0  502  0.46998182253E+03 -0.11167290400E+03  0.12577974828E+03  0.49917361317E+03  0.25500000920E-02 0.  1.
</event>
<event>
 5   0  0.3423758E-04  0.1126631E+04  0.7818609E-02  0.9179617E-01
        1   -1    0    0  501    0  0.00000000000E+00  0.00000000000E+00  0.50422144920E+03  0.50422144922E+03  0.50400001928E-02 0. -1.
       -1   -1    0    0    0  501  0.00000000000E+00  0.00000000000E+00 -0.62933546418E+03  0.62933546420E+03  0.50400001928E-02 0.  1.
    10030    2    1    2    0    0  0.00000000000E+00  0.00000000000E+00 -0.12511401499E+03  0.11335569134E+04  0.11266311549E+04 0.  0.
        1    1    3    3  502    0  0.35862891947E+03  0.42385707881E+03  0.33185269927E+02  0.55621109958E+03  0.50400001928E-02 0. -1.
       -1    1    3    3    0  502 -0.35862891947E+03 -0.42385707881E+03 -0.15829928491E+03  0.57734581384E+03  0.50400001928E-02 0.  1.
</event>
<event>
 5   0  0.3523525E-04  0.1097560E+04  0.7818609E-02  0.9207574E-01
       -1   -1    0    0    0  501  0.00000000000E+00  0.00000000000E+00  0.88852197281E+03  0.88852197282E+03  0.50400001928E-02 0. -1.
        1   -1    0    0  501    0  0.00000000000E+00  0.00000000000E+00 -0.33894404503E+03  0.33894404507E+03  0.50400001928E-02 0.  1.
    10030    2    1    2    0    0  0.00000000000E+00  0.00000000000E+00  0.54957792778E+03  0.12274660179E+04  0.10975595320E+04 0.  0.
        5    1    3    3  502    0 -0.48525658521E+03 -0.81133411683E+02  0.54662290682E+03  0.73544223175E+03  0.46999998093E+01 0. -1.
       -5    1    3    3    0  502  0.48525658521E+03  0.81133411683E+02  0.29550209572E+01  0.49202378614E+03  0.46999998093E+01 0.  1.
</event>
<event>
 5   0  0.3423758E-04  0.1098567E+04  0.7818609E-02  0.9206589E-01
       -1   -1    0    0    0  501  0.00000000000E+00  0.00000000000E+00  0.32299799202E+03  0.32299799206E+03  0.50400001928E-02 0. -1.
        1   -1    0    0  501    0  0.00000000000E+00  0.00000000000E+00 -0.93410041626E+03  0.93410041628E+03  0.50400001928E-02 0.  1.
    10030    2    1    2    0    0  0.00000000000E+00  0.00000000000E+00 -0.61110242424E+03  0.12570984083E+04  0.10985673558E+04 0.  0.
        1    1    3    3  502    0 -0.36821033878E+03  0.35718172949E+03 -0.53024055545E+03  0.73777549982E+03  0.50400001928E-02 0.  1.
       -1    1    3    3    0  502  0.36821033878E+03 -0.35718172949E+03 -0.80861868787E+02  0.51932290852E+03  0.50400001928E-02 0. -1.
</event>
<event>
 5   0  0.6245176E-04  0.1096717E+04  0.7818609E-02  0.9208397E-01
        2   -1    0    0  501    0  0.00000000000E+00  0.00000000000E+00  0.16849117287E+04  0.16849117287E+04  0.25500000920E-02 0.  1.
       -2   -1    0    0    0  501  0.00000000000E+00  0.00000000000E+00 -0.17846471274E+03  0.17846471276E+03  0.25500000920E-02 0. -1.
    10030    2    1    2    0    0  0.00000000000E+00  0.00000000000E+00  0.15064470159E+04  0.18633764414E+04  0.10967174434E+04 0.  0.
        5    1    3    3  502    0  0.10937286021E+03 -0.49992722848E+03  0.41861207322E+03  0.66117154670E+03  0.46999998093E+01 0. -1.
       -5    1    3    3    0  502 -0.10937286021E+03  0.49992722848E+03  0.10878349427E+04  0.12022048947E+04  0.46999998093E+01 0.  1.
</event>
<event>
 5   0  0.5948818E-04  0.1100435E+04  0.7818609E-02  0.9204768E-01
       -2   -1    0    0    0  501  0.00000000000E+00  0.00000000000E+00  0.48627788103E+03  0.48627788104E+03  0.25500000920E-02 0.  1.
        2   -1    0    0  501    0  0.00000000000E+00  0.00000000000E+00 -0.62256440664E+03  0.62256440665E+03  0.25500000920E-02 0. -1.
    10030    2    1    2    0    0  0.00000000000E+00  0.00000000000E+00 -0.13628652561E+03  0.11088422877E+04  0.11004350058E+04 0.  0.
        3    1    3    3  502    0  0.46003247885E+03  0.23750008656E+03 -0.25585422191E+03  0.57749248115E+03  0.10100000352E+00 0. -1.
       -3    1    3    3    0  502 -0.46003247885E+03 -0.23750008656E+03  0.11956769629E+03  0.53134980654E+03  0.10100000352E+00 0.  1.
</event>
<event>
 5   0  0.6245176E-04  0.1087869E+04  0.7818609E-02  0.9217096E-01
       -2   -1    0    0    0  501  0.00000000000E+00  0.00000000000E+00  0.39645377732E+03  0.39645377733E+03  0.25500000920E-02 0.  1.
        2   -1    0    0  501    0  0.00000000000E+00  0.00000000000E+00 -0.74627859887E+03  0.74627859887E+03  0.25500000920E-02 0. -1.
    10030    2    1    2    0    0  0.00000000000E+00  0.00000000000E+00 -0.34982482155E+03  0.11427323762E+04  0.10878694213E+04 0.  0.
        5    1    3    3  502    0  0.53946943344E+02 -0.20670217935E+03  0.35052057151E+03  0.41051531603E+03  0.46999998093E+01 0.  1.
       -5    1    3    3    0  502 -0.53946943344E+02  0.20670217935E+03 -0.70034539305E+03  0.73221706018E+03  0.46999998093E+01 0. -1.
</event>
<event>
 5   0  0.3642161E-04  0.1101014E+04  0.7818609E-02  0.9204204E-01
       -1   -1    0    0    0  501  0.00000000000E+00  0.00000000000E+00  0.34379880286E+03  0.34379880290E+03  0.50400001928E-02 0.  1.
        1   -1    0    0  501    0  0.00000000000E+00  0.00000000000E+00 -0.88149804909E+03  0.88149804910E+03  0.50400001928E-02 0. -1.
    10030    2    1    2    0    0  0.00000000000E+00  0.00000000000E+00 -0.53769924622E+03  0.12252968520E+04  0.11010140309E+04 0.  0.
        2    1    3    3  502    0 -0.27819284008E+03 -0.44340374769E+03 -0.45856172290E+03  0.69590013181E+03  0.25500000920E-02 0. -1.
       -2    1    3    3    0  502  0.27819284008E+03  0.44340374769E+03 -0.79137523323E+02  0.52939672019E+03  0.25500000920E-02 0.  1.
</event>
<event>
 5   0  0.6264830E-04  0.1101276E+04  0.7818609E-02  0.9203949E-01
       -2   -1    0    0    0  501  0.00000000000E+00  0.00000000000E+00  0.11134956325E+04  0.11134956325E+04  0.25500000920E-02 0. -1.
        2   -1    0    0  501    0  0.00000000000E+00  0.00000000000E+00 -0.27229748211E+03  0.27229748212E+03  0.25500000920E-02 0.  1.
    10030    2    1    2    0    0  0.00000000000E+00  0.00000000000E+00  0.84119815039E+03  0.13857931146E+04  0.11012757277E+04 0.  0.
        4    1    3    3  502    0 -0.38474509131E+03  0.19322483741E+03  0.85255655434E+03  0.95510152043E+03  0.12699999809E+01 0. -1.
       -4    1    3    3    0  502  0.38474509131E+03 -0.19322483741E+03 -0.11358403946E+02  0.43069159420E+03  0.12699999809E+01 0.  1.
</event>
<event>
 5   0  0.3423758E-04  0.1100500E+04  0.7818609E-02  0.9204705E-01
        1   -1    0    0  501    0  0.00000000000E+00  0.00000000000E+00  0.63005967559E+03  0.63005967561E+03  0.50400001928E-02 0.  1.
       -1   -1    0    0    0  501  0.00000000000E+00  0.00000000000E+00 -0.48054996466E+03  0.48054996469E+03  0.50400001928E-02 0. -1.
    10030    2    1    2    0    0  0.00000000000E+00  0.00000000000E+00  0.14950971092E+03  0.11106096403E+04  0.11005001679E+04 0.  0.
        1    1    3    3  502    0  0.22003063947E+03 -0.92358220299E+02 -0.42561392816E+03  0.48794542628E+03  0.50400001928E-02 0. -1.
       -1    1    3    3    0  502 -0.22003063947E+03  0.92358220299E+02  0.57512363908E+03  0.62266421402E+03  0.50400001928E-02 0.  1.
</event>
<event>
 5   0  0.5948818E-04  0.1097238E+04  0.7818609E-02  0.9207888E-01
       -2   -1    0    0    0  501  0.00000000000E+00  0.00000000000E+00  0.14447964660E+03  0.14447964662E+03  0.25500000920E-02 0. -1.
        2   -1    0    0  501    0  0.00000000000E+00  0.00000000000E+00 -0.20832182386E+04  0.20832182386E+04  0.25500000920E-02 0.  1.
    10030    2    1    2    0    0  0.00000000000E+00  0.00000000000E+00 -0.19387385920E+04  0.22276978852E+04  0.10972376860E+04 0.  0.
        3    1    3    3  502    0 -0.14117221683E+03  0.52060108934E+03 -0.11726764613E+04  0.12907847156E+04  0.10100000352E+00 0.  1.
       -3    1    3    3    0  502  0.14117221683E+03 -0.52060108934E+03 -0.76606213067E+03  0.93691316955E+03  0.10100000352E+00 0. -1.
</event>
<event>
 5   0  0.3423758E-04  0.1100497E+04  0.7818609E-02  0.9204707E-01
       -1   -1    0    0    0  501  0.00000000000E+00  0.00000000000E+00  0.39185010722E+03  0.39185010725E+03  0.50400001928E-02 0.  1.
        1   -1    0    0  501    0  0.00000000000E+00  0.00000000000E+00 -0.77267727547E+03  0.77267727548E+03  0.50400001928E-02 0. -1.
    10030    2    1    2    0    0  0.00000000000E+00  0.00000000000E+00 -0.38082716825E+03  0.11645273827E+04  0.11004974753E+04 0.  0.
        1    1    3    3  502    0 -0.14840533604E+03 -0.31413068597E+03 -0.64193834355E+03  0.72992264561E+03  0.50400001928E-02 0. -1.
       -1    1    3    3    0  502  0.14840533604E+03  0.31413068597E+03  0.26111117530E+03  0.43460473712E+03  0.50400001928E-02 0.  1.
</event>
<event>
 5   0  0.6245176E-04  0.1100248E+04  0.7818609E-02  0.9204950E-01
       -2   -1    0    0    0  501  0.00000000000E+00  0.00000000000E+00  0.31177740719E+03  0.31177740720E+03  0.25500000920E-02 0. -1.
        2   -1    0    0  501    0  0.00000000000E+00  0.00000000000E+00 -0.97068092821E+03  0.97068092822E+03  0.25500000920E-02 0.  1.
    10030    2    1    2    0    0  0.00000000000E+00  0.00000000000E+00 -0.65890352102E+03  0.12824583354E+04  0.11002479412E+04 0.  0.
        5    1    3    3  502    0 -0.27333904308E+03  0.31935583317E+03  0.84153553652E+02  0.42872635940E+03  0.46999998093E+01 0. -1.
       -5    1    3    3    0  502  0.27333904308E+03 -0.31935583317E+03 -0.74305707468E+03  0.85373197602E+03  0.46999998093E+01 0.  1.
</event>
<event>
 5   0  0.2403875E-04  0.1092050E+04  0.7818609E-02  0.9212976E-01
       -3   -1    0    0    0  501  0.00000000000E+00  0.00000000000E+00  0.59945907987E+03  0.59945908838E+03  0.10100000352E+00 0.  1.
        3   -1    0    0  501    0  0.00000000000E+00  0.00000000000E+00 -0.49735355594E+03  0.49735356619E+03  0.10100000352E+00 0. -1.
    10030    2    1    2    0    0  0.00000000000E+00  0.00000000000E+00  0.10210552393E+03  0.10968126546E+04  0.10920496606E+04 0.  0.
        2    1    3    3  502    0  0.40486232361E+03  0.26747648954E+03 -0.20041084558E+03  0.52499683863E+03  0.25500000920E-02 0. -1.
       -2    1    3    3    0  502 -0.40486232361E+03 -0.26747648954E+03  0.30251636951E+03  0.57181581594E+03  0.25500000920E-02 0.  1.
</event>
<event>
 5   0  0.3657529E-04  0.1097311E+04  0.7818609E-02  0.9207817E-01
        1   -1    0    0  501    0  0.00000000000E+00  0.00000000000E+00  0.11861248745E+04  0.11861248745E+04  0.50400001928E-02 0.  1.
       -1   -1    0    0    0  501  0.00000000000E+00  0.00000000000E+00 -0.25378666701E+03  0.25378666706E+03  0.50400001928E-02 0. -1.
    10030    2    1    2    0    0  0.00000000000E+00  0.00000000000E+00  0.93233820746E+03  0.14399115415E+04  0.10973106736E+04 0.  0.
        4    1    3    3  502    0 -0.27907812935E+03 -0.13485998886E+03 -0.12788961264E+03  0.33530461493E+03  0.12699999809E+01 0. -1.
       -4    1    3    3    0  502  0.27907812935E+03  0.13485998886E+03  0.10602278201E+04  0.11046069266E+04  0.12699999809E+01 0.  1.
</event>
<event>
 5   0  0.6412712E-04  0.1099833E+04  0.7818609E-02  0.9205354E-01
       -2   -1    0    0    0  501  0.00000000000E+00  0.00000000000E+00  0.19218169936E+03  0.19218169937E+03  0.25500000920E-02 0. -1.
        2   -1    0    0  501    0  0.00000000000E+00  0.00000000000E+00 -0.15735547389E+04  0.15735547389E+04  0.25500000920E-02 0.  1.
    10030    2    1    2    0    0  0.00000000000E+00  0.00000000000E+00 -0.13813730395E+04  0.17657364383E+04  0.10998334852E+04 0.  0.
        2    1    3    3  502    0 -0.22501649026E+03  0.49910340565E+03 -0.77367166781E+03  0.94778925927E+03  0.25500000920E-02 0.  1.
       -2    1    3    3    0  502  0.22501649026E+03 -0.49910340565E+03 -0.60770137173E+03  0.81794717900E+03  0.25500000920E-02 0. -1.
</event>
<event>
 5   0  0.5948818E-04  0.1099656E+04  0.7818609E-02  0.9205527E-01
       -2   -1    0    0    0  501  0.00000000000E+00  0.00000000000E+00  0.40455773387E+03  0.40455773387E+03  0.25500000920E-02 0. -1.
        2   -1    0    0  501    0  0.00000000000E+00  0.00000000000E+00 -0.74726297486E+03  0.74726297487E+03  0.25500000920E-02 0.  1.
    10030    2    1    2    0    0  0.00000000000E+00  0.00000000000E+00 -0.34270524100E+03  0.11518207087E+04  0.10996563385E+04 0.  0.
        3    1    3    3  502    0 -0.45491149548E+03 -0.19557077157E+03  0.78979579519E+02  0.50142814001E+03  0.10100000352E+00 0. -1.
       -3    1    3    3    0  502  0.45491149548E+03  0.19557077157E+03 -0.42168482052E+03  0.65039256873E+03  0.10100000352E+00 0.  1.
</event>
<event>
 5   0  0.3621403E-04  0.1101721E+04  0.7818609E-02  0.9203516E-01
        1   -1    0    0  501    0  0.00000000000E+00  0.00000000000E+00  0.21293100723E+04  0.21293100724E+04  0.50400001928E-02 0.  1.
       -1   -1    0    0    0  501  0.00000000000E+00  0.00000000000E+00 -0.14250956772E+03  0.14250956781E+03  0.50400001928E-02 0. -1.
    10030    2    1    2    0    0  0.00000000000E+00  0.00000000000E+00  0.19868005046E+04  0.22718196402E+04  0.11017205781E+04 0.  0.
        3    1    3    3  502    0  0.22820089103E+03 -0.39652588125E+03  0.36071703029E+03  0.58260210033E+03  0.10100000352E+00 0. -1.
       -3    1    3    3    0  502 -0.22820089103E+03  0.39652588125E+03  0.16260834743E+04  0.16892175398E+04  0.10100000352E+00 0.  1.
</event>
<event>
 5   0  0.2403875E-04  0.1098549E+04  0.7818609E-02  0.9206608E-01
        4   -1    0    0  501    0  0.00000000000E+00  0.00000000000E+00  0.11298512736E+04  0.11298519874E+04  0.12699999809E+01 0. -1.
       -4   -1    0    0    0  501  0.00000000000E+00  0.00000000000E+00 -0.26702595858E+03  0.26702897869E+03  0.12699999809E+01 0.  1.
    10030    2    1    2    0    0  0.00000000000E+00  0.00000000000E+00  0.86282531504E+03  0.13968809661E+04  0.10985485465E+04 0.  0.
        2    1    3    3  502    0  0.23551608839E+03 -0.36078239668E+03  0.86462517982E+03  0.96602715657E+03  0.25500000920E-02 0.  1.
       -2    1    3    3    0  502 -0.23551608839E+03  0.36078239668E+03 -0.17998647820E+01  0.43085380951E+03  0.25500000920E-02 0. -1.
</event>
<event>
 5   0  0.6109149E-04  0.1100694E+04  0.7818609E-02  0.9204516E-01
       -2   -1    0    0    0  501  0.00000000000E+00  0.00000000000E+00  0.40495238504E+03  0.40495238505E+03  0.25500000920E-02 0. -1.
        2   -1    0    0  501    0  0.00000000000E+00  0.00000000000E+00 -0.74794377807E+03  0.74794377807E+03  0.25500000920E-02 0.  1.
    10030    2    1    2    0    0  0.00000000000E+00  0.00000000000E+00 -0.34299139303E+03  0.11528961631E+04  0.11006936301E+04 0.  0.
        1    1    3    3  502    0 -0.44197439556E+03 -0.19764617383E+03 -0.44558601452E+03  0.65799108864E+03  0.50400001928E-02 0.  1.
       -1    1    3    3    0  502  0.44197439556E+03  0.19764617383E+03  0.10259462149E+03  0.49490507448E+03  0.50400001928E-02 0. -1.
</event>
<event>
 5   0  0.6412712E-04  0.1096066E+04  0.7818609E-02  0.9209035E-01
        2   -1    0    0  501    0  0.00000000000E+00  0.00000000000E+00  0.62755599089E+03  0.62755599090E+03  0.25500000920E-02 0. -1.
       -2   -1    0    0    0  501  0.00000000000E+00  0.00000000000E+00 -0.47858661952E+03  0.47858661953E+03  0.25500000920E-02 0.  1.
    10030    2    1    2    0    0  0.00000000000E+00  0.00000000000E+00  0.14896937137E+03  0.11061426104E+04  0.10960655094E+04 0.  0.
        2    1    3    3  502    0 -0.13729788121E+03 -0.25595436917E+03  0.54349016156E+03  0.61623445457E+03  0.25500000920E-02 0. -1.
       -2    1    3    3    0  502  0.13729788121E+03  0.25595436917E+03 -0.39452079018E+03  0.48990815586E+03  0.25500000920E-02 0.  1.
</event>
<event>
 5   0  0.3642161E-04  0.1101588E+04  0.7818609E-02  0.9203645E-01
       -1   -1    0    0    0  501  0.00000000000E+00  0.00000000000E+00  0.41920376353E+03  0.41920376356E+03  0.50400001928E-02 0. -1.
        1   -1    0    0  501    0  0.00000000000E+00  0.00000000000E+00 -0.72369107571E+03  0.72369107573E+03  0.50400001928E-02 0.  1.
    10030    2    1    2    0    0  0.00000000000E+00  0.00000000000E+00 -0.30448731219E+03  0.11428948393E+04  0.11015879858E+04 0.  0.
        2    1    3    3  502    0  0.56259808991E+02 -0.10204953796E+03  0.40626812233E+03  0.42265004617E+03  0.25500000920E-02 0. -1.
       -2    1    3    3    0  502 -0.56259808991E+02  0.10204953796E+03 -0.71075543452E+03  0.72024479311E+03  0.25500000920E-02 0.  1.
</event>
<event>
 5   0  0.6264830E-04  0.1098810E+04  0.7818609E-02  0.9206353E-01
        2   -1    0    0  501    0  0.00000000000E+00  0.00000000000E+00  0.75094137016E+03  0.75094137016E+03  0.25500000920E-02 0.  1.
       -2   -1    0    0    0  501  0.00000000000E+00  0.00000000000E+00 -0.40195650736E+03  0.40195650737E+03  0.25500000920E-02 0. -1.
    10030    2    1    2    0    0  0.00000000000E+00  0.00000000000E+00  0.34898486279E+03  0.11528978775E+04  0.10988098478E+04 0.  0.
        4    1    3    3  502    0  0.51646736502E+03 -0.18433094125E+03  0.20972703672E+03  0.58711453556E+03  0.12699999809E+01 0.  1.
       -4    1    3    3    0  502 -0.51646736502E+03  0.18433094125E+03  0.13925782607E+03  0.56578334197E+03  0.12699999809E+01 0. -1.
</event>
<event>
 5   0  0.6245176E-04  0.1100615E+04  0.7818609E-02  0.9204592E-01
        2   -1    0    0  501    0  0.00000000000E+00  0.00000000000E+00  0.10620231827E+04  0.10620231827E+04  0.25500000920E-02 0. -1.
       -2   -1    0    0    0  501  0.00000000000E+00  0.00000000000E+00 -0.28515244029E+03  0.28515244030E+03  0.25500000920E-02 0.  1.
    10030    2    1    2    0    0  0.00000000000E+00  0.00000000000E+00  0.77687074241E+03  0.13471756230E+04  0.11006152865E+04 0.  0.
        5    1    3    3  502    0 -0.69780016351E+02 -0.20923990085E+03 -0.22865284486E+03  0.31773385129E+03  0.46999998093E+01 0.  1.
       -5    1    3    3    0  502  0.69780016351E+02  0.20923990085E+03  0.10055235873E+04  0.10294417717E+04  0.46999998093E+01 0. -1.
</event>
<event>
 5   0  0.6264830E-04  0.1097417E+04  0.7818609E-02  0.9207713E-01
        2   -1    0    0  501    0  0.00000000000E+00  0.00000000000E+00  0.20624432751E+03  0.20624432753E+03  0.25500000920E-02 0.  1.
       -2   -1    0    0    0  501  0.00000000000E+00  0.00000000000E+00 -0.14598268890E+04  0.14598268890E+04  0.25500000920E-02 0. -1.
    10030    2    1    2    0    0  0.00000000000E+00  0.00000000000E+00 -0.12535825615E+04  0.16660712165E+04  0.10974169946E+04 0.  0.
        4    1    3    3  502    0 -0.54783060898E+03 -0.30241003275E+02 -0.63714471329E+03  0.84082572093E+03  0.12699999809E+01 0.  1.
       -4    1    3    3    0  502  0.54783060898E+03  0.30241003275E+02 -0.61643784821E+03  0.82524549561E+03  0.12699999809E+01 0. -1.
</event>
<event>
 5   0  0.6412712E-04  0.1099461E+04  0.7818609E-02  0.9205717E-01
        2   -1    0    0  501    0  0.00000000000E+00  0.00000000000E+00  0.66269393440E+03  0.66269393440E+03  0.25500000920E-02 0. -1.
       -2   -1    0    0    0  501  0.00000000000E+00  0.00000000000E+00 -0.45602293392E+03  0.45602293392E+03  0.25500000920E-02 0.  1.
    10030    2    1    2    0    0  0.00000000000E+00  0.00000000000E+00  0.20667100048E+03  0.11187168683E+04  0.10994610175E+04 0.  0.
        2    1    3    3  502    0  0.29983359626E+03  0.40447222479E+03 -0.12122330804E+03  0.51787359123E+03  0.25500000920E-02 0.  1.
       -2    1    3    3    0  502 -0.29983359626E+03 -0.40447222479E+03  0.32789430852E+03  0.60084327710E+03  0.25500000920E-02 0. -1.
</event>
<event>
 5   0  0.6245176E-04  0.1089209E+04  0.7818609E-02  0.9215774E-01
       -2   -1    0    0    0  501  0.00000000000E+00  0.00000000000E+00  0.17435273447E+03  0.17435273449E+03  0.25500000920E-02 0.  1.
        2   -1    0    0  501    0  0.00000000000E+00  0.00000000000E+00 -0.17011146955E+04  0.17011146955E+04  0.25500000920E-02 0. -1.
    10030    2    1    2    0    0  0.00000000000E+00  0.00000000000E+00 -0.15267619610E+04  0.18754674300E+04  0.10892088851E+04 0.  0.
        5    1    3    3  502    0  0.38611926934E+03 -0.15860205851E+02 -0.10268774726E+03  0.39988310757E+03  0.46999998093E+01 0.  1.
       -5    1    3    3    0  502 -0.38611926934E+03  0.15860205851E+02 -0.14240742138E+04  0.14755843224E+04  0.46999998093E+01 0. -1.
</event>
<event>
 5   0  0.3423758E-04  0.1099119E+04  0.7818609E-02  0.9206051E-01
       -1   -1    0    0    0  501  0.00000000000E+00  0.00000000000E+00  0.25359222646E+03  0.25359222651E+03  0.50400001928E-02 0.  1.
        1   -1    0    0  501    0  0.00000000000E+00  0.00000000000E+00 -0.11909503147E+04  0.11909503148E+04  0.50400001928E-02 0. -1.
    10030    2    1    2    0    0  0.00000000000E+00  0.00000000000E+00 -0.93735808828E+03  0.14445425413E+04  0.10991191782E+04 0.  0.
        1    1    3    3  502    0  0.35180482743E+03 -0.12163346681E+03 -0.10000329350E+04  0.10670647627E+04  0.50400001928E-02 0. -1.
       -1    1    3    3    0  502 -0.35180482743E+03  0.12163346681E+03  0.62674846673E+02  0.37747777853E+03  0.50400001928E-02 0.  1.
</event>
<event>
 5   0  0.5948818E-04  0.1083988E+04  0.7818609E-02  0.9220941E-01
        2   -1    0    0  501    0  0.00000000000E+00  0.00000000000E+00  0.72481086153E+03  0.72481086153E+03  0.25500000920E-02 0. -1.
       -2   -1    0    0    0  501  0.00000000000E+00  0.00000000000E+00 -0.40528829556E+03  0.40528829557E+03  0.25500000920E-02 0.  1.
    10030    2    1    2    0    0  0.00000000000E+00  0.00000000000E+00  0.31952256597E+03  0.11300991571E+04  0.10839877466E+04 0.  0.
        3    1    3    3  502    0  0.12208153271E+03  0.39914988200E+03 -0.20068102337E+03  0.46313865340E+03  0.10100000352E+00 0.  1.
       -3    1    3    3    0  502 -0.12208153271E+03 -0.39914988200E+03  0.52020358934E+03  0.66696050370E+03  0.10100000352E+00 0. -1.
</event>
<event>
 5   0  0.3423758E-04  0.1100110E+04  0.7818609E-02  0.9205085E-01
       -1   -1    0    0    0  501  0.00000000000E+00  0.00000000000E+00  0.31255004182E+03  0.31255004186E+03  0.50400001928E-02 0.  1.
        1   -1    0    0  501    0  0.00000000000E+00  0.00000000000E+00 -0.96803784590E+03  0.96803784591E+03  0.50400001928E-02 0. -1.
    10030    2    1    2    0    0  0.00000000000E+00  0.00000000000E+00 -0.65548780408E+03  0.12805878878E+04  0.11001095750E+04 0.  0.
        1    1    3    3  502    0 -0.47982354478E+03 -0.75286734356E+01 -0.14803707179E+02  0.48011088805E+03  0.50400001928E-02 0.  1.
       -1    1    3    3    0  502  0.47982354478E+03  0.75286734356E+01 -0.64068409690E+03  0.80047699973E+03  0.50400001928E-02 0. -1.
</event>
<event>
 5   0  0.6412712E-04  0.1100076E+04  0.7818609E-02  0.9205118E-01
       -2   -1    0    0    0  501  0.00000000000E+00  0.00000000000E+00  0.57902417274E+03  0.57902417275E+03  0.25500000920E-02 0.  1.
        2   -1    0    0  501    0  0.00000000000E+00  0.00000000000E+00 -0.52250305670E+03  0.52250305671E+03  0.25500000920E-02 0. -1.
    10030    2    1    2    0    0  0.00000000000E+00  0.00000000000E+00  0.56521116041E+02  0.11015272295E+04  0.11000761795E+04 0.  0.
        2    1    3    3  502    0  0.13179894601E+03  0.29063464512E+03  0.47684974797E+03  0.57378144033E+03  0.25500000920E-02 0.  1.
       -2    1    3    3    0  502 -0.13179894601E+03 -0.29063464512E+03 -0.42032863193E+03  0.52774578913E+03  0.25500000920E-02 0. -1.
</event>
<event>
 5   0  0.6245176E-04  0.1100409E+04  0.7818609E-02  0.9204793E-01
       -2   -1    0    0    0  501  0.00000000000E+00  0.00000000000E+00  0.24291431443E+03  0.24291431444E+03  0.25500000920E-02 0.  1.
        2   -1    0    0  501    0  0.00000000000E+00  0.00000000000E+00 -0.12462217821E+04  0.12462217821E+04  0.25500000920E-02 0. -1.
    10030    2    1    2    0    0  0.00000000000E+00  0.00000000000E+00 -0.10033074677E+04  0.14891360966E+04  0.11004092145E+04 0.  0.
        5    1    3    3  502    0  0.37840009545E+03  0.34408198607E+03 -0.77608128677E+03  0.92946398481E+03  0.46999998093E+01 0. -1.
       -5    1    3    3    0  502 -0.37840009545E+03 -0.34408198607E+03 -0.22722618092E+03  0.55967211175E+03  0.46999998093E+01 0.  1.
</event>
<event>
 5   0  0.3423758E-04  0.1099941E+04  0.7818609E-02  0.9205249E-01
       -1   -1    0    0    0  501  0.00000000000E+00  0.00000000000E+00  0.45429001814E+03  0.45429001817E+03  0.50400001928E-02 0.  1.
        1   -1    0    0  501    0  0.00000000000E+00  0.00000000000E+00 -0.66580295966E+03  0.66580295968E+03  0.50400001928E-02 0. -1.
    10030    2    1    2    0    0  0.00000000000E+00  0.00000000000E+00 -0.21151294152E+03  0.11200929778E+04  0.10999411596E+04 0.  0.
        1    1    3    3  502    0 -0.15196193404E+02  0.44786329035E+03  0.21891893637E+03  0.49873635507E+03  0.50400001928E-02 0.  1.
       -1    1    3    3    0  502  0.15196193404E+02 -0.44786329035E+03 -0.43043187789E+03  0.62135662277E+03  0.50400001928E-02 0. -1.
</event>
<event>
 5   0  0.3657529E-04  0.1098341E+04  0.7818609E-02  0.9206810E-01
        1   -1    0    0  501    0  0.00000000000E+00  0.00000000000E+00  0.58127600617E+03  0.58127600620E+03  0.50400001928E-02 0.  1.
       -1   -1    0    0    0  501  0.00000000000E+00  0.00000000000E+00 -0.51883834283E+03  0.51883834285E+03  0.50400001928E-02 0. -1.
    10030    2    1    2    0    0  0.00000000000E+00  0.00000000000E+00  0.62437663348E+02  0.11001143490E+04  0.10983410760E+04 0.  0.
        4    1    3    3  502    0 -0.49025273753E+03 -0.18853862843E+02  0.27836292652E+03  0.56408398892E+03  0.12699999809E+01 0.  1.
       -4    1    3    3    0  502  0.49025273753E+03  0.18853862843E+02 -0.21592526318E+03  0.53603036012E+03  0.12699999809E+01 0. -1.
</event>
<event>
 5   0  0.3621403E-04  0.1097251E+04  0.7818609E-02  0.9207875E-01
       -1   -1    0    0    0  501  0.00000000000E+00  0.00000000000E+00  0.34972813521E+03  0.34972813525E+03  0.50400001928E-02 0. -1.
        1   -1    0    0  501    0  0.00000000000E+00  0.00000000000E+00 -0.86064006442E+03  0.86064006443E+03  0.50400001928E-02 0.  1.
    10030    2    1    2    0    0  0.00000000000E+00  0.00000000000E+00 -0.51091192920E+03  0.12103681997E+04  0.10972511925E+04 0.  0.
        3    1    3    3  502    0 -0.70674186700E+02 -0.28468599437E+03 -0.76687776553E+03  0.82106179641E+03  0.10100000352E+00 0.  1.
       -3    1    3    3    0  502  0.70674186700E+02  0.28468599437E+03  0.25596583633E+03  0.38930640327E+03  0.10100000352E+00 0. -1.
</event>
<event>
 5   0  0.2403875E-04  0.1095847E+04  0.7818609E-02  0.9209249E-01
        3   -1    0    0  501    0  0.00000000000E+00  0.00000000000E+00  0.10057303714E+04  0.10057303765E+04  0.10100000352E+00 0.  1.
       -3   -1    0    0    0  501  0.00000000000E+00  0.00000000000E+00 -0.29850979998E+03  0.29850981707E+03  0.10100000352E+00 0. -1.
    10030    2    1    2    0    0  0.00000000000E+00  0.00000000000E+00  0.70722057141E+03  0.13042401935E+04  0.10958474099E+04 0.  0.
        2    1    3    3  502    0 -0.57245164333E+02 -0.11517596809E+03 -0.28028894719E+03  0.30839002317E+03  0.25500000920E-02 0. -1.
       -2    1    3    3    0  502  0.57245164333E+02  0.11517596809E+03  0.98750951860E+03  0.99585017035E+03  0.25500000920E-02 0.  1.
</event>
<event>
 5   0  0.3523525E-04  0.1103164E+04  0.7818609E-02  0.9202114E-01
       -1   -1    0    0    0  501  0.00000000000E+00  0.00000000000E+00  0.32520132115E+03  0.32520132119E+03  0.50400001928E-02 0.  1.
        1   -1    0    0  501    0  0.00000000000E+00  0.00000000000E+00 -0.93555172297E+03  0.93555172298E+03  0.50400001928E-02 0. -1.
    10030    2    1    2    0    0  0.00000000000E+00  0.00000000000E+00 -0.61035040182E+03  0.12607530442E+04  0.11031639159E+04 0.  0.
        5    1    3    3  502    0  0.42877300997E+00  0.10012290279E+03 -0.92505602558E+03  0.93047059060E+03  0.46999998093E+01 0. -1.
       -5    1    3    3    0  502 -0.42877300997E+00 -0.10012290279E+03  0.31470562376E+03  0.33028245357E+03  0.46999998093E+01 0.  1.
</event>
<event>
 5   0  0.3621403E-04  0.1101334E+04  0.7818609E-02  0.9203892E-01
       -1   -1    0    0    0  501  0.00000000000E+00  0.00000000000E+00  0.96700286688E+03  0.96700286690E+03  0.50400001928E-02 0. -1.
        1   -1    0    0  501    0  0.00000000000E+00  0.00000000000E+00 -0.31358161017E+03  0.31358161021E+03  0.50400001928E-02 0.  1.
    10030    2    1    2    0    0  0.00000000000E+00  0.00000000000E+00  0.65342125672E+03  0.12805844771E+04  0.11013343109E+04 0.  0.
        3    1    3    3  502    0 -0.13735396012E+03  0.52809374174E+03  0.24059437699E+03  0.59635121771E+03  0.10100000352E+00 0.  1.
       -3    1    3    3    0  502  0.13735396012E+03 -0.52809374174E+03  0.41282687973E+03  0.68423325939E+03  0.10100000352E+00 0. -1.
</event>
<event>
 5   0  0.6245176E-04  0.1103547E+04  0.7818609E-02  0.9201742E-01
       -2   -1    0    0    0  501  0.00000000000E+00  0.00000000000E+00  0.61756647007E+03  0.61756647007E+03  0.25500000920E-02 0.  1.
        2   -1    0    0  501    0  0.00000000000E+00  0.00000000000E+00 -0.49298981309E+03  0.49298981309E+03  0.25500000920E-02 0. -1.
    10030    2    1    2    0    0  0.00000000000E+00  0.00000000000E+00  0.12457665698E+03  0.11105562832E+04  0.11035469698E+04 0.  0.
        5    1    3    3  502    0 -0.48681850962E+03  0.13289081445E+03 -0.16224236030E+03  0.53009141037E+03  0.46999998093E+01 0. -1.
       -5    1    3    3    0  502  0.48681850962E+03 -0.13289081445E+03  0.28681901728E+03  0.58046487279E+03  0.46999998093E+01 0.  1.
</event>
<event>
 5   0  0.3523525E-04  0.1099213E+04  0.7818609E-02  0.9205959E-01
        1   -1    0    0  501    0  0.00000000000E+00  0.00000000000E+00  0.89884425139E+03  0.89884425141E+03  0.50400001928E-02 0. -1.
       -1   -1    0    0    0  501  0.00000000000E+00  0.00000000000E+00 -0.33606178723E+03  0.33606178727E+03  0.50400001928E-02 0.  1.
    10030    2    1    2    0    0  0.00000000000E+00  0.00000000000E+00  0.56278246416E+03  0.12349060387E+04  0.10992128194E+04 0.  0.
        5    1    3    3  502    0 -0.99559885334E+02 -0.36392738135E+03  0.73033373784E+03  0.82204912766E+03  0.46999998093E+01 0. -1.
       -5    1    3    3    0  502  0.99559885334E+02  0.36392738135E+03 -0.16755127368E+03  0.41285691102E+03  0.46999998093E+01 0.  1.
</event>
<event>
 5   0  0.6245176E-04  0.1101783E+04  0.7818609E-02  0.9203456E-01
        2   -1    0    0  501    0  0.00000000000E+00  0.00000000000E+00  0.14585511039E+04  0.14585511039E+04  0.25500000920E-02 0.  1.
       -2   -1    0    0    0  501  0.00000000000E+00  0.00000000000E+00 -0.20807036891E+03  0.20807036893E+03  0.25500000920E-02 0. -1.
    10030    2    1    2    0    0  0.00000000000E+00  0.00000000000E+00  0.12504807350E+04  0.16666214728E+04  0.11017826760E+04 0.  0.
        5    1    3    3  502    0 -0.48474052529E+03 -0.52158213893E+02  0.10131579842E+04  0.11243687327E+04  0.46999998093E+01 0. -1.
       -5    1    3    3    0  502  0.48474052529E+03  0.52158213893E+02  0.23732275079E+03  0.54225274013E+03  0.46999998093E+01 0.  1.
</event>
<event>
 5   0  0.3657529E-04  0.1100162E+04  0.7818609E-02  0.9205034E-01
        1   -1    0    0  501    0  0.00000000000E+00  0.00000000000E+00  0.12526247672E+04  0.12526247672E+04  0.50400001928E-02 0. -1.
       -1   -1    0    0    0  501  0.00000000000E+00  0.00000000000E+00 -0.24156425291E+03  0.24156425296E+03  0.50400001928E-02 0.  1.
    10030    2    1    2    0    0  0.00000000000E+00  0.00000000000E+00  0.10110605143E+04  0.14941890201E+04  0.11001624718E+04 0.  0.
        4    1    3    3  502    0 -0.36996465512E+02  0.26204916433E+03 -0.14941678646E+03  0.30391691622E+03  0.12699999809E+01 0.  1.
       -4    1    3    3    0  502  0.36996465512E+02 -0.26204916433E+03  0.11604773007E+04  0.11902721039E+04  0.12699999809E+01 0. -1.
</event>
<event>
 5   0  0.3523525E-04  0.1096421E+04  0.7818609E-02  0.9208688E-01
        1   -1    0    0  501    0  0.00000000000E+00  0.00000000000E+00  0.68078819480E+03  0.68078819482E+03  0.50400001928E-02 0.  1.
       -1   -1    0    0    0  501  0.00000000000E+00  0.00000000000E+00 -0.44145089606E+03  0.44145089609E+03  0.50400001928E-02 0. -1.
    10030    2    1    2    0    0  0.00000000000E+00  0.00000000000E+00  0.23933729875E+03  0.11222390909E+04  0.10964206467E+04 0.  0.
        5    1    3    3  502    0 -0.75867930742E+02 -0.52115881407E+03 -0.36065493655E+02  0.52790649004E+03  0.46999998093E+01 0. -1.
       -5    1    3    3    0  502  0.75867930742E+02  0.52115881407E+03  0.27540279240E+03  0.59433260087E+03  0.46999998093E+01 0.  1.
</event>
<event>
 5   0  0.5948818E-04  0.1098152E+04  0.7818609E-02  0.9206995E-01
        2   -1    0    0  501    0  0.00000000000E+00  0.00000000000E+00  0.93831718117E+03  0.93831718117E+03  0.25500000920E-02 0.  1.
       -2   -1    0    0    0  501  0.00000000000E+00  0.00000000000E+00 -0.32130324271E+03  0.32130324272E+03  0.25500000920E-02 0. -1.
    10030    2    1    2    0    0  0.00000000000E+00  0.00000000000E+00  0.61701393846E+03  0.12596204239E+04  0.10981518165E+04 0.  0.
        3    1    3    3  502    0  0.26095741738E+03  0.39085747842E+03  0.63418460311E+03  0.78934052420E+03  0.10100000352E+00 0.  1.
       -3    1    3    3    0  502 -0.26095741738E+03 -0.39085747842E+03 -0.17170664649E+02  0.47027989969E+03  0.10100000352E+00 0. -1.
</event>
<event>
 5   0  0.6245176E-04  0.1099825E+04  0.7818609E-02  0.9205362E-01
       -2   -1    0    0    0  501  0.00000000000E+00  0.00000000000E+00  0.13535088545E+03  0.13535088548E+03  0.25500000920E-02 0.  1.
        2   -1    0    0  501    0  0.00000000000E+00  0.00000000000E+00 -0.22342212854E+04  0.22342212855E+04  0.25500000920E-02 0. -1.
    10030    2    1    2    0    0  0.00000000000E+00  0.00000000000E+00 -0.20988704000E+04  0.23695721709E+04  0.10998251303E+04 0.  0.
        5    1    3    3  502    0 -0.23197240009E+03 -0.38717782203E+03 -0.37268967149E+03  0.58535249338E+03  0.46999998093E+01 0.  1.
       -5    1    3    3    0  502  0.23197240009E+03  0.38717782203E+03 -0.17261807285E+04  0.17842196775E+04  0.46999998093E+01 0. -1.
</event>
<event>
 5   0  0.3523525E-04  0.1099225E+04  0.7818609E-02  0.9205948E-01
       -1   -1    0    0    0  501  0.00000000000E+00  0.00000000000E+00  0.31414491336E+03  0.31414491340E+03  0.50400001928E-02 0.  1.
        1   -1    0    0  501    0  0.00000000000E+00  0.00000000000E+00 -0.96157481443E+03  0.96157481444E+03  0.50400001928E-02 0. -1.
    10030    2    1    2    0    0  0.00000000000E+00  0.00000000000E+00 -0.64742990107E+03  0.12757197278E+04  0.10992248847E+04 0.  0.
        5    1    3    3  502    0  0.44886371997E+03 -0.23421065607E+03 -0.57186513011E+03  0.76379649617E+03  0.46999998093E+01 0. -1.
       -5    1    3    3    0  502 -0.44886371997E+03  0.23421065607E+03 -0.75564770955E+02  0.51192323168E+03  0.46999998093E+01 0.  1.
</event>
<event>
 5   0  0.6264830E-04  0.1099192E+04  0.7818609E-02  0.9205979E-01
       -2   -1    0    0    0  501  0.00000000000E+00  0.00000000000E+00  0.77547844733E+03  0.77547844733E+03  0.25500000920E-02 0.  1.
        2   -1    0    0  501    0  0.00000000000E+00  0.00000000000E+00 -0.38950920286E+03  0.38950920286E+03  0.25500000920E-02 0. -1.
    10030    2    1    2    0    0  0.00000000000E+00  0.00000000000E+00  0.38596924447E+03  0.11649876502E+04  0.10991924160E+04 0.  0.
        4    1    3    3  502    0  0.27542404945E+03  0.27517002912E+03  0.60411851148E+03  0.71870560089E+03  0.12699999809E+01 0.  1.
       -4    1    3    3    0  502 -0.27542404945E+03 -0.27517002912E+03 -0.21814926700E+03  0.44628204931E+03  0.12699999809E+01 0. -1.
</event>
<event>
 5   0  0.3423758E-04  0.1100813E+04  0.7818609E-02  0.9204400E-01
       -1   -1    0    0    0  501  0.00000000000E+00  0.00000000000E+00  0.81107050777E+03  0.81107050778E+03  0.50400001928E-02 0.  1.
        1   -1    0    0  501    0  0.00000000000E+00  0.00000000000E+00 -0.37351550913E+03  0.37351550916E+03  0.50400001928E-02 0. -1.
    10030    2    1    2    0    0  0.00000000000E+00  0.00000000000E+00  0.43755499864E+03  0.11845860169E+04  0.11008131788E+04 0.  0.
        1    1    3    3  502    0  0.27329969648E+03 -0.47124944420E+03  0.30336375690E+03  0.62353695301E+03  0.50400001928E-02 0.  1.
       -1    1    3    3    0  502 -0.27329969648E+03  0.47124944420E+03  0.13419124174E+03  0.56104906393E+03  0.50400001928E-02 0. -1.
</event>
<event>
 5   0  0.3642161E-04  0.1104347E+04  0.7818609E-02  0.9200966E-01
       -1   -1    0    0    0  501  0.00000000000E+00  0.00000000000E+00  0.22591312140E+03  0.22591312146E+03  0.50400001928E-02 0. -1.
        1   -1    0    0  501    0  0.00000000000E+00  0.00000000000E+00 -0.13496130749E+04  0.13496130749E+04  0.50400001928E-02 0.  1.
    10030    2    1    2    0    0  0.00000000000E+00  0.00000000000E+00 -0.11236999535E+04  0.15755261963E+04  0.11043465081E+04 0.  0.
        2    1    3    3  502    0 -0.13299300102E+03  0.30931953377E+03  0.62514528956E+02  0.34245259326E+03  0.25500000920E-02 0. -1.
       -2    1    3    3    0  502  0.13299300102E+03 -0.30931953377E+03 -0.11862144824E+04  0.12330736031E+04  0.25500000920E-02 0.  1.
</event>
<event>
 5   0  0.3657529E-04  0.1088568E+04  0.7818609E-02  0.9216406E-01
       -1   -1    0    0    0  501  0.00000000000E+00  0.00000000000E+00  0.52745601685E+03  0.52745601687E+03  0.50400001928E-02 0. -1.
        1   -1    0    0  501    0  0.00000000000E+00  0.00000000000E+00 -0.56164893771E+03  0.56164893773E+03  0.50400001928E-02 0.  1.
    10030    2    1    2    0    0  0.00000000000E+00  0.00000000000E+00 -0.34192920866E+02  0.10891049546E+04  0.10885680715E+04 0.  0.
        4    1    3    3  502    0  0.33783624019E+03 -0.19794886841E+03 -0.39533902377E+03  0.55642756609E+03  0.12699999809E+01 0.  1.
       -4    1    3    3    0  502 -0.33783624019E+03  0.19794886841E+03  0.36114610290E+03  0.53267738851E+03  0.12699999809E+01 0. -1.
</event>
<event>
 5   0  0.3657529E-04  0.1103486E+04  0.7818609E-02  0.9201801E-01
        1   -1    0    0  501    0  0.00000000000E+00  0.00000000000E+00  0.11911454011E+04  0.11911454011E+04  0.50400001928E-02 0.  1.
       -1   -1    0    0    0  501  0.00000000000E+00  0.00000000000E+00 -0.25556919408E+03  0.25556919413E+03  0.50400001928E-02 0. -1.
    10030    2    1    2    0    0  0.00000000000E+00  0.00000000000E+00  0.93557620701E+03  0.14467145952E+04  0.11034855146E+04 0.  0.
        4    1    3    3  502    0  0.21016332144E+03  0.49649883711E+03  0.62145831361E+03  0.82273432248E+03  0.12699999809E+01 0.  1.
       -4    1    3    3    0  502 -0.21016332144E+03 -0.49649883711E+03  0.31411789341E+03  0.62398027276E+03  0.12699999809E+01 0. -1.
</event>
<event>
 5   0  0.3423758E-04  0.1099065E+04  0.7818609E-02  0.9206103E-01
        1   -1    0    0  501    0  0.00000000000E+00  0.00000000000E+00  0.21161938838E+04  0.21161938838E+04  0.50400001928E-02 0. -1.
       -1   -1    0    0    0  501  0.00000000000E+00  0.00000000000E+00 -0.14270251041E+03  0.14270251050E+03  0.50400001928E-02 0.  1.
    10030    2    1    2    0    0  0.00000000000E+00  0.00000000000E+00  0.19734913734E+04  0.22588963943E+04  0.10990653845E+04 0.  0.
        1    1    3    3  502    0 -0.96304545827E+02  0.52226373548E+03  0.12770598541E+04  0.13830820098E+04  0.50400001928E-02 0. -1.
       -1    1    3    3    0  502  0.96304545827E+02 -0.52226373548E+03  0.69643151927E+03  0.87581438445E+03  0.50400001928E-02 0.  1.
</event>
<event>
 5   0  0.3523525E-04  0.1103888E+04  0.7818609E-02  0.9201410E-01
        1   -1    0    0  501    0  0.00000000000E+00  0.00000000000E+00  0.59840138327E+03  0.59840138329E+03  0.50400001928E-02 0. -1.
       -1   -1    0    0    0  501  0.00000000000E+00  0.00000000000E+00 -0.50909375318E+03  0.50909375321E+03  0.50400001928E-02 0.  1.
    10030    2    1    2    0    0  0.00000000000E+00  0.00000000000E+00  0.89307630090E+02  0.11074951365E+04  0.11038884113E+04 0.  0.
        5    1    3    3  502    0 -0.83075783890E+02 -0.32505332461E+03 -0.39502350142E+03  0.51829229821E+03  0.46999998093E+01 0.  1.
       -5    1    3    3    0  502  0.83075783890E+02  0.32505332461E+03  0.48433113151E+03  0.58920283830E+03  0.46999998093E+01 0. -1.
</event>
<event>
 5   0  0.6264830E-04  0.1100262E+04  0.7818609E-02  0.9204936E-01
        2   -1    0    0  501    0  0.00000000000E+00  0.00000000000E+00  0.17832245219E+03  0.17832245221E+03  0.25500000920E-02 0.  1.
       -2   -1    0    0    0  501  0.00000000000E+00  0.00000000000E+00 -0.16971738717E+04  0.16971738717E+04  0.25500000920E-02 0. -1.
    10030    2    1    2    0    0  0.00000000000E+00  0.00000000000E+00 -0.15188514195E+04  0.18754963239E+04  0.11002621626E+04 0.  0.
        4    1    3    3  502    0  0.32960531781E+02 -0.29341242832E+02  0.17529819784E+03  0.18077161351E+03  0.12699999809E+01 0.  1.
       -4    1    3    3    0  502 -0.32960531781E+02  0.29341242832E+02 -0.16941496173E+04  0.16947247104E+04  0.12699999809E+01 0. -1.
</event>
<event>
 5   0  0.3523525E-04  0.1099066E+04  0.7818609E-02  0.9206103E-01
        1   -1    0    0  501    0  0.00000000000E+00  0.00000000000E+00  0.98083812358E+03  0.98083812359E+03  0.50400001928E-02 0.  1.
       -1   -1    0    0    0  501  0.00000000000E+00  0.00000000000E+00 -0.30788621073E+03  0.30788621077E+03  0.50400001928E-02 0. -1.
    10030    2    1    2    0    0  0.00000000000E+00  0.00000000000E+00  0.67295191285E+03  0.12887243344E+04  0.10990660276E+04 0.  0.
        5    1    3    3  502    0 -0.40570283814E+03 -0.43460238872E+02 -0.95117860655E+02  0.41899055198E+03  0.46999998093E+01 0. -1.
       -5    1    3    3    0  502  0.40570283814E+03  0.43460238872E+02  0.76806977351E+03  0.86973378238E+03  0.46999998093E+01 0.  1.
</event>
<event>
 5   0  0.6264830E-04  0.1099766E+04  0.7818609E-02  0.9205420E-01
       -2   -1    0    0    0  501  0.00000000000E+00  0.00000000000E+00  0.21602824557E+03  0.21602824558E+03  0.25500000920E-02 0.  1.
        2   -1    0    0  501    0  0.00000000000E+00  0.00000000000E+00 -0.13996846490E+04  0.13996846490E+04  0.25500000920E-02 0. -1.
    10030    2    1    2    0    0  0.00000000000E+00  0.00000000000E+00 -0.11836564035E+04  0.16157128946E+04  0.10997661917E+04 0.  0.
        4    1    3    3  502    0  0.41353972375E+03  0.36091273992E+03 -0.64048093037E+03  0.84349898875E+03  0.12699999809E+01 0. -1.
       -4    1    3    3    0  502 -0.41353972375E+03 -0.36091273992E+03 -0.54317547311E+03  0.77221390589E+03  0.12699999809E+01 0.  1.
</event>
<event>
 5   0  0.3423758E-04  0.1098805E+04  0.7818609E-02  0.9206358E-01
       -1   -1    0    0    0  501  0.00000000000E+00  0.00000000000E+00  0.37629246184E+03  0.37629246188E+03  0.50400001928E-02 0. -1.
        1   -1    0    0  501    0  0.00000000000E+00  0.00000000000E+00 -0.80214967615E+03  0.80214967617E+03  0.50400001928E-02 0.  1.
    10030    2    1    2    0    0  0.00000000000E+00  0.00000000000E+00 -0.42585721431E+03  0.11784421380E+04  0.10988045803E+04 0.  0.
        1    1    3    3  502    0  0.45900234657E+03  0.29965562165E+03 -0.25257008324E+03  0.60354642962E+03  0.50400001928E-02 0. -1.
       -1    1    3    3    0  502 -0.45900234657E+03 -0.29965562165E+03 -0.17328713107E+03  0.57489570842E+03  0.50400001928E-02 0.  1.
</event>
<event>
 5   0  0.2403875E-04  0.1099745E+04  0.7818609E-02  0.9205440E-01
       -3   -1    0    0    0  501  0.00000000000E+00  0.00000000000E+00  0.43579616399E+03  0.43579617570E+03  0.10100000352E+00 0. -1.
        3   -1    0    0  501    0  0.00000000000E+00  0.00000000000E+00 -0.69381066146E+03  0.69381066881E+03  0.10100000352E+00 0.  1.
    10030    2    1    2    0    0  0.00000000000E+00  0.00000000000E+00 -0.25801449746E+03  0.11296068445E+04  0.10997454898E+04 0.  0.
        3    1    3    3  502    0  0.11599918948E+03  0.20172624149E+03  0.38272808845E+03  0.44791750172E+03  0.10100000352E+00 0. -1.
       -3    1    3    3    0  502 -0.11599918948E+03 -0.20172624149E+03 -0.64074258591E+03  0.68168934278E+03  0.10100000352E+00 0.  1.
</event>
<event>
 5   0  0.6109149E-04  0.1099297E+04  0.7818609E-02  0.9205877E-01
       -2   -1    0    0    0  501  0.00000000000E+00  0.00000000000E+00  0.26540499106E+03  0.26540499107E+03  0.25500000920E-02 0. -1.
        2   -1    0    0  501    0  0.00000000000E+00  0.00000000000E+00 -0.11383118769E+04  0.11383118769E+04  0.25500000920E-02 0.  1.
    10030    2    1    2    0    0  0.00000000000E+00  0.00000000000E+00 -0.87290688581E+03  0.14037168679E+04  0.10992973274E+04 0.  0.
        1    1    3    3  502    0  0.12635033299E+03  0.51239523005E+03 -0.24028741468E+03  0.57987181351E+03  0.50400001928E-02 0. -1.
       -1    1    3    3    0  502 -0.12635033299E+03 -0.51239523005E+03 -0.63261947114E+03  0.82384505443E+03  0.50400001928E-02 0.  1.
</event>
<event>
 5   0  0.3621403E-04  0.1100163E+04  0.7818609E-02  0.9205033E-01
        1   -1    0    0  501    0  0.00000000000E+00  0.00000000000E+00  0.75935832513E+03  0.75935832514E+03  0.50400001928E-02 0. -1.
       -1   -1    0    0    0  501  0.00000000000E+00  0.00000000000E+00 -0.39848106110E+03  0.39848106114E+03  0.50400001928E-02 0.  1.
    10030    2    1    2    0    0  0.00000000000E+00  0.00000000000E+00  0.36087726402E+03  0.11578393863E+04  0.11001634627E+04 0.  0.
        3    1    3    3  502    0 -0.98909754644E+02  0.79137230027E+02 -0.38292240415E+03  0.40333040865E+03  0.10100000352E+00 0.  1.
       -3    1    3    3    0  502  0.98909754644E+02 -0.79137230027E+02  0.74379966818E+03  0.75450897763E+03  0.10100000352E+00 0. -1.
</event>
<event>
 5   0  0.6412712E-04  0.1100141E+04  0.7818609E-02  0.9205054E-01
        2   -1    0    0  501    0  0.00000000000E+00  0.00000000000E+00  0.67591332883E+03  0.67591332884E+03  0.25500000920E-02 0. -1.
       -2   -1    0    0    0  501  0.00000000000E+00  0.00000000000E+00 -0.44765735705E+03  0.44765735706E+03  0.25500000920E-02 0.  1.
    10030    2    1    2    0    0  0.00000000000E+00  0.00000000000E+00  0.22825597178E+03  0.11235706859E+04  0.11001410353E+04 0.  0.
        2    1    3    3  502    0 -0.32195985861E+03  0.38416187802E+03 -0.11727878212E+03  0.51477452523E+03  0.25500000920E-02 0.  1.
       -2    1    3    3    0  502  0.32195985861E+03 -0.38416187802E+03  0.34553475391E+03  0.60879616067E+03  0.25500000920E-02 0. -1.
</event>
<event>
 5   0  0.3423758E-04  0.1098523E+04  0.7818609E-02  0.9206632E-01
       -1   -1    0    0    0  501  0.00000000000E+00  0.00000000000E+00  0.29882734751E+03  0.29882734755E+03  0.50400001928E-02 0.  1.
        1   -1    0    0  501    0  0.00000000000E+00  0.00000000000E+00 -0.10095744463E+04  0.10095744463E+04  0.50400001928E-02 0. -1.
    10030    2    1    2    0    0  0.00000000000E+00  0.00000000000E+00 -0.71074709878E+03  0.13084017939E+04  0.10985234707E+04 0.  0.
        1    1    3    3  502    0 -0.27043231606E+03  0.51836692205E+02 -0.92142893415E+03  0.96169223816E+03  0.50400001928E-02 0. -1.
       -1    1    3    3    0  502  0.27043231606E+03 -0.51836692205E+02  0.21068183537E+03  0.34670955569E+03  0.50400001928E-02 0.  1.
</event>
<event>
 5   0  0.3621403E-04  0.1085921E+04  0.7818609E-02  0.9219023E-01
       -1   -1    0    0    0  501  0.00000000000E+00  0.00000000000E+00  0.48120121592E+03  0.48120121595E+03  0.50400001928E-02 0.  1.
        1   -1    0    0  501    0  0.00000000000E+00  0.00000000000E+00 -0.61264674851E+03  0.61264674853E+03  0.50400001928E-02 0. -1.
    10030    2    1    2    0    0  0.00000000000E+00  0.00000000000E+00 -0.13144553259E+03  0.10938479645E+04  0.10859214711E+04 0.  0.
        3    1    3    3  502    0  0.42198561561E+03  0.33693674644E+03 -0.12277646371E+03  0.55378001149E+03  0.10100000352E+00 0.  1.
       -3    1    3    3    0  502 -0.42198561561E+03 -0.33693674644E+03 -0.86690688832E+01  0.54006795298E+03  0.10100000352E+00 0. -1.
</event>
<event>
 5   0  0.3423758E-04  0.1100010E+04  0.7818609E-02  0.9205182E-01
        1   -1    0    0  501    0  0.00000000000E+00  0.00000000000E+00  0.37908027529E+03  0.37908027532E+03  0.50400001928E-02 0. -1.
       -1   -1    0    0    0  501  0.00000000000E+00  0.00000000000E+00 -0.79799915034E+03  0.79799915036E+03  0.50400001928E-02 0.  1.
    10030    2    1    2    0    0  0.00000000000E+00  0.00000000000E+00 -0.41891887506E+03  0.11770794257E+04  0.11000104320E+04 0.  0.
        1    1    3    3  502    0 -0.53937701975E+03 -0.10742800958E+03 -0.20291620960E+03  0.58621099855E+03  0.50400001928E-02 0. -1.
       -1    1    3    3    0  502  0.53937701975E+03  0.10742800958E+03 -0.21600266545E+03  0.59086842713E+03  0.50400001928E-02 0.  1.
</event>
<event>
 5   0  0.6245176E-04  0.1100080E+04  0.7818609E-02  0.9205114E-01
       -2   -1    0    0    0  501  0.00000000000E+00  0.00000000000E+00  0.47205957347E+03  0.47205957348E+03  0.25500000920E-02 0.  1.
        2   -1    0    0  501    0  0.00000000000E+00  0.00000000000E+00 -0.64090223787E+03  0.64090223787E+03  0.25500000920E-02 0. -1.
    10030    2    1    2    0    0  0.00000000000E+00  0.00000000000E+00 -0.16884266439E+03  0.11129618113E+04  0.11000800645E+04 0.  0.
        5    1    3    3  502    0 -0.26397337444E+03 -0.28041448788E+03  0.31286994123E+03  0.49620955004E+03  0.46999998093E+01 0.  1.
       -5    1    3    3    0  502  0.26397337444E+03  0.28041448788E+03 -0.48171260562E+03  0.61675226131E+03  0.46999998093E+01 0. -1.
</event>
<event>
 5   0  0.5948818E-04  0.1099669E+04  0.7818609E-02  0.9205514E-01
        2   -1    0    0  501    0  0.00000000000E+00  0.00000000000E+00  0.69189500754E+03  0.69189500755E+03  0.25500000920E-02 0.  1.
       -2   -1    0    0    0  501  0.00000000000E+00  0.00000000000E+00 -0.43694206664E+03  0.43694206664E+03  0.25500000920E-02 0. -1.
    10030    2    1    2    0    0  0.00000000000E+00  0.00000000000E+00  0.25495294091E+03  0.11288370742E+04  0.10996691039E+04 0.  0.
        3    1    3    3  502    0 -0.24663009315E+03 -0.30187906970E+03  0.52552528649E+03  0.65431965622E+03  0.10100000352E+00 0.  1.
       -3    1    3    3    0  502  0.24663009315E+03  0.30187906970E+03 -0.27057234559E+03  0.47451741798E+03  0.10100000352E+00 0. -1.
</event>
<event>
 5   0  0.6109149E-04  0.1096122E+04  0.7818609E-02  0.9208980E-01
        2   -1    0    0  501    0  0.00000000000E+00  0.00000000000E+00  0.43855606066E+03  0.43855606067E+03  0.25500000920E-02 0.  1.
       -2   -1    0    0    0  501  0.00000000000E+00  0.00000000000E+00 -0.68490903812E+03  0.68490903812E+03  0.25500000920E-02 0. -1.
    10030    2    1    2    0    0  0.00000000000E+00  0.00000000000E+00 -0.24635297746E+03  0.11234650988E+04  0.10961222736E+04 0.  0.
        1    1    3    3  502    0 -0.20489609429E+03  0.15863159144E+03 -0.61815663312E+03  0.67027159746E+03  0.50400001928E-02 0. -1.
       -1    1    3    3    0  502  0.20489609429E+03 -0.15863159144E+03  0.37180365567E+03  0.45319350133E+03  0.50400001928E-02 0.  1.
</event>
<event>
 5   0  0.3642161E-04  0.1094465E+04  0.7818609E-02  0.9210603E-01
       -1   -1    0    0    0  501  0.00000000000E+00  0.00000000000E+00  0.52873859772E+03  0.52873859775E+03  0.50400001928E-02 0. -1.
        1   -1    0    0  501    0  0.00000000000E+00  0.00000000000E+00 -0.56637338916E+03  0.56637338918E+03  0.50400001928E-02 0.  1.
    10030    2    1    2    0    0  0.00000000000E+00  0.00000000000E+00 -0.37634791435E+02  0.10951119869E+04  0.10944651143E+04 0.  0.
        2    1    3    3  502    0  0.22865927784E+03 -0.45215255298E+03  0.18803281082E+03  0.54044734661E+03  0.25500000920E-02 0. -1.
       -2    1    3    3    0  502 -0.22865927784E+03  0.45215255298E+03 -0.22566760226E+03  0.55466464032E+03  0.25500000920E-02 0.  1.
</event>
<event>
 5   0  0.3423758E-04  0.1106285E+04  0.7818609E-02  0.9199088E-01
        1   -1    0    0  501    0  0.00000000000E+00  0.00000000000E+00  0.60084363260E+03  0.60084363262E+03  0.50400001928E-02 0.  1.
       -1   -1    0    0    0  501  0.00000000000E+00  0.00000000000E+00 -0.50922848360E+03  0.50922848363E+03  0.50400001928E-02 0. -1.
    10030    2    1    2    0    0  0.00000000000E+00  0.00000000000E+00  0.91615149001E+02  0.11100721162E+04  0.11062851205E+04 0.  0.
        1    1    3    3  502    0  0.33483298042E+02  0.35307088524E+02  0.59869188979E+03  0.60066604755E+03  0.50400001928E-02 0.  1.
       -1    1    3    3    0  502 -0.33483298042E+02 -0.35307088524E+02 -0.50707674079E+03  0.50940606870E+03  0.50400001928E-02 0. -1.
</event>
<event>
 5   0  0.6245176E-04  0.1106978E+04  0.7818609E-02  0.9198418E-01
        2   -1    0    0  501    0  0.00000000000E+00  0.00000000000E+00  0.58786774313E+03  0.58786774314E+03  0.25500000920E-02 0.  1.
       -2   -1    0    0    0  501  0.00000000000E+00  0.00000000000E+00 -0.52112037966E+03  0.52112037967E+03  0.25500000920E-02 0. -1.
    10030    2    1    2    0    0  0.00000000000E+00  0.00000000000E+00  0.66747363469E+02  0.11089881228E+04  0.11069776177E+04 0.  0.
        5    1    3    3  502    0  0.34361805698E+03  0.81246236757E+02  0.46035599133E+03  0.58019311338E+03  0.46999998093E+01 0.  1.
       -5    1    3    3    0  502 -0.34361805698E+03 -0.81246236757E+02 -0.39360862786E+03  0.52879500942E+03  0.46999998093E+01 0. -1.
</event>
<event>
 5   0  0.3621403E-04  0.1102266E+04  0.7818609E-02  0.9202986E-01
        1   -1    0    0  501    0  0.00000000000E+00  0.00000000000E+00  0.14633411409E+04  0.14633411409E+04  0.50400001928E-02 0.  1.
       -1   -1    0    0    0  501  0.00000000000E+00  0.00000000000E+00 -0.20757130171E+03  0.20757130177E+03  0.50400001928E-02 0. -1.
    10030    2    1    2    0    0  0.00000000000E+00  0.00000000000E+00  0.12557698392E+04  0.16709124427E+04  0.11022660759E+04 0.  0.
        3    1    3    3  502    0  0.15169014978E+03  0.19906704590E+03 -0.11646112628E+03  0.27604491381E+03  0.10100000352E+00 0. -1.
       -3    1    3    3    0  502 -0.15169014978E+03 -0.19906704590E+03  0.13722309655E+04  0.13948675289E+04  0.10100000352E+00 0.  1.
</event>
<event>
 5   0  0.3657529E-04  0.1099462E+04  0.7818609E-02  0.9205716E-01
        1   -1    0    0  501    0  0.00000000000E+00  0.00000000000E+00  0.10734924768E+04  0.10734924768E+04  0.50400001928E-02 0. -1.
       -1   -1    0    0    0  501  0.00000000000E+00  0.00000000000E+00 -0.28151499608E+03  0.28151499612E+03  0.50400001928E-02 0.  1.
    10030    2    1    2    0    0  0.00000000000E+00  0.00000000000E+00  0.79197748070E+03  0.13550074729E+04  0.10994621056E+04 0.  0.
        4    1    3    3  502    0 -0.18602681943E+03  0.41058501161E+01 -0.24152283206E+03  0.30488969622E+03  0.12699999809E+01 0.  1.
       -4    1    3    3    0  502  0.18602681943E+03 -0.41058501161E+01  0.10335003128E+04  0.10501177767E+04  0.12699999809E+01 0. -1.
</event>
<event>
 5   0  0.6245176E-04  0.1109940E+04  0.7818609E-02  0.9195557E-01
       -2   -1    0    0    0  501  0.00000000000E+00  0.00000000000E+00  0.24894709785E+03  0.24894709786E+03  0.25500000920E-02 0. -1.
        2   -1    0    0  501    0  0.00000000000E+00  0.00000000000E+00 -0.12371777700E+04  0.12371777700E+04  0.25500000920E-02 0.  1.
    10030    2    1    2    0    0  0.00000000000E+00  0.00000000000E+00 -0.98823067217E+03  0.14861248679E+04  0.11099402063E+04 0.  0.
        5    1    3    3  502    0  0.34154820167E+03  0.27743612731E+03 -0.41361720611E+02  0.44199418630E+03  0.46999998093E+01 0. -1.
       -5    1    3    3    0  502 -0.34154820167E+03 -0.27743612731E+03 -0.94686895156E+03  0.10441306816E+04  0.46999998093E+01 0.  1.
</event>
<event>
 5   0  0.3523525E-04  0.1100517E+04  0.7818609E-02  0.9204689E-01
       -1   -1    0    0    0  501  0.00000000000E+00  0.00000000000E+00  0.30710353042E+03  0.30710353047E+03  0.50400001928E-02 0.  1.
        1   -1    0    0  501    0  0.00000000000E+00  0.00000000000E+00 -0.98593523784E+03  0.98593523785E+03  0.50400001928E-02 0. -1.
    10030    2    1    2    0    0  0.00000000000E+00  0.00000000000E+00 -0.67883170741E+03  0.12930387683E+04  0.11005165920E+04 0.  0.
        5    1    3    3  502    0 -0.18988406763E+03  0.18542763928E+03 -0.90573442849E+03  0.94383065933E+03  0.46999998093E+01 0. -1.
       -5    1    3    3    0  502  0.18988406763E+03 -0.18542763928E+03  0.22690272108E+03  0.34920810898E+03  0.46999998093E+01 0.  1.
</event>
<event>
 5   0  0.6245176E-04  0.1098105E+04  0.7818609E-02  0.9207040E-01
       -2   -1    0    0    0  501  0.00000000000E+00  0.00000000000E+00  0.49708951971E+03  0.49708951972E+03  0.25500000920E-02 0. -1.
        2   -1    0    0  501    0  0.00000000000E+00  0.00000000000E+00 -0.60644780965E+03  0.60644780965E+03  0.25500000920E-02 0.  1.
    10030    2    1    2    0    0  0.00000000000E+00  0.00000000000E+00 -0.10935828994E+03  0.11035373294E+04  0.10981053691E+04 0.  0.
        5    1    3    3  502    0 -0.16144447923E+03 -0.52364705813E+03 -0.20360560972E+02  0.54836776328E+03  0.46999998093E+01 0. -1.
       -5    1    3    3    0  502  0.16144447923E+03  0.52364705813E+03 -0.88997728964E+02  0.55516956609E+03  0.46999998093E+01 0.  1.
</event>
<event>
 5   0  0.6264830E-04  0.1099714E+04  0.7818609E-02  0.9205471E-01
        2   -1    0    0  501    0  0.00000000000E+00  0.00000000000E+00  0.86575286768E+03  0.86575286768E+03  0.25500000920E-02 0.  1.
       -2   -1    0    0    0  501  0.00000000000E+00  0.00000000000E+00 -0.34922500603E+03  0.34922500604E+03  0.25500000920E-02 0. -1.
    10030    2    1    2    0    0  0.00000000000E+00  0.00000000000E+00  0.51652786165E+03  0.12149778737E+04  0.10997136908E+04 0.  0.
        4    1    3    3  502    0 -0.37477067483E+03  0.17980269660E+03  0.65593345663E+03  0.77655159574E+03  0.12699999809E+01 0.  1.
       -4    1    3    3    0  502  0.37477067483E+03 -0.17980269660E+03 -0.13940559499E+03  0.43842627798E+03  0.12699999809E+01 0. -1.
</event>
<event>
 5   0  0.6109149E-04  0.1100037E+04  0.7818609E-02  0.9205156E-01
       -2   -1    0    0    0  501  0.00000000000E+00  0.00000000000E+00  0.19292040381E+03  0.19292040383E+03  0.25500000920E-02 0.  1.
        2   -1    0    0  501    0  0.00000000000E+00  0.00000000000E+00 -0.15681091572E+04  0.15681091572E+04  0.25500000920E-02 0. -1.
    10030    2    1    2    0    0  0.00000000000E+00  0.00000000000E+00 -0.13751887534E+04  0.17610295611E+04  0.11000368209E+04 0.  0.
        1    1    3    3  502    0  0.33329985824E+03 -0.29196110935E+03 -0.12092712397E+04  0.12878924707E+04  0.50400001928E-02 0. -1.
       -1    1    3    3    0  502 -0.33329985824E+03  0.29196110935E+03 -0.16591751369E+03  0.47313709033E+03  0.50400001928E-02 0.  1.
</event>
<event>
 5   0  0.6109149E-04  0.1103670E+04  0.7818609E-02  0.9201622E-01
       -2   -1    0    0    0  501  0.00000000000E+00  0.00000000000E+00  0.69793065946E+03  0.69793065946E+03  0.25500000920E-02 0. -1.
        2   -1    0    0  501    0  0.00000000000E+00  0.00000000000E+00 -0.43632128451E+03  0.43632128452E+03  0.25500000920E-02 0.  1.
    10030    2    1    2    0    0  0.00000000000E+00  0.00000000000E+00  0.26160937494E+03  0.11342519440E+04  0.11036702439E+04 0.  0.
        1    1    3    3  502    0 -0.42751178556E+03 -0.33739745298E+03  0.39352241221E+02  0.54603293580E+03  0.50400001928E-02 0.  1.
       -1    1    3    3    0  502  0.42751178556E+03  0.33739745298E+03  0.22225713372E+03  0.58821900818E+03  0.50400001928E-02 0. -1.
</event>
<event>
 5   0  0.3642161E-04  0.1100472E+04  0.7818609E-02  0.9204732E-01
        1   -1    0    0  501    0  0.00000000000E+00  0.00000000000E+00  0.42176185934E+03  0.42176185937E+03  0.50400001928E-02 0. -1.
       -1   -1    0    0    0  501  0.00000000000E+00  0.00000000000E+00 -0.71784503109E+03  0.71784503110E+03  0.50400001928E-02 0.  1.
    10030    2    1    2    0    0  0.00000000000E+00  0.00000000000E+00 -0.29608317175E+03  0.11396068905E+04  0.11004719988E+04 0.  0.
        2    1    3    3  502    0 -0.44287875172E+03 -0.31094029789E+03 -0.25125650205E+03  0.59661988519E+03  0.25500000920E-02 0.  1.
       -2    1    3    3    0  502  0.44287875172E+03  0.31094029789E+03 -0.44826669699E+02  0.54298700528E+03  0.25500000920E-02 0. -1.
</event>
<event>
 5   0  0.6109149E-04  0.1097105E+04  0.7818609E-02  0.9208018E-01
       -2   -1    0    0    0  501  0.00000000000E+00  0.00000000000E+00  0.72213867423E+03  0.72213867424E+03  0.25500000920E-02 0.  1.
        2   -1    0    0  501    0  0.00000000000E+00  0.00000000000E+00 -0.41669254409E+03  0.41669254409E+03  0.25500000920E-02 0. -1.
    10030    2    1    2    0    0  0.00000000000E+00  0.00000000000E+00  0.30544613015E+03  0.11388312183E+04  0.10971049200E+04 0.  0.
        1    1    3    3  502    0  0.50690834378E+03  0.19717220404E+03  0.78761081396E+02  0.54957825195E+03  0.50400001928E-02 0. -1.
       -1    1    3    3    0  502 -0.50690834378E+03 -0.19717220404E+03  0.22668504875E+03  0.58925296639E+03  0.50400001928E-02 0.  1.
</event>
<event>
 5   0  0.3523525E-04  0.1099724E+04  0.7818609E-02  0.9205461E-01
        1   -1    0    0  501    0  0.00000000000E+00  0.00000000000E+00  0.21950228769E+03  0.21950228775E+03  0.50400001928E-02 0. -1.
       -1   -1    0    0    0  501  0.00000000000E+00  0.00000000000E+00 -0.13774266930E+04  0.13774266930E+04  0.50400001928E-02 0.  1.
    10030    2    1    2    0    0  0.00000000000E+00  0.00000000000E+00 -0.11579244053E+04  0.15969289807E+04  0.10997241659E+04 0.  0.
        5    1    3    3  502    0  0.17275226002E+03 -0.29932340643E+03 -0.11999668994E+04  0.12487515744E+04  0.46999998093E+01 0.  1.
       -5    1    3    3    0  502 -0.17275226002E+03  0.29932340643E+03  0.42042494079E+02  0.34817740634E+03  0.46999998093E+01 0. -1.
</event>
<event>
 5   0  0.3621403E-04  0.1092114E+04  0.7818609E-02  0.9212913E-01
       -1   -1    0    0    0  501  0.00000000000E+00  0.00000000000E+00  0.22891128669E+03  0.22891128675E+03  0.50400001928E-02 0. -1.
        1   -1    0    0  501    0  0.00000000000E+00  0.00000000000E+00 -0.13025919542E+04  0.13025919542E+04  0.50400001928E-02 0.  1.
    10030    2    1    2    0    0  0.00000000000E+00  0.00000000000E+00 -0.10736806675E+04  0.15315032409E+04  0.10921135478E+04 0.  0.
        3    1    3    3  502    0  0.41029457289E+03  0.41349675262E+02 -0.34879646599E+02  0.41384542058E+03  0.10100000352E+00 0. -1.
       -3    1    3    3    0  502 -0.41029457289E+03 -0.41349675262E+02 -0.10388010209E+04  0.11176578203E+04  0.10100000352E+00 0.  1.
</event>
<event>
 5   0  0.6264830E-04  0.1102312E+04  0.7818609E-02  0.9202941E-01
       -2   -1    0    0    0  501  0.00000000000E+00  0.00000000000E+00  0.25848621970E+03  0.25848621971E+03  0.25500000920E-02 0.  1.
        2   -1    0    0  501    0  0.00000000000E+00  0.00000000000E+00 -0.11751999553E+04  0.11751999553E+04  0.25500000920E-02 0. -1.
    10030    2    1    2    0    0  0.00000000000E+00  0.00000000000E+00 -0.91671373559E+03  0.14336861750E+04  0.11023121043E+04 0.  0.
        4    1    3    3  502    0  0.49814177752E+03  0.62111605698E+02 -0.75428173954E+03  0.90606050437E+03  0.12699999809E+01 0.  1.
       -4    1    3    3    0  502 -0.49814177752E+03 -0.62111605698E+02 -0.16243199605E+03  0.52762567064E+03  0.12699999809E+01 0. -1.
</event>
<event>
 5   0  0.3657529E-04  0.1099802E+04  0.7818609E-02  0.9205385E-01
        1   -1    0    0  501    0  0.00000000000E+00  0.00000000000E+00  0.77448096977E+03  0.77448096978E+03  0.50400001928E-02 0.  1.
       -1   -1    0    0    0  501  0.00000000000E+00  0.00000000000E+00 -0.39044377377E+03  0.39044377381E+03  0.50400001928E-02 0. -1.
    10030    2    1    2    0    0  0.00000000000E+00  0.00000000000E+00  0.38403719599E+03  0.11649247436E+04  0.10998022960E+04 0.  0.
        4    1    3    3  502    0 -0.50534159809E+02 -0.44598855713E+03  0.52852531703E+03  0.69339751805E+03  0.12699999809E+01 0.  1.
       -4    1    3    3    0  502  0.50534159809E+02  0.44598855713E+03 -0.14448812104E+03  0.47152722554E+03  0.12699999809E+01 0. -1.
</event>
<event>
 5   0  0.5948818E-04  0.1099152E+04  0.7818609E-02  0.9206019E-01
       -2   -1    0    0    0  501  0.00000000000E+00  0.00000000000E+00  0.97543486477E+03  0.97543486477E+03  0.25500000920E-02 0.  1.
        2   -1    0    0  501    0  0.00000000000E+00  0.00000000000E+00 -0.30964003897E+03  0.30964003899E+03  0.25500000920E-02 0. -1.
    10030    2    1    2    0    0  0.00000000000E+00  0.00000000000E+00  0.66579482579E+03  0.12850749038E+04  0.10991518358E+04 0.  0.
        3    1    3    3  502    0 -0.43706452770E+02 -0.49510532465E+03  0.60707311949E+03  0.78458735595E+03  0.10100000352E+00 0.  1.
       -3    1    3    3    0  502  0.43706452770E+02  0.49510532465E+03  0.58721706303E+02  0.50048754780E+03  0.10100000352E+00 0. -1.
</event>
<event>
 5   0  0.5948818E-04  0.1090260E+04  0.7818609E-02  0.9214738E-01
       -2   -1    0    0    0  501  0.00000000000E+00  0.00000000000E+00  0.58405449603E+03  0.58405449604E+03  0.25500000920E-02 0.  1.
        2   -1    0    0  501    0  0.00000000000E+00  0.00000000000E+00 -0.50879951029E+03  0.50879951029E+03  0.25500000920E-02 0. -1.
    10030    2    1    2    0    0  0.00000000000E+00  0.00000000000E+00  0.75254985742E+02  0.10928540063E+04  0.10902598618E+04 0.  0.
        3    1    3    3  502    0  0.10143200699E+03 -0.52809478245E+03  0.12724985211E+03  0.55259848566E+03  0.10100000352E+00 0. -1.
       -3    1    3    3    0  502 -0.10143200699E+03  0.52809478245E+03 -0.51994866372E+02  0.54025552067E+03  0.10100000352E+00 0.  1.
</event>
<event>
 5   0  0.5948818E-04  0.1100325E+04  0.7818609E-02  0.9204875E-01
        2   -1    0    0  501    0  0.00000000000E+00  0.00000000000E+00  0.51675988106E+03  0.51675988106E+03  0.25500000920E-02 0. -1.
       -2   -1    0    0    0  501  0.00000000000E+00  0.00000000000E+00 -0.58572456086E+03  0.58572456087E+03  0.25500000920E-02 0.  1.
    10030    2    1    2    0    0  0.00000000000E+00  0.00000000000E+00 -0.68964679806E+02  0.11024844419E+04  0.11003253235E+04 0.  0.
        3    1    3    3  502    0  0.11140718840E+03 -0.52883086575E+03 -0.13766644446E+03  0.55769678709E+03  0.10100000352E+00 0. -1.
       -3    1    3    3    0  502 -0.11140718840E+03  0.52883086575E+03  0.68701764657E+02  0.54478765484E+03  0.10100000352E+00 0.  1.
</event>
<event>
 5   0  0.3642161E-04  0.1099741E+04  0.7818609E-02  0.9205444E-01
        1   -1    0    0  501    0  0.00000000000E+00  0.00000000000E+00  0.13630651420E+04  0.13630651420E+04  0.50400001928E-02 0.  1.
       -1   -1    0    0    0  501  0.00000000000E+00  0.00000000000E+00 -0.22182196013E+03  0.22182196019E+03  0.50400001928E-02 0. -1.
    10030    2    1    2    0    0  0.00000000000E+00  0.00000000000E+00  0.11412431819E+04  0.15848871022E+04  0.10997413908E+04 0.  0.
        2    1    3    3  502    0 -0.47554425274E+03  0.10683603735E+02  0.17306055365E+03  0.50616838201E+03  0.25500000920E-02 0. -1.
       -2    1    3    3    0  502  0.47554425274E+03 -0.10683603735E+02  0.96818262824E+03  0.10787187202E+04  0.25500000920E-02 0.  1.
</event>
<event>
 5   0  0.6245176E-04  0.1101321E+04  0.7818609E-02  0.9203906E-01
       -2   -1    0    0    0  501  0.00000000000E+00  0.00000000000E+00  0.19643838329E+03  0.19643838331E+03  0.25500000920E-02 0. -1.
        2   -1    0    0  501    0  0.00000000000E+00  0.00000000000E+00 -0.15436225840E+04  0.15436225840E+04  0.25500000920E-02 0.  1.
    10030    2    1    2    0    0  0.00000000000E+00  0.00000000000E+00 -0.13471842007E+04  0.17400609673E+04  0.11013205252E+04 0.  0.
        5    1    3    3  502    0  0.34979066944E+03 -0.37209335075E+03 -0.99892027729E+03  0.11219049801E+04  0.46999998093E+01 0.  1.
       -5    1    3    3    0  502 -0.34979066944E+03  0.37209335075E+03 -0.34826392339E+03  0.61815598714E+03  0.46999998093E+01 0. -1.
</event>
<event>
 5   0  0.6245176E-04  0.1100249E+04  0.7818609E-02  0.9204949E-01
       -2   -1    0    0    0  501  0.00000000000E+00  0.00000000000E+00  0.17229483120E+03  0.17229483122E+03  0.25500000920E-02 0. -1.
        2   -1    0    0  501    0  0.00000000000E+00  0.00000000000E+00 -0.17565069000E+04  0.17565069000E+04  0.25500000920E-02 0.  1.
    10030    2    1    2    0    0  0.00000000000E+00  0.00000000000E+00 -0.15842120688E+04  0.19288017313E+04  0.11002491715E+04 0.  0.
        5    1    3    3  502    0  0.45400488204E+03 -0.15749182122E+02 -0.24824366535E+03  0.51770211226E+03  0.46999998093E+01 0. -1.
       -5    1    3    3    0  502 -0.45400488204E+03  0.15749182122E+02 -0.13359684035E+04  0.14110996190E+04  0.46999998093E+01 0.  1.
</event>
<event>
 5   0  0.6264830E-04  0.1101325E+04  0.7818609E-02  0.9203901E-01
       -2   -1    0    0    0  501  0.00000000000E+00  0.00000000000E+00  0.44988045954E+03  0.44988045955E+03  0.25500000920E-02 0.  1.
        2   -1    0    0  501    0  0.00000000000E+00  0.00000000000E+00 -0.67402162284E+03  0.67402162285E+03  0.25500000920E-02 0. -1.
    10030    2    1    2    0    0  0.00000000000E+00  0.00000000000E+00 -0.22414116330E+03  0.11239020824E+04  0.11013249428E+04 0.  0.
        4    1    3    3  502    0 -0.24518269705E+03 -0.49138007831E+03 -0.15363147845E+03  0.57023958155E+03  0.12699999809E+01 0.  1.
       -4    1    3    3    0  502  0.24518269705E+03  0.49138007831E+03 -0.70509684846E+02  0.55366250085E+03  0.12699999809E+01 0. -1.
</event>
<event>
 5   0  0.6264830E-04  0.1100672E+04  0.7818609E-02  0.9204537E-01
        2   -1    0    0  501    0  0.00000000000E+00  0.00000000000E+00  0.13681190749E+04  0.13681190749E+04  0.25500000920E-02 0.  1.
       -2   -1    0    0    0  501  0.00000000000E+00  0.00000000000E+00 -0.22137657677E+03  0.22137657678E+03  0.25500000920E-02 0. -1.
    10030    2    1    2    0    0  0.00000000000E+00  0.00000000000E+00  0.11467424981E+04  0.15894956517E+04  0.11006716448E+04 0.  0.
        4    1    3    3  502    0 -0.32270247909E+03 -0.44448588806E+03  0.52411636928E+03  0.75921286616E+03  0.12699999809E+01 0. -1.
       -4    1    3    3    0  502  0.32270247909E+03  0.44448588806E+03  0.62262612886E+03  0.83028278552E+03  0.12699999809E+01 0.  1.
</event>
<event>
 5   0  0.3642161E-04  0.1083467E+04  0.7818609E-02  0.9221458E-01
        1   -1    0    0  501    0  0.00000000000E+00  0.00000000000E+00  0.52981598074E+03  0.52981598076E+03  0.50400001928E-02 0.  1.
       -1   -1    0    0    0  501  0.00000000000E+00  0.00000000000E+00 -0.55391892925E+03  0.55391892928E+03  0.50400001928E-02 0. -1.
    10030    2    1    2    0    0  0.00000000000E+00  0.00000000000E+00 -0.24102948514E+02  0.10837349100E+04  0.10834668445E+04 0.  0.
        2    1    3    3  502    0 -0.36648957198E+03 -0.38722492806E+03 -0.10808225612E+03  0.54400324023E+03  0.25500000920E-02 0. -1.
       -2    1    3    3    0  502  0.36648957198E+03  0.38722492806E+03  0.83979307610E+02  0.53973166981E+03  0.25500000920E-02 0.  1.
</event>
<event>
 5   0  0.5948818E-04  0.1065998E+04  0.7818609E-02  0.9238982E-01
        2   -1    0    0  501    0  0.00000000000E+00  0.00000000000E+00  0.79954197523E+03  0.79954197523E+03  0.25500000920E-02 0.  1.
       -2   -1    0    0    0  501  0.00000000000E+00  0.00000000000E+00 -0.35531313698E+03  0.35531313699E+03  0.25500000920E-02 0. -1.
    10030    2    1    2    0    0  0.00000000000E+00  0.00000000000E+00  0.44422883825E+03  0.11548551122E+04  0.10659976874E+04 0.  0.
        3    1    3    3  502    0 -0.42942422923E+03 -0.30903994722E+03  0.15209826468E+03  0.55049500447E+03  0.10100000352E+00 0. -1.
       -3    1    3    3    0  502  0.42942422923E+03  0.30903994722E+03  0.29213057356E+03  0.60436010775E+03  0.10100000352E+00 0.  1.
</event>
<event>
 5   0  0.3657529E-04  0.1093846E+04  0.7818609E-02  0.9211211E-01
       -1   -1    0    0    0  501  0.00000000000E+00  0.00000000000E+00  0.54177183277E+03  0.54177183280E+03  0.50400001928E-02 0. -1.
        1   -1    0    0  501    0  0.00000000000E+00  0.00000000000E+00 -0.55212309567E+03  0.55212309570E+03  0.50400001928E-02 0.  1.
    10030    2    1    2    0    0  0.00000000000E+00  0.00000000000E+00 -0.10351262900E+02  0.10938949285E+04  0.10938459516E+04 0.  0.
        4    1    3    3  502    0  0.25965089153E+03  0.24282659414E+03  0.41046274196E+03  0.54301437894E+03  0.12699999809E+01 0. -1.
       -4    1    3    3    0  502 -0.25965089153E+03 -0.24282659414E+03 -0.42081400486E+03  0.55088054956E+03  0.12699999809E+01 0.  1.
</event>
<event>
 5   0  0.6109149E-04  0.1093859E+04  0.7818609E-02  0.9211199E-01
        2   -1    0    0  501    0  0.00000000000E+00  0.00000000000E+00  0.17654987476E+04  0.17654987476E+04  0.25500000920E-02 0. -1.
       -2   -1    0    0    0  501  0.00000000000E+00  0.00000000000E+00 -0.16943178996E+03  0.16943178997E+03  0.25500000920E-02 0.  1.
    10030    2    1    2    0    0  0.00000000000E+00  0.00000000000E+00  0.15960669577E+04  0.19349305376E+04  0.10938585155E+04 0.  0.
        1    1    3    3  502    0 -0.49893818319E+03 -0.20404705392E+03  0.96166523223E+03  0.11024402613E+04  0.50400001928E-02 0. -1.
       -1    1    3    3    0  502  0.49893818319E+03  0.20404705392E+03  0.63440172546E+03  0.83249027631E+03  0.50400001928E-02 0.  1.
</event>
<event>
 5   0  0.6412712E-04  0.1101160E+04  0.7818609E-02  0.9204062E-01
       -2   -1    0    0    0  501  0.00000000000E+00  0.00000000000E+00  0.32378966637E+03  0.32378966638E+03  0.25500000920E-02 0.  1.
        2   -1    0    0  501    0  0.00000000000E+00  0.00000000000E+00 -0.93621967094E+03  0.93621967095E+03  0.25500000920E-02 0. -1.
    10030    2    1    2    0    0  0.00000000000E+00  0.00000000000E+00 -0.61243000458E+03  0.12600093373E+04  0.11011598520E+04 0.  0.
        2    1    3    3  502    0 -0.29809652316E+02 -0.62429450322E+02  0.31879651372E+03  0.32621659799E+03  0.25500000920E-02 0.  1.
       -2    1    3    3    0  502  0.29809652316E+02  0.62429450322E+02 -0.93122651830E+03  0.93379273933E+03  0.25500000920E-02 0. -1.
</event>
<event>
 5   0  0.3657529E-04  0.1099553E+04  0.7818609E-02  0.9205627E-01
       -1   -1    0    0    0  501  0.00000000000E+00  0.00000000000E+00  0.73421366547E+03  0.73421366548E+03  0.50400001928E-02 0. -1.
        1   -1    0    0  501    0  0.00000000000E+00  0.00000000000E+00 -0.41167094523E+03  0.41167094526E+03  0.50400001928E-02 0.  1.
    10030    2    1    2    0    0  0.00000000000E+00  0.00000000000E+00  0.32254272024E+03  0.11458846107E+04  0.10995534252E+04 0.  0.
        4    1    3    3  502    0  0.13426596248E+03  0.40884053280E+03  0.51785090960E+03  0.67331204312E+03  0.12699999809E+01 0. -1.
       -4    1    3    3    0  502 -0.13426596248E+03 -0.40884053280E+03 -0.19530818936E+03  0.47257256763E+03  0.12699999809E+01 0.  1.
</event>
<event>
 5   0  0.3642161E-04  0.1100736E+04  0.7818609E-02  0.9204475E-01
        1   -1    0    0  501    0  0.00000000000E+00  0.00000000000E+00  0.28033420174E+03  0.28033420179E+03  0.50400001928E-02 0.  1.
       -1   -1    0    0    0  501  0.00000000000E+00  0.00000000000E+00 -0.10805142681E+04  0.10805142681E+04  0.50400001928E-02 0. -1.
    10030    2    1    2    0    0  0.00000000000E+00  0.00000000000E+00 -0.80018006631E+03  0.13608484699E+04  0.11007363078E+04 0.  0.
        2    1    3    3  502    0  0.29653550606E+02 -0.28084871558E+03  0.18392590557E+03  0.33702236254E+03  0.25500000920E-02 0.  1.
       -2    1    3    3    0  502 -0.29653550606E+02  0.28084871558E+03 -0.98410597188E+03  0.10238261073E+04  0.25500000920E-02 0. -1.
</event>
<event>
 5   0  0.6264830E-04  0.1098969E+04  0.7818609E-02  0.9206198E-01
       -2   -1    0    0    0  501  0.00000000000E+00  0.00000000000E+00  0.32375758874E+03  0.32375758875E+03  0.25500000920E-02 0.  1.
        2   -1    0    0  501    0  0.00000000000E+00  0.00000000000E+00 -0.93258983357E+03  0.93258983357E+03  0.25500000920E-02 0. -1.
    10030    2    1    2    0    0  0.00000000000E+00  0.00000000000E+00 -0.60883224483E+03  0.12563474223E+04  0.10989686725E+04 0.  0.
        4    1    3    3  502    0  0.36726575072E+03  0.16302701287E+03  0.12404895955E+03  0.42053738936E+03  0.12699999809E+01 0.  1.
       -4    1    3    3    0  502 -0.36726575072E+03 -0.16302701287E+03 -0.73288120438E+03  0.83581003297E+03  0.12699999809E+01 0. -1.
</event>
<event>
 5   0  0.6264830E-04  0.1123046E+04  0.7818609E-02  0.9183017E-01
       -2   -1    0    0    0  501  0.00000000000E+00  0.00000000000E+00  0.26177242230E+03  0.26177242231E+03  0.25500000920E-02 0. -1.
        2   -1    0    0  501    0  0.00000000000E+00  0.00000000000E+00 -0.12045116073E+04  0.12045116073E+04  0.25500000920E-02 0.  1.
    10030    2    1    2    0    0  0.00000000000E+00  0.00000000000E+00 -0.94273918496E+03  0.14662840296E+04  0.11230457179E+04 0.  0.
        4    1    3    3  502    0  0.46657908161E+03  0.27858240554E+03 -0.65602354034E+03  0.85186424649E+03  0.12699999809E+01 0.  1.
       -4    1    3    3    0  502 -0.46657908161E+03 -0.27858240554E+03 -0.28671564462E+03  0.61441978308E+03  0.12699999809E+01 0. -1.
</event>
<event>
 5   0  0.3657529E-04  0.1093788E+04  0.7818609E-02  0.9211268E-01
       -1   -1    0    0    0  501  0.00000000000E+00  0.00000000000E+00  0.21041712197E+03  0.21041712203E+03  0.50400001928E-02 0. -1.
        1   -1    0    0  501    0  0.00000000000E+00  0.00000000000E+00 -0.14214290910E+04  0.14214290910E+04  0.50400001928E-02 0.  1.
    10030    2    1    2    0    0  0.00000000000E+00  0.00000000000E+00 -0.12110119690E+04  0.16318462130E+04  0.10937879474E+04 0.  0.
        4    1    3    3  502    0 -0.34742928436E+03 -0.29390224128E+03 -0.15296946972E+03  0.48009051920E+03  0.12699999809E+01 0. -1.
       -4    1    3    3    0  502  0.34742928436E+03  0.29390224128E+03 -0.10580424993E+04  0.11517556938E+04  0.12699999809E+01 0.  1.
</event>
<event>
 5   0  0.3642161E-04  0.1101864E+04  0.7818609E-02  0.9203377E-01
        1   -1    0    0  501    0  0.00000000000E+00  0.00000000000E+00  0.68725913634E+03  0.68725913636E+03  0.50400001928E-02 0.  1.
       -1   -1    0    0    0  501  0.00000000000E+00  0.00000000000E+00 -0.44164690655E+03  0.44164690658E+03  0.50400001928E-02 0. -1.
    10030    2    1    2    0    0  0.00000000000E+00  0.00000000000E+00  0.24561222978E+03  0.11289060429E+04  0.11018636424E+04 0.  0.
        2    1    3    3  502    0  0.37298570370E+03  0.19358873397E+03 -0.24221138843E+03  0.48503741070E+03  0.25500000920E-02 0. -1.
       -2    1    3    3    0  502 -0.37298570370E+03 -0.19358873397E+03  0.48782361821E+03  0.64386863224E+03  0.25500000920E-02 0.  1.
</event>
<event>
 5   0  0.6245176E-04  0.1099417E+04  0.7818609E-02  0.9205760E-01
       -2   -1    0    0    0  501  0.00000000000E+00  0.00000000000E+00  0.20288674183E+03  0.20288674185E+03  0.25500000920E-02 0.  1.
        2   -1    0    0  501    0  0.00000000000E+00  0.00000000000E+00 -0.14893990175E+04  0.14893990175E+04  0.25500000920E-02 0. -1.
    10030    2    1    2    0    0  0.00000000000E+00  0.00000000000E+00 -0.12865122756E+04  0.16922857593E+04  0.10994167799E+04 0.  0.
        5    1    3    3  502    0 -0.25926407209E+03  0.40166970044E+03 -0.22566367129E+03  0.52868004489E+03  0.46999998093E+01 0.  1.
       -5    1    3    3    0  502  0.25926407209E+03 -0.40166970044E+03 -0.10608486043E+04  0.11636057144E+04  0.46999998093E+01 0. -1.
</event>
<event>
 5   0  0.6245176E-04  0.1099130E+04  0.7818609E-02  0.9206040E-01
        2   -1    0    0  501    0  0.00000000000E+00  0.00000000000E+00  0.61826566668E+03  0.61826566669E+03  0.25500000920E-02 0. -1.
       -2   -1    0    0    0  501  0.00000000000E+00  0.00000000000E+00 -0.48849855734E+03  0.48849855735E+03  0.25500000920E-02 0.  1.
    10030    2    1    2    0    0  0.00000000000E+00  0.00000000000E+00  0.12976710934E+03  0.11067642240E+04  0.10991303585E+04 0.  0.
        5    1    3    3  502    0  0.26901224924E+03 -0.19329677418E+03  0.50641338365E+03  0.60515108715E+03  0.46999998093E+01 0. -1.
       -5    1    3    3    0  502 -0.26901224924E+03  0.19329677418E+03 -0.37664627430E+03  0.50161313688E+03  0.46999998093E+01 0.  1.
</event>
<event>
 5   0  0.3523525E-04  0.1098580E+04  0.7818609E-02  0.9206577E-01
       -1   -1    0    0    0  501  0.00000000000E+00  0.00000000000E+00  0.48179281661E+03  0.48179281664E+03  0.50400001928E-02 0.  1.
        1   -1    0    0  501    0  0.00000000000E+00  0.00000000000E+00 -0.62624321682E+03  0.62624321684E+03  0.50400001928E-02 0. -1.
    10030    2    1    2    0    0  0.00000000000E+00  0.00000000000E+00 -0.14445040021E+03  0.11080360335E+04  0.10985799622E+04 0.  0.
        5    1    3    3  502    0  0.13832974372E+03  0.51801945956E+03  0.48040897669E+02  0.53833938768E+03  0.46999998093E+01 0. -1.
       -5    1    3    3    0  502 -0.13832974372E+03 -0.51801945956E+03 -0.19249129787E+03  0.56969664580E+03  0.46999998093E+01 0.  1.
</event>
<event>
 5   0  0.6412712E-04  0.1095693E+04  0.7818609E-02  0.9209400E-01
       -2   -1    0    0    0  501  0.00000000000E+00  0.00000000000E+00  0.19654866389E+03  0.19654866391E+03  0.25500000920E-02 0. -1.
        2   -1    0    0  501    0  0.00000000000E+00  0.00000000000E+00 -0.15270305039E+04  0.15270305039E+04  0.25500000920E-02 0.  1.
    10030    2    1    2    0    0  0.00000000000E+00  0.00000000000E+00 -0.13304818400E+04  0.17235791678E+04  0.10956930323E+04 0.  0.
        2    1    3    3  502    0  0.42372123318E+02 -0.49023196302E+03 -0.28635792460E+03  0.56931857109E+03  0.25500000920E-02 0. -1.
       -2    1    3    3    0  502 -0.42372123318E+02  0.49023196302E+03 -0.10441239154E+04  0.11542605967E+04  0.25500000920E-02 0.  1.
</event>
<event>
 5   0  0.3657529E-04  0.1100502E+04  0.7818609E-02  0.9204703E-01
        1   -1    0    0  501    0  0.00000000000E+00  0.00000000000E+00  0.14085210060E+04  0.14085210060E+04  0.50400001928E-02 0. -1.
       -1   -1    0    0    0  501  0.00000000000E+00  0.00000000000E+00 -0.21496020241E+03  0.21496020247E+03  0.50400001928E-02 0.  1.
    10030    2    1    2    0    0  0.00000000000E+00  0.00000000000E+00  0.11935608036E+04  0.16234812085E+04  0.11005016322E+04 0.  0.
        4    1    3    3  502    0 -0.44329671372E+03 -0.14618775513E+03  0.10266024689E+04  0.11277398096E+04  0.12699999809E+01 0. -1.
       -4    1    3    3    0  502  0.44329671372E+03  0.14618775513E+03  0.16695833471E+03  0.49574139889E+03  0.12699999809E+01 0.  1.
</event>
<event>
 5   0  0.5948818E-04  0.1100930E+04  0.7818609E-02  0.9204286E-01
        2   -1    0    0  501    0  0.00000000000E+00  0.00000000000E+00  0.10233041060E+04  0.10233041060E+04  0.25500000920E-02 0.  1.
       -2   -1    0    0    0  501  0.00000000000E+00  0.00000000000E+00 -0.29611092798E+03  0.29611092799E+03  0.25500000920E-02 0. -1.
    10030    2    1    2    0    0  0.00000000000E+00  0.00000000000E+00  0.72719317801E+03  0.13194150340E+04  0.11009296589E+04 0.  0.
        3    1    3    3  502    0  0.47713136804E+03 -0.10855848863E+03  0.61423641395E+02  0.49316545068E+03  0.10100000352E+00 0.  1.
       -3    1    3    3    0  502 -0.47713136804E+03  0.10855848863E+03  0.66576953661E+03  0.82624958330E+03  0.10100000352E+00 0. -1.
</event>
<event>
 5   0  0.2403875E-04  0.1096843E+04  0.7818609E-02  0.9208274E-01
        4   -1    0    0  501    0  0.00000000000E+00  0.00000000000E+00  0.25392967850E+03  0.25393285436E+03  0.12699999809E+01 0. -1.
       -4   -1    0    0    0  501  0.00000000000E+00  0.00000000000E+00 -0.11844366256E+04  0.11844373065E+04  0.12699999809E+01 0.  1.
    10030    2    1    2    0    0  0.00000000000E+00  0.00000000000E+00 -0.93050694711E+03  0.14383701608E+04  0.10968434442E+04 0.  0.
        2    1    3    3  502    0  0.40157590749E+03 -0.98051745073E+02  0.73667047619E+01  0.41343877725E+03  0.25500000920E-02 0. -1.
       -2    1    3    3    0  502 -0.40157590749E+03  0.98051745073E+02 -0.93787365187E+03  0.10249313836E+04  0.25500000920E-02 0.  1.
</event>
<event>
 5   0  0.6412712E-04  0.1100684E+04  0.7818609E-02  0.9204525E-01
       -2   -1    0    0    0  501  0.00000000000E+00  0.00000000000E+00  0.23567302024E+03  0.23567302025E+03  0.25500000920E-02 0.  1.
        2   -1    0    0  501    0  0.00000000000E+00  0.00000000000E+00 -0.12851552810E+04  0.12851552810E+04  0.25500000920E-02 0. -1.
    10030    2    1    2    0    0  0.00000000000E+00  0.00000000000E+00 -0.10494822607E+04  0.15208283012E+04  0.11006841991E+04 0.  0.
        2    1    3    3  502    0  0.25321837876E+03 -0.10528771771E+03 -0.11840238151E+04  0.12153672060E+04  0.25500000920E-02 0. -1.
       -2    1    3    3    0  502 -0.25321837876E+03  0.10528771771E+03  0.13454155432E+03  0.30546109521E+03  0.25500000920E-02 0.  1.
</event>
<event>
 5   0  0.3621403E-04  0.1100738E+04  0.7818609E-02  0.9204473E-01
        1   -1    0    0  501    0  0.00000000000E+00  0.00000000000E+00  0.99323805290E+03  0.99323805291E+03  0.50400001928E-02 0. -1.
       -1   -1    0    0    0  501  0.00000000000E+00  0.00000000000E+00 -0.30496835220E+03  0.30496835224E+03  0.50400001928E-02 0.  1.
    10030    2    1    2    0    0  0.00000000000E+00  0.00000000000E+00  0.68826970070E+03  0.12982064052E+04  0.11007382475E+04 0.  0.
        3    1    3    3  502    0  0.19884440733E+03 -0.17892916000E+03  0.91141263276E+03  0.94985669444E+03  0.10100000352E+00 0. -1.
       -3    1    3    3    0  502 -0.19884440733E+03  0.17892916000E+03 -0.22314293206E+03  0.34834971071E+03  0.10100000352E+00 0.  1.
</event>
<event>
 5   0  0.6412712E-04  0.1098062E+04  0.7818609E-02  0.9207083E-01
        2   -1    0    0  501    0  0.00000000000E+00  0.00000000000E+00  0.16198641997E+04  0.16198641997E+04  0.25500000920E-02 0.  1.
       -2   -1    0    0    0  501  0.00000000000E+00  0.00000000000E+00 -0.18608648705E+03  0.18608648706E+03  0.25500000920E-02 0. -1.
    10030    2    1    2    0    0  0.00000000000E+00  0.00000000000E+00  0.14337777126E+04  0.18059506867E+04  0.10980616347E+04 0.  0.
        2    1    3    3  502    0 -0.21202762683E+03  0.45142474341E+03  0.33934869917E+03  0.60323921718E+03  0.25500000920E-02 0. -1.
       -2    1    3    3    0  502  0.21202762683E+03 -0.45142474341E+03  0.10944290134E+04  0.12027114695E+04  0.25500000920E-02 0.  1.
</event>
<event>
 5   0  0.3523525E-04  0.1098559E+04  0.7818609E-02  0.9206598E-01
       -1   -1    0    0    0  501  0.00000000000E+00  0.00000000000E+00  0.38972186059E+03  0.38972186063E+03  0.50400001928E-02 0.  1.
        1   -1    0    0  501    0  0.00000000000E+00  0.00000000000E+00 -0.77416218515E+03  0.77416218516E+03  0.50400001928E-02 0. -1.
    10030    2    1    2    0    0  0.00000000000E+00  0.00000000000E+00 -0.38444032455E+03  0.11638840458E+04  0.10985589237E+04 0.  0.
        5    1    3    3  502    0 -0.69488694140E+01  0.33321978697E+03 -0.65476115351E+03  0.73472305760E+03  0.46999998093E+01 0. -1.
       -5    1    3    3    0  502  0.69488694140E+01 -0.33321978697E+03  0.27032082896E+03  0.42916098819E+03  0.46999998093E+01 0.  1.
</event>
<event>
 5   0  0.3657529E-04  0.1098713E+04  0.7818609E-02  0.9206448E-01
        1   -1    0    0  501    0  0.00000000000E+00  0.00000000000E+00  0.72017279642E+03  0.72017279644E+03  0.50400001928E-02 0. -1.
       -1   -1    0    0    0  501  0.00000000000E+00  0.00000000000E+00 -0.41905548963E+03  0.41905548966E+03  0.50400001928E-02 0.  1.
    10030    2    1    2    0    0  0.00000000000E+00  0.00000000000E+00  0.30111730679E+03  0.11392282861E+04  0.10987126355E+04 0.  0.
        4    1    3    3  502    0  0.15715111037E+03  0.35667009216E+03  0.55197913984E+03  0.67571636790E+03  0.12699999809E+01 0. -1.
       -4    1    3    3    0  502 -0.15715111037E+03 -0.35667009216E+03 -0.25086183305E+03  0.46351191819E+03  0.12699999809E+01 0.  1.
</event>
<event>
 5   0  0.5948818E-04  0.1116184E+04  0.7818609E-02  0.9189560E-01
        2   -1    0    0  501    0  0.00000000000E+00  0.00000000000E+00  0.42429312358E+03  0.42429312358E+03  0.25500000920E-02 0. -1.
       -2   -1    0    0    0  501  0.00000000000E+00  0.00000000000E+00 -0.73408401573E+03  0.73408401574E+03  0.25500000920E-02 0.  1.
    10030    2    1    2    0    0  0.00000000000E+00  0.00000000000E+00 -0.30979089216E+03  0.11583771393E+04  0.11161842142E+04 0.  0.
        3    1    3    3  502    0 -0.46482794846E+03 -0.28098974202E+03 -0.21803651029E+02  0.54359513077E+03  0.10100000352E+00 0. -1.
       -3    1    3    3    0  502  0.46482794846E+03  0.28098974202E+03 -0.28798724113E+03  0.61478200856E+03  0.10100000352E+00 0.  1.
</event>
<event>
 5   0  0.3423758E-04  0.1100109E+04  0.7818609E-02  0.9205086E-01
        1   -1    0    0  501    0  0.00000000000E+00  0.00000000000E+00  0.11108741524E+04  0.11108741525E+04  0.50400001928E-02 0.  1.
       -1   -1    0    0    0  501  0.00000000000E+00  0.00000000000E+00 -0.27236206243E+03  0.27236206248E+03  0.50400001928E-02 0. -1.
    10030    2    1    2    0    0  0.00000000000E+00  0.00000000000E+00  0.83851209002E+03  0.13832362149E+04  0.11001090406E+04 0.  0.
        1    1    3    3  502    0 -0.80608865928E+02 -0.54409909562E+03  0.42464368802E+03  0.69488407445E+03  0.50400001928E-02 0.  1.
       -1    1    3    3    0  502  0.80608865928E+02  0.54409909562E+03  0.41386840200E+03  0.68835214049E+03  0.50400001928E-02 0. -1.
</event>
<event>
 5   0  0.3642161E-04  0.1101679E+04  0.7818609E-02  0.9203557E-01
       -1   -1    0    0    0  501  0.00000000000E+00  0.00000000000E+00  0.38124892906E+03  0.38124892910E+03  0.50400001928E-02 0. -1.
        1   -1    0    0  501    0  0.00000000000E+00  0.00000000000E+00 -0.79586948660E+03  0.79586948662E+03  0.50400001928E-02 0.  1.
    10030    2    1    2    0    0  0.00000000000E+00  0.00000000000E+00 -0.41462055754E+03  0.11771184157E+04  0.11016794261E+04 0.  0.
        2    1    3    3  502    0  0.76962766269E+02  0.29739525780E+03 -0.69584727957E+03  0.76063831302E+03  0.25500000920E-02 0.  1.
       -2    1    3    3    0  502 -0.76962766269E+02 -0.29739525780E+03  0.28122672202E+03  0.41648010269E+03  0.25500000920E-02 0. -1.
</event>
<event>
 5   0  0.3642161E-04  0.1099951E+04  0.7818609E-02  0.9205239E-01
        1   -1    0    0  501    0  0.00000000000E+00  0.00000000000E+00  0.12124179910E+04  0.12124179910E+04  0.50400001928E-02 0.  1.
       -1   -1    0    0    0  501  0.00000000000E+00  0.00000000000E+00 -0.24947926553E+03  0.24947926558E+03  0.50400001928E-02 0. -1.
    10030    2    1    2    0    0  0.00000000000E+00  0.00000000000E+00  0.96293872543E+03  0.14618972566E+04  0.10999511806E+04 0.  0.
        2    1    3    3  502    0  0.18288090264E+03  0.21214051304E+03  0.11105275784E+04  0.11453036821E+04  0.25500000920E-02 0.  1.
       -2    1    3    3    0  502 -0.18288090264E+03 -0.21214051304E+03 -0.14758885301E+03  0.31659357442E+03  0.25500000920E-02 0. -1.
</event>
<event>
 5   0  0.6264830E-04  0.1099487E+04  0.7818609E-02  0.9205692E-01
       -2   -1    0    0    0  501  0.00000000000E+00  0.00000000000E+00  0.18043433265E+03  0.18043433267E+03  0.25500000920E-02 0. -1.
        2   -1    0    0  501    0  0.00000000000E+00  0.00000000000E+00 -0.16749481225E+04  0.16749481225E+04  0.25500000920E-02 0.  1.
    10030    2    1    2    0    0  0.00000000000E+00  0.00000000000E+00 -0.14945137899E+04  0.18553824552E+04  0.10994874201E+04 0.  0.
        4    1    3    3  502    0  0.26997380497E+03  0.40319518129E+03 -0.31122786000E+03  0.57646908271E+03  0.12699999809E+01 0. -1.
       -4    1    3    3    0  502 -0.26997380497E+03 -0.40319518129E+03 -0.11832859299E+04  0.12789133725E+04  0.12699999809E+01 0.  1.
</event>
<event>
 5   0  0.3657529E-04  0.1100054E+04  0.7818609E-02  0.9205140E-01
        1   -1    0    0  501    0  0.00000000000E+00  0.00000000000E+00  0.91374948312E+03  0.91374948313E+03  0.50400001928E-02 0.  1.
       -1   -1    0    0    0  501  0.00000000000E+00  0.00000000000E+00 -0.33108574987E+03  0.33108574991E+03  0.50400001928E-02 0. -1.
    10030    2    1    2    0    0  0.00000000000E+00  0.00000000000E+00  0.58266373325E+03  0.12448352330E+04  0.11000535130E+04 0.  0.
        4    1    3    3  502    0 -0.27170291866E+03 -0.49036452957E+02 -0.24698882789E+03  0.37044857097E+03  0.12699999809E+01 0. -1.
       -4    1    3    3    0  502  0.27170291866E+03  0.49036452957E+02  0.82965256113E+03  0.87438666208E+03  0.12699999809E+01 0.  1.
</event>
<event>
 5   0  0.3423758E-04  0.1100295E+04  0.7818609E-02  0.9204904E-01
       -1   -1    0    0    0  501  0.00000000000E+00  0.00000000000E+00  0.38689762403E+03  0.38689762407E+03  0.50400001928E-02 0.  1.
        1   -1    0    0  501    0  0.00000000000E+00  0.00000000000E+00 -0.78228022328E+03  0.78228022330E+03  0.50400001928E-02 0. -1.
    10030    2    1    2    0    0  0.00000000000E+00  0.00000000000E+00 -0.39538259925E+03  0.11691778474E+04  0.11002951599E+04 0.  0.
        1    1    3    3  502    0 -0.10317388640E+03  0.45735763188E+03  0.10814946221E+03  0.48116230160E+03  0.50400001928E-02 0.  1.
       -1    1    3    3    0  502  0.10317388640E+03 -0.45735763188E+03 -0.50353206146E+03  0.68801554577E+03  0.50400001928E-02 0. -1.
</event>
<event>
 5   0  0.6245176E-04  0.1089666E+04  0.7818609E-02  0.9215323E-01
       -2   -1    0    0    0  501  0.00000000000E+00  0.00000000000E+00  0.34126218164E+03  0.34126218165E+03  0.25500000920E-02 0. -1.
        2   -1    0    0  501    0  0.00000000000E+00  0.00000000000E+00 -0.86983833605E+03  0.86983833605E+03  0.25500000920E-02 0.  1.
    10030    2    1    2    0    0  0.00000000000E+00  0.00000000000E+00 -0.52857615441E+03  0.12111005177E+04  0.10896658722E+04 0.  0.
        5    1    3    3  502    0 -0.14756086861E+03 -0.18590752988E+03  0.28075503258E+03  0.36767009387E+03  0.46999998093E+01 0. -1.
       -5    1    3    3    0  502  0.14756086861E+03  0.18590752988E+03 -0.80933118699E+03  0.84343042383E+03  0.46999998093E+01 0.  1.
</event>
<event>
 5   0  0.6109149E-04  0.1102461E+04  0.7818609E-02  0.9202797E-01
        2   -1    0    0  501    0  0.00000000000E+00  0.00000000000E+00  0.40843287199E+03  0.40843287200E+03  0.25500000920E-02 0. -1.
       -2   -1    0    0    0  501  0.00000000000E+00  0.00000000000E+00 -0.74395351073E+03  0.74395351073E+03  0.25500000920E-02 0.  1.
    10030    2    1    2    0    0  0.00000000000E+00  0.00000000000E+00 -0.33552063873E+03  0.11523863827E+04  0.11024610089E+04 0.  0.
        1    1    3    3  502    0  0.54375781239E+03  0.69815493177E+02 -0.10763771212E+03  0.55868831983E+03  0.50400001928E-02 0.  1.
       -1    1    3    3    0  502 -0.54375781239E+03 -0.69815493177E+02 -0.22788292662E+03  0.59369806290E+03  0.50400001928E-02 0. -1.
</event>
<event>
 5   0  0.6109149E-04  0.1097340E+04  0.7818609E-02  0.9207788E-01
       -2   -1    0    0    0  501  0.00000000000E+00  0.00000000000E+00  0.23262683161E+03  0.23262683162E+03  0.25500000920E-02 0.  1.
        2   -1    0    0  501    0  0.00000000000E+00  0.00000000000E+00 -0.12940845997E+04  0.12940845997E+04  0.25500000920E-02 0. -1.
    10030    2    1    2    0    0  0.00000000000E+00  0.00000000000E+00 -0.10614577681E+04  0.15267114314E+04  0.10973400572E+04 0.  0.
        1    1    3    3  502    0  0.73686768918E+02 -0.30335126763E+03 -0.11584848073E+04  0.11998078097E+04  0.50400001928E-02 0. -1.
       -1    1    3    3    0  502 -0.73686768918E+02  0.30335126763E+03  0.97027039178E+02  0.32690362164E+03  0.50400001928E-02 0.  1.
</event>
<event>
 5   0  0.3621403E-04  0.1109852E+04  0.7818609E-02  0.9195642E-01
       -1   -1    0    0    0  501  0.00000000000E+00  0.00000000000E+00  0.33818093565E+03  0.33818093569E+03  0.50400001928E-02 0.  1.
        1   -1    0    0  501    0  0.00000000000E+00  0.00000000000E+00 -0.91058618573E+03  0.91058618574E+03  0.50400001928E-02 0. -1.
    10030    2    1    2    0    0  0.00000000000E+00  0.00000000000E+00 -0.57240525008E+03  0.12487671214E+04  0.11098520412E+04 0.  0.
        3    1    3    3  502    0 -0.35438704581E+03  0.28610446202E+03 -0.64289414348E+03  0.78788249844E+03  0.10100000352E+00 0. -1.
       -3    1    3    3    0  502  0.35438704581E+03 -0.28610446202E+03  0.70488893403E+02  0.46088462300E+03  0.10100000352E+00 0.  1.
</event>
<event>
 5   0  0.6245176E-04  0.1102185E+04  0.7818609E-02  0.9203065E-01
       -2   -1    0    0    0  501  0.00000000000E+00  0.00000000000E+00  0.13285820384E+04  0.13285820384E+04  0.25500000920E-02 0. -1.
        2   -1    0    0  501    0  0.00000000000E+00  0.00000000000E+00 -0.22859180628E+03  0.22859180629E+03  0.25500000920E-02 0.  1.
    10030    2    1    2    0    0  0.00000000000E+00  0.00000000000E+00  0.10999902322E+04  0.15571738447E+04  0.11021850443E+04 0.  0.
        5    1    3    3  502    0 -0.52411850677E+03 -0.11187406490E+03  0.36871021248E+03  0.65052696049E+03  0.46999998093E+01 0.  1.
       -5    1    3    3    0  502  0.52411850677E+03  0.11187406490E+03  0.73128001968E+03  0.90664688425E+03  0.46999998093E+01 0. -1.
</event>
<event>
 5   0  0.6412712E-04  0.1101321E+04  0.7818609E-02  0.9203906E-01
        2   -1    0    0  501    0  0.00000000000E+00  0.00000000000E+00  0.82178283690E+03  0.82178283691E+03  0.25500000920E-02 0.  1.
       -2   -1    0    0    0  501  0.00000000000E+00  0.00000000000E+00 -0.36898647957E+03  0.36898647957E+03  0.25500000920E-02 0. -1.
    10030    2    1    2    0    0  0.00000000000E+00  0.00000000000E+00  0.45279635734E+03  0.11907693165E+04  0.11013205818E+04 0.  0.
        2    1    3    3  502    0 -0.25620552953E+03  0.27502558412E+03 -0.20871230080E+03  0.42993158734E+03  0.25500000920E-02 0. -1.
       -2    1    3    3    0  502  0.25620552953E+03 -0.27502558412E+03  0.66150865814E+03  0.76083772914E+03  0.25500000920E-02 0.  1.
</event>
<event>
 5   0  0.3523525E-04  0.1099449E+04  0.7818609E-02  0.9205729E-01
        1   -1    0    0  501    0  0.00000000000E+00  0.00000000000E+00  0.63435109399E+03  0.63435109401E+03  0.50400001928E-02 0. -1.
       -1   -1    0    0    0  501  0.00000000000E+00  0.00000000000E+00 -0.47638797131E+03  0.47638797134E+03  0.50400001928E-02 0.  1.
    10030    2    1    2    0    0  0.00000000000E+00  0.00000000000E+00  0.15796312267E+03  0.11107390653E+04  0.10994493727E+04 0.  0.
        5    1    3    3  502    0 -0.25686539500E+03 -0.47422691610E+03  0.18639425479E+03  0.57064516761E+03  0.46999998093E+01 0. -1.
       -5    1    3    3    0  502  0.25686539500E+03  0.47422691610E+03 -0.28431132117E+02  0.54009389774E+03  0.46999998093E+01 0.  1.
</event>
<event>
 5   0  0.6109149E-04  0.1096495E+04  0.7818609E-02  0.9208615E-01
        2   -1    0    0  501    0  0.00000000000E+00  0.00000000000E+00  0.53120556917E+03  0.53120556917E+03  0.25500000920E-02 0. -1.
       -2   -1    0    0    0  501  0.00000000000E+00  0.00000000000E+00 -0.56583569633E+03  0.56583569634E+03  0.25500000920E-02 0.  1.
    10030    2    1    2    0    0  0.00000000000E+00  0.00000000000E+00 -0.34630127167E+02  0.10970412655E+04  0.10964945474E+04 0.  0.
        1    1    3    3  502    0 -0.14930754969E+03  0.94776208156E+02  0.50188471944E+03  0.53213113577E+03  0.50400001928E-02 0. -1.
       -1    1    3    3    0  502  0.14930754969E+03 -0.94776208156E+02 -0.53651484660E+03  0.56491012974E+03  0.50400001928E-02 0.  1.
</event>
<event>
 5   0  0.6264830E-04  0.1102348E+04  0.7818609E-02  0.9202906E-01
        2   -1    0    0  501    0  0.00000000000E+00  0.00000000000E+00  0.10961955015E+04  0.10961955015E+04  0.25500000920E-02 0.  1.
       -2   -1    0    0    0  501  0.00000000000E+00  0.00000000000E+00 -0.27713379228E+03  0.27713379229E+03  0.25500000920E-02 0. -1.
    10030    2    1    2    0    0  0.00000000000E+00  0.00000000000E+00  0.81906170923E+03  0.13733292938E+04  0.11023480692E+04 0.  0.
        4    1    3    3  502    0 -0.51514916529E+03  0.18225822396E+03  0.31974105307E+03  0.63311347847E+03  0.12699999809E+01 0. -1.
       -4    1    3    3    0  502  0.51514916529E+03 -0.18225822396E+03  0.49932065616E+03  0.74021581534E+03  0.12699999809E+01 0.  1.
</event>
<event>
 5   0  0.6109149E-04  0.1099614E+04  0.7818609E-02  0.9205568E-01
       -2   -1    0    0    0  501  0.00000000000E+00  0.00000000000E+00  0.23281335924E+03  0.23281335925E+03  0.25500000920E-02 0. -1.
        2   -1    0    0  501    0  0.00000000000E+00  0.00000000000E+00 -0.12984122014E+04  0.12984122014E+04  0.25500000920E-02 0.  1.
    10030    2    1    2    0    0  0.00000000000E+00  0.00000000000E+00 -0.10655988422E+04  0.15312255607E+04  0.10996139437E+04 0.  0.
        1    1    3    3  502    0  0.42226209483E+02  0.16017877138E+03 -0.12628362332E+04  0.12736544443E+04  0.50400001928E-02 0.  1.
       -1    1    3    3    0  502 -0.42226209483E+02 -0.16017877138E+03  0.19723739100E+03  0.25757111640E+03  0.50400001928E-02 0. -1.
</event>
<event>
 5   0  0.6412712E-04  0.1101367E+04  0.7818609E-02  0.9203861E-01
        2   -1    0    0  501    0  0.00000000000E+00  0.00000000000E+00  0.14390864325E+04  0.14390864325E+04  0.25500000920E-02 0.  1.
       -2   -1    0    0    0  501  0.00000000000E+00  0.00000000000E+00 -0.21072556576E+03  0.21072556578E+03  0.25500000920E-02 0. -1.
    10030    2    1    2    0    0  0.00000000000E+00  0.00000000000E+00  0.12283608668E+04  0.16498119983E+04  0.11013669737E+04 0.  0.
        2    1    3    3  502    0  0.23598128261E+03  0.16926303732E+03 -0.86694178155E+02  0.30307263499E+03  0.25500000920E-02 0. -1.
       -2    1    3    3    0  502 -0.23598128261E+03 -0.16926303732E+03  0.13150550449E+04  0.13467393633E+04  0.25500000920E-02 0.  1.
</event>
<event>
 5   0  0.3642161E-04  0.1096378E+04  0.7818609E-02  0.9208730E-01
       -1   -1    0    0    0  501  0.00000000000E+00  0.00000000000E+00  0.54151450674E+03  0.54151450676E+03  0.50400001928E-02 0. -1.
        1   -1    0    0  501    0  0.00000000000E+00  0.00000000000E+00 -0.55494528223E+03  0.55494528226E+03  0.50400001928E-02 0.  1.
    10030    2    1    2    0    0  0.00000000000E+00  0.00000000000E+00 -0.13430775497E+02  0.10964597890E+04  0.10963775277E+04 0.  0.
        2    1    3    3  502    0 -0.25473840916E+03 -0.30419717459E+03  0.37157658228E+03  0.54359611352E+03  0.25500000920E-02 0. -1.
       -2    1    3    3    0  502  0.25473840916E+03  0.30419717459E+03 -0.38500735778E+03  0.55286367549E+03  0.25500000920E-02 0.  1.
</event>
<event>
 5   0  0.3642161E-04  0.1096602E+04  0.7818609E-02  0.9208510E-01
        1   -1    0    0  501    0  0.00000000000E+00  0.00000000000E+00  0.82816503728E+03  0.82816503729E+03  0.50400001928E-02 0.  1.
       -1   -1    0    0    0  501  0.00000000000E+00  0.00000000000E+00 -0.36301222133E+03  0.36301222137E+03  0.50400001928E-02 0. -1.
    10030    2    1    2    0    0  0.00000000000E+00  0.00000000000E+00  0.46515281594E+03  0.11911772587E+04  0.10966020789E+04 0.  0.
        2    1    3    3  502    0  0.36075659113E+03 -0.23448012300E+03 -0.13659916205E+03  0.45142615920E+03  0.25500000920E-02 0. -1.
       -2    1    3    3    0  502 -0.36075659113E+03  0.23448012300E+03  0.60175197800E+03  0.73975109946E+03  0.25500000920E-02 0.  1.
</event>
<event>
 5   0  0.6109149E-04  0.1103197E+04  0.7818609E-02  0.9202082E-01
        2   -1    0    0  501    0  0.00000000000E+00  0.00000000000E+00  0.50206727168E+03  0.50206727169E+03  0.25500000920E-02 0.  1.
       -2   -1    0    0    0  501  0.00000000000E+00  0.00000000000E+00 -0.60601573091E+03  0.60601573092E+03  0.25500000920E-02 0. -1.
    10030    2    1    2    0    0  0.00000000000E+00  0.00000000000E+00 -0.10394845924E+03  0.11080830026E+04  0.11031965638E+04 0.  0.
        1    1    3    3  502    0 -0.11315568824E+03 -0.45422411921E+03  0.24110046424E+03  0.52654837778E+03  0.50400001928E-02 0.  1.
       -1    1    3    3    0  502  0.11315568824E+03  0.45422411921E+03 -0.34504892347E+03  0.58153462483E+03  0.50400001928E-02 0. -1.
</event>
<event>
 5   0  0.3423758E-04  0.1101695E+04  0.7818609E-02  0.9203541E-01
       -1   -1    0    0    0  501  0.00000000000E+00  0.00000000000E+00  0.64720766698E+03  0.64720766700E+03  0.50400001928E-02 0.  1.
        1   -1    0    0  501    0  0.00000000000E+00  0.00000000000E+00 -0.46883435460E+03  0.46883435463E+03  0.50400001928E-02 0. -1.
    10030    2    1    2    0    0  0.00000000000E+00  0.00000000000E+00  0.17837331238E+03  0.11160420216E+04  0.11016954005E+04 0.  0.
        1    1    3    3  502    0  0.14757250180E+03  0.20784682593E+03  0.58386448769E+03  0.63708373575E+03  0.50400001928E-02 0.  1.
       -1    1    3    3    0  502 -0.14757250180E+03 -0.20784682593E+03 -0.40549117531E+03  0.47895828589E+03  0.50400001928E-02 0. -1.
</event>
<event>
 5   0  0.3523525E-04  0.1110086E+04  0.7818609E-02  0.9195417E-01
       -1   -1    0    0    0  501  0.00000000000E+00  0.00000000000E+00  0.39911266567E+03  0.39911266570E+03  0.50400001928E-02 0. -1.
        1   -1    0    0  501    0  0.00000000000E+00  0.00000000000E+00 -0.77189405720E+03  0.77189405722E+03  0.50400001928E-02 0.  1.
    10030    2    1    2    0    0  0.00000000000E+00  0.00000000000E+00 -0.37278139153E+03  0.11710067229E+04  0.11100859333E+04 0.  0.
        5    1    3    3  502    0 -0.15758614188E+03 -0.22586031120E+03 -0.69471157460E+03  0.74732358063E+03  0.46999998093E+01 0.  1.
       -5    1    3    3    0  502  0.15758614188E+03  0.22586031120E+03  0.32193018307E+03  0.42368314229E+03  0.46999998093E+01 0. -1.
</event>
<event>
 5   0  0.5948818E-04  0.1097596E+04  0.7818609E-02  0.9207539E-01
        2   -1    0    0  501    0  0.00000000000E+00  0.00000000000E+00  0.79650611203E+03  0.79650611203E+03  0.25500000920E-02 0.  1.
       -2   -1    0    0    0  501  0.00000000000E+00  0.00000000000E+00 -0.37812515762E+03  0.37812515763E+03  0.25500000920E-02 0. -1.
    10030    2    1    2    0    0  0.00000000000E+00  0.00000000000E+00  0.41838095441E+03  0.11746312697E+04  0.10975955524E+04 0.  0.
        3    1    3    3  502    0  0.41867542744E+03 -0.27629254467E+03 -0.29036615533E+02  0.50246374897E+03  0.10100000352E+00 0.  1.
       -3    1    3    3    0  502 -0.41867542744E+03  0.27629254467E+03  0.44741756994E+03  0.67216752069E+03  0.10100000352E+00 0. -1.
</event>
<event>
 5   0  0.3657529E-04  0.1101394E+04  0.7818609E-02  0.9203834E-01
       -1   -1    0    0    0  501  0.00000000000E+00  0.00000000000E+00  0.45874491922E+03  0.45874491924E+03  0.50400001928E-02 0. -1.
        1   -1    0    0  501    0  0.00000000000E+00  0.00000000000E+00 -0.66108024082E+03  0.66108024084E+03  0.50400001928E-02 0.  1.
    10030    2    1    2    0    0  0.00000000000E+00  0.00000000000E+00 -0.20233532161E+03  0.11198251601E+04  0.11013940289E+04 0.  0.
        4    1    3    3  502    0  0.87368820772E+02  0.40991929784E+03 -0.46435457975E+03  0.62553491527E+03  0.12699999809E+01 0.  1.
       -4    1    3    3    0  502 -0.87368820772E+02 -0.40991929784E+03  0.26201925814E+03  0.49429024482E+03  0.12699999809E+01 0. -1.
</event>
<event>
 5   0  0.6412712E-04  0.1100526E+04  0.7818609E-02  0.9204679E-01
        2   -1    0    0  501    0  0.00000000000E+00  0.00000000000E+00  0.58975044275E+03  0.58975044275E+03  0.25500000920E-02 0.  1.
       -2   -1    0    0    0  501  0.00000000000E+00  0.00000000000E+00 -0.51341986202E+03  0.51341986203E+03  0.25500000920E-02 0. -1.
    10030    2    1    2    0    0  0.00000000000E+00  0.00000000000E+00  0.76330580724E+02  0.11031703048E+04  0.11005264030E+04 0.  0.
        2    1    3    3  502    0  0.13846624209E+03 -0.38841651799E+03  0.40338837095E+03  0.57685567473E+03  0.25500000920E-02 0.  1.
       -2    1    3    3    0  502 -0.13846624209E+03  0.38841651799E+03 -0.32705779022E+03  0.52631463005E+03  0.25500000920E-02 0. -1.
</event>
<event>
 5   0  0.3657529E-04  0.1098368E+04  0.7818609E-02  0.9206784E-01
        1   -1    0    0  501    0  0.00000000000E+00  0.00000000000E+00  0.85841747056E+03  0.85841747058E+03  0.50400001928E-02 0. -1.
       -1   -1    0    0    0  501  0.00000000000E+00  0.00000000000E+00 -0.35134760062E+03  0.35134760066E+03  0.50400001928E-02 0.  1.
    10030    2    1    2    0    0  0.00000000000E+00  0.00000000000E+00  0.50706986994E+03  0.12097650712E+04  0.10983677319E+04 0.  0.
        4    1    3    3  502    0 -0.35850676925E+03  0.16551689720E+03  0.67392340465E+03  0.78108726471E+03  0.12699999809E+01 0.  1.
       -4    1    3    3    0  502  0.35850676925E+03 -0.16551689720E+03 -0.16685353471E+03  0.42867780652E+03  0.12699999809E+01 0. -1.
</event>
<event>
 5   0  0.3423758E-04  0.1099480E+04  0.7818609E-02  0.9205699E-01
       -1   -1    0    0    0  501  0.00000000000E+00  0.00000000000E+00  0.16359038123E+03  0.16359038131E+03  0.50400001928E-02 0. -1.
        1   -1    0    0  501    0  0.00000000000E+00  0.00000000000E+00 -0.18473825561E+04  0.18473825561E+04  0.50400001928E-02 0.  1.
    10030    2    1    2    0    0  0.00000000000E+00  0.00000000000E+00 -0.16837921749E+04  0.20109729374E+04  0.10994799075E+04 0.  0.
        1    1    3    3  502    0  0.42970256763E+03  0.19624265334E+03 -0.13561686172E+04  0.14360880175E+04  0.50400001928E-02 0.  1.
       -1    1    3    3    0  502 -0.42970256763E+03 -0.19624265334E+03 -0.32762355766E+03  0.57488491994E+03  0.50400001928E-02 0. -1.
</event>
<event>
 5   0  0.6245176E-04  0.1096151E+04  0.7818609E-02  0.9208952E-01
       -2   -1    0    0    0  501  0.00000000000E+00  0.00000000000E+00  0.10072853711E+04  0.10072853711E+04  0.25500000920E-02 0. -1.
        2   -1    0    0  501    0  0.00000000000E+00  0.00000000000E+00 -0.29821404742E+03  0.29821404743E+03  0.25500000920E-02 0.  1.
    10030    2    1    2    0    0  0.00000000000E+00  0.00000000000E+00  0.70907132370E+03  0.13054994186E+04  0.10961508061E+04 0.  0.
        5    1    3    3  502    0 -0.51172329970E+03 -0.19391471101E+03  0.39028321470E+03  0.67216570002E+03  0.46999998093E+01 0.  1.
       -5    1    3    3    0  502  0.51172329970E+03  0.19391471101E+03  0.31878810900E+03  0.63333371854E+03  0.46999998093E+01 0. -1.
</event>
<event>
 5   0  0.3621403E-04  0.1102487E+04  0.7818609E-02  0.9202771E-01
       -1   -1    0    0    0  501  0.00000000000E+00  0.00000000000E+00  0.35956599310E+03  0.35956599313E+03  0.50400001928E-02 0.  1.
        1   -1    0    0  501    0  0.00000000000E+00  0.00000000000E+00 -0.84510075605E+03  0.84510075606E+03  0.50400001928E-02 0. -1.
    10030    2    1    2    0    0  0.00000000000E+00  0.00000000000E+00 -0.48553476295E+03  0.12046667492E+04  0.11024871748E+04 0.  0.
        3    1    3    3  502    0  0.28998656547E+03 -0.12268581557E+03  0.25163358412E+03  0.40306759774E+03  0.10100000352E+00 0.  1.
       -3    1    3    3    0  502 -0.28998656547E+03  0.12268581557E+03 -0.73716834707E+03  0.80159915146E+03  0.10100000352E+00 0. -1.
</event>
<event>
 5   0  0.3621403E-04  0.1096658E+04  0.7818609E-02  0.9208455E-01
       -1   -1    0    0    0  501  0.00000000000E+00  0.00000000000E+00  0.45555464369E+03  0.45555464372E+03  0.50400001928E-02 0.  1.
        1   -1    0    0  501    0  0.00000000000E+00  0.00000000000E+00 -0.65999717249E+03  0.65999717251E+03  0.50400001928E-02 0. -1.
    10030    2    1    2    0    0  0.00000000000E+00  0.00000000000E+00 -0.20444252880E+03  0.11155518162E+04  0.10966581542E+04 0.  0.
        3    1    3    3  502    0 -0.26322487502E+03  0.32736843569E+03 -0.46072369492E+03  0.62347715337E+03  0.10100000352E+00 0. -1.
       -3    1    3    3    0  502  0.26322487502E+03 -0.32736843569E+03  0.25628116613E+03  0.49207466286E+03  0.10100000352E+00 0.  1.
</event>
<event>
 5   0  0.6412712E-04  0.1097893E+04  0.7818609E-02  0.9207248E-01
        2   -1    0    0  501    0  0.00000000000E+00  0.00000000000E+00  0.17388383092E+04  0.17388383092E+04  0.25500000920E-02 0. -1.
       -2   -1    0    0    0  501  0.00000000000E+00  0.00000000000E+00 -0.17330088048E+03  0.17330088050E+03  0.25500000920E-02 0.  1.
    10030    2    1    2    0    0  0.00000000000E+00  0.00000000000E+00  0.15655374287E+04  0.19121391897E+04  0.10978929092E+04 0.  0.
        2    1    3    3  502    0 -0.12700433904E+02  0.25529217688E+03 -0.63331476253E+02  0.26333680428E+03  0.25500000920E-02 0.  1.
       -2    1    3    3    0  502  0.12700433904E+02 -0.25529217688E+03  0.16288689049E+04  0.16488023854E+04  0.25500000920E-02 0. -1.
</event>
<event>
 5   0  0.6264830E-04  0.1099624E+04  0.7818609E-02  0.9205559E-01
        2   -1    0    0  501    0  0.00000000000E+00  0.00000000000E+00  0.82524422462E+03  0.82524422462E+03  0.25500000920E-02 0.  1.
       -2   -1    0    0    0  501  0.00000000000E+00  0.00000000000E+00 -0.36630738197E+03  0.36630738197E+03  0.25500000920E-02 0. -1.
    10030    2    1    2    0    0  0.00000000000E+00  0.00000000000E+00  0.45893684265E+03  0.11915516066E+04  0.10996236655E+04 0.  0.
        4    1    3    3  502    0 -0.16807886669E+03  0.24335554540E+03  0.73170129455E+03  0.78921532185E+03  0.12699999809E+01 0.  1.
       -4    1    3    3    0  502  0.16807886669E+03 -0.24335554540E+03 -0.27276445189E+03  0.40233628474E+03  0.12699999809E+01 0. -1.
</event>
<event>
 5   0  0.3621403E-04  0.1100597E+04  0.7818609E-02  0.9204611E-01
       -1   -1    0    0    0  501  0.00000000000E+00  0.00000000000E+00  0.28007664867E+03  0.28007664872E+03  0.50400001928E-02 0.  1.
        1   -1    0    0  501    0  0.00000000000E+00  0.00000000000E+00 -0.10812332164E+04  0.10812332164E+04  0.50400001928E-02 0. -1.
    10030    2    1    2    0    0  0.00000000000E+00  0.00000000000E+00 -0.80115656774E+03  0.13613098651E+04  0.11005965214E+04 0.  0.
        3    1    3    3  502    0 -0.20762679313E+03 -0.43402721697E+03 -0.70213033916E+02  0.48622874311E+03  0.10100000352E+00 0.  1.
       -3    1    3    3    0  502  0.20762679313E+03  0.43402721697E+03 -0.73094353383E+03  0.87508112203E+03  0.10100000352E+00 0. -1.
</event>
<event>
 5   0  0.6412712E-04  0.1097846E+04  0.7818609E-02  0.9207294E-01
        2   -1    0    0  501    0  0.00000000000E+00  0.00000000000E+00  0.38096552394E+03  0.38096552395E+03  0.25500000920E-02 0. -1.
       -2   -1    0    0    0  501  0.00000000000E+00  0.00000000000E+00 -0.79092841650E+03  0.79092841650E+03  0.25500000920E-02 0.  1.
    10030    2    1    2    0    0  0.00000000000E+00  0.00000000000E+00 -0.40996289255E+03  0.11718939405E+04  0.10978459976E+04 0.  0.
        2    1    3    3  502    0  0.25223891346E+03 -0.29245173908E+03 -0.62137385210E+03  0.73161325387E+03  0.25500000920E-02 0.  1.
       -2    1    3    3    0  502 -0.25223891346E+03  0.29245173908E+03  0.21141095955E+03  0.44028068658E+03  0.25500000920E-02 0. -1.
</event>
<event>
 5   0  0.6264830E-04  0.1100220E+04  0.7818609E-02  0.9204977E-01
       -2   -1    0    0    0  501  0.00000000000E+00  0.00000000000E+00  0.25578180326E+03  0.25578180327E+03  0.25500000920E-02 0. -1.
        2   -1    0    0  501    0  0.00000000000E+00  0.00000000000E+00 -0.11831217170E+04  0.11831217170E+04  0.25500000920E-02 0.  1.
    10030    2    1    2    0    0  0.00000000000E+00  0.00000000000E+00 -0.92733991378E+03  0.14389035203E+04  0.11002199894E+04 0.  0.
        4    1    3    3  502    0 -0.39628059663E+03 -0.35473569227E+03 -0.27990356274E+03  0.60101858538E+03  0.12699999809E+01 0. -1.
       -4    1    3    3    0  502  0.39628059663E+03  0.35473569227E+03 -0.64743635104E+03  0.83788493493E+03  0.12699999809E+01 0.  1.
</event>
<event>
 5   0  0.5948818E-04  0.1100847E+04  0.7818609E-02  0.9204367E-01
        2   -1    0    0  501    0  0.00000000000E+00  0.00000000000E+00  0.78994700951E+03  0.78994700951E+03  0.25500000920E-02 0. -1.
       -2   -1    0    0    0  501  0.00000000000E+00  0.00000000000E+00 -0.38352703481E+03  0.38352703482E+03  0.25500000920E-02 0.  1.
    10030    2    1    2    0    0  0.00000000000E+00  0.00000000000E+00  0.40641997470E+03  0.11734740443E+04  0.11008470088E+04 0.  0.
        3    1    3    3  502    0 -0.36667645662E+03 -0.35928233045E+03 -0.84619349282E+01  0.51342675364E+03  0.10100000352E+00 0.  1.
       -3    1    3    3    0  502  0.36667645662E+03  0.35928233045E+03  0.41488190963E+03  0.66004729069E+03  0.10100000352E+00 0. -1.
</event>
<event>
 5   0  0.3621403E-04  0.1101501E+04  0.7818609E-02  0.9203730E-01
        1   -1    0    0  501    0  0.00000000000E+00  0.00000000000E+00  0.13587760237E+04  0.13587760237E+04  0.50400001928E-02 0.  1.
       -1   -1    0    0    0  501  0.00000000000E+00  0.00000000000E+00 -0.22323489349E+03  0.22323489355E+03  0.50400001928E-02 0. -1.
    10030    2    1    2    0    0  0.00000000000E+00  0.00000000000E+00  0.11355411302E+04  0.15820109172E+04  0.11015011956E+04 0.  0.
        3    1    3    3  502    0  0.84561009517E+02 -0.22059160964E+03 -0.14676731081E+03  0.27812205287E+03  0.10100000352E+00 0. -1.
       -3    1    3    3    0  502 -0.84561009517E+02  0.22059160964E+03  0.12823084410E+04  0.13038888643E+04  0.10100000352E+00 0.  1.
</event>
<event>
 5   0  0.6412712E-04  0.1104342E+04  0.7818609E-02  0.9200971E-01
        2   -1    0    0  501    0  0.00000000000E+00  0.00000000000E+00  0.11020213517E+04  0.11020213517E+04  0.25500000920E-02 0. -1.
       -2   -1    0    0    0  501  0.00000000000E+00  0.00000000000E+00 -0.27666667179E+03  0.27666667180E+03  0.25500000920E-02 0.  1.
    10030    2    1    2    0    0  0.00000000000E+00  0.00000000000E+00  0.82535467993E+03  0.13786880235E+04  0.11043415769E+04 0.  0.
        2    1    3    3  502    0  0.14000175427E+02 -0.49868953422E+03  0.11723193918E+03  0.51247495942E+03  0.25500000920E-02 0. -1.
       -2    1    3    3    0  502 -0.14000175427E+02  0.49868953422E+03  0.70812274075E+03  0.86621306411E+03  0.25500000920E-02 0.  1.
</event>
<event>
 5   0  0.3523525E-04  0.1100377E+04  0.7818609E-02  0.9204824E-01
       -1   -1    0    0    0  501  0.00000000000E+00  0.00000000000E+00  0.52123900039E+03  0.52123900042E+03  0.50400001928E-02 0. -1.
        1   -1    0    0  501    0  0.00000000000E+00  0.00000000000E+00 -0.58074607072E+03  0.58074607074E+03  0.50400001928E-02 0.  1.
    10030    2    1    2    0    0  0.00000000000E+00  0.00000000000E+00 -0.59507070324E+02  0.11019850712E+04  0.11003772106E+04 0.  0.
        5    1    3    3  502    0  0.77915315312E+02 -0.53440525901E+03  0.75402914169E+02  0.54531409910E+03  0.46999998093E+01 0. -1.
       -5    1    3    3    0  502 -0.77915315312E+02  0.53440525901E+03 -0.13490998449E+03  0.55667097205E+03  0.46999998093E+01 0.  1.
</event>
<event>
 5   0  0.3657529E-04  0.1101851E+04  0.7818609E-02  0.9203389E-01
        1   -1    0    0  501    0  0.00000000000E+00  0.00000000000E+00  0.10485967060E+04  0.10485967060E+04  0.50400001928E-02 0. -1.
       -1   -1    0    0    0  501  0.00000000000E+00  0.00000000000E+00 -0.28945270340E+03  0.28945270345E+03  0.50400001928E-02 0.  1.
    10030    2    1    2    0    0  0.00000000000E+00  0.00000000000E+00  0.75914400256E+03  0.13380494094E+04  0.11018514444E+04 0.  0.
        4    1    3    3  502    0 -0.53451638459E+03 -0.31113801364E+02  0.22197711325E+03  0.57961304828E+03  0.12699999809E+01 0. -1.
       -4    1    3    3    0  502  0.53451638459E+03  0.31113801364E+02  0.53716688931E+03  0.75843636114E+03  0.12699999809E+01 0.  1.
</event>
<event>
 5   0  0.6412712E-04  0.1109129E+04  0.7818609E-02  0.9196339E-01
        2   -1    0    0  501    0  0.00000000000E+00  0.00000000000E+00  0.15217142369E+04  0.15217142369E+04  0.25500000920E-02 0. -1.
       -2   -1    0    0    0  501  0.00000000000E+00  0.00000000000E+00 -0.20210234655E+03  0.20210234656E+03  0.25500000920E-02 0.  1.
    10030    2    1    2    0    0  0.00000000000E+00  0.00000000000E+00  0.13196118904E+04  0.17238165835E+04  0.11091294209E+04 0.  0.
        2    1    3    3  502    0  0.20356777295E+03 -0.15449564136E+03  0.14247430553E+04  0.14474810931E+04  0.25500000920E-02 0. -1.
       -2    1    3    3    0  502 -0.20356777295E+03  0.15449564136E+03 -0.10513116492E+03  0.27633549035E+03  0.25500000920E-02 0.  1.
</event>
<event>
 5   0  0.3523525E-04  0.1100469E+04  0.7818609E-02  0.9204735E-01
       -1   -1    0    0    0  501  0.00000000000E+00  0.00000000000E+00  0.29957244382E+03  0.29957244387E+03  0.50400001928E-02 0.  1.
        1   -1    0    0  501    0  0.00000000000E+00  0.00000000000E+00 -0.10106331499E+04  0.10106331499E+04  0.50400001928E-02 0. -1.
    10030    2    1    2    0    0  0.00000000000E+00  0.00000000000E+00 -0.71106070607E+03  0.13102055938E+04  0.11004687048E+04 0.  0.
        5    1    3    3  502    0 -0.50345233894E+02  0.45036355775E+03  0.15990126087E+02  0.45347519320E+03  0.46999998093E+01 0.  1.
       -5    1    3    3    0  502  0.50345233894E+02 -0.45036355775E+03 -0.72705083216E+03  0.85673040057E+03  0.46999998093E+01 0. -1.
</event>
<event>
 5   0  0.3621403E-04  0.1099418E+04  0.7818609E-02  0.9205759E-01
        1   -1    0    0  501    0  0.00000000000E+00  0.00000000000E+00  0.14795066035E+04  0.14795066035E+04  0.50400001928E-02 0. -1.
       -1   -1    0    0    0  501  0.00000000000E+00  0.00000000000E+00 -0.20424392614E+03  0.20424392620E+03  0.50400001928E-02 0.  1.
    10030    2    1    2    0    0  0.00000000000E+00  0.00000000000E+00  0.12752626773E+04  0.16837505297E+04  0.10994184599E+04 0.  0.
        3    1    3    3  502    0 -0.63684586455E+02  0.35268356240E+03 -0.72494293419E+00  0.35838799852E+03  0.10100000352E+00 0.  1.
       -3    1    3    3    0  502  0.63684586455E+02 -0.35268356240E+03  0.12759876203E+04  0.13253625312E+04  0.10100000352E+00 0. -1.
</event>
<event>
 5   0  0.3621403E-04  0.1097964E+04  0.7818609E-02  0.9207179E-01
       -1   -1    0    0    0  501  0.00000000000E+00  0.00000000000E+00  0.19867216679E+03  0.19867216685E+03  0.50400001928E-02 0. -1.
        1   -1    0    0  501    0  0.00000000000E+00  0.00000000000E+00 -0.15169771074E+04  0.15169771074E+04  0.50400001928E-02 0.  1.
    10030    2    1    2    0    0  0.00000000000E+00  0.00000000000E+00 -0.13183049406E+04  0.17156492743E+04  0.10979638044E+04 0.  0.
        3    1    3    3  502    0 -0.35039210350E+03 -0.28406591915E+02 -0.27322702425E+00  0.35154181190E+03  0.10100000352E+00 0. -1.
       -3    1    3    3    0  502  0.35039210350E+03  0.28406591915E+02 -0.13180317136E+04  0.13641074624E+04  0.10100000352E+00 0.  1.
</event>
<event>
 5   0  0.3642161E-04  0.1100083E+04  0.7818609E-02  0.9205111E-01
       -1   -1    0    0    0  501  0.00000000000E+00  0.00000000000E+00  0.17382623227E+03  0.17382623234E+03  0.50400001928E-02 0.  1.
        1   -1    0    0  501    0  0.00000000000E+00  0.00000000000E+00 -0.17405065120E+04  0.17405065120E+04  0.50400001928E-02 0. -1.
    10030    2    1    2    0    0  0.00000000000E+00  0.00000000000E+00 -0.15666802797E+04  0.19143327443E+04  0.11000830683E+04 0.  0.
        2    1    3    3  502    0 -0.39033703437E+03 -0.22179552314E+03 -0.23033404430E+03  0.50458896783E+03  0.25500000920E-02 0.  1.
       -2    1    3    3    0  502  0.39033703437E+03  0.22179552314E+03 -0.13363462354E+04  0.14097437765E+04  0.25500000920E-02 0. -1.
</event>
<event>
 5   0  0.6245176E-04  0.1096036E+04  0.7818609E-02  0.9209064E-01
        2   -1    0    0  501    0  0.00000000000E+00  0.00000000000E+00  0.71508503038E+03  0.71508503039E+03  0.25500000920E-02 0.  1.
       -2   -1    0    0    0  501  0.00000000000E+00  0.00000000000E+00 -0.41998331303E+03  0.41998331304E+03  0.25500000920E-02 0. -1.
    10030    2    1    2    0    0  0.00000000000E+00  0.00000000000E+00  0.29510171735E+03  0.11350683434E+04  0.10960360946E+04 0.  0.
        5    1    3    3  502    0 -0.44740574813E+03  0.21136810765E+03  0.39142226980E+03  0.63093728982E+03  0.46999998093E+01 0.  1.
       -5    1    3    3    0  502  0.44740574813E+03 -0.21136810765E+03 -0.96320552449E+02  0.50413105361E+03  0.46999998093E+01 0. -1.
</event>
<event>
 5   0  0.3657529E-04  0.1100198E+04  0.7818609E-02  0.9204999E-01
       -1   -1    0    0    0  501  0.00000000000E+00  0.00000000000E+00  0.23150459349E+03  0.23150459355E+03  0.50400001928E-02 0.  1.
        1   -1    0    0  501    0  0.00000000000E+00  0.00000000000E+00 -0.13071389908E+04  0.13071389908E+04  0.50400001928E-02 0. -1.
    10030    2    1    2    0    0  0.00000000000E+00  0.00000000000E+00 -0.10756343973E+04  0.15386435843E+04  0.11001975836E+04 0.  0.
        4    1    3    3  502    0 -0.12163831290E+03  0.16486320223E+02  0.21210466771E+03  0.24506668661E+03  0.12699999809E+01 0.  1.
       -4    1    3    3    0  502  0.12163831290E+03 -0.16486320223E+02 -0.12877390650E+04  0.12935768977E+04  0.12699999809E+01 0. -1.
</event>
<event>
 5   0  0.3621403E-04  0.1099468E+04  0.7818609E-02  0.9205711E-01
        1   -1    0    0  501    0  0.00000000000E+00  0.00000000000E+00  0.95644203478E+03  0.95644203480E+03  0.50400001928E-02 0. -1.
       -1   -1    0    0    0  501  0.00000000000E+00  0.00000000000E+00 -0.31597050328E+03  0.31597050332E+03  0.50400001928E-02 0.  1.
    10030    2    1    2    0    0  0.00000000000E+00  0.00000000000E+00  0.64047153151E+03  0.12724125381E+04  0.10994680007E+04 0.  0.
        3    1    3    3  502    0 -0.51456826122E+03 -0.19308496148E+03  0.33417931989E+03  0.64322478641E+03  0.10100000352E+00 0. -1.
       -3    1    3    3    0  502  0.51456826122E+03  0.19308496148E+03  0.30629221161E+03  0.62918775171E+03  0.10100000352E+00 0.  1.
</event>
<event>
 5   0  0.6412712E-04  0.1099460E+04  0.7818609E-02  0.9205718E-01
        2   -1    0    0  501    0  0.00000000000E+00  0.00000000000E+00  0.56205947077E+03  0.56205947078E+03  0.25500000920E-02 0.  1.
       -2   -1    0    0    0  501  0.00000000000E+00  0.00000000000E+00 -0.53767123133E+03  0.53767123134E+03  0.25500000920E-02 0. -1.
    10030    2    1    2    0    0  0.00000000000E+00  0.00000000000E+00  0.24388239444E+02  0.10997307021E+04  0.10994602453E+04 0.  0.
        2    1    3    3  502    0  0.14570275274E+03 -0.26701282248E+03  0.47021293871E+03  0.56002263102E+03  0.25500000920E-02 0.  1.
       -2    1    3    3    0  502 -0.14570275274E+03  0.26701282248E+03 -0.44582469926E+03  0.53970807109E+03  0.25500000920E-02 0. -1.
</event>
<event>
 5   0  0.2403875E-04  0.1099614E+04  0.7818609E-02  0.9205568E-01
       -4   -1    0    0    0  501  0.00000000000E+00  0.00000000000E+00  0.56682965177E+03  0.56683107451E+03  0.12699999809E+01 0. -1.
        4   -1    0    0  501    0  0.00000000000E+00  0.00000000000E+00 -0.53329291180E+03  0.53329442400E+03  0.12699999809E+01 0.  1.
    10030    2    1    2    0    0  0.00000000000E+00  0.00000000000E+00  0.33536739973E+02  0.11001254985E+04  0.10996142049E+04 0.  0.
        3    1    3    3  502    0 -0.14221567167E+03  0.20642288687E+03  0.50633436626E+03  0.56498690794E+03  0.10100000352E+00 0. -1.
       -3    1    3    3    0  502  0.14221567167E+03 -0.20642288687E+03 -0.47279762629E+03  0.53513859057E+03  0.10100000352E+00 0.  1.
</event>
<event>
 5   0  0.6245176E-04  0.1099602E+04  0.7818609E-02  0.9205580E-01
       -2   -1    0    0    0  501  0.00000000000E+00  0.00000000000E+00  0.38341959207E+03  0.38341959208E+03  0.25500000920E-02 0.  1.
        2   -1    0    0  501    0  0.00000000000E+00  0.00000000000E+00 -0.78838139026E+03  0.78838139026E+03  0.25500000920E-02 0. -1.
    10030    2    1    2    0    0  0.00000000000E+00  0.00000000000E+00 -0.40496179819E+03  0.11718009823E+04  0.10996015116E+04 0.  0.
        5    1    3    3  502    0 -0.34212695521E+03 -0.39844555671E+03 -0.37579092975E+03  0.64579457107E+03  0.46999998093E+01 0.  1.
       -5    1    3    3    0  502  0.34212695521E+03  0.39844555671E+03 -0.29170868435E+02  0.52600641128E+03  0.46999998093E+01 0. -1.
</event>
<event>
 5   0  0.3423758E-04  0.1100331E+04  0.7818609E-02  0.9204869E-01
       -1   -1    0    0    0  501  0.00000000000E+00  0.00000000000E+00  0.26632244987E+03  0.26632244992E+03  0.50400001928E-02 0. -1.
        1   -1    0    0  501    0  0.00000000000E+00  0.00000000000E+00 -0.11365253684E+04  0.11365253684E+04  0.50400001928E-02 0.  1.
    10030    2    1    2    0    0  0.00000000000E+00  0.00000000000E+00 -0.87020291854E+03  0.14028478183E+04  0.11003312601E+04 0.  0.
        1    1    3    3  502    0 -0.33042507638E+03 -0.33437269839E+03 -0.70692926606E+02  0.47537703186E+03  0.50400001928E-02 0.  1.
       -1    1    3    3    0  502  0.33042507638E+03  0.33437269839E+03 -0.79950999193E+03  0.92747078647E+03  0.50400001928E-02 0. -1.
</event>
<event>
 5   0  0.5948818E-04  0.1101419E+04  0.7818609E-02  0.9203810E-01
       -2   -1    0    0    0  501  0.00000000000E+00  0.00000000000E+00  0.24396715514E+03  0.24396715516E+03  0.25500000920E-02 0.  1.
        2   -1    0    0  501    0  0.00000000000E+00  0.00000000000E+00 -0.12431222177E+04  0.12431222177E+04  0.25500000920E-02 0. -1.
    10030    2    1    2    0    0  0.00000000000E+00  0.00000000000E+00 -0.99915506253E+03  0.14870893728E+04  0.11014190682E+04 0.  0.
        3    1    3    3  502    0  0.32465808593E+02  0.29586112136E+03  0.12601790527E+03  0.32321564707E+03  0.10100000352E+00 0.  1.
       -3    1    3    3    0  502 -0.32465808593E+02 -0.29586112136E+03 -0.11251729678E+04  0.11638737258E+04  0.10100000352E+00 0. -1.
</event>
<event>
 5   0  0.6245176E-04  0.1100836E+04  0.7818609E-02  0.9204378E-01
       -2   -1    0    0    0  501  0.00000000000E+00  0.00000000000E+00  0.15002512218E+03  0.15002512220E+03  0.25500000920E-02 0. -1.
        2   -1    0    0  501    0  0.00000000000E+00  0.00000000000E+00 -0.20193942167E+04  0.20193942167E+04  0.25500000920E-02 0.  1.
    10030    2    1    2    0    0  0.00000000000E+00  0.00000000000E+00 -0.18693690946E+04  0.21694193389E+04  0.11008357990E+04 0.  0.
        5    1    3    3  502    0  0.10843122338E+03 -0.53870815926E+03 -0.99618696760E+03  0.11377057508E+04  0.46999998093E+01 0. -1.
       -5    1    3    3    0  502 -0.10843122338E+03  0.53870815926E+03 -0.87318212696E+03  0.10317135881E+04  0.46999998093E+01 0.  1.
</event>
<event>
 5   0  0.3423758E-04  0.1101368E+04  0.7818609E-02  0.9203860E-01
       -1   -1    0    0    0  501  0.00000000000E+00  0.00000000000E+00  0.29129190511E+03  0.29129190515E+03  0.50400001928E-02 0. -1.
        1   -1    0    0  501    0  0.00000000000E+00  0.00000000000E+00 -0.10410613389E+04  0.10410613389E+04  0.50400001928E-02 0.  1.
    10030    2    1    2    0    0  0.00000000000E+00  0.00000000000E+00 -0.74976943383E+03  0.13323532441E+04  0.11013677693E+04 0.  0.
        1    1    3    3  502    0  0.40381141909E+03  0.24496637042E+03 -0.71743280846E+03  0.85894238428E+03  0.50400001928E-02 0.  1.
       -1    1    3    3    0  502 -0.40381141909E+03 -0.24496637042E+03 -0.32336625367E+02  0.47341085982E+03  0.50400001928E-02 0. -1.
</event>
<event>
 5   0  0.6412712E-04  0.1101980E+04  0.7818609E-02  0.9203264E-01
        2   -1    0    0  501    0  0.00000000000E+00  0.00000000000E+00  0.98626022386E+03  0.98626022386E+03  0.25500000920E-02 0. -1.
       -2   -1    0    0    0  501  0.00000000000E+00  0.00000000000E+00 -0.30781951097E+03  0.30781951098E+03  0.25500000920E-02 0.  1.
    10030    2    1    2    0    0  0.00000000000E+00  0.00000000000E+00  0.67844071288E+03  0.12940797348E+04  0.11019802899E+04 0.  0.
        2    1    3    3  502    0 -0.16352050615E+03  0.37004061939E+03  0.77848763344E+03  0.87733232664E+03  0.25500000920E-02 0. -1.
       -2    1    3    3    0  502  0.16352050615E+03 -0.37004061939E+03 -0.10004692056E+03  0.41674740821E+03  0.25500000920E-02 0.  1.
</event>
<event>
 5   0  0.6245176E-04  0.1093833E+04  0.7818609E-02  0.9211223E-01
        2   -1    0    0  501    0  0.00000000000E+00  0.00000000000E+00  0.11632219256E+04  0.11632219256E+04  0.25500000920E-02 0. -1.
       -2   -1    0    0    0  501  0.00000000000E+00  0.00000000000E+00 -0.25714601898E+03  0.25714601900E+03  0.25500000920E-02 0.  1.
    10030    2    1    2    0    0  0.00000000000E+00  0.00000000000E+00  0.90607590658E+03  0.14203679446E+04  0.10938334194E+04 0.  0.
        5    1    3    3  502    0  0.45162575413E+03  0.80312202464E+02  0.83972741328E+03  0.95685949348E+03  0.46999998093E+01 0. -1.
       -5    1    3    3    0  502 -0.45162575413E+03 -0.80312202464E+02  0.66348493297E+02  0.46350845108E+03  0.46999998093E+01 0.  1.
</event>
<event>
 5   0  0.3642161E-04  0.1098154E+04  0.7818609E-02  0.9206993E-01
       -1   -1    0    0    0  501  0.00000000000E+00  0.00000000000E+00  0.31785364635E+03  0.31785364639E+03  0.50400001928E-02 0. -1.
        1   -1    0    0  501    0  0.00000000000E+00  0.00000000000E+00 -0.94850388101E+03  0.94850388102E+03  0.50400001928E-02 0.  1.
    10030    2    1    2    0    0  0.00000000000E+00  0.00000000000E+00 -0.63065023465E+03  0.12663575274E+04  0.10981537546E+04 0.  0.
        2    1    3    3  502    0  0.20531171747E+03  0.40805566720E+03  0.36009701421E+02  0.45821286262E+03  0.25500000920E-02 0. -1.
       -2    1    3    3    0  502 -0.20531171747E+03 -0.40805566720E+03 -0.66665993607E+03  0.80814466480E+03  0.25500000920E-02 0.  1.
</event>
<event>
 5   0  0.6245176E-04  0.1099904E+04  0.7818609E-02  0.9205286E-01
        2   -1    0    0  501    0  0.00000000000E+00  0.00000000000E+00  0.12809099799E+04  0.12809099799E+04  0.25500000920E-02 0.  1.
       -2   -1    0    0    0  501  0.00000000000E+00  0.00000000000E+00 -0.23611888019E+03  0.23611888021E+03  0.25500000920E-02 0. -1.
    10030    2    1    2    0    0  0.00000000000E+00  0.00000000000E+00  0.10447910997E+04  0.15170288601E+04  0.10999036869E+04 0.  0.
        5    1    3    3  502    0  0.10856365845E+02 -0.56266927719E+02  0.12767530926E+04  0.12780470951E+04  0.46999998093E+01 0.  1.
       -5    1    3    3    0  502 -0.10856365845E+02  0.56266927719E+02 -0.23196199292E+03  0.23898176498E+03  0.46999998093E+01 0. -1.
</event>
<event>
 5   0  0.3657529E-04  0.1099428E+04  0.7818609E-02  0.9205749E-01
        1   -1    0    0  501    0  0.00000000000E+00  0.00000000000E+00  0.49867715481E+03  0.49867715483E+03  0.50400001928E-02 0. -1.
       -1   -1    0    0    0  501  0.00000000000E+00  0.00000000000E+00 -0.60597450025E+03  0.60597450027E+03  0.50400001928E-02 0.  1.
    10030    2    1    2    0    0  0.00000000000E+00  0.00000000000E+00 -0.10729734544E+03  0.11046516551E+04  0.10994282872E+04 0.  0.
        4    1    3    3  502    0  0.39699002830E+03 -0.37012975398E+03 -0.14116536420E+03  0.56082652425E+03  0.12699999809E+01 0.  1.
       -4    1    3    3    0  502 -0.39699002830E+03  0.37012975398E+03  0.33868018758E+02  0.54382513085E+03  0.12699999809E+01 0. -1.
</event>
<event>
 5   0  0.3523525E-04  0.1101524E+04  0.7818609E-02  0.9203708E-01
        1   -1    0    0  501    0  0.00000000000E+00  0.00000000000E+00  0.13748461306E+04  0.13748461307E+04  0.50400001928E-02 0.  1.
       -1   -1    0    0    0  501  0.00000000000E+00  0.00000000000E+00 -0.22063460141E+03  0.22063460146E+03  0.50400001928E-02 0. -1.
    10030    2    1    2    0    0  0.00000000000E+00  0.00000000000E+00  0.11542115292E+04  0.15954807321E+04  0.11015237230E+04 0.  0.
        5    1    3    3  502    0  0.51068063745E+03  0.18788473331E+03  0.70018957723E+03  0.88678234113E+03  0.46999998093E+01 0.  1.
       -5    1    3    3    0  502 -0.51068063745E+03 -0.18788473331E+03  0.45402195200E+03  0.70869839098E+03  0.46999998093E+01 0. -1.
</event>
<event>
 5   0  0.3523525E-04  0.1100500E+04  0.7818609E-02  0.9204705E-01
       -1   -1    0    0    0  501  0.00000000000E+00  0.00000000000E+00  0.76401848942E+03  0.76401848944E+03  0.50400001928E-02 0.  1.
        1   -1    0    0  501    0  0.00000000000E+00  0.00000000000E+00 -0.39629277791E+03  0.39629277794E+03  0.50400001928E-02 0. -1.
    10030    2    1    2    0    0  0.00000000000E+00  0.00000000000E+00  0.36772571151E+03  0.11603112674E+04  0.11004999038E+04 0.  0.
        5    1    3    3  502    0 -0.45569930778E+03  0.84887899823E+02 -0.12870343458E+03  0.48109716142E+03  0.46999998093E+01 0. -1.
       -5    1    3    3    0  502  0.45569930778E+03 -0.84887899823E+02  0.49642914610E+03  0.67921410597E+03  0.46999998093E+01 0.  1.
</event>
<event>
 5   0  0.3523525E-04  0.1099890E+04  0.7818609E-02  0.9205299E-01
        1   -1    0    0  501    0  0.00000000000E+00  0.00000000000E+00  0.27858064926E+03  0.27858064930E+03  0.50400001928E-02 0. -1.
       -1   -1    0    0    0  501  0.00000000000E+00  0.00000000000E+00 -0.10856445884E+04  0.10856445884E+04  0.50400001928E-02 0.  1.
    10030    2    1    2    0    0  0.00000000000E+00  0.00000000000E+00 -0.80706393916E+03  0.13642252377E+04  0.10998901297E+04 0.  0.
        5    1    3    3  502    0 -0.16820566533E+02 -0.10059626693E+03  0.26672187446E+03  0.28559619867E+03  0.46999998093E+01 0. -1.
       -5    1    3    3    0  502  0.16820566533E+02  0.10059626693E+03 -0.10737858136E+04  0.10786290391E+04  0.46999998093E+01 0.  1.
</event>
<event>
 5   0  0.5948818E-04  0.1100608E+04  0.7818609E-02  0.9204600E-01
       -2   -1    0    0    0  501  0.00000000000E+00  0.00000000000E+00  0.78105322293E+03  0.78105322293E+03  0.25500000920E-02 0. -1.
        2   -1    0    0  501    0  0.00000000000E+00  0.00000000000E+00 -0.38772573381E+03  0.38772573382E+03  0.25500000920E-02 0.  1.
    10030    2    1    2    0    0  0.00000000000E+00  0.00000000000E+00  0.39332748911E+03  0.11687789568E+04  0.11006078939E+04 0.  0.
        3    1    3    3  502    0 -0.26287102141E+03  0.66354238076E+02  0.70521009448E+03  0.75552984479E+03  0.10100000352E+00 0. -1.
       -3    1    3    3    0  502  0.26287102141E+03 -0.66354238076E+02 -0.31188260537E+03  0.41324911196E+03  0.10100000352E+00 0.  1.
</event>
<event>
 5   0  0.3523525E-04  0.1100022E+04  0.7818609E-02  0.9205171E-01
       -1   -1    0    0    0  501  0.00000000000E+00  0.00000000000E+00  0.95989706946E+03  0.95989706947E+03  0.50400001928E-02 0. -1.
        1   -1    0    0  501    0  0.00000000000E+00  0.00000000000E+00 -0.31515041017E+03  0.31515041021E+03  0.50400001928E-02 0.  1.
    10030    2    1    2    0    0  0.00000000000E+00  0.00000000000E+00  0.64474665929E+03  0.12750474797E+04  0.11000217365E+04 0.  0.
        5    1    3    3  502    0 -0.32744212866E+03  0.28950034170E+01 -0.18982153611E+03  0.37852481324E+03  0.46999998093E+01 0.  1.
       -5    1    3    3    0  502  0.32744212866E+03 -0.28950034170E+01  0.83456819540E+03  0.89652266644E+03  0.46999998093E+01 0. -1.
</event>
<event>
 5   0  0.3523525E-04  0.1099729E+04  0.7818609E-02  0.9205456E-01
        1   -1    0    0  501    0  0.00000000000E+00  0.00000000000E+00  0.13991114701E+04  0.13991114701E+04  0.50400001928E-02 0. -1.
       -1   -1    0    0    0  501  0.00000000000E+00  0.00000000000E+00 -0.21610210862E+03  0.21610210868E+03  0.50400001928E-02 0.  1.
    10030    2    1    2    0    0  0.00000000000E+00  0.00000000000E+00  0.11830093615E+04  0.16152135788E+04  0.10997289465E+04 0.  0.
        5    1    3    3  502    0  0.26777719916E+03  0.52368735968E+02 -0.10962614267E+03  0.29408688181E+03  0.46999998093E+01 0.  1.
       -5    1    3    3    0  502 -0.26777719916E+03 -0.52368735968E+02  0.12926355042E+04  0.13211266970E+04  0.46999998093E+01 0. -1.
</event>
<event>
 5   0  0.5948818E-04  0.1092391E+04  0.7818609E-02  0.9212640E-01
       -2   -1    0    0    0  501  0.00000000000E+00  0.00000000000E+00  0.25537247357E+03  0.25537247359E+03  0.25500000920E-02 0. -1.
        2   -1    0    0  501    0  0.00000000000E+00  0.00000000000E+00 -0.11682139756E+04  0.11682139756E+04  0.25500000920E-02 0.  1.
    10030    2    1    2    0    0  0.00000000000E+00  0.00000000000E+00 -0.91284150204E+03  0.14235864492E+04  0.10923913083E+04 0.  0.
        3    1    3    3  502    0 -0.33599791698E+03  0.15405495890E+03  0.67618128127E+02  0.37576555460E+03  0.10100000352E+00 0. -1.
       -3    1    3    3    0  502  0.33599791698E+03 -0.15405495890E+03 -0.98045963017E+03  0.10478208946E+04  0.10100000352E+00 0.  1.
</event>
<event>
 5   0  0.6109149E-04  0.1101438E+04  0.7818609E-02  0.9203792E-01
        2   -1    0    0  501    0  0.00000000000E+00  0.00000000000E+00  0.94362267337E+03  0.94362267337E+03  0.25500000920E-02 0. -1.
       -2   -1    0    0    0  501  0.00000000000E+00  0.00000000000E+00 -0.32141165108E+03  0.32141165109E+03  0.25500000920E-02 0.  1.
    10030    2    1    2    0    0  0.00000000000E+00  0.00000000000E+00  0.62221102229E+03  0.12650343245E+04  0.11014378266E+04 0.  0.
        1    1    3    3  502    0 -0.79093803142E+02 -0.39870919663E+02  0.93538811553E+03  0.93957248078E+03  0.50400001928E-02 0. -1.
       -1    1    3    3    0  502  0.79093803142E+02  0.39870919663E+02 -0.31317709324E+03  0.32546184368E+03  0.50400001928E-02 0.  1.
</event>
<event>
 5   0  0.6264830E-04  0.1101017E+04  0.7818609E-02  0.9204202E-01
        2   -1    0    0  501    0  0.00000000000E+00  0.00000000000E+00  0.40052656681E+03  0.40052656682E+03  0.25500000920E-02 0. -1.
       -2   -1    0    0    0  501  0.00000000000E+00  0.00000000000E+00 -0.75665247654E+03  0.75665247654E+03  0.25500000920E-02 0.  1.
    10030    2    1    2    0    0  0.00000000000E+00  0.00000000000E+00 -0.35612590973E+03  0.11571790434E+04  0.11010166551E+04 0.  0.
        4    1    3    3  502    0  0.40762168861E+03  0.32697928520E+03  0.39375290316E+01  0.52257823434E+03  0.12699999809E+01 0. -1.
       -4    1    3    3    0  502 -0.40762168861E+03 -0.32697928520E+03 -0.36006343876E+03  0.63460080902E+03  0.12699999809E+01 0.  1.
</event>
<event>
 5   0  0.3642161E-04  0.1100047E+04  0.7818609E-02  0.9205146E-01
        1   -1    0    0  501    0  0.00000000000E+00  0.00000000000E+00  0.12777996116E+04  0.12777996116E+04  0.50400001928E-02 0.  1.
       -1   -1    0    0    0  501  0.00000000000E+00  0.00000000000E+00 -0.23675534810E+03  0.23675534816E+03  0.50400001928E-02 0. -1.
    10030    2    1    2    0    0  0.00000000000E+00  0.00000000000E+00  0.10410442635E+04  0.15145549598E+04  0.11000470752E+04 0.  0.
        2    1    3    3  502    0  0.43558554460E+03 -0.92969953529E+02  0.96484496896E+03  0.10626871567E+04  0.25500000920E-02 0. -1.
       -2    1    3    3    0  502 -0.43558554460E+03  0.92969953529E+02  0.76199294524E+02  0.45186780303E+03  0.25500000920E-02 0.  1.
</event>
<event>
 5   0  0.6245176E-04  0.1100172E+04  0.7818609E-02  0.9205024E-01
       -2   -1    0    0    0  501  0.00000000000E+00  0.00000000000E+00  0.37615267864E+03  0.37615267865E+03  0.25500000920E-02 0. -1.
        2   -1    0    0  501    0  0.00000000000E+00  0.00000000000E+00 -0.80444628129E+03  0.80444628129E+03  0.25500000920E-02 0.  1.
    10030    2    1    2    0    0  0.00000000000E+00  0.00000000000E+00 -0.42829360264E+03  0.11805989599E+04  0.11001720293E+04 0.  0.
        5    1    3    3  502    0 -0.36289052860E+02  0.53769640181E+03 -0.95919096822E+02  0.54740924272E+03  0.46999998093E+01 0. -1.
       -5    1    3    3    0  502  0.36289052860E+02 -0.53769640181E+03 -0.33237450582E+03  0.63318971722E+03  0.46999998093E+01 0.  1.
</event>
<event>
 5   0  0.3657529E-04  0.1100444E+04  0.7818609E-02  0.9204759E-01
        1   -1    0    0  501    0  0.00000000000E+00  0.00000000000E+00  0.47628461644E+03  0.47628461646E+03  0.50400001928E-02 0.  1.
       -1   -1    0    0    0  501  0.00000000000E+00  0.00000000000E+00 -0.63563780144E+03  0.63563780146E+03  0.50400001928E-02 0. -1.
    10030    2    1    2    0    0  0.00000000000E+00  0.00000000000E+00 -0.15935318500E+03  0.11119224179E+04  0.11004444674E+04 0.  0.
        4    1    3    3  502    0 -0.16611459539E+03 -0.42518227273E+03 -0.39007589147E+03  0.60044553279E+03  0.12699999809E+01 0.  1.
       -4    1    3    3    0  502  0.16611459539E+03  0.42518227273E+03  0.23072270647E+03  0.51147688513E+03  0.12699999809E+01 0. -1.
</event>
<event>
 5   0  0.6109149E-04  0.1099227E+04  0.7818609E-02  0.9205946E-01
        2   -1    0    0  501    0  0.00000000000E+00  0.00000000000E+00  0.93603314349E+03  0.93603314350E+03  0.25500000920E-02 0. -1.
       -2   -1    0    0    0  501  0.00000000000E+00  0.00000000000E+00 -0.32271814971E+03  0.32271814972E+03  0.25500000920E-02 0.  1.
    10030    2    1    2    0    0  0.00000000000E+00  0.00000000000E+00  0.61331499378E+03  0.12587512932E+04  0.10992267903E+04 0.  0.
        1    1    3    3  502    0 -0.45526439240E+03 -0.26488673812E+03  0.48642462455E+03  0.71696552666E+03  0.50400001928E-02 0. -1.
       -1    1    3    3    0  502  0.45526439240E+03  0.26488673812E+03  0.12689036923E+03  0.54178576656E+03  0.50400001928E-02 0.  1.
</event>
<event>
 5   0  0.6245176E-04  0.1102080E+04  0.7818609E-02  0.9203167E-01
        2   -1    0    0  501    0  0.00000000000E+00  0.00000000000E+00  0.75370606373E+03  0.75370606373E+03  0.25500000920E-02 0.  1.
       -2   -1    0    0    0  501  0.00000000000E+00  0.00000000000E+00 -0.40286952759E+03  0.40286952760E+03  0.25500000920E-02 0. -1.
    10030    2    1    2    0    0  0.00000000000E+00  0.00000000000E+00  0.35083653613E+03  0.11565755913E+04  0.11020802255E+04 0.  0.
        5    1    3    3  502    0  0.32006082086E+03 -0.28035613216E+03  0.54285182397E+03  0.68974537525E+03  0.46999998093E+01 0.  1.
       -5    1    3    3    0  502 -0.32006082086E+03  0.28035613216E+03 -0.19201528784E+03  0.46683021609E+03  0.46999998093E+01 0. -1.
</event>
<event>
 5   0  0.6412712E-04  0.1100502E+04  0.7818609E-02  0.9204703E-01
       -2   -1    0    0    0  501  0.00000000000E+00  0.00000000000E+00  0.26524253195E+03  0.26524253196E+03  0.25500000920E-02 0.  1.
        2   -1    0    0  501    0  0.00000000000E+00  0.00000000000E+00 -0.11415064012E+04  0.11415064012E+04  0.25500000920E-02 0. -1.
    10030    2    1    2    0    0  0.00000000000E+00  0.00000000000E+00 -0.87626386929E+03  0.14067489332E+04  0.11005017912E+04 0.  0.
        2    1    3    3  502    0  0.39900418275E+03  0.10000944185E+02 -0.92231428001E+03  0.10049716353E+04  0.25500000920E-02 0. -1.
       -2    1    3    3    0  502 -0.39900418275E+03 -0.10000944185E+02  0.46050410724E+02  0.40177729785E+03  0.25500000920E-02 0.  1.
</event>
<event>
 5   0  0.3423758E-04  0.1097718E+04  0.7818609E-02  0.9207419E-01
        1   -1    0    0  501    0  0.00000000000E+00  0.00000000000E+00  0.36183968313E+03  0.36183968317E+03  0.50400001928E-02 0.  1.
       -1   -1    0    0    0  501  0.00000000000E+00  0.00000000000E+00 -0.83254072503E+03  0.83254072505E+03  0.50400001928E-02 0. -1.
    10030    2    1    2    0    0  0.00000000000E+00  0.00000000000E+00 -0.47070104190E+03  0.11943804082E+04  0.10977181281E+04 0.  0.
        1    1    3    3  502    0  0.32316073880E+03 -0.32382781021E+03 -0.56528313007E+03  0.72721546390E+03  0.50400001928E-02 0. -1.
       -1    1    3    3    0  502 -0.32316073880E+03  0.32382781021E+03  0.94582088171E+02  0.46716494432E+03  0.50400001928E-02 0.  1.
</event>
<event>
 5   0  0.3657529E-04  0.1096239E+04  0.7818609E-02  0.9208865E-01
       -1   -1    0    0    0  501  0.00000000000E+00  0.00000000000E+00  0.68438313119E+03  0.68438313121E+03  0.50400001928E-02 0.  1.
        1   -1    0    0  501    0  0.00000000000E+00  0.00000000000E+00 -0.43898669107E+03  0.43898669109E+03  0.50400001928E-02 0. -1.
    10030    2    1    2    0    0  0.00000000000E+00  0.00000000000E+00  0.24539644012E+03  0.11233698223E+04  0.10962391823E+04 0.  0.
        4    1    3    3  502    0  0.35821503226E+03 -0.28438249070E+03  0.43223693852E+03  0.62930262535E+03  0.12699999809E+01 0.  1.
       -4    1    3    3    0  502 -0.35821503226E+03  0.28438249070E+03 -0.18684049840E+03  0.49406719695E+03  0.12699999809E+01 0. -1.
</event>
<event>
 5   0  0.6412712E-04  0.1099910E+04  0.7818609E-02  0.9205280E-01
       -2   -1    0    0    0  501  0.00000000000E+00  0.00000000000E+00  0.24647782013E+03  0.24647782014E+03  0.25500000920E-02 0. -1.
        2   -1    0    0  501    0  0.00000000000E+00  0.00000000000E+00 -0.12270902709E+04  0.12270902709E+04  0.25500000920E-02 0.  1.
    10030    2    1    2    0    0  0.00000000000E+00  0.00000000000E+00 -0.98061245075E+03  0.14735680910E+04  0.10999100601E+04 0.  0.
        2    1    3    3  502    0 -0.35752244051E+03  0.11081314368E+03 -0.10301118735E+04  0.10960074454E+04  0.25500000920E-02 0.  1.
       -2    1    3    3    0  502  0.35752244051E+03 -0.11081314368E+03  0.49499422791E+02  0.37756064565E+03  0.25500000920E-02 0. -1.
</event>
<event>
 5   0  0.6245176E-04  0.1106786E+04  0.7818609E-02  0.9198603E-01
       -2   -1    0    0    0  501  0.00000000000E+00  0.00000000000E+00  0.35165257838E+03  0.35165257839E+03  0.25500000920E-02 0. -1.
        2   -1    0    0  501    0  0.00000000000E+00  0.00000000000E+00 -0.87087053386E+03  0.87087053386E+03  0.25500000920E-02 0.  1.
    10030    2    1    2    0    0  0.00000000000E+00  0.00000000000E+00 -0.51921795548E+03  0.12225231122E+04  0.11067861016E+04 0.  0.
        5    1    3    3  502    0  0.18044583737E+03  0.43808122252E+03 -0.57541937715E+03  0.74538943335E+03  0.46999998093E+01 0.  1.
       -5    1    3    3    0  502 -0.18044583737E+03 -0.43808122252E+03  0.56201421673E+02  0.47713367890E+03  0.46999998093E+01 0. -1.
</event>
<event>
 5   0  0.3657529E-04  0.1102558E+04  0.7818609E-02  0.9202702E-01
        1   -1    0    0  501    0  0.00000000000E+00  0.00000000000E+00  0.90200147260E+03  0.90200147262E+03  0.50400001928E-02 0.  1.
       -1   -1    0    0    0  501  0.00000000000E+00  0.00000000000E+00 -0.33692708690E+03  0.33692708693E+03  0.50400001928E-02 0. -1.
    10030    2    1    2    0    0  0.00000000000E+00  0.00000000000E+00  0.56507438571E+03  0.12389285596E+04  0.11025583496E+04 0.  0.
        4    1    3    3  502    0  0.43937821607E+01  0.15941942559E+03  0.87551225473E+03  0.88991976024E+03  0.12699999809E+01 0.  1.
       -4    1    3    3    0  502 -0.43937821607E+01 -0.15941942559E+03 -0.31043786902E+03  0.34900879932E+03  0.12699999809E+01 0. -1.
</event>
<event>
 5   0  0.3642161E-04  0.1097695E+04  0.7818609E-02  0.9207441E-01
        1   -1    0    0  501    0  0.00000000000E+00  0.00000000000E+00  0.64104639243E+03  0.64104639245E+03  0.50400001928E-02 0.  1.
       -1   -1    0    0    0  501  0.00000000000E+00  0.00000000000E+00 -0.46990946806E+03  0.46990946809E+03  0.50400001928E-02 0. -1.
    10030    2    1    2    0    0  0.00000000000E+00  0.00000000000E+00  0.17113692437E+03  0.11109558605E+04  0.10976953481E+04 0.  0.
        2    1    3    3  502    0 -0.31113891549E+03  0.16016769524E+03 -0.34235443412E+03  0.48955865216E+03  0.25500000920E-02 0. -1.
       -2    1    3    3    0  502  0.31113891549E+03 -0.16016769524E+03  0.51349135849E+03  0.62139720838E+03  0.25500000920E-02 0.  1.
</event>
<event>
 5   0  0.2403875E-04  0.1100659E+04  0.7818609E-02  0.9204550E-01
       -3   -1    0    0    0  501  0.00000000000E+00  0.00000000000E+00  0.28824711056E+03  0.28824712825E+03  0.10100000352E+00 0. -1.
        3   -1    0    0  501    0  0.00000000000E+00  0.00000000000E+00 -0.10507049096E+04  0.10507049145E+04  0.10100000352E+00 0.  1.
    10030    2    1    2    0    0  0.00000000000E+00  0.00000000000E+00 -0.76245779906E+03  0.13389520427E+04  0.11006592013E+04 0.  0.
        5    1    3    3  502    0  0.53388131701E+03 -0.12233753576E+03 -0.31634431358E+03  0.63252790297E+03  0.46999998093E+01 0. -1.
       -5    1    3    3    0  502 -0.53388131701E+03  0.12233753576E+03 -0.44611348548E+03  0.70642413976E+03  0.46999998093E+01 0.  1.
</event>
<event>
 5   0  0.6264830E-04  0.1100064E+04  0.7818609E-02  0.9205130E-01
        2   -1    0    0  501    0  0.00000000000E+00  0.00000000000E+00  0.14938616525E+04  0.14938616525E+04  0.25500000920E-02 0.  1.
       -2   -1    0    0    0  501  0.00000000000E+00  0.00000000000E+00 -0.20251880510E+03  0.20251880511E+03  0.25500000920E-02 0. -1.
    10030    2    1    2    0    0  0.00000000000E+00  0.00000000000E+00  0.12913428474E+04  0.16963804576E+04  0.11000637743E+04 0.  0.
        4    1    3    3  502    0 -0.50099623773E+03 -0.22671877641E+03  0.62776540987E+03  0.83455955841E+03  0.12699999809E+01 0.  1.
       -4    1    3    3    0  502  0.50099623773E+03  0.22671877641E+03  0.66357743753E+03  0.86182089920E+03  0.12699999809E+01 0. -1.
</event>
<event>
 5   0  0.3523525E-04  0.1101242E+04  0.7818609E-02  0.9203983E-01
       -1   -1    0    0    0  501  0.00000000000E+00  0.00000000000E+00  0.24431589974E+03  0.24431589979E+03  0.50400001928E-02 0.  1.
        1   -1    0    0  501    0  0.00000000000E+00  0.00000000000E+00 -0.12409476659E+04  0.12409476659E+04  0.50400001928E-02 0. -1.
    10030    2    1    2    0    0  0.00000000000E+00  0.00000000000E+00 -0.99663176614E+03  0.14852635657E+04  0.11012415640E+04 0.  0.
        5    1    3    3  502    0 -0.23242301061E+03  0.35278349667E+03 -0.97455731404E+03  0.10621961682E+04  0.46999998093E+01 0. -1.
       -5    1    3    3    0  502  0.23242301061E+03 -0.35278349667E+03 -0.22074452102E+02  0.42306739749E+03  0.46999998093E+01 0.  1.
</event>
<event>
 5   0  0.6264830E-04  0.1099982E+04  0.7818609E-02  0.9205210E-01
       -2   -1    0    0    0  501  0.00000000000E+00  0.00000000000E+00  0.18962955005E+03  0.18962955007E+03  0.25500000920E-02 0.  1.
        2   -1    0    0  501    0  0.00000000000E+00  0.00000000000E+00 -0.15951629154E+04  0.15951629154E+04  0.25500000920E-02 0. -1.
    10030    2    1    2    0    0  0.00000000000E+00  0.00000000000E+00 -0.14055333653E+04  0.17847924654E+04  0.10999818652E+04 0.  0.
        4    1    3    3  502    0 -0.53877708704E+01 -0.39773941385E+03 -0.13190484117E+04  0.13777213052E+04  0.12699999809E+01 0. -1.
       -4    1    3    3    0  502  0.53877708704E+01  0.39773941385E+03 -0.86484953598E+02  0.40707116025E+03  0.12699999809E+01 0.  1.
</event>
<event>
 5   0  0.6264830E-04  0.1099556E+04  0.7818609E-02  0.9205625E-01
        2   -1    0    0  501    0  0.00000000000E+00  0.00000000000E+00  0.11106273047E+04  0.11106273047E+04  0.25500000920E-02 0. -1.
       -2   -1    0    0    0  501  0.00000000000E+00  0.00000000000E+00 -0.27214857979E+03  0.27214857981E+03  0.25500000920E-02 0.  1.
    10030    2    1    2    0    0  0.00000000000E+00  0.00000000000E+00  0.83847872493E+03  0.13827758845E+04  0.10995556260E+04 0.  0.
        4    1    3    3  502    0  0.40710634492E+03 -0.24680955438E+03  0.76502387562E+03  0.90106252579E+03  0.12699999809E+01 0. -1.
       -4    1    3    3    0  502 -0.40710634492E+03  0.24680955438E+03  0.73454849302E+02  0.48171335874E+03  0.12699999809E+01 0.  1.
</event>
<event>
 5   0  0.5948818E-04  0.1100074E+04  0.7818609E-02  0.9205120E-01
        2   -1    0    0  501    0  0.00000000000E+00  0.00000000000E+00  0.16215031551E+04  0.16215031551E+04  0.25500000920E-02 0.  1.
       -2   -1    0    0    0  501  0.00000000000E+00  0.00000000000E+00 -0.18658047640E+03  0.18658047642E+03  0.25500000920E-02 0. -1.
    10030    2    1    2    0    0  0.00000000000E+00  0.00000000000E+00  0.14349226787E+04  0.18080836315E+04  0.11000742360E+04 0.  0.
        3    1    3    3  502    0  0.40623452045E+03  0.10552995307E+03  0.13017559160E+04  0.13677468814E+04  0.10100000352E+00 0.  1.
       -3    1    3    3    0  502 -0.40623452045E+03 -0.10552995307E+03  0.13316676268E+03  0.44033675009E+03  0.10100000352E+00 0. -1.
</event>
<event>
 5   0  0.3642161E-04  0.1101459E+04  0.7818609E-02  0.9203771E-01
        1   -1    0    0  501    0  0.00000000000E+00  0.00000000000E+00  0.12420799536E+04  0.12420799536E+04  0.50400001928E-02 0.  1.
       -1   -1    0    0    0  501  0.00000000000E+00  0.00000000000E+00 -0.24418948586E+03  0.24418948591E+03  0.50400001928E-02 0. -1.
    10030    2    1    2    0    0  0.00000000000E+00  0.00000000000E+00  0.99789046775E+03  0.14862694395E+04  0.11014587878E+04 0.  0.
        2    1    3    3  502    0 -0.25500177977E+03  0.31522832239E+03  0.10018584197E+04  0.10807937343E+04  0.25500000920E-02 0.  1.
       -2    1    3    3    0  502  0.25500177977E+03 -0.31522832239E+03 -0.39679519163E+01  0.40547570528E+03  0.25500000920E-02 0. -1.
</event>
<event>
 5   0  0.3657529E-04  0.1095949E+04  0.7818609E-02  0.9209149E-01
       -1   -1    0    0    0  501  0.00000000000E+00  0.00000000000E+00  0.25069909169E+03  0.25069909174E+03  0.50400001928E-02 0. -1.
        1   -1    0    0  501    0  0.00000000000E+00  0.00000000000E+00 -0.11977548734E+04  0.11977548734E+04  0.50400001928E-02 0.  1.
    10030    2    1    2    0    0  0.00000000000E+00  0.00000000000E+00 -0.94705578173E+03  0.14484539652E+04  0.10959490114E+04 0.  0.
        4    1    3    3  502    0 -0.22553495075E+03 -0.32543854117E+03  0.27125954467E+02  0.39687994204E+03  0.12699999809E+01 0. -1.
       -4    1    3    3    0  502  0.22553495075E+03  0.32543854117E+03 -0.97418173620E+03  0.10515740231E+04  0.12699999809E+01 0.  1.
</event>
<event>
 5   0  0.3523525E-04  0.1099412E+04  0.7818609E-02  0.9205765E-01
       -1   -1    0    0    0  501  0.00000000000E+00  0.00000000000E+00  0.32645201520E+03  0.32645201524E+03  0.50400001928E-02 0. -1.
        1   -1    0    0  501    0  0.00000000000E+00  0.00000000000E+00 -0.92563910146E+03  0.92563910147E+03  0.50400001928E-02 0.  1.
    10030    2    1    2    0    0  0.00000000000E+00  0.00000000000E+00 -0.59918708626E+03  0.12520911167E+04  0.10994121157E+04 0.  0.
        5    1    3    3  502    0 -0.46381530165E+03  0.17957825650E+03 -0.56615237246E+03  0.75360704820E+03  0.46999998093E+01 0. -1.
       -5    1    3    3    0  502  0.46381530165E+03 -0.17957825650E+03 -0.33034713798E+02  0.49848406852E+03  0.46999998093E+01 0.  1.
</event>
<event>
 5   0  0.6109149E-04  0.1098893E+04  0.7818609E-02  0.9206271E-01
       -2   -1    0    0    0  501  0.00000000000E+00  0.00000000000E+00  0.20574665690E+03  0.20574665691E+03  0.25500000920E-02 0. -1.
        2   -1    0    0  501    0  0.00000000000E+00  0.00000000000E+00 -0.14672977802E+04  0.14672977802E+04  0.25500000920E-02 0.  1.
    10030    2    1    2    0    0  0.00000000000E+00  0.00000000000E+00 -0.12615511233E+04  0.16730444371E+04  0.10988932850E+04 0.  0.
        1    1    3    3  502    0 -0.27840665650E+03 -0.42110470228E+03 -0.96102479214E+03  0.10855450648E+04  0.50400001928E-02 0.  1.
       -1    1    3    3    0  502  0.27840665650E+03  0.42110470228E+03 -0.30052633115E+03  0.58749937226E+03  0.50400001928E-02 0. -1.
</event>
<event>
 5   0  0.6245176E-04  0.1101674E+04  0.7818609E-02  0.9203562E-01
        2   -1    0    0  501    0  0.00000000000E+00  0.00000000000E+00  0.12608978955E+04  0.12608978955E+04  0.25500000920E-02 0.  1.
       -2   -1    0    0    0  501  0.00000000000E+00  0.00000000000E+00 -0.24063900342E+03  0.24063900344E+03  0.25500000920E-02 0. -1.
    10030    2    1    2    0    0  0.00000000000E+00  0.00000000000E+00  0.10202588920E+04  0.15015368989E+04  0.11016736595E+04 0.  0.
        5    1    3    3  502    0  0.25913972130E+03 -0.21795513412E+03  0.11022586754E+04  0.11531062887E+04  0.46999998093E+01 0.  1.
       -5    1    3    3    0  502 -0.25913972130E+03  0.21795513412E+03 -0.81999783334E+02  0.34843061018E+03  0.46999998093E+01 0. -1.
</event>
<event>
 5   0  0.6264830E-04  0.1098268E+04  0.7818609E-02  0.9206882E-01
        2   -1    0    0  501    0  0.00000000000E+00  0.00000000000E+00  0.66193936438E+03  0.66193936439E+03  0.25500000920E-02 0. -1.
       -2   -1    0    0    0  501  0.00000000000E+00  0.00000000000E+00 -0.45555226849E+03  0.45555226849E+03  0.25500000920E-02 0.  1.
    10030    2    1    2    0    0  0.00000000000E+00  0.00000000000E+00  0.20638709589E+03  0.11174916329E+04  0.10982676888E+04 0.  0.
        4    1    3    3  502    0  0.24932959170E+02 -0.23394241453E+03  0.60805971739E+03  0.65198844973E+03  0.12699999809E+01 0. -1.
       -4    1    3    3    0  502 -0.24932959170E+02  0.23394241453E+03 -0.40167262149E+03  0.46550318315E+03  0.12699999809E+01 0.  1.
</event>
<event>
 5   0  0.3523525E-04  0.1093950E+04  0.7818609E-02  0.9211109E-01
        1   -1    0    0  501    0  0.00000000000E+00  0.00000000000E+00  0.79225537988E+03  0.79225537990E+03  0.50400001928E-02 0. -1.
       -1   -1    0    0    0  501  0.00000000000E+00  0.00000000000E+00 -0.37763282799E+03  0.37763282803E+03  0.50400001928E-02 0.  1.
    10030    2    1    2    0    0  0.00000000000E+00  0.00000000000E+00  0.41462255189E+03  0.11698882079E+04  0.10939499799E+04 0.  0.
        5    1    3    3  502    0  0.37455044058E+03  0.12201325456E+03 -0.19848162263E+03  0.44112618529E+03  0.46999998093E+01 0.  1.
       -5    1    3    3    0  502 -0.37455044058E+03 -0.12201325456E+03  0.61310417452E+03  0.72876202264E+03  0.46999998093E+01 0. -1.
</event>
<event>
 5   0  0.3423758E-04  0.1099996E+04  0.7818609E-02  0.9205196E-01
        1   -1    0    0  501    0  0.00000000000E+00  0.00000000000E+00  0.22634977264E+03  0.22634977270E+03  0.50400001928E-02 0.  1.
       -1   -1    0    0    0  501  0.00000000000E+00  0.00000000000E+00 -0.13364175841E+04  0.13364175841E+04  0.50400001928E-02 0. -1.
    10030    2    1    2    0    0  0.00000000000E+00  0.00000000000E+00 -0.11100678114E+04  0.15627673568E+04  0.10999960298E+04 0.  0.
        1    1    3    3  502    0  0.90981181309E+02 -0.52935714190E+03 -0.38692654417E+03  0.66197334511E+03  0.50400001928E-02 0.  1.
       -1    1    3    3    0  502 -0.90981181309E+02  0.52935714190E+03 -0.72314126727E+03  0.90079401169E+03  0.50400001928E-02 0. -1.
</event>
<event>
 5   0  0.3642161E-04  0.1113518E+04  0.7818609E-02  0.9192116E-01
        1   -1    0    0  501    0  0.00000000000E+00  0.00000000000E+00  0.11492043951E+04  0.11492043951E+04  0.50400001928E-02 0. -1.
       -1   -1    0    0    0  501  0.00000000000E+00  0.00000000000E+00 -0.26973491500E+03  0.26973491504E+03  0.50400001928E-02 0.  1.
    10030    2    1    2    0    0  0.00000000000E+00  0.00000000000E+00  0.87946948007E+03  0.14189393101E+04  0.11135179385E+04 0.  0.
        2    1    3    3  502    0 -0.14574923158E+03  0.48004025357E+03  0.74741341906E+03  0.90017126290E+03  0.25500000920E-02 0. -1.
       -2    1    3    3    0  502  0.14574923158E+03 -0.48004025357E+03  0.13205606101E+03  0.51876804722E+03  0.25500000920E-02 0.  1.
</event>
<event>
 5   0  0.3642161E-04  0.1099162E+04  0.7818609E-02  0.9206009E-01
        1   -1    0    0  501    0  0.00000000000E+00  0.00000000000E+00  0.22464725845E+03  0.22464725851E+03  0.50400001928E-02 0. -1.
       -1   -1    0    0    0  501  0.00000000000E+00  0.00000000000E+00 -0.13445045540E+04  0.13445045540E+04  0.50400001928E-02 0.  1.
    10030    2    1    2    0    0  0.00000000000E+00  0.00000000000E+00 -0.11198572956E+04  0.15691518125E+04  0.10991619755E+04 0.  0.
        2    1    3    3  502    0  0.17160641954E+00  0.10891918001E+03 -0.13289420269E+04  0.13333980382E+04  0.25500000920E-02 0.  1.
       -2    1    3    3    0  502 -0.17160641954E+00 -0.10891918001E+03  0.20908473138E+03  0.23575377436E+03  0.25500000920E-02 0. -1.
</event>
<event>
 5   0  0.3621403E-04  0.1103570E+04  0.7818609E-02  0.9201720E-01
        1   -1    0    0  501    0  0.00000000000E+00  0.00000000000E+00  0.42496140590E+03  0.42496140593E+03  0.50400001928E-02 0. -1.
       -1   -1    0    0    0  501  0.00000000000E+00  0.00000000000E+00 -0.71645669098E+03  0.71645669100E+03  0.50400001928E-02 0.  1.
    10030    2    1    2    0    0  0.00000000000E+00  0.00000000000E+00 -0.29149528508E+03  0.11414180969E+04  0.11035695587E+04 0.  0.
        3    1    3    3  502    0 -0.44400668620E+03 -0.26607314812E+03  0.51934459827E+02  0.52022500503E+03  0.10100000352E+00 0. -1.
       -3    1    3    3    0  502  0.44400668620E+03  0.26607314812E+03 -0.34342974491E+03  0.62119309190E+03  0.10100000352E+00 0.  1.
</event>
<event>
 5   0  0.6109149E-04  0.1100823E+04  0.7818609E-02  0.9204390E-01
        2   -1    0    0  501    0  0.00000000000E+00  0.00000000000E+00  0.11575700441E+04  0.11575700441E+04  0.25500000920E-02 0. -1.
       -2   -1    0    0    0  501  0.00000000000E+00  0.00000000000E+00 -0.26171457723E+03  0.26171457724E+03  0.25500000920E-02 0.  1.
    10030    2    1    2    0    0  0.00000000000E+00  0.00000000000E+00  0.89585546683E+03  0.14192846213E+04  0.11008232459E+04 0.  0.
        1    1    3    3  502    0 -0.37363001823E+03 -0.39062472286E+03  0.58170332338E+03  0.79408174711E+03  0.50400001928E-02 0. -1.
       -1    1    3    3    0  502  0.37363001823E+03  0.39062472286E+03  0.31415214345E+03  0.62520287419E+03  0.50400001928E-02 0.  1.
</event>
<event>
 5   0  0.3642161E-04  0.1098027E+04  0.7818609E-02  0.9207117E-01
       -1   -1    0    0    0  501  0.00000000000E+00  0.00000000000E+00  0.18428084518E+03  0.18428084525E+03  0.50400001928E-02 0. -1.
        1   -1    0    0  501    0  0.00000000000E+00  0.00000000000E+00 -0.16356326094E+04  0.16356326094E+04  0.50400001928E-02 0.  1.
    10030    2    1    2    0    0  0.00000000000E+00  0.00000000000E+00 -0.14513517642E+04  0.18199134546E+04  0.10980268844E+04 0.  0.
        2    1    3    3  502    0 -0.40384518130E+03 -0.61658895945E+02 -0.13335813503E+04  0.13947515792E+04  0.25500000920E-02 0.  1.
       -2    1    3    3    0  502  0.40384518130E+03  0.61658895945E+02 -0.11777041393E+03  0.42516187542E+03  0.25500000920E-02 0. -1.
</event>
<event>
 5   0  0.3657529E-04  0.1097833E+04  0.7818609E-02  0.9207306E-01
        1   -1    0    0  501    0  0.00000000000E+00  0.00000000000E+00  0.49641395057E+03  0.49641395060E+03  0.50400001928E-02 0. -1.
       -1   -1    0    0    0  501  0.00000000000E+00  0.00000000000E+00 -0.60697204103E+03  0.60697204105E+03  0.50400001928E-02 0.  1.
    10030    2    1    2    0    0  0.00000000000E+00  0.00000000000E+00 -0.11055809046E+03  0.11033859916E+04  0.10978331181E+04 0.  0.
        4    1    3    3  502    0  0.19166124937E+03 -0.16858983104E+03 -0.54369093287E+03  0.60063134203E+03  0.12699999809E+01 0.  1.
       -4    1    3    3    0  502 -0.19166124937E+03  0.16858983104E+03  0.43313284241E+03  0.50275464962E+03  0.12699999809E+01 0. -1.
</event>
<event>
 5   0  0.6264830E-04  0.1098675E+04  0.7818609E-02  0.9206485E-01
        2   -1    0    0  501    0  0.00000000000E+00  0.00000000000E+00  0.80713228846E+03  0.80713228847E+03  0.25500000920E-02 0. -1.
       -2   -1    0    0    0  501  0.00000000000E+00  0.00000000000E+00 -0.37388114644E+03  0.37388114645E+03  0.25500000920E-02 0.  1.
    10030    2    1    2    0    0  0.00000000000E+00  0.00000000000E+00  0.43325114203E+03  0.11810134349E+04  0.10986747387E+04 0.  0.
        4    1    3    3  502    0 -0.40180273972E+03  0.31539185707E+03  0.43389310968E+03  0.67021064501E+03  0.12699999809E+01 0. -1.
       -4    1    3    3    0  502  0.40180273972E+03 -0.31539185707E+03 -0.64196765432E+00  0.51080278991E+03  0.12699999809E+01 0.  1.
</event>
<event>
 5   0  0.3523525E-04  0.1099938E+04  0.7818609E-02  0.9205252E-01
        1   -1    0    0  501    0  0.00000000000E+00  0.00000000000E+00  0.41966540340E+03  0.41966540343E+03  0.50400001928E-02 0. -1.
       -1   -1    0    0    0  501  0.00000000000E+00  0.00000000000E+00 -0.72073118056E+03  0.72073118058E+03  0.50400001928E-02 0.  1.
    10030    2    1    2    0    0  0.00000000000E+00  0.00000000000E+00 -0.30106577716E+03  0.11403965840E+04  0.10999380740E+04 0.  0.
        5    1    3    3  502    0  0.53055363732E+03  0.24195093811E+01 -0.46480153052E+00  0.53058017503E+03  0.46999998093E+01 0. -1.
       -5    1    3    3    0  502 -0.53055363732E+03 -0.24195093811E+01 -0.30060097563E+03  0.60981640897E+03  0.46999998093E+01 0.  1.
</event>
<event>
 5   0  0.3523525E-04  0.1104558E+04  0.7818609E-02  0.9200761E-01
        1   -1    0    0  501    0  0.00000000000E+00  0.00000000000E+00  0.15273484489E+04  0.15273484489E+04  0.50400001928E-02 0.  1.
       -1   -1    0    0    0  501  0.00000000000E+00  0.00000000000E+00 -0.19970031595E+03  0.19970031601E+03  0.50400001928E-02 0. -1.
    10030    2    1    2    0    0  0.00000000000E+00  0.00000000000E+00  0.13276481329E+04  0.17270487649E+04  0.11045577719E+04 0.  0.
        5    1    3    3  502    0 -0.12102939586E+03 -0.50744027597E+03  0.38045119872E+03  0.64568487124E+03  0.46999998093E+01 0. -1.
       -5    1    3    3    0  502  0.12102939586E+03  0.50744027597E+03  0.94719693422E+03  0.10813638937E+04  0.46999998093E+01 0.  1.
</event>
<event>
 5   0  0.3642161E-04  0.1100640E+04  0.7818609E-02  0.9204569E-01
        1   -1    0    0  501    0  0.00000000000E+00  0.00000000000E+00  0.13964489611E+04  0.13964489612E+04  0.50400001928E-02 0.  1.
       -1   -1    0    0    0  501  0.00000000000E+00  0.00000000000E+00 -0.21687285278E+03  0.21687285284E+03  0.50400001928E-02 0. -1.
    10030    2    1    2    0    0  0.00000000000E+00  0.00000000000E+00  0.11795761084E+04  0.16133218140E+04  0.11006395777E+04 0.  0.
        2    1    3    3  502    0 -0.69203890773E+02 -0.20628788416E+03  0.13307196792E+04  0.13483911652E+04  0.25500000920E-02 0.  1.
       -2    1    3    3    0  502  0.69203890773E+02  0.20628788416E+03 -0.15114357088E+03  0.26493064880E+03  0.25500000920E-02 0. -1.
</event>
<event>
 5   0  0.6109149E-04  0.1101145E+04  0.7818609E-02  0.9204076E-01
       -2   -1    0    0    0  501  0.00000000000E+00  0.00000000000E+00  0.24767223444E+03  0.24767223446E+03  0.25500000920E-02 0.  1.
        2   -1    0    0  501    0  0.00000000000E+00  0.00000000000E+00 -0.12239170616E+04  0.12239170616E+04  0.25500000920E-02 0. -1.
    10030    2    1    2    0    0  0.00000000000E+00  0.00000000000E+00 -0.97624482712E+03  0.14715892960E+04  0.11011453554E+04 0.  0.
        1    1    3    3  502    0  0.12737184271E+03  0.51939887799E+03 -0.31320237244E+03  0.61975358563E+03  0.50400001928E-02 0.  1.
       -1    1    3    3    0  502 -0.12737184271E+03 -0.51939887799E+03 -0.66304245468E+03  0.85183571039E+03  0.50400001928E-02 0. -1.
</event>
<event>
 5   0  0.3642161E-04  0.1099625E+04  0.7818609E-02  0.9205557E-01
       -1   -1    0    0    0  501  0.00000000000E+00  0.00000000000E+00  0.90017252067E+03  0.90017252069E+03  0.50400001928E-02 0. -1.
        1   -1    0    0  501    0  0.00000000000E+00  0.00000000000E+00 -0.33581764145E+03  0.33581764149E+03  0.50400001928E-02 0.  1.
    10030    2    1    2    0    0  0.00000000000E+00  0.00000000000E+00  0.56435487922E+03  0.12359901622E+04  0.10996250503E+04 0.  0.
        2    1    3    3  502    0  0.48466509385E+03 -0.20417409801E+03  0.46239281541E+03  0.70028167993E+03  0.25500000920E-02 0. -1.
       -2    1    3    3    0  502 -0.48466509385E+03  0.20417409801E+03  0.10196206381E+03  0.53570848225E+03  0.25500000920E-02 0.  1.
</event>
<event>
 5   0  0.6109149E-04  0.1088159E+04  0.7818609E-02  0.9216810E-01
       -2   -1    0    0    0  501  0.00000000000E+00  0.00000000000E+00  0.15019222893E+03  0.15019222895E+03  0.25500000920E-02 0. -1.
        2   -1    0    0  501    0  0.00000000000E+00  0.00000000000E+00 -0.19709591144E+04  0.19709591144E+04  0.25500000920E-02 0.  1.
    10030    2    1    2    0    0  0.00000000000E+00  0.00000000000E+00 -0.18207668855E+04  0.21211513434E+04  0.10881594415E+04 0.  0.
        1    1    3    3  502    0  0.37140149992E+03  0.38339590946E+03 -0.70509274502E+03  0.88435698484E+03  0.50400001928E-02 0.  1.
       -1    1    3    3    0  502 -0.37140149992E+03 -0.38339590946E+03 -0.11156741405E+04  0.12367943585E+04  0.50400001928E-02 0. -1.
</event>
<event>
 5   0  0.5948818E-04  0.1099657E+04  0.7818609E-02  0.9205527E-01
       -2   -1    0    0    0  501  0.00000000000E+00  0.00000000000E+00  0.24091977149E+03  0.24091977151E+03  0.25500000920E-02 0. -1.
        2   -1    0    0  501    0  0.00000000000E+00  0.00000000000E+00 -0.12548209553E+04  0.12548209553E+04  0.25500000920E-02 0.  1.
    10030    2    1    2    0    0  0.00000000000E+00  0.00000000000E+00 -0.10139011838E+04  0.14957407268E+04  0.10996566334E+04 0.  0.
        3    1    3    3  502    0 -0.36795477430E+03 -0.23350945888E+03 -0.50944790602E+02  0.43876276643E+03  0.10100000352E+00 0.  1.
       -3    1    3    3    0  502  0.36795477430E+03  0.23350945888E+03 -0.96295639324E+03  0.10569779604E+04  0.10100000352E+00 0. -1.
</event>
<event>
 5   0  0.5948818E-04  0.1101290E+04  0.7818609E-02  0.9203936E-01
       -2   -1    0    0    0  501  0.00000000000E+00  0.00000000000E+00  0.37075530633E+03  0.37075530633E+03  0.25500000920E-02 0. -1.
        2   -1    0    0  501    0  0.00000000000E+00  0.00000000000E+00 -0.81781619481E+03  0.81781619481E+03  0.25500000920E-02 0.  1.
    10030    2    1    2    0    0  0.00000000000E+00  0.00000000000E+00 -0.44706088848E+03  0.11885715011E+04  0.11012895965E+04 0.  0.
        3    1    3    3  502    0 -0.40095115346E+03  0.37297311143E+03 -0.16116752832E+03  0.57082900390E+03  0.10100000352E+00 0. -1.
       -3    1    3    3    0  502  0.40095115346E+03 -0.37297311143E+03 -0.28589336016E+03  0.61774249724E+03  0.10100000352E+00 0.  1.
</event>
<event>
 5   0  0.3423758E-04  0.1101941E+04  0.7818609E-02  0.9203302E-01
       -1   -1    0    0    0  501  0.00000000000E+00  0.00000000000E+00  0.60440538696E+03  0.60440538698E+03  0.50400001928E-02 0. -1.
        1   -1    0    0  501    0  0.00000000000E+00  0.00000000000E+00 -0.50225998287E+03  0.50225998290E+03  0.50400001928E-02 0.  1.
    10030    2    1    2    0    0  0.00000000000E+00  0.00000000000E+00  0.10214540409E+03  0.11066653699E+04  0.11019412676E+04 0.  0.
        1    1    3    3  502    0 -0.33379138280E+03  0.41899395375E+03  0.18045052273E+03  0.56527428005E+03  0.50400001928E-02 0. -1.
       -1    1    3    3    0  502  0.33379138280E+03 -0.41899395375E+03 -0.78305118641E+02  0.54139108982E+03  0.50400001928E-02 0.  1.
</event>
<event>
 5   0  0.3523525E-04  0.1099578E+04  0.7818609E-02  0.9205603E-01
        1   -1    0    0  501    0  0.00000000000E+00  0.00000000000E+00  0.85374409266E+03  0.85374409267E+03  0.50400001928E-02 0. -1.
       -1   -1    0    0    0  501  0.00000000000E+00  0.00000000000E+00 -0.35405012344E+03  0.35405012347E+03  0.50400001928E-02 0.  1.
    10030    2    1    2    0    0  0.00000000000E+00  0.00000000000E+00  0.49969396922E+03  0.12077942161E+04  0.10995784673E+04 0.  0.
        5    1    3    3  502    0 -0.31633565691E+03 -0.36393110733E+03 -0.40209660353E+02  0.48389358903E+03  0.46999998093E+01 0.  1.
       -5    1    3    3    0  502  0.31633565691E+03  0.36393110733E+03  0.53990362957E+03  0.72390062712E+03  0.46999998093E+01 0. -1.
</event>
<event>
 5   0  0.5948818E-04  0.1103966E+04  0.7818609E-02  0.9201335E-01
       -2   -1    0    0    0  501  0.00000000000E+00  0.00000000000E+00  0.16340463066E+03  0.16340463068E+03  0.25500000920E-02 0.  1.
        2   -1    0    0  501    0  0.00000000000E+00  0.00000000000E+00 -0.18646052618E+04  0.18646052618E+04  0.25500000920E-02 0. -1.
    10030    2    1    2    0    0  0.00000000000E+00  0.00000000000E+00 -0.17012006311E+04  0.20280098925E+04  0.11039658222E+04 0.  0.
        3    1    3    3  502    0 -0.22155862771E+03 -0.50071531080E+03 -0.97894332660E+03  0.11216657679E+04  0.10100000352E+00 0.  1.
       -3    1    3    3    0  502  0.22155862771E+03  0.50071531080E+03 -0.72225730454E+03  0.90634412457E+03  0.10100000352E+00 0. -1.
</event>
<event>
 5   0  0.3523525E-04  0.1098442E+04  0.7818609E-02  0.9206711E-01
       -1   -1    0    0    0  501  0.00000000000E+00  0.00000000000E+00  0.29332610955E+03  0.29332610960E+03  0.50400001928E-02 0. -1.
        1   -1    0    0  501    0  0.00000000000E+00  0.00000000000E+00 -0.10283569731E+04  0.10283569731E+04  0.50400001928E-02 0.  1.
    10030    2    1    2    0    0  0.00000000000E+00  0.00000000000E+00 -0.73503086354E+03  0.13216830827E+04  0.10984424431E+04 0.  0.
        5    1    3    3  502    0 -0.10164469482E+03 -0.11702253737E+03 -0.10014677325E+04  0.10134029936E+04  0.46999998093E+01 0.  1.
       -5    1    3    3    0  502  0.10164469482E+03  0.11702253737E+03  0.26643686892E+03  0.30828008913E+03  0.46999998093E+01 0. -1.
</event>
<event>
 5   0  0.6412712E-04  0.1101044E+04  0.7818609E-02  0.9204175E-01
        2   -1    0    0  501    0  0.00000000000E+00  0.00000000000E+00  0.73838173325E+03  0.73838173326E+03  0.25500000920E-02 0.  1.
       -2   -1    0    0    0  501  0.00000000000E+00  0.00000000000E+00 -0.41045742484E+03  0.41045742485E+03  0.25500000920E-02 0. -1.
    10030    2    1    2    0    0  0.00000000000E+00  0.00000000000E+00  0.32792430841E+03  0.11488391581E+04  0.11010436227E+04 0.  0.
        2    1    3    3  502    0 -0.45196959166E+03  0.30734064182E+02  0.49035614514E+03  0.66758538298E+03  0.25500000920E-02 0.  1.
       -2    1    3    3    0  502  0.45196959166E+03 -0.30734064182E+02 -0.16243183672E+03  0.48125377513E+03  0.25500000920E-02 0. -1.
</event>
<event>
 5   0  0.3423758E-04  0.1092853E+04  0.7818609E-02  0.9212186E-01
       -1   -1    0    0    0  501  0.00000000000E+00  0.00000000000E+00  0.31073766075E+03  0.31073766079E+03  0.50400001928E-02 0.  1.
        1   -1    0    0  501    0  0.00000000000E+00  0.00000000000E+00 -0.96088121649E+03  0.96088121650E+03  0.50400001928E-02 0. -1.
    10030    2    1    2    0    0  0.00000000000E+00  0.00000000000E+00 -0.65014355574E+03  0.12716188773E+04  0.10928531127E+04 0.  0.
        1    1    3    3  502    0 -0.53129222877E+03 -0.12319060694E+03 -0.28587764532E+03  0.61577056288E+03  0.50400001928E-02 0. -1.
       -1    1    3    3    0  502  0.53129222877E+03  0.12319060694E+03 -0.36426591042E+03  0.65584831441E+03  0.50400001928E-02 0.  1.
</event>
<event>
 5   0  0.3423758E-04  0.1102211E+04  0.7818609E-02  0.9203040E-01
       -1   -1    0    0    0  501  0.00000000000E+00  0.00000000000E+00  0.29014701941E+03  0.29014701945E+03  0.50400001928E-02 0. -1.
        1   -1    0    0  501    0  0.00000000000E+00  0.00000000000E+00 -0.10467702461E+04  0.10467702461E+04  0.50400001928E-02 0.  1.
    10030    2    1    2    0    0  0.00000000000E+00  0.00000000000E+00 -0.75662322668E+03  0.13369172656E+04  0.11022109906E+04 0.  0.
        1    1    3    3  502    0 -0.46362576890E+03 -0.20013239171E+03 -0.64602686010E+03  0.81997105546E+03  0.50400001928E-02 0.  1.
       -1    1    3    3    0  502  0.46362576890E+03  0.20013239171E+03 -0.11059636658E+03  0.51694621009E+03  0.50400001928E-02 0. -1.
</event>
<event>
 5   0  0.3642161E-04  0.1103965E+04  0.7818609E-02  0.9201336E-01
        1   -1    0    0  501    0  0.00000000000E+00  0.00000000000E+00  0.22181845298E+04  0.22181845298E+04  0.50400001928E-02 0.  1.
       -1   -1    0    0    0  501  0.00000000000E+00  0.00000000000E+00 -0.13735770679E+03  0.13735770688E+03  0.50400001928E-02 0. -1.
    10030    2    1    2    0    0  0.00000000000E+00  0.00000000000E+00  0.20808268231E+04  0.23555422367E+04  0.11039651088E+04 0.  0.
        2    1    3    3  502    0  0.11114569325E+01  0.54559759456E+03  0.86180805727E+03  0.10199956363E+04  0.25500000920E-02 0. -1.
       -2    1    3    3    0  502 -0.11114569325E+01 -0.54559759456E+03  0.12190187658E+04  0.13355466004E+04  0.25500000920E-02 0.  1.
</event>
<event>
 5   0  0.6264830E-04  0.1101673E+04  0.7818609E-02  0.9203562E-01
       -2   -1    0    0    0  501  0.00000000000E+00  0.00000000000E+00  0.19637672789E+03  0.19637672790E+03  0.25500000920E-02 0.  1.
        2   -1    0    0  501    0  0.00000000000E+00  0.00000000000E+00 -0.15450966131E+04  0.15450966131E+04  0.25500000920E-02 0. -1.
    10030    2    1    2    0    0  0.00000000000E+00  0.00000000000E+00 -0.13487198852E+04  0.17414733410E+04  0.11016733040E+04 0.  0.
        4    1    3    3  502    0  0.14932482827E+03  0.19025587276E+03  0.10795181329E+03  0.26485922365E+03  0.12699999809E+01 0.  1.
       -4    1    3    3    0  502 -0.14932482827E+03 -0.19025587276E+03 -0.14566716985E+04  0.14766141174E+04  0.12699999809E+01 0. -1.
</event>
<event>
 5   0  0.3621403E-04  0.1100644E+04  0.7818609E-02  0.9204565E-01
        1   -1    0    0  501    0  0.00000000000E+00  0.00000000000E+00  0.13398368419E+04  0.13398368419E+04  0.50400001928E-02 0.  1.
       -1   -1    0    0    0  501  0.00000000000E+00  0.00000000000E+00 -0.22603807386E+03  0.22603807392E+03  0.50400001928E-02 0. -1.
    10030    2    1    2    0    0  0.00000000000E+00  0.00000000000E+00  0.11137987681E+04  0.15658749159E+04  0.11006437009E+04 0.  0.
        3    1    3    3  502    0 -0.26299235660E+02 -0.66165601388E+02 -0.21945753206E+03  0.23071877943E+03  0.10100000352E+00 0. -1.
       -3    1    3    3    0  502  0.26299235660E+02  0.66165601388E+02  0.13332563001E+04  0.13351561364E+04  0.10100000352E+00 0.  1.
</event>
<event>
 5   0  0.3523525E-04  0.1101317E+04  0.7818609E-02  0.9203909E-01
       -1   -1    0    0    0  501  0.00000000000E+00  0.00000000000E+00  0.37700611119E+03  0.37700611122E+03  0.50400001928E-02 0. -1.
        1   -1    0    0  501    0  0.00000000000E+00  0.00000000000E+00 -0.80429738422E+03  0.80429738424E+03  0.50400001928E-02 0.  1.
    10030    2    1    2    0    0  0.00000000000E+00  0.00000000000E+00 -0.42729127303E+03  0.11813034955E+04  0.11013174458E+04 0.  0.
        5    1    3    3  502    0  0.26069110228E+02 -0.50772448511E+03 -0.44052396717E+03  0.67271629008E+03  0.46999998093E+01 0.  1.
       -5    1    3    3    0  502 -0.26069110228E+02  0.50772448511E+03  0.13232694132E+02  0.50858720538E+03  0.46999998093E+01 0. -1.
</event>
<event>
 5   0  0.3642161E-04  0.1100270E+04  0.7818609E-02  0.9204929E-01
       -1   -1    0    0    0  501  0.00000000000E+00  0.00000000000E+00  0.26016139022E+03  0.26016139027E+03  0.50400001928E-02 0.  1.
        1   -1    0    0  501    0  0.00000000000E+00  0.00000000000E+00 -0.11633098512E+04  0.11633098512E+04  0.50400001928E-02 0. -1.
    10030    2    1    2    0    0  0.00000000000E+00  0.00000000000E+00 -0.90314846095E+03  0.14234712415E+04  0.11002696182E+04 0.  0.
        2    1    3    3  502    0 -0.42431971970E+03  0.32582733274E+03 -0.28570370712E+03  0.60649590564E+03  0.25500000920E-02 0.  1.
       -2    1    3    3    0  502  0.42431971970E+03 -0.32582733274E+03 -0.61744475384E+03  0.81697533582E+03  0.25500000920E-02 0. -1.
</event>
<event>
 5   0  0.6412712E-04  0.1099351E+04  0.7818609E-02  0.9205825E-01
       -2   -1    0    0    0  501  0.00000000000E+00  0.00000000000E+00  0.33208537383E+03  0.33208537384E+03  0.25500000920E-02 0. -1.
        2   -1    0    0  501    0  0.00000000000E+00  0.00000000000E+00 -0.90983558965E+03  0.90983558965E+03  0.25500000920E-02 0.  1.
    10030    2    1    2    0    0  0.00000000000E+00  0.00000000000E+00 -0.57775021582E+03  0.12419209635E+04  0.10993508847E+04 0.  0.
        2    1    3    3  502    0  0.49513476828E+03 -0.46338217281E+02 -0.55341802956E+03  0.74402767730E+03  0.25500000920E-02 0.  1.
       -2    1    3    3    0  502 -0.49513476828E+03  0.46338217281E+02 -0.24332186262E+02  0.49789328619E+03  0.25500000920E-02 0. -1.
</event>
<event>
 5   0  0.2403875E-04  0.1101424E+04  0.7818609E-02  0.9203805E-01
       -3   -1    0    0    0  501  0.00000000000E+00  0.00000000000E+00  0.53672908594E+03  0.53672909544E+03  0.10100000352E+00 0. -1.
        3   -1    0    0  501    0  0.00000000000E+00  0.00000000000E+00 -0.56505915250E+03  0.56505916153E+03  0.10100000352E+00 0.  1.
    10030    2    1    2    0    0  0.00000000000E+00  0.00000000000E+00 -0.28330066565E+02  0.11017882570E+04  0.11014239740E+04 0.  0.
        1    1    3    3  502    0  0.48511960170E+02 -0.25635450263E+03 -0.49931270631E+03  0.56336863598E+03  0.50400001928E-02 0.  1.
       -1    1    3    3    0  502 -0.48511960170E+02  0.25635450263E+03  0.47098263975E+03  0.53841962099E+03  0.50400001928E-02 0. -1.
</event>
<event>
 5   0  0.6264830E-04  0.1098862E+04  0.7818609E-02  0.9206302E-01
        2   -1    0    0  501    0  0.00000000000E+00  0.00000000000E+00  0.74001535840E+03  0.74001535840E+03  0.25500000920E-02 0.  1.
       -2   -1    0    0    0  501  0.00000000000E+00  0.00000000000E+00 -0.40792960057E+03  0.40792960058E+03  0.25500000920E-02 0. -1.
    10030    2    1    2    0    0  0.00000000000E+00  0.00000000000E+00  0.33208575783E+03  0.11479449590E+04  0.10988615374E+04 0.  0.
        4    1    3    3  502    0 -0.60771655714E+02 -0.43612399082E+03 -0.17723052467E+03  0.47466788524E+03  0.12699999809E+01 0. -1.
       -4    1    3    3    0  502  0.60771655714E+02  0.43612399082E+03  0.50931628250E+03  0.67327707374E+03  0.12699999809E+01 0.  1.
</event>
<event>
 5   0  0.6264830E-04  0.1097841E+04  0.7818609E-02  0.9207298E-01
       -2   -1    0    0    0  501  0.00000000000E+00  0.00000000000E+00  0.15729725667E+03  0.15729725669E+03  0.25500000920E-02 0. -1.
        2   -1    0    0  501    0  0.00000000000E+00  0.00000000000E+00 -0.19155700930E+04  0.19155700930E+04  0.25500000920E-02 0.  1.
    10030    2    1    2    0    0  0.00000000000E+00  0.00000000000E+00 -0.17582728363E+04  0.20728673497E+04  0.10978413740E+04 0.  0.
        4    1    3    3  502    0 -0.41363647571E+02  0.50237894316E+03 -0.12894160716E+04  0.13844460886E+04  0.12699999809E+01 0.  1.
       -4    1    3    3    0  502  0.41363647571E+02 -0.50237894316E+03 -0.46885676474E+03  0.68842126101E+03  0.12699999809E+01 0. -1.
</event>
<event>
 5   0  0.3657529E-04  0.1100559E+04  0.7818609E-02  0.9204647E-01
        1   -1    0    0  501    0  0.00000000000E+00  0.00000000000E+00  0.44953612892E+03  0.44953612895E+03  0.50400001928E-02 0.  1.
       -1   -1    0    0    0  501  0.00000000000E+00  0.00000000000E+00 -0.67359980066E+03  0.67359980068E+03  0.50400001928E-02 0. -1.
    10030    2    1    2    0    0  0.00000000000E+00  0.00000000000E+00 -0.22406367174E+03  0.11231359296E+04  0.11005588523E+04 0.  0.
        4    1    3    3  502    0  0.20850386115E+03 -0.42931686268E+03  0.16748289443E+03  0.50580526047E+03  0.12699999809E+01 0.  1.
       -4    1    3    3    0  502 -0.20850386115E+03  0.42931686268E+03 -0.39154656617E+03  0.61733066915E+03  0.12699999809E+01 0. -1.
</event>
<event>
 5   0  0.6412712E-04  0.1098359E+04  0.7818609E-02  0.9206793E-01
       -2   -1    0    0    0  501  0.00000000000E+00  0.00000000000E+00  0.11812979315E+03  0.11812979318E+03  0.25500000920E-02 0. -1.
        2   -1    0    0  501    0  0.00000000000E+00  0.00000000000E+00 -0.25531083103E+04  0.25531083103E+04  0.25500000920E-02 0.  1.
    10030    2    1    2    0    0  0.00000000000E+00  0.00000000000E+00 -0.24349785172E+04  0.26712381035E+04  0.10983590608E+04 0.  0.
        2    1    3    3  502    0  0.47179626746E+03 -0.27850699876E+03 -0.11251910485E+04  0.12514842236E+04  0.25500000920E-02 0.  1.
       -2    1    3    3    0  502 -0.47179626746E+03  0.27850699876E+03 -0.13097874687E+04  0.14197538799E+04  0.25500000920E-02 0. -1.
</event>
<event>
 5   0  0.2403875E-04  0.1102833E+04  0.7818609E-02  0.9202435E-01
       -3   -1    0    0    0  501  0.00000000000E+00  0.00000000000E+00  0.24464078742E+03  0.24464080827E+03  0.10100000352E+00 0. -1.
        3   -1    0    0  501    0  0.00000000000E+00  0.00000000000E+00 -0.12428835662E+04  0.12428835703E+04  0.10100000352E+00 0.  1.
    10030    2    1    2    0    0  0.00000000000E+00  0.00000000000E+00 -0.99824277878E+03  0.14875243786E+04  0.11028327758E+04 0.  0.
        3    1    3    3  502    0 -0.16436313776E+01  0.16813159375E+03  0.20922056739E+03  0.26841048854E+03  0.10100000352E+00 0. -1.
       -3    1    3    3    0  502  0.16436313776E+01 -0.16813159375E+03 -0.12074633462E+04  0.12191138900E+04  0.10100000352E+00 0.  1.
</event>
<event>
 5   0  0.6264830E-04  0.1100763E+04  0.7818609E-02  0.9204449E-01
       -2   -1    0    0    0  501  0.00000000000E+00  0.00000000000E+00  0.38636156387E+03  0.38636156388E+03  0.25500000920E-02 0. -1.
        2   -1    0    0  501    0  0.00000000000E+00  0.00000000000E+00 -0.78403158774E+03  0.78403158775E+03  0.25500000920E-02 0.  1.
    10030    2    1    2    0    0  0.00000000000E+00  0.00000000000E+00 -0.39767002387E+03  0.11703931516E+04  0.11007627726E+04 0.  0.
        4    1    3    3  502    0  0.25910459023E+03 -0.26408728277E+03  0.23442181579E+03  0.43798685164E+03  0.12699999809E+01 0. -1.
       -4    1    3    3    0  502 -0.25910459023E+03  0.26408728277E+03 -0.63209183966E+03  0.73240629998E+03  0.12699999809E+01 0.  1.
</event>
<event>
 5   0  0.6245176E-04  0.1102077E+04  0.7818609E-02  0.9203170E-01
        2   -1    0    0  501    0  0.00000000000E+00  0.00000000000E+00  0.53000799347E+03  0.53000799348E+03  0.25500000920E-02 0.  1.
       -2   -1    0    0    0  501  0.00000000000E+00  0.00000000000E+00 -0.57290374774E+03  0.57290374774E+03  0.25500000920E-02 0. -1.
    10030    2    1    2    0    0  0.00000000000E+00  0.00000000000E+00 -0.42895754269E+02  0.11029117412E+04  0.11020772492E+04 0.  0.
        5    1    3    3  502    0 -0.15521825939E+03 -0.50994680368E+03  0.11823942151E+03  0.54602298617E+03  0.46999998093E+01 0.  1.
       -5    1    3    3    0  502  0.15521825939E+03  0.50994680368E+03 -0.16113517578E+03  0.55688875505E+03  0.46999998093E+01 0. -1.
</event>
<event>
 5   0  0.2403875E-04  0.1099162E+04  0.7818609E-02  0.9206009E-01
       -4   -1    0    0    0  501  0.00000000000E+00  0.00000000000E+00  0.98863124875E+03  0.98863206448E+03  0.12699999809E+01 0.  1.
        4   -1    0    0  501    0  0.00000000000E+00  0.00000000000E+00 -0.30551025396E+03  0.30551289363E+03  0.12699999809E+01 0. -1.
    10030    2    1    2    0    0  0.00000000000E+00  0.00000000000E+00  0.68312099480E+03  0.12941449581E+04  0.10991618985E+04 0.  0.
        4    1    3    3  502    0  0.50121871123E+03  0.21731363274E+03  0.27099356553E+03  0.60982336535E+03  0.12699999809E+01 0.  1.
       -4    1    3    3    0  502 -0.50121871123E+03 -0.21731363274E+03  0.41212742927E+03  0.68432159276E+03  0.12699999809E+01 0. -1.
</event>
<event>
 5   0  0.6245176E-04  0.1099764E+04  0.7818609E-02  0.9205422E-01
       -2   -1    0    0    0  501  0.00000000000E+00  0.00000000000E+00  0.23242091559E+03  0.23242091561E+03  0.25500000920E-02 0. -1.
        2   -1    0    0  501    0  0.00000000000E+00  0.00000000000E+00 -0.13009589853E+04  0.13009589853E+04  0.25500000920E-02 0.  1.
    10030    2    1    2    0    0  0.00000000000E+00  0.00000000000E+00 -0.10685380697E+04  0.15333799009E+04  0.10997637538E+04 0.  0.
        5    1    3    3  502    0  0.41972006793E+03 -0.27399138516E+03 -0.21905115651E+03  0.54702990204E+03  0.46999998093E+01 0. -1.
       -5    1    3    3    0  502 -0.41972006793E+03  0.27399138516E+03 -0.84948691322E+03  0.98634999888E+03  0.46999998093E+01 0.  1.
</event>
<event>
 5   0  0.3523525E-04  0.1109780E+04  0.7818609E-02  0.9195711E-01
        1   -1    0    0  501    0  0.00000000000E+00  0.00000000000E+00  0.12977099850E+04  0.12977099850E+04  0.50400001928E-02 0.  1.
       -1   -1    0    0    0  501  0.00000000000E+00  0.00000000000E+00 -0.23726652991E+03  0.23726652996E+03  0.50400001928E-02 0. -1.
    10030    2    1    2    0    0  0.00000000000E+00  0.00000000000E+00  0.10604434551E+04  0.15349765149E+04  0.11097804197E+04 0.  0.
        5    1    3    3  502    0  0.31827919477E+03  0.97255777867E+02  0.11443100213E+04  0.11917331274E+04  0.46999998093E+01 0.  1.
       -5    1    3    3    0  502 -0.31827919477E+03 -0.97255777867E+02 -0.83866566234E+02  0.34324338752E+03  0.46999998093E+01 0. -1.
</event>
<event>
 5   0  0.3642161E-04  0.1104408E+04  0.7818609E-02  0.9200907E-01
        1   -1    0    0  501    0  0.00000000000E+00  0.00000000000E+00  0.79161567687E+03  0.79161567689E+03  0.50400001928E-02 0. -1.
       -1   -1    0    0    0  501  0.00000000000E+00  0.00000000000E+00 -0.38519832529E+03  0.38519832532E+03  0.50400001928E-02 0.  1.
    10030    2    1    2    0    0  0.00000000000E+00  0.00000000000E+00  0.40641735159E+03  0.11768140022E+04  0.11044075933E+04 0.  0.
        2    1    3    3  502    0  0.36468273697E+03 -0.27852551001E+03  0.53052697047E+03  0.70144766360E+03  0.25500000920E-02 0. -1.
       -2    1    3    3    0  502 -0.36468273697E+03  0.27852551001E+03 -0.12410961888E+03  0.47536633861E+03  0.25500000920E-02 0.  1.
</event>
<event>
 5   0  0.6109149E-04  0.1099865E+04  0.7818609E-02  0.9205324E-01
       -2   -1    0    0    0  501  0.00000000000E+00  0.00000000000E+00  0.32210799205E+03  0.32210799206E+03  0.25500000920E-02 0. -1.
        2   -1    0    0  501    0  0.00000000000E+00  0.00000000000E+00 -0.93889514111E+03  0.93889514111E+03  0.25500000920E-02 0.  1.
    10030    2    1    2    0    0  0.00000000000E+00  0.00000000000E+00 -0.61678714906E+03  0.12610031332E+04  0.10998647711E+04 0.  0.
        1    1    3    3  502    0  0.31825232630E+03 -0.10476845477E+03  0.19157392673E+03  0.38595536237E+03  0.50400001928E-02 0. -1.
       -1    1    3    3    0  502 -0.31825232630E+03  0.10476845477E+03 -0.80836107579E+03  0.87504777080E+03  0.50400001928E-02 0.  1.
</event>
<event>
 5   0  0.3657529E-04  0.1101099E+04  0.7818609E-02  0.9204121E-01
       -1   -1    0    0    0  501  0.00000000000E+00  0.00000000000E+00  0.16406461311E+03  0.16406461319E+03  0.50400001928E-02 0. -1.
        1   -1    0    0  501    0  0.00000000000E+00  0.00000000000E+00 -0.18474719122E+04  0.18474719122E+04  0.50400001928E-02 0.  1.
    10030    2    1    2    0    0  0.00000000000E+00  0.00000000000E+00 -0.16834072991E+04  0.20115365254E+04  0.11010990230E+04 0.  0.
        4    1    3    3  502    0 -0.29628133474E+02 -0.54897854180E+03 -0.78850871340E+03  0.96125067992E+03  0.12699999809E+01 0.  1.
       -4    1    3    3    0  502  0.29628133474E+02  0.54897854180E+03 -0.89489858572E+03  0.10502858455E+04  0.12699999809E+01 0. -1.
</event>
<event>
 5   0  0.5948818E-04  0.1099362E+04  0.7818609E-02  0.9205814E-01
       -2   -1    0    0    0  501  0.00000000000E+00  0.00000000000E+00  0.21920098796E+03  0.21920098798E+03  0.25500000920E-02 0. -1.
        2   -1    0    0  501    0  0.00000000000E+00  0.00000000000E+00 -0.13784113554E+04  0.13784113554E+04  0.25500000920E-02 0.  1.
    10030    2    1    2    0    0  0.00000000000E+00  0.00000000000E+00 -0.11592103674E+04  0.15976123434E+04  0.10993618712E+04 0.  0.
        3    1    3    3  502    0 -0.19477368638E+03 -0.45857740204E+03 -0.24216092239E+03  0.55396023783E+03  0.10100000352E+00 0. -1.
       -3    1    3    3    0  502  0.19477368638E+03  0.45857740204E+03 -0.91704944505E+03  0.10436521056E+04  0.10100000352E+00 0.  1.
</event>
<event>
 5   0  0.3621403E-04  0.1102609E+04  0.7818609E-02  0.9202653E-01
       -1   -1    0    0    0  501  0.00000000000E+00  0.00000000000E+00  0.56096530047E+03  0.56096530050E+03  0.50400001928E-02 0.  1.
        1   -1    0    0  501    0  0.00000000000E+00  0.00000000000E+00 -0.54180997312E+03  0.54180997315E+03  0.50400001928E-02 0. -1.
    10030    2    1    2    0    0  0.00000000000E+00  0.00000000000E+00  0.19155327352E+02  0.11027752736E+04  0.11026088960E+04 0.  0.
        3    1    3    3  502    0  0.27640661619E+03 -0.49667279523E+02 -0.46490843367E+03  0.54314576131E+03  0.10100000352E+00 0. -1.
       -3    1    3    3    0  502 -0.27640661619E+03  0.49667279523E+02  0.48406376102E+03  0.55962951233E+03  0.10100000352E+00 0.  1.
</event>
<event>
 5   0  0.3621403E-04  0.1100368E+04  0.7818609E-02  0.9204834E-01
       -1   -1    0    0    0  501  0.00000000000E+00  0.00000000000E+00  0.60656329504E+03  0.60656329506E+03  0.50400001928E-02 0. -1.
        1   -1    0    0  501    0  0.00000000000E+00  0.00000000000E+00 -0.49904467644E+03  0.49904467647E+03  0.50400001928E-02 0.  1.
    10030    2    1    2    0    0  0.00000000000E+00  0.00000000000E+00  0.10751861860E+03  0.11056079715E+04  0.11003675447E+04 0.  0.
        3    1    3    3  502    0  0.33013596784E+03  0.28077385702E+03  0.39431072182E+03  0.58592206955E+03  0.10100000352E+00 0. -1.
       -3    1    3    3    0  502 -0.33013596784E+03 -0.28077385702E+03 -0.28679210322E+03  0.51968590198E+03  0.10100000352E+00 0.  1.
</event>
<event>
 5   0  0.3523525E-04  0.1100258E+04  0.7818609E-02  0.9204940E-01
        1   -1    0    0  501    0  0.00000000000E+00  0.00000000000E+00  0.24509777655E+03  0.24509777660E+03  0.50400001928E-02 0. -1.
       -1   -1    0    0    0  501  0.00000000000E+00  0.00000000000E+00 -0.12347813764E+04  0.12347813764E+04  0.50400001928E-02 0.  1.
    10030    2    1    2    0    0  0.00000000000E+00  0.00000000000E+00 -0.98968359987E+03  0.14798791530E+04  0.11002584604E+04 0.  0.
        5    1    3    3  502    0 -0.27503630223E+03  0.26409886697E+03  0.38486909415E+02  0.38327080670E+03  0.46999998093E+01 0. -1.
       -5    1    3    3    0  502  0.27503630223E+03 -0.26409886697E+03 -0.10281705093E+04  0.10966083463E+04  0.46999998093E+01 0.  1.
</event>
<event>
 5   0  0.6412712E-04  0.1098779E+04  0.7818609E-02  0.9206383E-01
        2   -1    0    0  501    0  0.00000000000E+00  0.00000000000E+00  0.93699869127E+03  0.93699869127E+03  0.25500000920E-02 0. -1.
       -2   -1    0    0    0  501  0.00000000000E+00  0.00000000000E+00 -0.32212309609E+03  0.32212309610E+03  0.25500000920E-02 0.  1.
    10030    2    1    2    0    0  0.00000000000E+00  0.00000000000E+00  0.61487559518E+03  0.12591217874E+04  0.10987791761E+04 0.  0.
        2    1    3    3  502    0  0.25072199178E+03  0.14498242459E+02  0.86737014853E+03  0.90299650651E+03  0.25500000920E-02 0. -1.
       -2    1    3    3    0  502 -0.25072199178E+03 -0.14498242459E+02 -0.25249455335E+03  0.35612528087E+03  0.25500000920E-02 0.  1.
</event>
<event>
 5   0  0.6245176E-04  0.1097836E+04  0.7818609E-02  0.9207304E-01
       -2   -1    0    0    0  501  0.00000000000E+00  0.00000000000E+00  0.61358248831E+03  0.61358248831E+03  0.25500000920E-02 0.  1.
        2   -1    0    0  501    0  0.00000000000E+00  0.00000000000E+00 -0.49106837641E+03  0.49106837642E+03  0.25500000920E-02 0. -1.
    10030    2    1    2    0    0  0.00000000000E+00  0.00000000000E+00  0.12251411190E+03  0.11046508647E+04  0.10978359738E+04 0.  0.
        5    1    3    3  502    0  0.13758791576E+03  0.18531792344E+03 -0.43984613147E+03  0.49674930969E+03  0.46999998093E+01 0. -1.
       -5    1    3    3    0  502 -0.13758791576E+03 -0.18531792344E+03  0.56236024336E+03  0.60790155504E+03  0.46999998093E+01 0.  1.
</event>
<event>
 5   0  0.3657529E-04  0.1100326E+04  0.7818609E-02  0.9204874E-01
       -1   -1    0    0    0  501  0.00000000000E+00  0.00000000000E+00  0.25746439942E+03  0.25746439947E+03  0.50400001928E-02 0.  1.
        1   -1    0    0  501    0  0.00000000000E+00  0.00000000000E+00 -0.11756155389E+04  0.11756155389E+04  0.50400001928E-02 0. -1.
    10030    2    1    2    0    0  0.00000000000E+00  0.00000000000E+00 -0.91815113951E+03  0.14330799384E+04  0.11003256767E+04 0.  0.
        4    1    3    3  502    0 -0.40951482732E+03  0.31213335742E+03 -0.71144808050E+03  0.87823095525E+03  0.12699999809E+01 0.  1.
       -4    1    3    3    0  502  0.40951482732E+03 -0.31213335742E+03 -0.20670305901E+03  0.55484898316E+03  0.12699999809E+01 0. -1.
</event>
<event>
 5   0  0.6264830E-04  0.1099306E+04  0.7818609E-02  0.9205868E-01
        2   -1    0    0  501    0  0.00000000000E+00  0.00000000000E+00  0.18397692818E+04  0.18397692818E+04  0.25500000920E-02 0.  1.
       -2   -1    0    0    0  501  0.00000000000E+00  0.00000000000E+00 -0.16421540582E+03  0.16421540584E+03  0.25500000920E-02 0. -1.
    10030    2    1    2    0    0  0.00000000000E+00  0.00000000000E+00  0.16755538759E+04  0.20039846876E+04  0.10993060707E+04 0.  0.
        4    1    3    3  502    0 -0.23450022541E+03  0.46830692749E+03  0.53374711874E+03  0.74778963200E+03  0.12699999809E+01 0. -1.
       -4    1    3    3    0  502  0.23450022541E+03 -0.46830692749E+03  0.11418067572E+04  0.12561950556E+04  0.12699999809E+01 0.  1.
</event>
<event>
 5   0  0.3523525E-04  0.1099212E+04  0.7818609E-02  0.9205960E-01
        1   -1    0    0  501    0  0.00000000000E+00  0.00000000000E+00  0.13998080589E+04  0.13998080589E+04  0.50400001928E-02 0.  1.
       -1   -1    0    0    0  501  0.00000000000E+00  0.00000000000E+00 -0.21579168063E+03  0.21579168069E+03  0.50400001928E-02 0. -1.
    10030    2    1    2    0    0  0.00000000000E+00  0.00000000000E+00  0.11840163783E+04  0.16155997396E+04  0.10992123246E+04 0.  0.
        5    1    3    3  502    0  0.50046953446E+03  0.12727506529E+03  0.86845236657E+03  0.10103961105E+04  0.46999998093E+01 0.  1.
       -5    1    3    3    0  502 -0.50046953446E+03 -0.12727506529E+03  0.31556401171E+03  0.60520362908E+03  0.46999998093E+01 0. -1.
</event>
<event>
 5   0  0.6412712E-04  0.1100459E+04  0.7818609E-02  0.9204745E-01
        2   -1    0    0  501    0  0.00000000000E+00  0.00000000000E+00  0.57172214248E+03  0.57172214249E+03  0.25500000920E-02 0. -1.
       -2   -1    0    0    0  501  0.00000000000E+00  0.00000000000E+00 -0.52954466868E+03  0.52954466868E+03  0.25500000920E-02 0.  1.
    10030    2    1    2    0    0  0.00000000000E+00  0.00000000000E+00  0.42177473808E+02  0.11012668112E+04  0.11004588362E+04 0.  0.
        2    1    3    3  502    0 -0.39899232717E+03 -0.92074900057E+01 -0.35796734730E+03  0.53611591727E+03  0.25500000920E-02 0.  1.
       -2    1    3    3    0  502  0.39899232717E+03  0.92074900057E+01  0.40014482111E+03  0.56515089390E+03  0.25500000920E-02 0. -1.
</event>
<event>
 5   0  0.5948818E-04  0.1098118E+04  0.7818609E-02  0.9207028E-01
        2   -1    0    0  501    0  0.00000000000E+00  0.00000000000E+00  0.44248894891E+03  0.44248894892E+03  0.25500000920E-02 0. -1.
       -2   -1    0    0    0  501  0.00000000000E+00  0.00000000000E+00 -0.68129518572E+03  0.68129518572E+03  0.25500000920E-02 0.  1.
    10030    2    1    2    0    0  0.00000000000E+00  0.00000000000E+00 -0.23880623681E+03  0.11237841346E+04  0.10981176451E+04 0.  0.
        3    1    3    3  502    0  0.37394268274E+03 -0.19485864296E+03  0.24047309513E+03  0.48541769683E+03  0.10100000352E+00 0. -1.
       -3    1    3    3    0  502 -0.37394268274E+03  0.19485864296E+03 -0.47927933194E+03  0.63836643782E+03  0.10100000352E+00 0.  1.
</event>
<event>
 5   0  0.3642161E-04  0.1111856E+04  0.7818609E-02  0.9193713E-01
       -1   -1    0    0    0  501  0.00000000000E+00  0.00000000000E+00  0.27120122084E+03  0.27120122089E+03  0.50400001928E-02 0.  1.
        1   -1    0    0  501    0  0.00000000000E+00  0.00000000000E+00 -0.11395813827E+04  0.11395813827E+04  0.50400001928E-02 0. -1.
    10030    2    1    2    0    0  0.00000000000E+00  0.00000000000E+00 -0.86838016182E+03  0.14107826036E+04  0.11118558581E+04 0.  0.
        2    1    3    3  502    0 -0.18844477297E+03 -0.12601368065E+03  0.20988916783E+03  0.30894067868E+03  0.25500000920E-02 0.  1.
       -2    1    3    3    0  502  0.18844477297E+03  0.12601368065E+03 -0.10782693297E+04  0.11018419249E+04  0.25500000920E-02 0. -1.
</event>
<event>
 5   0  0.3523525E-04  0.1089739E+04  0.7818609E-02  0.9215251E-01
       -1   -1    0    0    0  501  0.00000000000E+00  0.00000000000E+00  0.33873025061E+03  0.33873025064E+03  0.50400001928E-02 0.  1.
        1   -1    0    0  501    0  0.00000000000E+00  0.00000000000E+00 -0.87645825073E+03  0.87645825074E+03  0.50400001928E-02 0. -1.
    10030    2    1    2    0    0  0.00000000000E+00  0.00000000000E+00 -0.53772800012E+03  0.12151885014E+04  0.10897392770E+04 0.  0.
        5    1    3    3  502    0  0.51799539398E+03  0.15520073778E+03 -0.19444008330E+03  0.57466123341E+03  0.46999998093E+01 0.  1.
       -5    1    3    3    0  502 -0.51799539398E+03 -0.15520073778E+03 -0.34328791682E+03  0.64052726798E+03  0.46999998093E+01 0. -1.
</event>
<event>
 5   0  0.5948818E-04  0.1099306E+04  0.7818609E-02  0.9205869E-01
       -2   -1    0    0    0  501  0.00000000000E+00  0.00000000000E+00  0.14752828201E+03  0.14752828203E+03  0.25500000920E-02 0.  1.
        2   -1    0    0  501    0  0.00000000000E+00  0.00000000000E+00 -0.20478669568E+04  0.20478669568E+04  0.25500000920E-02 0. -1.
    10030    2    1    2    0    0  0.00000000000E+00  0.00000000000E+00 -0.19003386748E+04  0.21953952388E+04  0.10993057699E+04 0.  0.
        3    1    3    3  502    0  0.28434849218E+03 -0.20042972395E+03 -0.18000227377E+04  0.18333324864E+04  0.10100000352E+00 0. -1.
       -3    1    3    3    0  502 -0.28434849218E+03  0.20042972395E+03 -0.10031593705E+03  0.36206275240E+03  0.10100000352E+00 0.  1.
</event>
<event>
 5   0  0.5948818E-04  0.1101943E+04  0.7818609E-02  0.9203301E-01
       -2   -1    0    0    0  501  0.00000000000E+00  0.00000000000E+00  0.23976965113E+03  0.23976965114E+03  0.25500000920E-02 0. -1.
        2   -1    0    0  501    0  0.00000000000E+00  0.00000000000E+00 -0.12660874922E+04  0.12660874922E+04  0.25500000920E-02 0.  1.
    10030    2    1    2    0    0  0.00000000000E+00  0.00000000000E+00 -0.10263178411E+04  0.15058571434E+04  0.11019425690E+04 0.  0.
        3    1    3    3  502    0  0.43947371581E+03 -0.49902245834E+02 -0.96213166052E+03  0.10589262124E+04  0.10100000352E+00 0.  1.
       -3    1    3    3    0  502 -0.43947371581E+03  0.49902245834E+02 -0.64186180557E+02  0.44693093091E+03  0.10100000352E+00 0. -1.
</event>
<event>
 5   0  0.6412712E-04  0.1101417E+04  0.7818609E-02  0.9203812E-01
        2   -1    0    0  501    0  0.00000000000E+00  0.00000000000E+00  0.34852330669E+03  0.34852330670E+03  0.25500000920E-02 0. -1.
       -2   -1    0    0    0  501  0.00000000000E+00  0.00000000000E+00 -0.87018586483E+03  0.87018586483E+03  0.25500000920E-02 0.  1.
    10030    2    1    2    0    0  0.00000000000E+00  0.00000000000E+00 -0.52166255813E+03  0.12187091715E+04  0.11014173688E+04 0.  0.
        2    1    3    3  502    0  0.22463676685E+02  0.54377699433E+03 -0.35394778980E+03  0.64921265718E+03  0.25500000920E-02 0.  1.
       -2    1    3    3    0  502 -0.22463676685E+02 -0.54377699433E+03 -0.16771476834E+03  0.56949651435E+03  0.25500000920E-02 0. -1.
</event>
<event>
 5   0  0.3423758E-04  0.1100398E+04  0.7818609E-02  0.9204804E-01
       -1   -1    0    0    0  501  0.00000000000E+00  0.00000000000E+00  0.33833218961E+03  0.33833218965E+03  0.50400001928E-02 0. -1.
        1   -1    0    0  501    0  0.00000000000E+00  0.00000000000E+00 -0.89473944805E+03  0.89473944807E+03  0.50400001928E-02 0.  1.
    10030    2    1    2    0    0  0.00000000000E+00  0.00000000000E+00 -0.55640725844E+03  0.12330716377E+04  0.11003983944E+04 0.  0.
        1    1    3    3  502    0  0.21812485633E+02  0.19818043443E+03 -0.85283551277E+03  0.87583085181E+03  0.50400001928E-02 0.  1.
       -1    1    3    3    0  502 -0.21812485633E+02 -0.19818043443E+03  0.29642825433E+03  0.35724078590E+03  0.50400001928E-02 0. -1.
</event>
<event>
 5   0  0.6264830E-04  0.1099633E+04  0.7818609E-02  0.9205550E-01
       -2   -1    0    0    0  501  0.00000000000E+00  0.00000000000E+00  0.38511243462E+03  0.38511243463E+03  0.25500000920E-02 0. -1.
        2   -1    0    0  501    0  0.00000000000E+00  0.00000000000E+00 -0.78496062658E+03  0.78496062659E+03  0.25500000920E-02 0.  1.
    10030    2    1    2    0    0  0.00000000000E+00  0.00000000000E+00 -0.39984819196E+03  0.11700730612E+04  0.10996328442E+04 0.  0.
        4    1    3    3  502    0 -0.93890733856E+02  0.54173279323E+03 -0.20265686747E+03  0.58597039856E+03  0.12699999809E+01 0.  1.
       -4    1    3    3    0  502  0.93890733856E+02 -0.54173279323E+03 -0.19719132449E+03  0.58410266265E+03  0.12699999809E+01 0. -1.
</event>
<event>
 5   0  0.5948818E-04  0.1100224E+04  0.7818609E-02  0.9204973E-01
        2   -1    0    0  501    0  0.00000000000E+00  0.00000000000E+00  0.19358621369E+04  0.19358621369E+04  0.25500000920E-02 0. -1.
       -2   -1    0    0    0  501  0.00000000000E+00  0.00000000000E+00 -0.15632485354E+03  0.15632485356E+03  0.25500000920E-02 0.  1.
    10030    2    1    2    0    0  0.00000000000E+00  0.00000000000E+00  0.17795372834E+04  0.20921869905E+04  0.11002242772E+04 0.  0.
        3    1    3    3  502    0 -0.29892823575E+03 -0.55178330207E+02  0.17888218496E+02  0.30450408341E+03  0.10100000352E+00 0.  1.
       -3    1    3    3    0  502  0.29892823575E+03  0.55178330207E+02  0.17616490649E+04  0.17876829071E+04  0.10100000352E+00 0. -1.
</event>
<event>
 5   0  0.3642161E-04  0.1099683E+04  0.7818609E-02  0.9205501E-01
       -1   -1    0    0    0  501  0.00000000000E+00  0.00000000000E+00  0.43976470831E+03  0.43976470834E+03  0.50400001928E-02 0. -1.
        1   -1    0    0  501    0  0.00000000000E+00  0.00000000000E+00 -0.68747122742E+03  0.68747122744E+03  0.50400001928E-02 0.  1.
    10030    2    1    2    0    0  0.00000000000E+00  0.00000000000E+00 -0.24770651911E+03  0.11272359358E+04  0.10996828340E+04 0.  0.
        2    1    3    3  502    0  0.32056973304E+03  0.42318829678E+03 -0.27051966591E+03  0.59584744518E+03  0.25500000920E-02 0.  1.
       -2    1    3    3    0  502 -0.32056973304E+03 -0.42318829678E+03  0.22813146802E+02  0.53138849060E+03  0.25500000920E-02 0. -1.
</event>
<event>
 5   0  0.3423758E-04  0.1097867E+04  0.7818609E-02  0.9207273E-01
        1   -1    0    0  501    0  0.00000000000E+00  0.00000000000E+00  0.92200189244E+03  0.92200189245E+03  0.50400001928E-02 0. -1.
       -1   -1    0    0    0  501  0.00000000000E+00  0.00000000000E+00 -0.32681954144E+03  0.32681954148E+03  0.50400001928E-02 0.  1.
    10030    2    1    2    0    0  0.00000000000E+00  0.00000000000E+00  0.59518235099E+03  0.12488214339E+04  0.10978674523E+04 0.  0.
        1    1    3    3  502    0  0.43883156759E+03  0.64487288273E+02  0.66547354073E+03  0.79974170111E+03  0.50400001928E-02 0. -1.
       -1    1    3    3    0  502 -0.43883156759E+03 -0.64487288273E+02 -0.70291189733E+02  0.44907973283E+03  0.50400001928E-02 0.  1.
</event>
<event>
 5   0  0.6109149E-04  0.1099895E+04  0.7818609E-02  0.9205294E-01
       -2   -1    0    0    0  501  0.00000000000E+00  0.00000000000E+00  0.10698907916E+03  0.10698907919E+03  0.25500000920E-02 0.  1.
        2   -1    0    0  501    0  0.00000000000E+00  0.00000000000E+00 -0.28268516501E+04  0.28268516501E+04  0.25500000920E-02 0. -1.
    10030    2    1    2    0    0  0.00000000000E+00  0.00000000000E+00 -0.27198625709E+04  0.29338407292E+04  0.10998950041E+04 0.  0.
        1    1    3    3  502    0  0.16766631498E+03 -0.51981772823E+03 -0.11887237375E+04  0.13081997508E+04  0.50400001928E-02 0.  1.
       -1    1    3    3    0  502 -0.16766631498E+03  0.51981772823E+03 -0.15311388334E+04  0.16256409785E+04  0.50400001928E-02 0. -1.
</event>
<event>
 5   0  0.3523525E-04  0.1099957E+04  0.7818609E-02  0.9205233E-01
        1   -1    0    0  501    0  0.00000000000E+00  0.00000000000E+00  0.17440718956E+04  0.17440718956E+04  0.50400001928E-02 0. -1.
       -1   -1    0    0    0  501  0.00000000000E+00  0.00000000000E+00 -0.17343127862E+03  0.17343127870E+03  0.50400001928E-02 0.  1.
    10030    2    1    2    0    0  0.00000000000E+00  0.00000000000E+00  0.15706406169E+04  0.19175031743E+04  0.10999574882E+04 0.  0.
        5    1    3    3  502    0  0.28174377940E+03 -0.43692221881E+03  0.47263148526E+03  0.70262592706E+03  0.46999998093E+01 0.  1.
       -5    1    3    3    0  502 -0.28174377940E+03  0.43692221881E+03  0.10980091317E+04  0.12148772472E+04  0.46999998093E+01 0. -1.
</event>
<event>
 5   0  0.3657529E-04  0.1099065E+04  0.7818609E-02  0.9206104E-01
        1   -1    0    0  501    0  0.00000000000E+00  0.00000000000E+00  0.91619207458E+03  0.91619207459E+03  0.50400001928E-02 0. -1.
       -1   -1    0    0    0  501  0.00000000000E+00  0.00000000000E+00 -0.32960975494E+03  0.32960975498E+03  0.50400001928E-02 0.  1.
    10030    2    1    2    0    0  0.00000000000E+00  0.00000000000E+00  0.58658231964E+03  0.12458018296E+04  0.10990647755E+04 0.  0.
        4    1    3    3  502    0  0.16751758452E+03 -0.15450702745E+03  0.86010287476E+03  0.88978263117E+03  0.12699999809E+01 0. -1.
       -4    1    3    3    0  502 -0.16751758452E+03  0.15450702745E+03 -0.27352055512E+03  0.35601919840E+03  0.12699999809E+01 0.  1.
</event>
<event>
 5   0  0.5948818E-04  0.1099451E+04  0.7818609E-02  0.9205727E-01
       -2   -1    0    0    0  501  0.00000000000E+00  0.00000000000E+00  0.23608440247E+03  0.23608440249E+03  0.25500000920E-02 0. -1.
        2   -1    0    0  501    0  0.00000000000E+00  0.00000000000E+00 -0.12800419821E+04  0.12800419821E+04  0.25500000920E-02 0.  1.
    10030    2    1    2    0    0  0.00000000000E+00  0.00000000000E+00 -0.10439575796E+04  0.15161263846E+04  0.10994506747E+04 0.  0.
        3    1    3    3  502    0  0.38337098301E+03 -0.31776478507E+03 -0.84316744389E+03  0.97922373229E+03  0.10100000352E+00 0.  1.
       -3    1    3    3    0  502 -0.38337098301E+03  0.31776478507E+03 -0.20079013575E+03  0.53690265231E+03  0.10100000352E+00 0. -1.
</event>
<event>
 5   0  0.3657529E-04  0.1096123E+04  0.7818609E-02  0.9208979E-01
       -1   -1    0    0    0  501  0.00000000000E+00  0.00000000000E+00  0.54048073519E+03  0.54048073521E+03  0.50400001928E-02 0. -1.
        1   -1    0    0  501    0  0.00000000000E+00  0.00000000000E+00 -0.55574885419E+03  0.55574885422E+03  0.50400001928E-02 0.  1.
    10030    2    1    2    0    0  0.00000000000E+00  0.00000000000E+00 -0.15268119007E+02  0.10962295894E+04  0.10961232583E+04 0.  0.
        4    1    3    3  502    0  0.39841472881E+03  0.36643360949E+03 -0.93444772857E+02  0.54930995328E+03  0.12699999809E+01 0.  1.
       -4    1    3    3    0  502 -0.39841472881E+03 -0.36643360949E+03  0.78176653849E+02  0.54691963615E+03  0.12699999809E+01 0. -1.
</event>
<event>
 5   0  0.3423758E-04  0.1100816E+04  0.7818609E-02  0.9204397E-01
       -1   -1    0    0    0  501  0.00000000000E+00  0.00000000000E+00  0.39411688105E+03  0.39411688108E+03  0.50400001928E-02 0.  1.
        1   -1    0    0  501    0  0.00000000000E+00  0.00000000000E+00 -0.76867775410E+03  0.76867775411E+03  0.50400001928E-02 0. -1.
    10030    2    1    2    0    0  0.00000000000E+00  0.00000000000E+00 -0.37456087305E+03  0.11627946352E+04  0.11008158411E+04 0.  0.
        1    1    3    3  502    0  0.20087737529E+03  0.94531497468E+02 -0.71928475846E+03  0.75276722012E+03  0.50400001928E-02 0. -1.
       -1    1    3    3    0  502 -0.20087737529E+03 -0.94531497468E+02  0.34472388541E+03  0.41002741508E+03  0.50400001928E-02 0.  1.
</event>
<event>
 5   0  0.3642161E-04  0.1098356E+04  0.7818609E-02  0.9206796E-01
       -1   -1    0    0    0  501  0.00000000000E+00  0.00000000000E+00  0.18666709536E+03  0.18666709543E+03  0.50400001928E-02 0.  1.
        1   -1    0    0  501    0  0.00000000000E+00  0.00000000000E+00 -0.16156918563E+04  0.16156918563E+04  0.50400001928E-02 0. -1.
    10030    2    1    2    0    0  0.00000000000E+00  0.00000000000E+00 -0.14290247609E+04  0.18023589517E+04  0.10983560550E+04 0.  0.
        2    1    3    3  502    0 -0.16923183121E+03 -0.18971482619E+02 -0.15712716572E+04  0.15804726985E+04  0.25500000920E-02 0. -1.
       -2    1    3    3    0  502  0.16923183121E+03  0.18971482619E+02  0.14224689632E+03  0.22188625322E+03  0.25500000920E-02 0.  1.
</event>
<event>
 5   0  0.6109149E-04  0.1088905E+04  0.7818609E-02  0.9216074E-01
        2   -1    0    0  501    0  0.00000000000E+00  0.00000000000E+00  0.97677348203E+03  0.97677348203E+03  0.25500000920E-02 0.  1.
       -2   -1    0    0    0  501  0.00000000000E+00  0.00000000000E+00 -0.30347720118E+03  0.30347720119E+03  0.25500000920E-02 0. -1.
    10030    2    1    2    0    0  0.00000000000E+00  0.00000000000E+00  0.67329628085E+03  0.12802506832E+04  0.10889049224E+04 0.  0.
        1    1    3    3  502    0 -0.15073485593E+02  0.44570286300E+03  0.70386211910E+03  0.83324674303E+03  0.50400001928E-02 0.  1.
       -1    1    3    3    0  502  0.15073485593E+02 -0.44570286300E+03 -0.30565838247E+02  0.44700394019E+03  0.50400001928E-02 0. -1.
</event>
<event>
 5   0  0.3523525E-04  0.1096973E+04  0.7818609E-02  0.9208147E-01
       -1   -1    0    0    0  501  0.00000000000E+00  0.00000000000E+00  0.24117939085E+03  0.24117939090E+03  0.50400001928E-02 0.  1.
        1   -1    0    0  501    0  0.00000000000E+00  0.00000000000E+00 -0.12473594207E+04  0.12473594207E+04  0.50400001928E-02 0. -1.
    10030    2    1    2    0    0  0.00000000000E+00  0.00000000000E+00 -0.10061800299E+04  0.14885388116E+04  0.10969728990E+04 0.  0.
        5    1    3    3  502    0  0.45184539138E+03 -0.27740364262E+03 -0.69353877970E+03  0.87300353241E+03  0.46999998093E+01 0.  1.
       -5    1    3    3    0  502 -0.45184539138E+03  0.27740364262E+03 -0.31264125016E+03  0.61553527921E+03  0.46999998093E+01 0. -1.
</event>
<event>
 5   0  0.5948818E-04  0.1094506E+04  0.7818609E-02  0.9210563E-01
       -2   -1    0    0    0  501  0.00000000000E+00  0.00000000000E+00  0.14796450319E+03  0.14796450321E+03  0.25500000920E-02 0. -1.
        2   -1    0    0  501    0  0.00000000000E+00  0.00000000000E+00 -0.20240389880E+04  0.20240389880E+04  0.25500000920E-02 0.  1.
    10030    2    1    2    0    0  0.00000000000E+00  0.00000000000E+00 -0.18760744848E+04  0.21720034912E+04  0.10945061413E+04 0.  0.
        3    1    3    3  502    0  0.12719063085E+03 -0.51780385356E+03 -0.11825982753E+04  0.12972420662E+04  0.10100000352E+00 0.  1.
       -3    1    3    3    0  502 -0.12719063085E+03  0.51780385356E+03 -0.69347620945E+03  0.87476142497E+03  0.10100000352E+00 0. -1.
</event>
<event>
 5   0  0.6412712E-04  0.1101052E+04  0.7818609E-02  0.9204167E-01
       -2   -1    0    0    0  501  0.00000000000E+00  0.00000000000E+00  0.20429449025E+03  0.20429449027E+03  0.25500000920E-02 0. -1.
        2   -1    0    0  501    0  0.00000000000E+00  0.00000000000E+00 -0.14835389577E+04  0.14835389577E+04  0.25500000920E-02 0.  1.
    10030    2    1    2    0    0  0.00000000000E+00  0.00000000000E+00 -0.12792444674E+04  0.16878334480E+04  0.11010519246E+04 0.  0.
        2    1    3    3  502    0 -0.82711834987E+02  0.21399053712E+03 -0.14067691159E+04  0.14253534800E+04  0.25500000920E-02 0.  1.
       -2    1    3    3    0  502  0.82711834987E+02 -0.21399053712E+03  0.12752464840E+03  0.26247996797E+03  0.25500000920E-02 0. -1.
</event>
<event>
 5   0  0.6109149E-04  0.1099044E+04  0.7818609E-02  0.9206124E-01
       -2   -1    0    0    0  501  0.00000000000E+00  0.00000000000E+00  0.38280494373E+03  0.38280494373E+03  0.25500000920E-02 0.  1.
        2   -1    0    0  501    0  0.00000000000E+00  0.00000000000E+00 -0.78884696196E+03  0.78884696196E+03  0.25500000920E-02 0. -1.
    10030    2    1    2    0    0  0.00000000000E+00  0.00000000000E+00 -0.40604201823E+03  0.11716519057E+04  0.10990441609E+04 0.  0.
        1    1    3    3  502    0 -0.50417524881E+03  0.86941090071E+02  0.10785603679E+02  0.51173016710E+03  0.50400001928E-02 0. -1.
       -1    1    3    3    0  502  0.50417524881E+03 -0.86941090071E+02 -0.41682762191E+03  0.65992173859E+03  0.50400001928E-02 0.  1.
</event>
<event>
 5   0  0.5948818E-04  0.1101046E+04  0.7818609E-02  0.9204173E-01
       -2   -1    0    0    0  501  0.00000000000E+00  0.00000000000E+00  0.37437603050E+03  0.37437603051E+03  0.25500000920E-02 0.  1.
        2   -1    0    0  501    0  0.00000000000E+00  0.00000000000E+00 -0.80954851029E+03  0.80954851030E+03  0.25500000920E-02 0. -1.
    10030    2    1    2    0    0  0.00000000000E+00  0.00000000000E+00 -0.43517247979E+03  0.11839245408E+04  0.11010459714E+04 0.  0.
        3    1    3    3  502    0 -0.25754660862E+03  0.79429694770E+01  0.30553381566E+03  0.39968020853E+03  0.10100000352E+00 0.  1.
       -3    1    3    3    0  502  0.25754660862E+03 -0.79429694770E+01 -0.74070629546E+03  0.78424433227E+03  0.10100000352E+00 0. -1.
</event>
<event>
 5   0  0.3423758E-04  0.1101139E+04  0.7818609E-02  0.9204082E-01
       -1   -1    0    0    0  501  0.00000000000E+00  0.00000000000E+00  0.30114440743E+03  0.30114440747E+03  0.50400001928E-02 0.  1.
        1   -1    0    0  501    0  0.00000000000E+00  0.00000000000E+00 -0.10065829204E+04  0.10065829204E+04  0.50400001928E-02 0. -1.
    10030    2    1    2    0    0  0.00000000000E+00  0.00000000000E+00 -0.70543851295E+03  0.13077273279E+04  0.11011390777E+04 0.  0.
        1    1    3    3  502    0  0.15819064848E+03 -0.15962858652E+03  0.24419226834E+03  0.33186658591E+03  0.50400001928E-02 0.  1.
       -1    1    3    3    0  502 -0.15819064848E+03  0.15962858652E+03 -0.94963078129E+03  0.97586074196E+03  0.50400001928E-02 0. -1.
</event>
<event>
 5   0  0.3523525E-04  0.1100562E+04  0.7818609E-02  0.9204644E-01
        1   -1    0    0  501    0  0.00000000000E+00  0.00000000000E+00  0.14727745493E+04  0.14727745493E+04  0.50400001928E-02 0. -1.
       -1   -1    0    0    0  501  0.00000000000E+00  0.00000000000E+00 -0.20560452881E+03  0.20560452887E+03  0.50400001928E-02 0.  1.
    10030    2    1    2    0    0  0.00000000000E+00  0.00000000000E+00  0.12671700205E+04  0.16783790782E+04  0.11005618880E+04 0.  0.
        5    1    3    3  502    0 -0.33931109553E+03 -0.24375836104E+03  0.87472605924E+02  0.42687668583E+03  0.46999998093E+01 0.  1.
       -5    1    3    3    0  502  0.33931109553E+03  0.24375836104E+03  0.11796974146E+04  0.12515023924E+04  0.46999998093E+01 0. -1.
</event>
<event>
 5   0  0.2403875E-04  0.1101497E+04  0.7818609E-02  0.9203734E-01
        3   -1    0    0  501    0  0.00000000000E+00  0.00000000000E+00  0.20634775081E+03  0.20634777553E+03  0.10100000352E+00 0.  1.
       -3   -1    0    0    0  501  0.00000000000E+00  0.00000000000E+00 -0.14699642940E+04  0.14699642974E+04  0.10100000352E+00 0. -1.
    10030    2    1    2    0    0  0.00000000000E+00  0.00000000000E+00 -0.12636165432E+04  0.16763120730E+04  0.11014968896E+04 0.  0.
        2    1    3    3  502    0 -0.19662056096E+03 -0.50142626244E+03 -0.45672346359E+03  0.70617580237E+03  0.25500000920E-02 0. -1.
       -2    1    3    3    0  502  0.19662056096E+03  0.50142626244E+03 -0.80689307958E+03  0.97013627060E+03  0.25500000920E-02 0.  1.
</event>
<event>
 5   0  0.6264830E-04  0.1099566E+04  0.7818609E-02  0.9205615E-01
        2   -1    0    0  501    0  0.00000000000E+00  0.00000000000E+00  0.60322732585E+03  0.60322732586E+03  0.25500000920E-02 0.  1.
       -2   -1    0    0    0  501  0.00000000000E+00  0.00000000000E+00 -0.50107352943E+03  0.50107352944E+03  0.25500000920E-02 0. -1.
    10030    2    1    2    0    0  0.00000000000E+00  0.00000000000E+00  0.10215379642E+03  0.11043008553E+04  0.10995658147E+04 0.  0.
        4    1    3    3  502    0 -0.12917506903E+03  0.53067164555E+03 -0.12130906899E+02  0.54630336412E+03  0.12699999809E+01 0. -1.
       -4    1    3    3    0  502  0.12917506903E+03 -0.53067164555E+03  0.11428470332E+03  0.55799749118E+03  0.12699999809E+01 0.  1.
</event>
<event>
 5   0  0.6412712E-04  0.1101050E+04  0.7818609E-02  0.9204169E-01
       -2   -1    0    0    0  501  0.00000000000E+00  0.00000000000E+00  0.27564796026E+03  0.27564796028E+03  0.25500000920E-02 0.  1.
        2   -1    0    0  501    0  0.00000000000E+00  0.00000000000E+00 -0.10995106005E+04  0.10995106005E+04  0.25500000920E-02 0. -1.
    10030    2    1    2    0    0  0.00000000000E+00  0.00000000000E+00 -0.82386264026E+03  0.13751585608E+04  0.11010501430E+04 0.  0.
        2    1    3    3  502    0 -0.51693644681E+02 -0.48843721775E+03 -0.72250298372E+03  0.87364392636E+03  0.25500000920E-02 0.  1.
       -2    1    3    3    0  502  0.51693644681E+02  0.48843721775E+03 -0.10135965655E+03  0.50151463445E+03  0.25500000920E-02 0. -1.
</event>
<event>
 5   0  0.3642161E-04  0.1101038E+04  0.7818609E-02  0.9204180E-01
       -1   -1    0    0    0  501  0.00000000000E+00  0.00000000000E+00  0.11519552209E+04  0.11519552210E+04  0.50400001928E-02 0. -1.
        1   -1    0    0  501    0  0.00000000000E+00  0.00000000000E+00 -0.26309299917E+03  0.26309299921E+03  0.50400001928E-02 0.  1.
    10030    2    1    2    0    0  0.00000000000E+00  0.00000000000E+00  0.88886222178E+03  0.14150482202E+04  0.11010383354E+04 0.  0.
        2    1    3    3  502    0  0.31323388021E+03 -0.33822904511E+03  0.57681557828E+02  0.46458746517E+03  0.25500000920E-02 0.  1.
       -2    1    3    3    0  502 -0.31323388021E+03  0.33822904511E+03  0.83118066395E+03  0.95046075500E+03  0.25500000920E-02 0. -1.
</event>
<event>
 5   0  0.2403875E-04  0.1100529E+04  0.7818609E-02  0.9204676E-01
        4   -1    0    0  501    0  0.00000000000E+00  0.00000000000E+00  0.27624469628E+03  0.27624761559E+03  0.12699999809E+01 0.  1.
       -4   -1    0    0    0  501  0.00000000000E+00  0.00000000000E+00 -0.10960888104E+04  0.10960895462E+04  0.12699999809E+01 0. -1.
    10030    2    1    2    0    0  0.00000000000E+00  0.00000000000E+00 -0.81984411414E+03  0.13723371618E+04  0.11005293790E+04 0.  0.
        4    1    3    3  502    0 -0.44483383298E+03 -0.21112659666E+03 -0.71622754016E+03  0.86915768475E+03  0.12699999809E+01 0. -1.
       -4    1    3    3    0  502  0.44483383298E+03  0.21112659666E+03 -0.10361657398E+03  0.50317947701E+03  0.12699999809E+01 0.  1.
</event>
<event>
 5   0  0.6109149E-04  0.1098826E+04  0.7818609E-02  0.9206337E-01
       -2   -1    0    0    0  501  0.00000000000E+00  0.00000000000E+00  0.58261027939E+03  0.58261027940E+03  0.25500000920E-02 0. -1.
        2   -1    0    0  501    0  0.00000000000E+00  0.00000000000E+00 -0.51810694416E+03  0.51810694416E+03  0.25500000920E-02 0.  1.
    10030    2    1    2    0    0  0.00000000000E+00  0.00000000000E+00  0.64503335233E+02  0.11007172236E+04  0.10988256122E+04 0.  0.
        1    1    3    3  502    0  0.52334893918E+03 -0.70807475028E+02  0.18399386122E+03  0.55925088436E+03  0.50400001928E-02 0. -1.
       -1    1    3    3    0  502 -0.52334893918E+03  0.70807475028E+02 -0.11949052599E+03  0.54146633920E+03  0.50400001928E-02 0.  1.
</event>
<event>
 5   0  0.3657529E-04  0.1101189E+04  0.7818609E-02  0.9204034E-01
        1   -1    0    0  501    0  0.00000000000E+00  0.00000000000E+00  0.18812277603E+04  0.18812277603E+04  0.50400001928E-02 0.  1.
       -1   -1    0    0    0  501  0.00000000000E+00  0.00000000000E+00 -0.16114690886E+03  0.16114690894E+03  0.50400001928E-02 0. -1.
    10030    2    1    2    0    0  0.00000000000E+00  0.00000000000E+00  0.17200808514E+04  0.20423746692E+04  0.11011885189E+04 0.  0.
        4    1    3    3  502    0  0.14921821296E+03  0.41189039306E+03  0.14786119047E+04  0.15421460854E+04  0.12699999809E+01 0.  1.
       -4    1    3    3    0  502 -0.14921821296E+03 -0.41189039306E+03  0.24146894669E+03  0.50022858384E+03  0.12699999809E+01 0. -1.
</event>
<event>
 5   0  0.3523525E-04  0.1104428E+04  0.7818609E-02  0.9200886E-01
       -1   -1    0    0    0  501  0.00000000000E+00  0.00000000000E+00  0.23978854502E+03  0.23978854508E+03  0.50400001928E-02 0.  1.
        1   -1    0    0  501    0  0.00000000000E+00  0.00000000000E+00 -0.12717060158E+04  0.12717060158E+04  0.50400001928E-02 0. -1.
    10030    2    1    2    0    0  0.00000000000E+00  0.00000000000E+00 -0.10319174707E+04  0.15114945608E+04  0.11044284228E+04 0.  0.
        5    1    3    3  502    0 -0.53075328883E+03 -0.14438617097E+03 -0.44930435871E+03  0.71024144960E+03  0.46999998093E+01 0.  1.
       -5    1    3    3    0  502  0.53075328883E+03  0.14438617097E+03 -0.58261311202E+03  0.80125311124E+03  0.46999998093E+01 0. -1.
</event>
<event>
 5   0  0.3423758E-04  0.1100701E+04  0.7818609E-02  0.9204509E-01
        1   -1    0    0  501    0  0.00000000000E+00  0.00000000000E+00  0.73932280118E+03  0.73932280120E+03  0.50400001928E-02 0. -1.
       -1   -1    0    0    0  501  0.00000000000E+00  0.00000000000E+00 -0.40968017286E+03  0.40968017289E+03  0.50400001928E-02 0.  1.
    10030    2    1    2    0    0  0.00000000000E+00  0.00000000000E+00  0.32964262833E+03  0.11490029741E+04  0.11007014000E+04 0.  0.
        1    1    3    3  502    0  0.54234512916E+03 -0.20036230198E+02  0.69454754754E+02  0.54714134611E+03  0.50400001928E-02 0.  1.
       -1    1    3    3    0  502 -0.54234512916E+03  0.20036230198E+02  0.26018787357E+03  0.60186162797E+03  0.50400001928E-02 0. -1.
</event>
<event>
 5   0  0.3621403E-04  0.1100947E+04  0.7818609E-02  0.9204269E-01
       -1   -1    0    0    0  501  0.00000000000E+00  0.00000000000E+00  0.58942435330E+03  0.58942435332E+03  0.50400001928E-02 0.  1.
        1   -1    0    0  501    0  0.00000000000E+00  0.00000000000E+00 -0.51409694549E+03  0.51409694551E+03  0.50400001928E-02 0. -1.
    10030    2    1    2    0    0  0.00000000000E+00  0.00000000000E+00  0.75327407814E+02  0.11035212988E+04  0.11009473369E+04 0.  0.
        3    1    3    3  502    0 -0.31910870057E+03 -0.40304343730E+03  0.23496616912E+03  0.56522870235E+03  0.10100000352E+00 0. -1.
       -3    1    3    3    0  502  0.31910870057E+03  0.40304343730E+03 -0.15963876130E+03  0.53829259649E+03  0.10100000352E+00 0.  1.
</event>
<event>
 5   0  0.5948818E-04  0.1101317E+04  0.7818609E-02  0.9203909E-01
       -2   -1    0    0    0  501  0.00000000000E+00  0.00000000000E+00  0.27798357544E+03  0.27798357545E+03  0.25500000920E-02 0. -1.
        2   -1    0    0  501    0  0.00000000000E+00  0.00000000000E+00 -0.10908018434E+04  0.10908018434E+04  0.25500000920E-02 0.  1.
    10030    2    1    2    0    0  0.00000000000E+00  0.00000000000E+00 -0.81281826796E+03  0.13687854188E+04  0.11013173866E+04 0.  0.
        3    1    3    3  502    0 -0.12348831121E+03 -0.20212605703E+03 -0.10242511233E+04  0.10512823977E+04  0.10100000352E+00 0.  1.
       -3    1    3    3    0  502  0.12348831121E+03  0.20212605703E+03  0.21143285532E+03  0.31750302116E+03  0.10100000352E+00 0. -1.
</event>
<event>
 5   0  0.6109149E-04  0.1101088E+04  0.7818609E-02  0.9204132E-01
        2   -1    0    0  501    0  0.00000000000E+00  0.00000000000E+00  0.15468854088E+04  0.15468854088E+04  0.25500000920E-02 0. -1.
       -2   -1    0    0    0  501  0.00000000000E+00  0.00000000000E+00 -0.19594116976E+03  0.19594116978E+03  0.25500000920E-02 0.  1.
    10030    2    1    2    0    0  0.00000000000E+00  0.00000000000E+00  0.13509442390E+04  0.17428265786E+04  0.11010877104E+04 0.  0.
        1    1    3    3  502    0  0.25501427934E+03  0.46494195381E+03  0.90968299019E+03  0.10529607997E+04  0.50400001928E-02 0. -1.
       -1    1    3    3    0  502 -0.25501427934E+03 -0.46494195381E+03  0.44126124885E+03  0.68986577886E+03  0.50400001928E-02 0.  1.
</event>
<event>
 5   0  0.3523525E-04  0.1100480E+04  0.7818609E-02  0.9204724E-01
       -1   -1    0    0    0  501  0.00000000000E+00  0.00000000000E+00  0.12850533664E+04  0.12850533664E+04  0.50400001928E-02 0.  1.
        1   -1    0    0  501    0  0.00000000000E+00  0.00000000000E+00 -0.23560435020E+03  0.23560435026E+03  0.50400001928E-02 0. -1.
    10030    2    1    2    0    0  0.00000000000E+00  0.00000000000E+00  0.10494490162E+04  0.15206577166E+04  0.11004801923E+04 0.  0.
        5    1    3    3  502    0 -0.26444377382E+03 -0.18121947252E+03  0.11426453185E+04  0.11867735339E+04  0.46999998093E+01 0.  1.
       -5    1    3    3    0  502  0.26444377382E+03  0.18121947252E+03 -0.93196302365E+02  0.33388418277E+03  0.46999998093E+01 0. -1.
</event>
<event>
 5   0  0.6264830E-04  0.1101407E+04  0.7818609E-02  0.9203822E-01
        2   -1    0    0  501    0  0.00000000000E+00  0.00000000000E+00  0.99024040397E+03  0.99024040397E+03  0.25500000920E-02 0. -1.
       -2   -1    0    0    0  501  0.00000000000E+00  0.00000000000E+00 -0.30626339597E+03  0.30626339598E+03  0.25500000920E-02 0.  1.
    10030    2    1    2    0    0  0.00000000000E+00  0.00000000000E+00  0.68397700800E+03  0.12965037999E+04  0.11014070800E+04 0.  0.
        4    1    3    3  502    0  0.24813980018E+03  0.46532612451E+03  0.15523176534E+03  0.54972745652E+03  0.12699999809E+01 0. -1.
       -4    1    3    3    0  502 -0.24813980018E+03 -0.46532612451E+03  0.52874524265E+03  0.74677634343E+03  0.12699999809E+01 0.  1.
</event>
<event>
 5   0  0.3642161E-04  0.1100027E+04  0.7818609E-02  0.9205165E-01
       -1   -1    0    0    0  501  0.00000000000E+00  0.00000000000E+00  0.99102461497E+03  0.99102461498E+03  0.50400001928E-02 0.  1.
        1   -1    0    0  501    0  0.00000000000E+00  0.00000000000E+00 -0.30525477503E+03  0.30525477507E+03  0.50400001928E-02 0. -1.
    10030    2    1    2    0    0  0.00000000000E+00  0.00000000000E+00  0.68576983994E+03  0.12962793901E+04  0.11000272650E+04 0.  0.
        2    1    3    3  502    0 -0.39529719072E+03  0.16882996979E+02 -0.10733748798E+03  0.40995882831E+03  0.25500000920E-02 0. -1.
       -2    1    3    3    0  502  0.39529719072E+03 -0.16882996979E+02  0.79310732792E+03  0.88632056175E+03  0.25500000920E-02 0.  1.
</event>
<event>
 5   0  0.6245176E-04  0.1092809E+04  0.7818609E-02  0.9212229E-01
        2   -1    0    0  501    0  0.00000000000E+00  0.00000000000E+00  0.97183722348E+03  0.97183722348E+03  0.25500000920E-02 0. -1.
       -2   -1    0    0    0  501  0.00000000000E+00  0.00000000000E+00 -0.30720959694E+03  0.30720959695E+03  0.25500000920E-02 0.  1.
    10030    2    1    2    0    0  0.00000000000E+00  0.00000000000E+00  0.66462762653E+03  0.12790468204E+04  0.10928087147E+04 0.  0.
        5    1    3    3  502    0  0.16902619401E+02 -0.22434832424E+03  0.91508237443E+03  0.94234585537E+03  0.46999998093E+01 0. -1.
       -5    1    3    3    0  502 -0.16902619401E+02  0.22434832424E+03 -0.25045474790E+03  0.33670096506E+03  0.46999998093E+01 0.  1.
</event>
<event>
 5   0  0.6245176E-04  0.1100291E+04  0.7818609E-02  0.9204909E-01
       -2   -1    0    0    0  501  0.00000000000E+00  0.00000000000E+00  0.15207841757E+03  0.15207841759E+03  0.25500000920E-02 0.  1.
        2   -1    0    0  501    0  0.00000000000E+00  0.00000000000E+00 -0.19901562607E+04  0.19901562607E+04  0.25500000920E-02 0. -1.
    10030    2    1    2    0    0  0.00000000000E+00  0.00000000000E+00 -0.18380778431E+04  0.21422346783E+04  0.11002905341E+04 0.  0.
        5    1    3    3  502    0  0.22923886332E+03  0.44884079252E+03 -0.48969207054E+03  0.70272962613E+03  0.46999998093E+01 0.  1.
       -5    1    3    3    0  502 -0.22923886332E+03 -0.44884079252E+03 -0.13483857726E+04  0.14395050521E+04  0.46999998093E+01 0. -1.
</event>
<event>
 5   0  0.5948818E-04  0.1092798E+04  0.7818609E-02  0.9212240E-01
       -2   -1    0    0    0  501  0.00000000000E+00  0.00000000000E+00  0.20504873916E+03  0.20504873918E+03  0.25500000920E-02 0. -1.
        2   -1    0    0  501    0  0.00000000000E+00  0.00000000000E+00 -0.14560043621E+04  0.14560043621E+04  0.25500000920E-02 0.  1.
    10030    2    1    2    0    0  0.00000000000E+00  0.00000000000E+00 -0.12509556229E+04  0.16610531012E+04  0.10927979844E+04 0.  0.
        3    1    3    3  502    0  0.26995193650E+03  0.30006045123E+03 -0.65668697510E+02  0.40892873517E+03  0.10100000352E+00 0. -1.
       -3    1    3    3    0  502 -0.26995193650E+03 -0.30006045123E+03 -0.11852869254E+04  0.12521243661E+04  0.10100000352E+00 0.  1.
</event>
<event>
 5   0  0.6245176E-04  0.1100868E+04  0.7818609E-02  0.9204346E-01
       -2   -1    0    0    0  501  0.00000000000E+00  0.00000000000E+00  0.45863704990E+03  0.45863704990E+03  0.25500000920E-02 0. -1.
        2   -1    0    0  501    0  0.00000000000E+00  0.00000000000E+00 -0.66060428130E+03  0.66060428131E+03  0.25500000920E-02 0.  1.
    10030    2    1    2    0    0  0.00000000000E+00  0.00000000000E+00 -0.20196723141E+03  0.11192413312E+04  0.11008680189E+04 0.  0.
        5    1    3    3  502    0 -0.47982438911E+03 -0.26653574159E+03 -0.14268974981E+03  0.56714654247E+03  0.46999998093E+01 0.  1.
       -5    1    3    3    0  502  0.47982438911E+03  0.26653574159E+03 -0.59277481594E+02  0.55209478874E+03  0.46999998093E+01 0. -1.
</event>
<event>
 5   0  0.6412712E-04  0.1100350E+04  0.7818609E-02  0.9204850E-01
        2   -1    0    0  501    0  0.00000000000E+00  0.00000000000E+00  0.22531175643E+04  0.22531175643E+04  0.25500000920E-02 0. -1.
       -2   -1    0    0    0  501  0.00000000000E+00  0.00000000000E+00 -0.13434398617E+03  0.13434398619E+03  0.25500000920E-02 0.  1.
    10030    2    1    2    0    0  0.00000000000E+00  0.00000000000E+00  0.21187735781E+04  0.23874615505E+04  0.11003504804E+04 0.  0.
        2    1    3    3  502    0 -0.11917625871E+03 -0.27616320214E+03  0.20589316480E+04  0.20807855790E+04  0.25500000920E-02 0. -1.
       -2    1    3    3    0  502  0.11917625871E+03  0.27616320214E+03  0.59841930142E+02  0.30667597145E+03  0.25500000920E-02 0.  1.
</event>
<event>
 5   0  0.6245176E-04  0.1100160E+04  0.7818609E-02  0.9205036E-01
       -2   -1    0    0    0  501  0.00000000000E+00  0.00000000000E+00  0.33818278231E+03  0.33818278232E+03  0.25500000920E-02 0.  1.
        2   -1    0    0  501    0  0.00000000000E+00  0.00000000000E+00 -0.89474613973E+03  0.89474613973E+03  0.25500000920E-02 0. -1.
    10030    2    1    2    0    0  0.00000000000E+00  0.00000000000E+00 -0.55656335742E+03  0.12329289221E+04  0.11001595139E+04 0.  0.
        5    1    3    3  502    0 -0.23859136332E+02 -0.43543085117E+02 -0.89220716340E+03  0.89360000619E+03  0.46999998093E+01 0. -1.
       -5    1    3    3    0  502  0.23859136332E+02  0.43543085117E+02  0.33564380598E+03  0.33932891586E+03  0.46999998093E+01 0.  1.
</event>
<event>
 5   0  0.6412712E-04  0.1102909E+04  0.7818609E-02  0.9202361E-01
       -2   -1    0    0    0  501  0.00000000000E+00  0.00000000000E+00  0.38744429950E+03  0.38744429951E+03  0.25500000920E-02 0.  1.
        2   -1    0    0  501    0  0.00000000000E+00  0.00000000000E+00 -0.78489256940E+03  0.78489256941E+03  0.25500000920E-02 0. -1.
    10030    2    1    2    0    0  0.00000000000E+00  0.00000000000E+00 -0.39744826990E+03  0.11723368689E+04  0.11029091563E+04 0.  0.
        2    1    3    3  502    0 -0.42885350374E+03  0.30247320782E+03 -0.18659143356E+02  0.52512239788E+03  0.25500000920E-02 0.  1.
       -2    1    3    3    0  502  0.42885350374E+03 -0.30247320782E+03 -0.37878912655E+03  0.64721447104E+03  0.25500000920E-02 0. -1.
</event>
<event>
 5   0  0.6264830E-04  0.1098967E+04  0.7818609E-02  0.9206199E-01
       -2   -1    0    0    0  501  0.00000000000E+00  0.00000000000E+00  0.40737599951E+03  0.40737599952E+03  0.25500000920E-02 0.  1.
        2   -1    0    0  501    0  0.00000000000E+00  0.00000000000E+00 -0.74116303702E+03  0.74116303702E+03  0.25500000920E-02 0. -1.
    10030    2    1    2    0    0  0.00000000000E+00  0.00000000000E+00 -0.33378703751E+03  0.11485390365E+04  0.10989668476E+04 0.  0.
        4    1    3    3  502    0 -0.17759206668E+03 -0.43043975292E+03  0.13800784451E+03  0.48565944970E+03  0.12699999809E+01 0.  1.
       -4    1    3    3    0  502  0.17759206668E+03  0.43043975292E+03 -0.47179488202E+03  0.66287958683E+03  0.12699999809E+01 0. -1.
</event>
<event>
 5   0  0.6109149E-04  0.1099707E+04  0.7818609E-02  0.9205478E-01
       -2   -1    0    0    0  501  0.00000000000E+00  0.00000000000E+00  0.19489659577E+03  0.19489659579E+03  0.25500000920E-02 0.  1.
        2   -1    0    0  501    0  0.00000000000E+00  0.00000000000E+00 -0.15512770700E+04  0.15512770700E+04  0.25500000920E-02 0. -1.
    10030    2    1    2    0    0  0.00000000000E+00  0.00000000000E+00 -0.13563804742E+04  0.17461736658E+04  0.10997065428E+04 0.  0.
        1    1    3    3  502    0 -0.62498790340E+02  0.40567290677E+03 -0.97239505848E+02  0.42182001803E+03  0.50400001928E-02 0.  1.
       -1    1    3    3    0  502  0.62498790340E+02 -0.40567290677E+03 -0.12591409684E+04  0.13243536478E+04  0.50400001928E-02 0. -1.
</event>
<event>
 5   0  0.3423758E-04  0.1100243E+04  0.7818609E-02  0.9204955E-01
       -1   -1    0    0    0  501  0.00000000000E+00  0.00000000000E+00  0.63733776035E+03  0.63733776037E+03  0.50400001928E-02 0. -1.
        1   -1    0    0  501    0  0.00000000000E+00  0.00000000000E+00 -0.47484037119E+03  0.47484037122E+03  0.50400001928E-02 0.  1.
    10030    2    1    2    0    0  0.00000000000E+00  0.00000000000E+00  0.16249738915E+03  0.11121781316E+04  0.11002430617E+04 0.  0.
        1    1    3    3  502    0 -0.43729906313E+01 -0.38465097093E+03  0.47878078943E+03  0.61417142300E+03  0.50400001928E-02 0. -1.
       -1    1    3    3    0  502  0.43729906313E+01  0.38465097093E+03 -0.31628340027E+03  0.49800670859E+03  0.50400001928E-02 0.  1.
</event>
<event>
 5   0  0.3523525E-04  0.1096932E+04  0.7818609E-02  0.9208187E-01
        1   -1    0    0  501    0  0.00000000000E+00  0.00000000000E+00  0.59301721648E+03  0.59301721650E+03  0.50400001928E-02 0. -1.
       -1   -1    0    0    0  501  0.00000000000E+00  0.00000000000E+00 -0.50726198742E+03  0.50726198744E+03  0.50400001928E-02 0.  1.
    10030    2    1    2    0    0  0.00000000000E+00  0.00000000000E+00  0.85755229064E+02  0.11002792039E+04  0.10969322528E+04 0.  0.
        5    1    3    3  502    0  0.13067882682E+03  0.13819535799E+03 -0.47310237917E+03  0.50992437079E+03  0.46999998093E+01 0.  1.
       -5    1    3    3    0  502 -0.13067882682E+03 -0.13819535799E+03  0.55885760824E+03  0.59035483315E+03  0.46999998093E+01 0. -1.
</event>
<event>
 5   0  0.3642161E-04  0.1100131E+04  0.7818609E-02  0.9205064E-01
       -1   -1    0    0    0  501  0.00000000000E+00  0.00000000000E+00  0.48047345559E+03  0.48047345562E+03  0.50400001928E-02 0.  1.
        1   -1    0    0  501    0  0.00000000000E+00  0.00000000000E+00 -0.62973730051E+03  0.62973730053E+03  0.50400001928E-02 0. -1.
    10030    2    1    2    0    0  0.00000000000E+00  0.00000000000E+00 -0.14926384492E+03  0.11102107561E+04  0.11001310048E+04 0.  0.
        2    1    3    3  502    0 -0.38207867159E+03  0.38570741568E+03 -0.16385999295E+03  0.56710177137E+03  0.25500000920E-02 0. -1.
       -2    1    3    3    0  502  0.38207867159E+03 -0.38570741568E+03  0.14596148026E+02  0.54310898477E+03  0.25500000920E-02 0.  1.
</event>
<event>
 5   0  0.3523525E-04  0.1101320E+04  0.7818609E-02  0.9203906E-01
        1   -1    0    0  501    0  0.00000000000E+00  0.00000000000E+00  0.11937551028E+04  0.11937551028E+04  0.50400001928E-02 0.  1.
       -1   -1    0    0    0  501  0.00000000000E+00  0.00000000000E+00 -0.25401060197E+03  0.25401060202E+03  0.50400001928E-02 0. -1.
    10030    2    1    2    0    0  0.00000000000E+00  0.00000000000E+00  0.93974450080E+03  0.14477657048E+04  0.11013200303E+04 0.  0.
        5    1    3    3  502    0 -0.32107448046E+03 -0.21781008841E+03 -0.43778259368E+02  0.39047238392E+03  0.46999998093E+01 0. -1.
       -5    1    3    3    0  502  0.32107448046E+03  0.21781008841E+03  0.98352276016E+03  0.10572933209E+04  0.46999998093E+01 0.  1.
</event>
<event>
 5   0  0.6109149E-04  0.1099541E+04  0.7818609E-02  0.9205640E-01
        2   -1    0    0  501    0  0.00000000000E+00  0.00000000000E+00  0.31525199202E+03  0.31525199203E+03  0.25500000920E-02 0.  1.
       -2   -1    0    0    0  501  0.00000000000E+00  0.00000000000E+00 -0.95874889348E+03  0.95874889349E+03  0.25500000920E-02 0. -1.
    10030    2    1    2    0    0  0.00000000000E+00  0.00000000000E+00 -0.64349690146E+03  0.12740008855E+04  0.10995408106E+04 0.  0.
        1    1    3    3  502    0  0.52403707659E+03 -0.11308543946E+03 -0.18057969311E+03  0.56569620809E+03  0.50400001928E-02 0.  1.
       -1    1    3    3    0  502 -0.52403707659E+03  0.11308543946E+03 -0.46291720835E+03  0.70830467743E+03  0.50400001928E-02 0. -1.
</event>
<event>
 5   0  0.6264830E-04  0.1098365E+04  0.7818609E-02  0.9206787E-01
       -2   -1    0    0    0  501  0.00000000000E+00  0.00000000000E+00  0.12462446631E+04  0.12462446631E+04  0.25500000920E-02 0. -1.
        2   -1    0    0  501    0  0.00000000000E+00  0.00000000000E+00 -0.24200831215E+03  0.24200831217E+03  0.25500000920E-02 0.  1.
    10030    2    1    2    0    0  0.00000000000E+00  0.00000000000E+00  0.10042363510E+04  0.14882529753E+04  0.10983652716E+04 0.  0.
        4    1    3    3  502    0  0.38554295136E+03 -0.29489692321E+03  0.15403991372E+03  0.50925187342E+03  0.12699999809E+01 0.  1.
       -4    1    3    3    0  502 -0.38554295136E+03  0.29489692321E+03  0.85019643726E+03  0.97900110188E+03  0.12699999809E+01 0. -1.
</event>
<event>
 5   0  0.3657529E-04  0.1099164E+04  0.7818609E-02  0.9206007E-01
        1   -1    0    0  501    0  0.00000000000E+00  0.00000000000E+00  0.94913946965E+03  0.94913946966E+03  0.50400001928E-02 0. -1.
       -1   -1    0    0    0  501  0.00000000000E+00  0.00000000000E+00 -0.31822555832E+03  0.31822555836E+03  0.50400001928E-02 0.  1.
    10030    2    1    2    0    0  0.00000000000E+00  0.00000000000E+00  0.63091391133E+03  0.12673650280E+04  0.10991641146E+04 0.  0.
        4    1    3    3  502    0  0.38842090284E+03 -0.16774005275E+03 -0.88976419065E+02  0.43234932533E+03  0.12699999809E+01 0.  1.
       -4    1    3    3    0  502 -0.38842090284E+03  0.16774005275E+03  0.71989033039E+03  0.83501570270E+03  0.12699999809E+01 0. -1.
</event>
<event>
 5   0  0.3642161E-04  0.1099544E+04  0.7818609E-02  0.9205637E-01
       -1   -1    0    0    0  501  0.00000000000E+00  0.00000000000E+00  0.72464643651E+03  0.72464643653E+03  0.50400001928E-02 0.  1.
        1   -1    0    0  501    0  0.00000000000E+00  0.00000000000E+00 -0.41709879914E+03  0.41709879917E+03  0.50400001928E-02 0. -1.
    10030    2    1    2    0    0  0.00000000000E+00  0.00000000000E+00  0.30754763737E+03  0.11417452357E+04  0.10995438300E+04 0.  0.
        2    1    3    3  502    0  0.42503592948E+03  0.18937370596E+02 -0.20777808976E+03  0.47348273458E+03  0.25500000920E-02 0. -1.
       -2    1    3    3    0  502 -0.42503592948E+03 -0.18937370596E+02  0.51532572712E+03  0.66826250112E+03  0.25500000920E-02 0.  1.
</event>
<event>
 5   0  0.3642161E-04  0.1097968E+04  0.7818609E-02  0.9207175E-01
       -1   -1    0    0    0  501  0.00000000000E+00  0.00000000000E+00  0.26173375914E+03  0.26173375918E+03  0.50400001928E-02 0.  1.
        1   -1    0    0  501    0  0.00000000000E+00  0.00000000000E+00 -0.11514887473E+04  0.11514887473E+04  0.50400001928E-02 0. -1.
    10030    2    1    2    0    0  0.00000000000E+00  0.00000000000E+00 -0.88975498819E+03  0.14132225065E+04  0.10979680842E+04 0.  0.
        2    1    3    3  502    0 -0.49836900843E+03 -0.69418261787E+02 -0.72743862902E+03  0.88450976401E+03  0.25500000920E-02 0. -1.
       -2    1    3    3    0  502  0.49836900843E+03  0.69418261787E+02 -0.16231635917E+03  0.52871274251E+03  0.25500000920E-02 0.  1.
</event>
<event>
 5   0  0.6412712E-04  0.1098643E+04  0.7818609E-02  0.9206515E-01
        2   -1    0    0  501    0  0.00000000000E+00  0.00000000000E+00  0.61853559820E+03  0.61853559821E+03  0.25500000920E-02 0.  1.
       -2   -1    0    0    0  501  0.00000000000E+00  0.00000000000E+00 -0.48785287913E+03  0.48785287914E+03  0.25500000920E-02 0. -1.
    10030    2    1    2    0    0  0.00000000000E+00  0.00000000000E+00  0.13068271907E+03  0.11063884773E+04  0.10986434771E+04 0.  0.
        2    1    3    3  502    0 -0.24131895481E+03  0.46098368061E+03 -0.11200685395E+03  0.53224649090E+03  0.25500000920E-02 0. -1.
       -2    1    3    3    0  502  0.24131895481E+03 -0.46098368061E+03  0.24268957302E+03  0.57414198644E+03  0.25500000920E-02 0.  1.
</event>
<event>
 5   0  0.3423758E-04  0.1100362E+04  0.7818609E-02  0.9204839E-01
       -1   -1    0    0    0  501  0.00000000000E+00  0.00000000000E+00  0.32887961121E+03  0.32887961125E+03  0.50400001928E-02 0. -1.
        1   -1    0    0  501    0  0.00000000000E+00  0.00000000000E+00 -0.92039577805E+03  0.92039577807E+03  0.50400001928E-02 0.  1.
    10030    2    1    2    0    0  0.00000000000E+00  0.00000000000E+00 -0.59151616684E+03  0.12492753893E+04  0.11003624961E+04 0.  0.
        1    1    3    3  502    0  0.61514363635E+02 -0.46519849187E+03 -0.62186838486E+03  0.77904681624E+03  0.50400001928E-02 0.  1.
       -1    1    3    3    0  502 -0.61514363635E+02  0.46519849187E+03  0.30352218026E+02  0.47022857308E+03  0.50400001928E-02 0. -1.
</event>
<event>
 5   0  0.3642161E-04  0.1100151E+04  0.7818609E-02  0.9205044E-01
        1   -1    0    0  501    0  0.00000000000E+00  0.00000000000E+00  0.89382035364E+03  0.89382035365E+03  0.50400001928E-02 0.  1.
       -1   -1    0    0    0  501  0.00000000000E+00  0.00000000000E+00 -0.33852812616E+03  0.33852812620E+03  0.50400001928E-02 0. -1.
    10030    2    1    2    0    0  0.00000000000E+00  0.00000000000E+00  0.55529222747E+03  0.12323484799E+04  0.11001514977E+04 0.  0.
        2    1    3    3  502    0 -0.44160332905E+03 -0.32297556293E+03  0.34157015863E+03  0.64497820720E+03  0.25500000920E-02 0. -1.
       -2    1    3    3    0  502  0.44160332905E+03  0.32297556293E+03  0.21372206884E+03  0.58737027266E+03  0.25500000920E-02 0.  1.
</event>
<event>
 5   0  0.3621403E-04  0.1100486E+04  0.7818609E-02  0.9204718E-01
        1   -1    0    0  501    0  0.00000000000E+00  0.00000000000E+00  0.13192658174E+04  0.13192658174E+04  0.50400001928E-02 0. -1.
       -1   -1    0    0    0  501  0.00000000000E+00  0.00000000000E+00 -0.22949697686E+03  0.22949697692E+03  0.50400001928E-02 0.  1.
    10030    2    1    2    0    0  0.00000000000E+00  0.00000000000E+00  0.10897688406E+04  0.15487627944E+04  0.11004862867E+04 0.  0.
        3    1    3    3  502    0  0.32596568417E+03  0.24815011122E+01  0.11687486452E+04  0.12133561682E+04  0.10100000352E+00 0. -1.
       -3    1    3    3    0  502 -0.32596568417E+03 -0.24815011122E+01 -0.78979804641E+02  0.33540662612E+03  0.10100000352E+00 0.  1.
</event>
<event>
 5   0  0.3657529E-04  0.1100068E+04  0.7818609E-02  0.9205126E-01
       -1   -1    0    0    0  501  0.00000000000E+00  0.00000000000E+00  0.85297637768E+03  0.85297637769E+03  0.50400001928E-02 0. -1.
        1   -1    0    0  501    0  0.00000000000E+00  0.00000000000E+00 -0.35468422671E+03  0.35468422674E+03  0.50400001928E-02 0.  1.
    10030    2    1    2    0    0  0.00000000000E+00  0.00000000000E+00  0.49829215097E+03  0.12076606044E+04  0.11000677560E+04 0.  0.
        4    1    3    3  502    0  0.17981411137E+03  0.49627558525E+01  0.81977053460E+03  0.83927533378E+03  0.12699999809E+01 0. -1.
       -4    1    3    3    0  502 -0.17981411137E+03 -0.49627558525E+01 -0.32147838363E+03  0.36838527065E+03  0.12699999809E+01 0.  1.
</event>
<event>
 5   0  0.6264830E-04  0.1109082E+04  0.7818609E-02  0.9196385E-01
       -2   -1    0    0    0  501  0.00000000000E+00  0.00000000000E+00  0.30573538556E+03  0.30573538557E+03  0.25500000920E-02 0.  1.
        2   -1    0    0  501    0  0.00000000000E+00  0.00000000000E+00 -0.10058235799E+04  0.10058235799E+04  0.25500000920E-02 0. -1.
    10030    2    1    2    0    0  0.00000000000E+00  0.00000000000E+00 -0.70008819433E+03  0.13115589655E+04  0.11090822512E+04 0.  0.
        4    1    3    3  502    0 -0.43937852247E+03 -0.63365405604E+02  0.42961058785E+02  0.44599991716E+03  0.12699999809E+01 0.  1.
       -4    1    3    3    0  502  0.43937852247E+03  0.63365405604E+02 -0.74304925311E+03  0.86555904830E+03  0.12699999809E+01 0. -1.
</event>
<event>
 5   0  0.6412712E-04  0.1100071E+04  0.7818609E-02  0.9205123E-01
       -2   -1    0    0    0  501  0.00000000000E+00  0.00000000000E+00  0.12981691012E+03  0.12981691014E+03  0.25500000920E-02 0.  1.
        2   -1    0    0  501    0  0.00000000000E+00  0.00000000000E+00 -0.23305043394E+04  0.23305043394E+04  0.25500000920E-02 0. -1.
    10030    2    1    2    0    0  0.00000000000E+00  0.00000000000E+00 -0.22006874293E+04  0.24603212496E+04  0.11000706748E+04 0.  0.
        2    1    3    3  502    0 -0.20095138658E+03 -0.50862150494E+03 -0.96875814991E+03  0.11124610771E+04  0.25500000920E-02 0.  1.
       -2    1    3    3    0  502  0.20095138658E+03  0.50862150494E+03 -0.12319292794E+04  0.13478601725E+04  0.25500000920E-02 0. -1.
</event>
<event>
 5   0  0.6245176E-04  0.1098701E+04  0.7818609E-02  0.9206459E-01
       -2   -1    0    0    0  501  0.00000000000E+00  0.00000000000E+00  0.20184777713E+03  0.20184777715E+03  0.25500000920E-02 0. -1.
        2   -1    0    0  501    0  0.00000000000E+00  0.00000000000E+00 -0.14951163821E+04  0.14951163821E+04  0.25500000920E-02 0.  1.
    10030    2    1    2    0    0  0.00000000000E+00  0.00000000000E+00 -0.12932686049E+04  0.16969641592E+04  0.10987009025E+04 0.  0.
        5    1    3    3  502    0 -0.37902099796E+03  0.37814378106E+03 -0.45675148833E+03  0.70377101968E+03  0.46999998093E+01 0.  1.
       -5    1    3    3    0  502  0.37902099796E+03 -0.37814378106E+03 -0.83651711662E+03  0.99319313955E+03  0.46999998093E+01 0. -1.
</event>
<event>
 5   0  0.5948818E-04  0.1104563E+04  0.7818609E-02  0.9200756E-01
        2   -1    0    0  501    0  0.00000000000E+00  0.00000000000E+00  0.43351481637E+03  0.43351481638E+03  0.25500000920E-02 0.  1.
       -2   -1    0    0    0  501  0.00000000000E+00  0.00000000000E+00 -0.70358619814E+03  0.70358619814E+03  0.25500000920E-02 0. -1.
    10030    2    1    2    0    0  0.00000000000E+00  0.00000000000E+00 -0.27007138177E+03  0.11371010145E+04  0.11045633372E+04 0.  0.
        3    1    3    3  502    0  0.49934137682E+03  0.97290710699E+02 -0.35632772406E+03  0.62110929000E+03  0.10100000352E+00 0. -1.
       -3    1    3    3    0  502 -0.49934137682E+03 -0.97290710699E+02  0.86256342293E+02  0.51599172452E+03  0.10100000352E+00 0.  1.
</event>
<event>
 5   0  0.6109149E-04  0.1098868E+04  0.7818609E-02  0.9206296E-01
       -2   -1    0    0    0  501  0.00000000000E+00  0.00000000000E+00  0.46379199421E+03  0.46379199421E+03  0.25500000920E-02 0.  1.
        2   -1    0    0  501    0  0.00000000000E+00  0.00000000000E+00 -0.65089023010E+03  0.65089023011E+03  0.25500000920E-02 0. -1.
    10030    2    1    2    0    0  0.00000000000E+00  0.00000000000E+00 -0.18709823590E+03  0.11146822243E+04  0.10988679226E+04 0.  0.
        1    1    3    3  502    0 -0.34809744527E+00 -0.44779420457E+02  0.46193775267E+03  0.46410322670E+03  0.50400001928E-02 0.  1.
       -1    1    3    3    0  502  0.34809744527E+00  0.44779420457E+02 -0.64903598857E+03  0.65057899762E+03  0.50400001928E-02 0. -1.
</event>
<event>
 5   0  0.3621403E-04  0.1098419E+04  0.7818609E-02  0.9206735E-01
       -1   -1    0    0    0  501  0.00000000000E+00  0.00000000000E+00  0.26794804819E+03  0.26794804824E+03  0.50400001928E-02 0. -1.
        1   -1    0    0  501    0  0.00000000000E+00  0.00000000000E+00 -0.11257065545E+04  0.11257065545E+04  0.50400001928E-02 0.  1.
    10030    2    1    2    0    0  0.00000000000E+00  0.00000000000E+00 -0.85775850635E+03  0.13936546028E+04  0.10984186345E+04 0.  0.
        3    1    3    3  502    0 -0.22835502509E+03 -0.44044705288E+02 -0.10601479617E+04  0.10853569295E+04  0.10100000352E+00 0.  1.
       -3    1    3    3    0  502  0.22835502509E+03  0.44044705288E+02  0.20238945531E+03  0.30829767331E+03  0.10100000352E+00 0. -1.
</event>
<event>
 5   0  0.3621403E-04  0.1100836E+04  0.7818609E-02  0.9204378E-01
        1   -1    0    0  501    0  0.00000000000E+00  0.00000000000E+00  0.61888428079E+03  0.61888428081E+03  0.50400001928E-02 0. -1.
       -1   -1    0    0    0  501  0.00000000000E+00  0.00000000000E+00 -0.48952595270E+03  0.48952595272E+03  0.50400001928E-02 0.  1.
    10030    2    1    2    0    0  0.00000000000E+00  0.00000000000E+00  0.12935832810E+03  0.11084102335E+04  0.11008358955E+04 0.  0.
        3    1    3    3  502    0 -0.11156001703E+03 -0.42405214373E+03 -0.27031719058E+03  0.51510897074E+03  0.10100000352E+00 0.  1.
       -3    1    3    3    0  502  0.11156001703E+03  0.42405214373E+03  0.39967551868E+03  0.59330126280E+03  0.10100000352E+00 0. -1.
</event>
<event>
 5   0  0.6245176E-04  0.1099116E+04  0.7818609E-02  0.9206054E-01
        2   -1    0    0  501    0  0.00000000000E+00  0.00000000000E+00  0.26324253064E+03  0.26324253065E+03  0.25500000920E-02 0.  1.
       -2   -1    0    0    0  501  0.00000000000E+00  0.00000000000E+00 -0.11472846805E+04  0.11472846805E+04  0.25500000920E-02 0. -1.
    10030    2    1    2    0    0  0.00000000000E+00  0.00000000000E+00 -0.88404214991E+03  0.14105272112E+04  0.10991162317E+04 0.  0.
        5    1    3    3  502    0  0.36454311078E+03  0.35799556982E+03 -0.70168358281E+03  0.86800601842E+03  0.46999998093E+01 0.  1.
       -5    1    3    3    0  502 -0.36454311078E+03 -0.35799556982E+03 -0.18235856710E+03  0.54252119279E+03  0.46999998093E+01 0. -1.
</event>
<event>
 5   0  0.3657529E-04  0.1099002E+04  0.7818609E-02  0.9206165E-01
        1   -1    0    0  501    0  0.00000000000E+00  0.00000000000E+00  0.49026778542E+03  0.49026778544E+03  0.50400001928E-02 0.  1.
       -1   -1    0    0    0  501  0.00000000000E+00  0.00000000000E+00 -0.61589071771E+03  0.61589071773E+03  0.50400001928E-02 0. -1.
    10030    2    1    2    0    0  0.00000000000E+00  0.00000000000E+00 -0.12562293229E+03  0.11061585032E+04  0.10990020532E+04 0.  0.
        4    1    3    3  502    0  0.52095117554E+02  0.54681473940E+03 -0.47563399050E+02  0.55134757670E+03  0.12699999809E+01 0. -1.
       -4    1    3    3    0  502 -0.52095117554E+02 -0.54681473940E+03 -0.78059533237E+02  0.55481092647E+03  0.12699999809E+01 0.  1.
</event>
<event>
 5   0  0.6109149E-04  0.1098857E+04  0.7818609E-02  0.9206307E-01
        2   -1    0    0  501    0  0.00000000000E+00  0.00000000000E+00  0.44344984063E+03  0.44344984063E+03  0.25500000920E-02 0. -1.
       -2   -1    0    0    0  501  0.00000000000E+00  0.00000000000E+00 -0.68073471712E+03  0.68073471713E+03  0.25500000920E-02 0.  1.
    10030    2    1    2    0    0  0.00000000000E+00  0.00000000000E+00 -0.23728487650E+03  0.11241845578E+04  0.10988570459E+04 0.  0.
        1    1    3    3  502    0  0.48190688175E+02  0.53891611915E+03 -0.20949158658E+02  0.54147187663E+03  0.50400001928E-02 0. -1.
       -1    1    3    3    0  502 -0.48190688175E+02 -0.53891611915E+03 -0.21633571784E+03  0.58271268113E+03  0.50400001928E-02 0.  1.
</event>
<event>
 5   0  0.5948818E-04  0.1101103E+04  0.7818609E-02  0.9204117E-01
       -2   -1    0    0    0  501  0.00000000000E+00  0.00000000000E+00  0.78769080096E+03  0.78769080096E+03  0.25500000920E-02 0.  1.
        2   -1    0    0  501    0  0.00000000000E+00  0.00000000000E+00 -0.38480466908E+03  0.38480466909E+03  0.25500000920E-02 0. -1.
    10030    2    1    2    0    0  0.00000000000E+00  0.00000000000E+00  0.40288613187E+03  0.11724954701E+04  0.11011032613E+04 0.  0.
        3    1    3    3  502    0 -0.16105281547E+03 -0.34511364836E+03  0.62479531645E+03  0.73171759396E+03  0.10100000352E+00 0.  1.
       -3    1    3    3    0  502  0.16105281547E+03  0.34511364836E+03 -0.22190918457E+03  0.44077787609E+03  0.10100000352E+00 0. -1.
</event>
<event>
 5   0  0.2403875E-04  0.1101345E+04  0.7818609E-02  0.9203882E-01
        3   -1    0    0  501    0  0.00000000000E+00  0.00000000000E+00  0.31499767440E+03  0.31499769060E+03  0.10100000352E+00 0.  1.
       -3   -1    0    0    0  501  0.00000000000E+00  0.00000000000E+00 -0.96267371023E+03  0.96267371553E+03  0.10100000352E+00 0. -1.
    10030    2    1    2    0    0  0.00000000000E+00  0.00000000000E+00 -0.64767603582E+03  0.12776714061E+04  0.11013446212E+04 0.  0.
        5    1    3    3  502    0 -0.52476839377E+03  0.12536131734E+03 -0.45155762744E+03  0.70357921223E+03  0.46999998093E+01 0. -1.
       -5    1    3    3    0  502  0.52476839377E+03 -0.12536131734E+03 -0.19611840838E+03  0.57409219389E+03  0.46999998093E+01 0.  1.
</event>
<event>
 5   0  0.3423758E-04  0.1095304E+04  0.7818609E-02  0.9209781E-01
        1   -1    0    0  501    0  0.00000000000E+00  0.00000000000E+00  0.56264281198E+03  0.56264281200E+03  0.50400001928E-02 0.  1.
       -1   -1    0    0    0  501  0.00000000000E+00  0.00000000000E+00 -0.53306105680E+03  0.53306105682E+03  0.50400001928E-02 0. -1.
    10030    2    1    2    0    0  0.00000000000E+00  0.00000000000E+00  0.29581755180E+02  0.10957038688E+04  0.10953044727E+04 0.  0.
        1    1    3    3  502    0  0.15917679705E+03  0.43766297269E+03  0.30305709200E+03  0.55563453044E+03  0.50400001928E-02 0.  1.
       -1    1    3    3    0  502 -0.15917679705E+03 -0.43766297269E+03 -0.27347533682E+03  0.54006933838E+03  0.50400001928E-02 0. -1.
</event>
<event>
 5   0  0.5948818E-04  0.1098214E+04  0.7818609E-02  0.9206934E-01
       -2   -1    0    0    0  501  0.00000000000E+00  0.00000000000E+00  0.30166831503E+03  0.30166831504E+03  0.25500000920E-02 0. -1.
        2   -1    0    0  501    0  0.00000000000E+00  0.00000000000E+00 -0.99950333523E+03  0.99950333524E+03  0.25500000920E-02 0.  1.
    10030    2    1    2    0    0  0.00000000000E+00  0.00000000000E+00 -0.69783502020E+03  0.13011716503E+04  0.10982139810E+04 0.  0.
        3    1    3    3  502    0 -0.38253386388E+03  0.32236266866E+03 -0.61718835611E+03  0.79446291561E+03  0.10100000352E+00 0. -1.
       -3    1    3    3    0  502  0.38253386388E+03 -0.32236266866E+03 -0.80646664085E+02  0.50670873467E+03  0.10100000352E+00 0.  1.
</event>
<event>
 5   0  0.6109149E-04  0.1101511E+04  0.7818609E-02  0.9203720E-01
        2   -1    0    0  501    0  0.00000000000E+00  0.00000000000E+00  0.73350142033E+03  0.73350142033E+03  0.25500000920E-02 0. -1.
       -2   -1    0    0    0  501  0.00000000000E+00  0.00000000000E+00 -0.41353919425E+03  0.41353919426E+03  0.25500000920E-02 0.  1.
    10030    2    1    2    0    0  0.00000000000E+00  0.00000000000E+00  0.31996222607E+03  0.11470406146E+04  0.11015109375E+04 0.  0.
        1    1    3    3  502    0  0.48277644843E+02  0.10502360468E+03 -0.40076618356E+03  0.41710217266E+03  0.50400001928E-02 0.  1.
       -1    1    3    3    0  502 -0.48277644843E+02 -0.10502360468E+03  0.72072840963E+03  0.72993844193E+03  0.50400001928E-02 0. -1.
</event>
<event>
 5   0  0.3642161E-04  0.1099038E+04  0.7818609E-02  0.9206130E-01
        1   -1    0    0  501    0  0.00000000000E+00  0.00000000000E+00  0.61597792167E+03  0.61597792169E+03  0.50400001928E-02 0. -1.
       -1   -1    0    0    0  501  0.00000000000E+00  0.00000000000E+00 -0.49023055568E+03  0.49023055571E+03  0.50400001928E-02 0.  1.
    10030    2    1    2    0    0  0.00000000000E+00  0.00000000000E+00  0.12574736599E+03  0.11062084774E+04  0.10990381228E+04 0.  0.
        2    1    3    3  502    0  0.29462360979E+02  0.50785039515E+03  0.27205436767E+03  0.57688268612E+03  0.25500000920E-02 0. -1.
       -2    1    3    3    0  502 -0.29462360979E+02 -0.50785039515E+03 -0.14630700168E+03  0.52932579128E+03  0.25500000920E-02 0.  1.
</event>
<event>
 5   0  0.6264830E-04  0.1100810E+04  0.7818609E-02  0.9204403E-01
        2   -1    0    0  501    0  0.00000000000E+00  0.00000000000E+00  0.63452616772E+03  0.63452616773E+03  0.25500000920E-02 0. -1.
       -2   -1    0    0    0  501  0.00000000000E+00  0.00000000000E+00 -0.47743575778E+03  0.47743575778E+03  0.25500000920E-02 0.  1.
    10030    2    1    2    0    0  0.00000000000E+00  0.00000000000E+00  0.15709040995E+03  0.11119619255E+04  0.11008096688E+04 0.  0.
        4    1    3    3  502    0 -0.26844153572E+03 -0.22511686722E+03  0.50735193220E+03  0.61655985761E+03  0.12699999809E+01 0. -1.
       -4    1    3    3    0  502  0.26844153572E+03  0.22511686722E+03 -0.35026152226E+03  0.49540206790E+03  0.12699999809E+01 0.  1.
</event>
<event>
 5   0  0.6412712E-04  0.1101173E+04  0.7818609E-02  0.9204049E-01
        2   -1    0    0  501    0  0.00000000000E+00  0.00000000000E+00  0.92764345916E+03  0.92764345916E+03  0.25500000920E-02 0. -1.
       -2   -1    0    0    0  501  0.00000000000E+00  0.00000000000E+00 -0.32679089129E+03  0.32679089130E+03  0.25500000920E-02 0.  1.
    10030    2    1    2    0    0  0.00000000000E+00  0.00000000000E+00  0.60085256787E+03  0.12544343505E+04  0.11011728889E+04 0.  0.
        2    1    3    3  502    0  0.39675131877E+03 -0.25082305039E+03  0.62826805810E+03  0.78424776977E+03  0.25500000920E-02 0. -1.
       -2    1    3    3    0  502 -0.39675131877E+03  0.25082305039E+03 -0.27415490226E+02  0.47018658069E+03  0.25500000920E-02 0.  1.
</event>
<event>
 5   0  0.3621403E-04  0.1099913E+04  0.7818609E-02  0.9205277E-01
        1   -1    0    0  501    0  0.00000000000E+00  0.00000000000E+00  0.41576213938E+03  0.41576213941E+03  0.50400001928E-02 0.  1.
       -1   -1    0    0    0  501  0.00000000000E+00  0.00000000000E+00 -0.72746406385E+03  0.72746406386E+03  0.50400001928E-02 0. -1.
    10030    2    1    2    0    0  0.00000000000E+00  0.00000000000E+00 -0.31170192447E+03  0.11432262033E+04  0.10999127521E+04 0.  0.
        3    1    3    3  502    0 -0.22786146956E+03  0.16941583794E+03  0.33368377483E+03  0.43814089885E+03  0.10100000352E+00 0.  1.
       -3    1    3    3    0  502  0.22786146956E+03 -0.16941583794E+03 -0.64538569930E+03  0.70508530443E+03  0.10100000352E+00 0. -1.
</event>
<event>
 5   0  0.3657529E-04  0.1101637E+04  0.7818609E-02  0.9203598E-01
        1   -1    0    0  501    0  0.00000000000E+00  0.00000000000E+00  0.12231687995E+04  0.12231687995E+04  0.50400001928E-02 0.  1.
       -1   -1    0    0    0  501  0.00000000000E+00  0.00000000000E+00 -0.24804496151E+03  0.24804496156E+03  0.50400001928E-02 0. -1.
    10030    2    1    2    0    0  0.00000000000E+00  0.00000000000E+00  0.97512383800E+03  0.14712137611E+04  0.11016367057E+04 0.  0.
        4    1    3    3  502    0 -0.65010171839E+02 -0.25037731705E+03  0.11370009314E+04  0.11660565399E+04  0.12699999809E+01 0.  1.
       -4    1    3    3    0  502  0.65010171839E+02  0.25037731705E+03 -0.16187709343E+03  0.30515722114E+03  0.12699999809E+01 0. -1.
</event>
<event>
 5   0  0.3523525E-04  0.1096395E+04  0.7818609E-02  0.9208713E-01
       -1   -1    0    0    0  501  0.00000000000E+00  0.00000000000E+00  0.68348729863E+03  0.68348729865E+03  0.50400001928E-02 0. -1.
        1   -1    0    0  501    0  0.00000000000E+00  0.00000000000E+00 -0.43968689832E+03  0.43968689835E+03  0.50400001928E-02 0.  1.
    10030    2    1    2    0    0  0.00000000000E+00  0.00000000000E+00  0.24380040032E+03  0.11231741970E+04  0.10963948384E+04 0.  0.
        5    1    3    3  502    0 -0.51199535394E+03 -0.12057958475E+03  0.28000598036E+03  0.59590613166E+03  0.46999998093E+01 0.  1.
       -5    1    3    3    0  502  0.51199535394E+03  0.12057958475E+03 -0.36205580045E+02  0.52726806535E+03  0.46999998093E+01 0. -1.
</event>
<event>
 5   0  0.3657529E-04  0.1101873E+04  0.7818609E-02  0.9203368E-01
        1   -1    0    0  501    0  0.00000000000E+00  0.00000000000E+00  0.12561572331E+04  0.12561572331E+04  0.50400001928E-02 0. -1.
       -1   -1    0    0    0  501  0.00000000000E+00  0.00000000000E+00 -0.24163447935E+03  0.24163447941E+03  0.50400001928E-02 0.  1.
    10030    2    1    2    0    0  0.00000000000E+00  0.00000000000E+00  0.10145227538E+04  0.14977917126E+04  0.11018727677E+04 0.  0.
        4    1    3    3  502    0 -0.38969660665E+02 -0.47102525145E+03  0.89208394326E+03  0.10095537612E+04  0.12699999809E+01 0. -1.
       -4    1    3    3    0  502  0.38969660665E+02  0.47102525145E+03  0.12243881052E+03  0.48823795139E+03  0.12699999809E+01 0.  1.
</event>
<event>
 5   0  0.3423758E-04  0.1097193E+04  0.7818609E-02  0.9207932E-01
       -1   -1    0    0    0  501  0.00000000000E+00  0.00000000000E+00  0.38746184032E+03  0.38746184035E+03  0.50400001928E-02 0. -1.
        1   -1    0    0  501    0  0.00000000000E+00  0.00000000000E+00 -0.77674282058E+03  0.77674282060E+03  0.50400001928E-02 0.  1.
    10030    2    1    2    0    0  0.00000000000E+00  0.00000000000E+00 -0.38928098026E+03  0.11642046610E+04  0.10971931512E+04 0.  0.
        1    1    3    3  502    0 -0.48781417241E+03 -0.22175887141E+03 -0.31937232408E+03  0.62380954246E+03  0.50400001928E-02 0. -1.
       -1    1    3    3    0  502  0.48781417241E+03  0.22175887141E+03 -0.69908656178E+02  0.54039511849E+03  0.50400001928E-02 0.  1.
</event>
<event>
 5   0  0.6245176E-04  0.1070049E+04  0.7818609E-02  0.9234887E-01
        2   -1    0    0  501    0  0.00000000000E+00  0.00000000000E+00  0.79737828894E+03  0.79737828894E+03  0.25500000920E-02 0.  1.
       -2   -1    0    0    0  501  0.00000000000E+00  0.00000000000E+00 -0.35899014628E+03  0.35899014629E+03  0.25500000920E-02 0. -1.
    10030    2    1    2    0    0  0.00000000000E+00  0.00000000000E+00  0.43838814266E+03  0.11563684352E+04  0.10700485009E+04 0.  0.
        5    1    3    3  502    0  0.12980478733E+03  0.39532079631E+03 -0.14424036215E+03  0.44040343650E+03  0.46999998093E+01 0. -1.
       -5    1    3    3    0  502 -0.12980478733E+03 -0.39532079631E+03  0.58262850480E+03  0.71596499874E+03  0.46999998093E+01 0.  1.
</event>
<event>
 5   0  0.3657529E-04  0.1116585E+04  0.7818609E-02  0.9189176E-01
       -1   -1    0    0    0  501  0.00000000000E+00  0.00000000000E+00  0.24287218167E+03  0.24287218172E+03  0.50400001928E-02 0. -1.
        1   -1    0    0  501    0  0.00000000000E+00  0.00000000000E+00 -0.12833529744E+04  0.12833529744E+04  0.50400001928E-02 0.  1.
    10030    2    1    2    0    0  0.00000000000E+00  0.00000000000E+00 -0.10404807927E+04  0.15262251561E+04  0.11165853963E+04 0.  0.
        4    1    3    3  502    0  0.14430581198E+03  0.46445749461E+03 -0.89493235636E+03  0.10185531243E+04  0.12699999809E+01 0.  1.
       -4    1    3    3    0  502 -0.14430581198E+03 -0.46445749461E+03 -0.14554843637E+03  0.50767203182E+03  0.12699999809E+01 0. -1.
</event>
<event>
 5   0  0.2403875E-04  0.1102376E+04  0.7818609E-02  0.9202879E-01
       -4   -1    0    0    0  501  0.00000000000E+00  0.00000000000E+00  0.75518509502E+03  0.75518616290E+03  0.12699999809E+01 0. -1.
        4   -1    0    0  501    0  0.00000000000E+00  0.00000000000E+00 -0.40229386076E+03  0.40229586538E+03  0.12699999809E+01 0.  1.
    10030    2    1    2    0    0  0.00000000000E+00  0.00000000000E+00  0.35289123426E+03  0.11574820283E+04  0.11023758082E+04 0.  0.
        2    1    3    3  502    0  0.31373410018E+03  0.15998101284E+03 -0.26876080993E+03  0.44300720428E+03  0.25500000920E-02 0.  1.
       -2    1    3    3    0  502 -0.31373410018E+03 -0.15998101284E+03  0.62165204419E+03  0.71447482400E+03  0.25500000920E-02 0. -1.
</event>
<event>
 5   0  0.5948818E-04  0.1100364E+04  0.7818609E-02  0.9204837E-01
       -2   -1    0    0    0  501  0.00000000000E+00  0.00000000000E+00  0.12225683664E+03  0.12225683666E+03  0.25500000920E-02 0. -1.
        2   -1    0    0  501    0  0.00000000000E+00  0.00000000000E+00 -0.24759357459E+04  0.24759357459E+04  0.25500000920E-02 0.  1.
    10030    2    1    2    0    0  0.00000000000E+00  0.00000000000E+00 -0.23536789093E+04  0.25981925826E+04  0.11003637072E+04 0.  0.
        3    1    3    3  502    0 -0.33939736759E+03 -0.22035263197E+03 -0.29666060237E+03  0.50175031514E+03  0.10100000352E+00 0. -1.
       -3    1    3    3    0  502  0.33939736759E+03  0.22035263197E+03 -0.20570183069E+04  0.20964422674E+04  0.10100000352E+00 0.  1.
</event>
<event>
 5   0  0.5948818E-04  0.1094256E+04  0.7818609E-02  0.9210809E-01
       -2   -1    0    0    0  501  0.00000000000E+00  0.00000000000E+00  0.30131499873E+03  0.30131499874E+03  0.25500000920E-02 0. -1.
        2   -1    0    0  501    0  0.00000000000E+00  0.00000000000E+00 -0.99347513773E+03  0.99347513773E+03  0.25500000920E-02 0.  1.
    10030    2    1    2    0    0  0.00000000000E+00  0.00000000000E+00 -0.69216013901E+03  0.12947901365E+04  0.10942558382E+04 0.  0.
        3    1    3    3  502    0 -0.20338108109E+03  0.50157207768E+03 -0.44081882945E+03  0.69803987268E+03  0.10100000352E+00 0.  1.
       -3    1    3    3    0  502  0.20338108109E+03 -0.50157207768E+03 -0.25134130956E+03  0.59675026380E+03  0.10100000352E+00 0. -1.
</event>
<event>
 5   0  0.3523525E-04  0.1100286E+04  0.7818609E-02  0.9204913E-01
       -1   -1    0    0    0  501  0.00000000000E+00  0.00000000000E+00  0.63366102799E+03  0.63366102801E+03  0.50400001928E-02 0. -1.
        1   -1    0    0  501    0  0.00000000000E+00  0.00000000000E+00 -0.47763323037E+03  0.47763323040E+03  0.50400001928E-02 0.  1.
    10030    2    1    2    0    0  0.00000000000E+00  0.00000000000E+00  0.15602779762E+03  0.11112942584E+04  0.11002864423E+04 0.  0.
        5    1    3    3  502    0 -0.21951932583E+03 -0.34418523777E+03  0.45046223242E+03  0.60793957360E+03  0.46999998093E+01 0. -1.
       -5    1    3    3    0  502  0.21951932583E+03  0.34418523777E+03 -0.29443443480E+03  0.50335468480E+03  0.46999998093E+01 0.  1.
</event>
<event>
 5   0  0.6245176E-04  0.1100924E+04  0.7818609E-02  0.9204292E-01
        2   -1    0    0  501    0  0.00000000000E+00  0.00000000000E+00  0.70899895125E+03  0.70899895126E+03  0.25500000920E-02 0. -1.
       -2   -1    0    0    0  501  0.00000000000E+00  0.00000000000E+00 -0.42737494640E+03  0.42737494641E+03  0.25500000920E-02 0.  1.
    10030    2    1    2    0    0  0.00000000000E+00  0.00000000000E+00  0.28162400485E+03  0.11363738977E+04  0.11009239552E+04 0.  0.
        5    1    3    3  502    0 -0.79653678732E+02  0.97894345453E+02  0.69384236097E+03  0.70524274068E+03  0.46999998093E+01 0. -1.
       -5    1    3    3    0  502  0.79653678732E+02 -0.97894345453E+02 -0.41221835612E+03  0.43113115699E+03  0.46999998093E+01 0.  1.
</event>
<event>
 5   0  0.5948818E-04  0.1107495E+04  0.7818609E-02  0.9197918E-01
       -2   -1    0    0    0  501  0.00000000000E+00  0.00000000000E+00  0.10009129207E+04  0.10009129207E+04  0.25500000920E-02 0.  1.
        2   -1    0    0  501    0  0.00000000000E+00  0.00000000000E+00 -0.30635646269E+03  0.30635646270E+03  0.25500000920E-02 0. -1.
    10030    2    1    2    0    0  0.00000000000E+00  0.00000000000E+00  0.69455645803E+03  0.13072693834E+04  0.11074947257E+04 0.  0.
        3    1    3    3  502    0  0.20126565425E+03  0.38748484821E+03  0.74927449229E+03  0.86721660857E+03  0.10100000352E+00 0.  1.
       -3    1    3    3    0  502 -0.20126565425E+03 -0.38748484821E+03 -0.54718034261E+02  0.44005277485E+03  0.10100000352E+00 0. -1.
</event>
<event>
 5   0  0.3423758E-04  0.1099645E+04  0.7818609E-02  0.9205538E-01
        1   -1    0    0  501    0  0.00000000000E+00  0.00000000000E+00  0.77020630721E+03  0.77020630723E+03  0.50400001928E-02 0.  1.
       -1   -1    0    0    0  501  0.00000000000E+00  0.00000000000E+00 -0.39249851508E+03  0.39249851511E+03  0.50400001928E-02 0. -1.
    10030    2    1    2    0    0  0.00000000000E+00  0.00000000000E+00  0.37770779213E+03  0.11627048223E+04  0.10996450917E+04 0.  0.
        1    1    3    3  502    0  0.42509955155E+03  0.20223247897E+03  0.48921676297E+03  0.67892609721E+03  0.50400001928E-02 0.  1.
       -1    1    3    3    0  502 -0.42509955155E+03 -0.20223247897E+03 -0.11150897084E+03  0.48377872513E+03  0.50400001928E-02 0. -1.
</event>
<event>
 5   0  0.3621403E-04  0.1100421E+04  0.7818609E-02  0.9204782E-01
       -1   -1    0    0    0  501  0.00000000000E+00  0.00000000000E+00  0.69743129975E+03  0.69743129977E+03  0.50400001928E-02 0.  1.
        1   -1    0    0  501    0  0.00000000000E+00  0.00000000000E+00 -0.43406626721E+03  0.43406626724E+03  0.50400001928E-02 0. -1.
    10030    2    1    2    0    0  0.00000000000E+00  0.00000000000E+00  0.26336503253E+03  0.11314975670E+04  0.11004206486E+04 0.  0.
        3    1    3    3  502    0 -0.11455334608E+03  0.28019583545E+03  0.60411331572E+03  0.67571079889E+03  0.10100000352E+00 0.  1.
       -3    1    3    3    0  502  0.11455334608E+03 -0.28019583545E+03 -0.34074828319E+03  0.45578676812E+03  0.10100000352E+00 0. -1.
</event>
<event>
 5   0  0.3657529E-04  0.1099891E+04  0.7818609E-02  0.9205298E-01
        1   -1    0    0  501    0  0.00000000000E+00  0.00000000000E+00  0.67875747756E+03  0.67875747758E+03  0.50400001928E-02 0.  1.
       -1   -1    0    0    0  501  0.00000000000E+00  0.00000000000E+00 -0.44557913186E+03  0.44557913189E+03  0.50400001928E-02 0. -1.
    10030    2    1    2    0    0  0.00000000000E+00  0.00000000000E+00  0.23317834570E+03  0.11243366095E+04  0.10998912085E+04 0.  0.
        4    1    3    3  502    0 -0.14362623383E+03  0.32056057095E+03  0.54913783434E+03  0.65187540888E+03  0.12699999809E+01 0.  1.
       -4    1    3    3    0  502  0.14362623383E+03 -0.32056057095E+03 -0.31595948864E+03  0.47246120059E+03  0.12699999809E+01 0. -1.
</event>
<event>
 5   0  0.2403875E-04  0.1099770E+04  0.7818609E-02  0.9205416E-01
        3   -1    0    0  501    0  0.00000000000E+00  0.00000000000E+00  0.93512695687E+03  0.93512696232E+03  0.10100000352E+00 0. -1.
       -3   -1    0    0    0  501  0.00000000000E+00  0.00000000000E+00 -0.32335029957E+03  0.32335031534E+03  0.10100000352E+00 0.  1.
    10030    2    1    2    0    0  0.00000000000E+00  0.00000000000E+00  0.61177665730E+03  0.12584772777E+04  0.10997701487E+04 0.  0.
        5    1    3    3  502    0  0.40672816341E+03 -0.24072508979E+03  0.62746804356E+03  0.78556642205E+03  0.46999998093E+01 0. -1.
       -5    1    3    3    0  502 -0.40672816341E+03  0.24072508979E+03 -0.15691386262E+02  0.47291085562E+03  0.46999998093E+01 0.  1.
</event>
<event>
 5   0  0.6109149E-04  0.1099901E+04  0.7818609E-02  0.9205288E-01
       -2   -1    0    0    0  501  0.00000000000E+00  0.00000000000E+00  0.24979397292E+03  0.24979397293E+03  0.25500000920E-02 0.  1.
        2   -1    0    0  501    0  0.00000000000E+00  0.00000000000E+00 -0.12107810028E+04  0.12107810028E+04  0.25500000920E-02 0. -1.
    10030    2    1    2    0    0  0.00000000000E+00  0.00000000000E+00 -0.96098702984E+03  0.14605749757E+04  0.10999014447E+04 0.  0.
        1    1    3    3  502    0 -0.16103619954E+03  0.12758106316E+03 -0.11579071707E+04  0.11759926025E+04  0.50400001928E-02 0. -1.
       -1    1    3    3    0  502  0.16103619954E+03 -0.12758106316E+03  0.19692014083E+03  0.28458237319E+03  0.50400001928E-02 0.  1.
</event>
<event>
 5   0  0.6245176E-04  0.1101368E+04  0.7818609E-02  0.9203860E-01
        2   -1    0    0  501    0  0.00000000000E+00  0.00000000000E+00  0.14917872017E+04  0.14917872018E+04  0.25500000920E-02 0. -1.
       -2   -1    0    0    0  501  0.00000000000E+00  0.00000000000E+00 -0.20328159792E+03  0.20328159794E+03  0.25500000920E-02 0.  1.
    10030    2    1    2    0    0  0.00000000000E+00  0.00000000000E+00  0.12885056038E+04  0.16950687997E+04  0.11013680332E+04 0.  0.
        5    1    3    3  502    0 -0.61906198142E+02  0.21529412482E+03  0.14184566723E+04  0.14360450406E+04  0.46999998093E+01 0. -1.
       -5    1    3    3    0  502  0.61906198142E+02 -0.21529412482E+03 -0.12995106848E+03  0.25902375904E+03  0.46999998093E+01 0.  1.
</event>
<event>
 5   0  0.6412712E-04  0.1077083E+04  0.7818609E-02  0.9227820E-01
        2   -1    0    0  501    0  0.00000000000E+00  0.00000000000E+00  0.64350036388E+03  0.64350036388E+03  0.25500000920E-02 0. -1.
       -2   -1    0    0    0  501  0.00000000000E+00  0.00000000000E+00 -0.45070228955E+03  0.45070228955E+03  0.25500000920E-02 0.  1.
    10030    2    1    2    0    0  0.00000000000E+00  0.00000000000E+00  0.19279807433E+03  0.10942026534E+04  0.10770832602E+04 0.  0.
        2    1    3    3  502    0  0.43760930669E+03 -0.21918822921E+03 -0.13185343113E+03  0.50688333217E+03  0.25500000920E-02 0.  1.
       -2    1    3    3    0  502 -0.43760930669E+03  0.21918822921E+03  0.32465150547E+03  0.58731932127E+03  0.25500000920E-02 0. -1.
</event>
<event>
 5   0  0.5948818E-04  0.1100253E+04  0.7818609E-02  0.9204945E-01
        2   -1    0    0  501    0  0.00000000000E+00  0.00000000000E+00  0.91129970308E+03  0.91129970308E+03  0.25500000920E-02 0.  1.
       -2   -1    0    0    0  501  0.00000000000E+00  0.00000000000E+00 -0.33209621898E+03  0.33209621899E+03  0.25500000920E-02 0. -1.
    10030    2    1    2    0    0  0.00000000000E+00  0.00000000000E+00  0.57920348410E+03  0.12433959221E+04  0.11002530359E+04 0.  0.
        3    1    3    3  502    0 -0.14345823897E+03 -0.35352869565E+03  0.73749269699E+03  0.83033625315E+03  0.10100000352E+00 0.  1.
       -3    1    3    3    0  502  0.14345823897E+03  0.35352869565E+03 -0.15828921290E+03  0.41305966893E+03  0.10100000352E+00 0. -1.
</event>
<event>
 5   0  0.3642161E-04  0.1097341E+04  0.7818609E-02  0.9207788E-01
        1   -1    0    0  501    0  0.00000000000E+00  0.00000000000E+00  0.16964999193E+04  0.16964999193E+04  0.50400001928E-02 0.  1.
       -1   -1    0    0    0  501  0.00000000000E+00  0.00000000000E+00 -0.17744719533E+03  0.17744719540E+03  0.50400001928E-02 0. -1.
    10030    2    1    2    0    0  0.00000000000E+00  0.00000000000E+00  0.15190527240E+04  0.18739471147E+04  0.10973406994E+04 0.  0.
        2    1    3    3  502    0 -0.42635048654E+03 -0.84768086857E+02  0.18781403848E+03  0.47353403149E+03  0.25500000920E-02 0. -1.
       -2    1    3    3    0  502  0.42635048654E+03  0.84768086857E+02  0.13312386855E+04  0.14004130832E+04  0.25500000920E-02 0.  1.
</event>
<event>
 5   0  0.3423758E-04  0.1092623E+04  0.7818609E-02  0.9212412E-01
       -1   -1    0    0    0  501  0.00000000000E+00  0.00000000000E+00  0.37368627680E+03  0.37368627684E+03  0.50400001928E-02 0.  1.
        1   -1    0    0  501    0  0.00000000000E+00  0.00000000000E+00 -0.79868152666E+03  0.79868152668E+03  0.50400001928E-02 0. -1.
    10030    2    1    2    0    0  0.00000000000E+00  0.00000000000E+00 -0.42499524986E+03  0.11723678035E+04  0.10926231300E+04 0.  0.
        1    1    3    3  502    0 -0.24064982475E+02  0.34454660810E+03 -0.66666913014E+03  0.75082569059E+03  0.50400001928E-02 0. -1.
       -1    1    3    3    0  502  0.24064982475E+02 -0.34454660810E+03  0.24167388028E+03  0.42154211293E+03  0.50400001928E-02 0.  1.
</event>
<event>
 5   0  0.5948818E-04  0.1097060E+04  0.7818609E-02  0.9208062E-01
        2   -1    0    0  501    0  0.00000000000E+00  0.00000000000E+00  0.83894116775E+03  0.83894116776E+03  0.25500000920E-02 0.  1.
       -2   -1    0    0    0  501  0.00000000000E+00  0.00000000000E+00 -0.35864898987E+03  0.35864898988E+03  0.25500000920E-02 0. -1.
    10030    2    1    2    0    0  0.00000000000E+00  0.00000000000E+00  0.48029217789E+03  0.11975901576E+04  0.10970604402E+04 0.  0.
        3    1    3    3  502    0  0.49890395972E+03 -0.11470217622E+03  0.45523885260E+03  0.68505778835E+03  0.10100000352E+00 0.  1.
       -3    1    3    3    0  502 -0.49890395972E+03  0.11470217622E+03  0.25053325284E+02  0.51253236929E+03  0.10100000352E+00 0. -1.
</event>
<event>
 5   0  0.6245176E-04  0.1105284E+04  0.7818609E-02  0.9200057E-01
        2   -1    0    0  501    0  0.00000000000E+00  0.00000000000E+00  0.72817644033E+03  0.72817644034E+03  0.25500000920E-02 0.  1.
       -2   -1    0    0    0  501  0.00000000000E+00  0.00000000000E+00 -0.41942177698E+03  0.41942177699E+03  0.25500000920E-02 0. -1.
    10030    2    1    2    0    0  0.00000000000E+00  0.00000000000E+00  0.30875466335E+03  0.11475982173E+04  0.11052837764E+04 0.  0.
        5    1    3    3  502    0  0.54371913571E+03  0.57412554922E+02  0.23785603573E+03  0.59625857120E+03  0.46999998093E+01 0.  1.
       -5    1    3    3    0  502 -0.54371913571E+03 -0.57412554922E+02  0.70898627618E+02  0.55133964613E+03  0.46999998093E+01 0. -1.
</event>
<event>
 5   0  0.3621403E-04  0.1107256E+04  0.7818609E-02  0.9198148E-01
       -1   -1    0    0    0  501  0.00000000000E+00  0.00000000000E+00  0.18342053262E+03  0.18342053269E+03  0.50400001928E-02 0. -1.
        1   -1    0    0  501    0  0.00000000000E+00  0.00000000000E+00 -0.16710454535E+04  0.16710454535E+04  0.50400001928E-02 0.  1.
    10030    2    1    2    0    0  0.00000000000E+00  0.00000000000E+00 -0.14876249209E+04  0.18544659862E+04  0.11072561532E+04 0.  0.
        3    1    3    3  502    0  0.17070639509E+03 -0.18145580961E+03  0.84233376242E+02  0.26298698835E+03  0.10100000352E+00 0. -1.
       -3    1    3    3    0  502 -0.17070639509E+03  0.18145580961E+03 -0.15718582971E+04  0.15914789978E+04  0.10100000352E+00 0.  1.
</event>
<event>
 5   0  0.3642161E-04  0.1099015E+04  0.7818609E-02  0.9206153E-01
        1   -1    0    0  501    0  0.00000000000E+00  0.00000000000E+00  0.97142608124E+03  0.97142608125E+03  0.50400001928E-02 0. -1.
       -1   -1    0    0    0  501  0.00000000000E+00  0.00000000000E+00 -0.31084018414E+03  0.31084018419E+03  0.50400001928E-02 0.  1.
    10030    2    1    2    0    0  0.00000000000E+00  0.00000000000E+00  0.66058589709E+03  0.12822662654E+04  0.10990145804E+04 0.  0.
        2    1    3    3  502    0  0.19400876792E+03 -0.74960884709E+02  0.92372738816E+03  0.94685311633E+03  0.25500000920E-02 0. -1.
       -2    1    3    3    0  502 -0.19400876792E+03  0.74960884709E+02 -0.26314149106E+03  0.33541314911E+03  0.25500000920E-02 0.  1.
</event>
<event>
 5   0  0.3642161E-04  0.1098874E+04  0.7818609E-02  0.9206290E-01
        1   -1    0    0  501    0  0.00000000000E+00  0.00000000000E+00  0.16547394703E+04  0.16547394703E+04  0.50400001928E-02 0.  1.
       -1   -1    0    0    0  501  0.00000000000E+00  0.00000000000E+00 -0.18243429100E+03  0.18243429107E+03  0.50400001928E-02 0. -1.
    10030    2    1    2    0    0  0.00000000000E+00  0.00000000000E+00  0.14723051793E+04  0.18371737614E+04  0.10988743734E+04 0.  0.
        2    1    3    3  502    0 -0.36411886823E+03 -0.40972452236E+03  0.79925290629E+03  0.96915527272E+03  0.25500000920E-02 0.  1.
       -2    1    3    3    0  502  0.36411886823E+03  0.40972452236E+03  0.67305227300E+03  0.86801848864E+03  0.25500000920E-02 0. -1.
</event>
<event>
 5   0  0.6264830E-04  0.1099724E+04  0.7818609E-02  0.9205461E-01
       -2   -1    0    0    0  501  0.00000000000E+00  0.00000000000E+00  0.16513706164E+03  0.16513706166E+03  0.25500000920E-02 0.  1.
        2   -1    0    0  501    0  0.00000000000E+00  0.00000000000E+00 -0.18308927337E+04  0.18308927337E+04  0.25500000920E-02 0. -1.
    10030    2    1    2    0    0  0.00000000000E+00  0.00000000000E+00 -0.16657556721E+04  0.19960297954E+04  0.10997240495E+04 0.  0.
        4    1    3    3  502    0 -0.49548732844E+02  0.15582955869E+03  0.11998362612E+03  0.20281916015E+03  0.12699999809E+01 0.  1.
       -4    1    3    3    0  502  0.49548732844E+02 -0.15582955869E+03 -0.17857392982E+04  0.17932106352E+04  0.12699999809E+01 0. -1.
</event>
<event>
 5   0  0.3523525E-04  0.1101445E+04  0.7818609E-02  0.9203784E-01
       -1   -1    0    0    0  501  0.00000000000E+00  0.00000000000E+00  0.80406673318E+03  0.80406673320E+03  0.50400001928E-02 0.  1.
        1   -1    0    0  501    0  0.00000000000E+00  0.00000000000E+00 -0.37720175905E+03  0.37720175909E+03  0.50400001928E-02 0. -1.
    10030    2    1    2    0    0  0.00000000000E+00  0.00000000000E+00  0.42686497413E+03  0.11812684923E+04  0.11014452073E+04 0.  0.
        5    1    3    3  502    0  0.20056784267E+03  0.50834564297E+03  0.14045284520E+03  0.56426221206E+03  0.46999998093E+01 0.  1.
       -5    1    3    3    0  502 -0.20056784267E+03 -0.50834564297E+03  0.28641212893E+03  0.61700628022E+03  0.46999998093E+01 0. -1.
</event>
<event>
 5   0  0.6245176E-04  0.1105179E+04  0.7818609E-02  0.9200158E-01
        2   -1    0    0  501    0  0.00000000000E+00  0.00000000000E+00  0.13395003844E+04  0.13395003844E+04  0.25500000920E-02 0. -1.
       -2   -1    0    0    0  501  0.00000000000E+00  0.00000000000E+00 -0.22796217845E+03  0.22796217846E+03  0.25500000920E-02 0.  1.
    10030    2    1    2    0    0  0.00000000000E+00  0.00000000000E+00  0.11115382060E+04  0.15674625629E+04  0.11051794889E+04 0.  0.
        5    1    3    3  502    0  0.44583371572E+03  0.31488701296E+03  0.67787208914E+03  0.87031844300E+03  0.46999998093E+01 0.  1.
       -5    1    3    3    0  502 -0.44583371572E+03 -0.31488701296E+03  0.43366611683E+03  0.69714411988E+03  0.46999998093E+01 0. -1.
</event>
<event>
 5   0  0.3642161E-04  0.1098051E+04  0.7818609E-02  0.9207093E-01
        1   -1    0    0  501    0  0.00000000000E+00  0.00000000000E+00  0.41108851750E+03  0.41108851753E+03  0.50400001928E-02 0.  1.
       -1   -1    0    0    0  501  0.00000000000E+00  0.00000000000E+00 -0.73324649243E+03  0.73324649245E+03  0.50400001928E-02 0. -1.
    10030    2    1    2    0    0  0.00000000000E+00  0.00000000000E+00 -0.32215797493E+03  0.11443350100E+04  0.10980513896E+04 0.  0.
        2    1    3    3  502    0  0.17362392315E+03  0.16476353723E+03  0.35384989601E+03  0.42720257349E+03  0.25500000920E-02 0.  1.
       -2    1    3    3    0  502 -0.17362392315E+03 -0.16476353723E+03 -0.67600787093E+03  0.71713243648E+03  0.25500000920E-02 0. -1.
</event>
<event>
 5   0  0.6109149E-04  0.1067929E+04  0.7818609E-02  0.9237027E-01
       -2   -1    0    0    0  501  0.00000000000E+00  0.00000000000E+00  0.40996684330E+03  0.40996684331E+03  0.25500000920E-02 0. -1.
        2   -1    0    0  501    0  0.00000000000E+00  0.00000000000E+00 -0.69546615414E+03  0.69546615415E+03  0.25500000920E-02 0.  1.
    10030    2    1    2    0    0  0.00000000000E+00  0.00000000000E+00 -0.28549931084E+03  0.11054329975E+04  0.10679289561E+04 0.  0.
        1    1    3    3  502    0 -0.16920220173E+03 -0.43923340076E+03  0.11822072876E+03  0.48531588286E+03  0.50400001928E-02 0. -1.
       -1    1    3    3    0  502  0.16920220173E+03  0.43923340076E+03 -0.40372003961E+03  0.62011711460E+03  0.50400001928E-02 0.  1.
</event>
<event>
 5   0  0.3523525E-04  0.1114116E+04  0.7818609E-02  0.9191542E-01
        1   -1    0    0  501    0  0.00000000000E+00  0.00000000000E+00  0.80089979146E+03  0.80089979147E+03  0.50400001928E-02 0.  1.
       -1   -1    0    0    0  501  0.00000000000E+00  0.00000000000E+00 -0.38745611428E+03  0.38745611431E+03  0.50400001928E-02 0. -1.
    10030    2    1    2    0    0  0.00000000000E+00  0.00000000000E+00  0.41344367717E+03  0.11883559058E+04  0.11141158309E+04 0.  0.
        5    1    3    3  502    0 -0.11332647199E+03  0.54479119665E+03  0.17950497889E+03  0.58470887170E+03  0.46999998093E+01 0. -1.
       -5    1    3    3    0  502  0.11332647199E+03 -0.54479119665E+03  0.23393869828E+03  0.60364703408E+03  0.46999998093E+01 0.  1.
</event>
<event>
 5   0  0.2403875E-04  0.1101711E+04  0.7818609E-02  0.9203526E-01
        4   -1    0    0  501    0  0.00000000000E+00  0.00000000000E+00  0.64763903283E+03  0.64764027804E+03  0.12699999809E+01 0. -1.
       -4   -1    0    0    0  501  0.00000000000E+00  0.00000000000E+00 -0.46853297179E+03  0.46853469301E+03  0.12699999809E+01 0.  1.
    10030    2    1    2    0    0  0.00000000000E+00  0.00000000000E+00  0.17910606104E+03  0.11161749711E+04  0.11017112076E+04 0.  0.
        1    1    3    3  502    0  0.41383230992E+03  0.13203944070E+03 -0.25364234724E+03  0.50301693309E+03  0.50400001928E-02 0.  1.
       -1    1    3    3    0  502 -0.41383230992E+03 -0.13203944070E+03  0.43274840828E+03  0.61315803797E+03  0.50400001928E-02 0. -1.
</event>
<event>
 5   0  0.6412712E-04  0.1101724E+04  0.7818609E-02  0.9203513E-01
       -2   -1    0    0    0  501  0.00000000000E+00  0.00000000000E+00  0.56427756940E+03  0.56427756940E+03  0.25500000920E-02 0. -1.
        2   -1    0    0  501    0  0.00000000000E+00  0.00000000000E+00 -0.53776521326E+03  0.53776521327E+03  0.25500000920E-02 0.  1.
    10030    2    1    2    0    0  0.00000000000E+00  0.00000000000E+00  0.26512356136E+02  0.11020427827E+04  0.11017238265E+04 0.  0.
        2    1    3    3  502    0 -0.47863985993E+03 -0.16374917196E+03  0.23135356518E+03  0.55626826169E+03  0.25500000920E-02 0. -1.
       -2    1    3    3    0  502  0.47863985993E+03  0.16374917196E+03 -0.20484120904E+03  0.54577452099E+03  0.25500000920E-02 0.  1.
</event>
<event>
 5   0  0.6412712E-04  0.1100500E+04  0.7818609E-02  0.9204705E-01
        2   -1    0    0  501    0  0.00000000000E+00  0.00000000000E+00  0.10525343488E+04  0.10525343488E+04  0.25500000920E-02 0.  1.
       -2   -1    0    0    0  501  0.00000000000E+00  0.00000000000E+00 -0.28766295730E+03  0.28766295731E+03  0.25500000920E-02 0. -1.
    10030    2    1    2    0    0  0.00000000000E+00  0.00000000000E+00  0.76487139152E+03  0.13401973061E+04  0.11005001471E+04 0.  0.
        2    1    3    3  502    0  0.92701477324E+02  0.19125062026E+03 -0.23565982195E+03  0.31734195332E+03  0.25500000920E-02 0. -1.
       -2    1    3    3    0  502 -0.92701477324E+02 -0.19125062026E+03  0.10005312135E+04  0.10228553528E+04  0.25500000920E-02 0.  1.
</event>
<event>
 5   0  0.6264830E-04  0.1101912E+04  0.7818609E-02  0.9203330E-01
       -2   -1    0    0    0  501  0.00000000000E+00  0.00000000000E+00  0.38713639151E+03  0.38713639152E+03  0.25500000920E-02 0.  1.
        2   -1    0    0  501    0  0.00000000000E+00  0.00000000000E+00 -0.78409734651E+03  0.78409734651E+03  0.25500000920E-02 0. -1.
    10030    2    1    2    0    0  0.00000000000E+00  0.00000000000E+00 -0.39696095500E+03  0.11712337380E+04  0.11019121877E+04 0.  0.
        4    1    3    3  502    0  0.12927572568E+03  0.11838918592E+03  0.35670348444E+03  0.39745087911E+03  0.12699999809E+01 0.  1.
       -4    1    3    3    0  502 -0.12927572568E+03 -0.11838918592E+03 -0.75366443944E+03  0.77378285892E+03  0.12699999809E+01 0. -1.
</event>
<event>
 5   0  0.6412712E-04  0.1099537E+04  0.7818609E-02  0.9205643E-01
       -2   -1    0    0    0  501  0.00000000000E+00  0.00000000000E+00  0.24461520843E+03  0.24461520844E+03  0.25500000920E-02 0. -1.
        2   -1    0    0  501    0  0.00000000000E+00  0.00000000000E+00 -0.12355950603E+04  0.12355950603E+04  0.25500000920E-02 0.  1.
    10030    2    1    2    0    0  0.00000000000E+00  0.00000000000E+00 -0.99097985189E+03  0.14802102688E+04  0.10995368902E+04 0.  0.
        2    1    3    3  502    0  0.31823811400E+03  0.38441833010E+03 -0.18500653402E+03  0.53224089222E+03  0.25500000920E-02 0. -1.
       -2    1    3    3    0  502 -0.31823811400E+03 -0.38441833010E+03 -0.80597331787E+03  0.94796937653E+03  0.25500000920E-02 0.  1.
</event>
<event>
 5   0  0.6412712E-04  0.1100413E+04  0.7818609E-02  0.9204790E-01
       -2   -1    0    0    0  501  0.00000000000E+00  0.00000000000E+00  0.44417801014E+03  0.44417801015E+03  0.25500000920E-02 0.  1.
        2   -1    0    0  501    0  0.00000000000E+00  0.00000000000E+00 -0.68154448151E+03  0.68154448151E+03  0.25500000920E-02 0. -1.
    10030    2    1    2    0    0  0.00000000000E+00  0.00000000000E+00 -0.23736647137E+03  0.11257224917E+04  0.11004127800E+04 0.  0.
        2    1    3    3  502    0 -0.27044249277E+03  0.28529440341E+02  0.37062108560E+03  0.45968800284E+03  0.25500000920E-02 0.  1.
       -2    1    3    3    0  502  0.27044249277E+03 -0.28529440341E+02 -0.60798755696E+03  0.66603448882E+03  0.25500000920E-02 0. -1.
</event>
<event>
 5   0  0.5948818E-04  0.1100196E+04  0.7818609E-02  0.9205001E-01
        2   -1    0    0  501    0  0.00000000000E+00  0.00000000000E+00  0.75910628569E+03  0.75910628569E+03  0.25500000920E-02 0. -1.
       -2   -1    0    0    0  501  0.00000000000E+00  0.00000000000E+00 -0.39863658739E+03  0.39863658740E+03  0.25500000920E-02 0.  1.
    10030    2    1    2    0    0  0.00000000000E+00  0.00000000000E+00  0.36046969830E+03  0.11577428731E+04  0.11001955085E+04 0.  0.
        3    1    3    3  502    0 -0.29232030271E+03 -0.13174594509E+03  0.65060452107E+03  0.72532365635E+03  0.10100000352E+00 0. -1.
       -3    1    3    3    0  502  0.29232030271E+03  0.13174594509E+03 -0.29013482277E+03  0.43241921675E+03  0.10100000352E+00 0.  1.
</event>
<event>
 5   0  0.3657529E-04  0.1101467E+04  0.7818609E-02  0.9203763E-01
        1   -1    0    0  501    0  0.00000000000E+00  0.00000000000E+00  0.80361710591E+03  0.80361710593E+03  0.50400001928E-02 0.  1.
       -1   -1    0    0    0  501  0.00000000000E+00  0.00000000000E+00 -0.37742785231E+03  0.37742785234E+03  0.50400001928E-02 0. -1.
    10030    2    1    2    0    0  0.00000000000E+00  0.00000000000E+00  0.42618925360E+03  0.11810449583E+04  0.11014671641E+04 0.  0.
        4    1    3    3  502    0 -0.45141242466E+03 -0.20037885737E+03 -0.48192874335E+02  0.49623485333E+03  0.12699999809E+01 0. -1.
       -4    1    3    3    0  502  0.45141242466E+03  0.20037885737E+03  0.47438212794E+03  0.68481010494E+03  0.12699999809E+01 0.  1.
</event>
<event>
 5   0  0.3423758E-04  0.1099584E+04  0.7818609E-02  0.9205597E-01
        1   -1    0    0  501    0  0.00000000000E+00  0.00000000000E+00  0.11545116574E+04  0.11545116574E+04  0.50400001928E-02 0.  1.
       -1   -1    0    0    0  501  0.00000000000E+00  0.00000000000E+00 -0.26181755769E+03  0.26181755774E+03  0.50400001928E-02 0. -1.
    10030    2    1    2    0    0  0.00000000000E+00  0.00000000000E+00  0.89269409972E+03  0.14163292152E+04  0.10995843260E+04 0.  0.
        1    1    3    3  502    0  0.18223657040E+03  0.47991744093E+03  0.69987060170E+03  0.86795724367E+03  0.50400001928E-02 0.  1.
       -1    1    3    3    0  502 -0.18223657040E+03 -0.47991744093E+03  0.19282349803E+03  0.54837197149E+03  0.50400001928E-02 0. -1.
</event>
<event>
 5   0  0.3621403E-04  0.1093394E+04  0.7818609E-02  0.9211654E-01
       -1   -1    0    0    0  501  0.00000000000E+00  0.00000000000E+00  0.35480564573E+03  0.35480564577E+03  0.50400001928E-02 0. -1.
        1   -1    0    0  501    0  0.00000000000E+00  0.00000000000E+00 -0.84237020198E+03  0.84237020200E+03  0.50400001928E-02 0.  1.
    10030    2    1    2    0    0  0.00000000000E+00  0.00000000000E+00 -0.48756455625E+03  0.11971758478E+04  0.10933941714E+04 0.  0.
        3    1    3    3  502    0  0.49951889844E+03  0.22191931404E+02 -0.48582105526E+03  0.69716118627E+03  0.10100000352E+00 0.  1.
       -3    1    3    3    0  502 -0.49951889844E+03 -0.22191931404E+02 -0.17435009935E+01  0.50001466150E+03  0.10100000352E+00 0. -1.
</event>
<event>
 5   0  0.2403875E-04  0.1100992E+04  0.7818609E-02  0.9204225E-01
        3   -1    0    0  501    0  0.00000000000E+00  0.00000000000E+00  0.50585489338E+03  0.50585490346E+03  0.10100000352E+00 0.  1.
       -3   -1    0    0    0  501  0.00000000000E+00  0.00000000000E+00 -0.59907678601E+03  0.59907679453E+03  0.10100000352E+00 0. -1.
    10030    2    1    2    0    0  0.00000000000E+00  0.00000000000E+00 -0.93221892637E+02  0.11049316980E+04  0.11009921598E+04 0.  0.
        3    1    3    3  502    0 -0.61474274723E+02  0.76482737178E+02 -0.59022917539E+03  0.59833033119E+03  0.10100000352E+00 0. -1.
       -3    1    3    3    0  502  0.61474274723E+02 -0.76482737178E+02  0.49700728275E+03  0.50660136680E+03  0.10100000352E+00 0.  1.
</event>
<event>
 5   0  0.3642161E-04  0.1097102E+04  0.7818609E-02  0.9208022E-01
        1   -1    0    0  501    0  0.00000000000E+00  0.00000000000E+00  0.98742742970E+03  0.98742742971E+03  0.50400001928E-02 0. -1.
       -1   -1    0    0    0  501  0.00000000000E+00  0.00000000000E+00 -0.30473929365E+03  0.30473929369E+03  0.50400001928E-02 0.  1.
    10030    2    1    2    0    0  0.00000000000E+00  0.00000000000E+00  0.68268813605E+03  0.12921667234E+04  0.10971015222E+04 0.  0.
        2    1    3    3  502    0 -0.10341197830E+03  0.11878084741E+03  0.96022753216E+03  0.97305695645E+03  0.25500000920E-02 0. -1.
       -2    1    3    3    0  502  0.10341197830E+03 -0.11878084741E+03 -0.27753939611E+03  0.31910976696E+03  0.25500000920E-02 0.  1.
</event>
<event>
 5   0  0.3423758E-04  0.1099811E+04  0.7818609E-02  0.9205377E-01
       -1   -1    0    0    0  501  0.00000000000E+00  0.00000000000E+00  0.41877037786E+03  0.41877037789E+03  0.50400001928E-02 0. -1.
        1   -1    0    0  501    0  0.00000000000E+00  0.00000000000E+00 -0.72210404880E+03  0.72210404882E+03  0.50400001928E-02 0.  1.
    10030    2    1    2    0    0  0.00000000000E+00  0.00000000000E+00 -0.30333367095E+03  0.11408744267E+04  0.10998105026E+04 0.  0.
        1    1    3    3  502    0  0.34470226105E+03  0.32237208221E+03  0.14109829792E+03  0.49259733847E+03  0.50400001928E-02 0. -1.
       -1    1    3    3    0  502 -0.34470226105E+03 -0.32237208221E+03 -0.44443196887E+03  0.64827708824E+03  0.50400001928E-02 0.  1.
</event>
<event>
 5   0  0.6264830E-04  0.1100290E+04  0.7818609E-02  0.9204909E-01
       -2   -1    0    0    0  501  0.00000000000E+00  0.00000000000E+00  0.15711365806E+03  0.15711365808E+03  0.25500000920E-02 0.  1.
        2   -1    0    0  501    0  0.00000000000E+00  0.00000000000E+00 -0.19263734070E+04  0.19263734070E+04  0.25500000920E-02 0. -1.
    10030    2    1    2    0    0  0.00000000000E+00  0.00000000000E+00 -0.17692597489E+04  0.20834870650E+04  0.11002900941E+04 0.  0.
        4    1    3    3  502    0  0.28325594071E+02  0.34100192093E+03 -0.17003503490E+04  0.17344386907E+04  0.12699999809E+01 0. -1.
       -4    1    3    3    0  502 -0.28325594071E+02 -0.34100192093E+03 -0.68909399854E+02  0.34904837436E+03  0.12699999809E+01 0.  1.
</event>
<event>
 5   0  0.6264830E-04  0.1097792E+04  0.7818609E-02  0.9207347E-01
        2   -1    0    0  501    0  0.00000000000E+00  0.00000000000E+00  0.93820740923E+03  0.93820740923E+03  0.25500000920E-02 0.  1.
       -2   -1    0    0    0  501  0.00000000000E+00  0.00000000000E+00 -0.32113001872E+03  0.32113001873E+03  0.25500000920E-02 0. -1.
    10030    2    1    2    0    0  0.00000000000E+00  0.00000000000E+00  0.61707739051E+03  0.12593374280E+04  0.10977915338E+04 0.  0.
        4    1    3    3  502    0  0.76004177762E+02 -0.48398737146E+03  0.59247885318E+03  0.76879985376E+03  0.12699999809E+01 0.  1.
       -4    1    3    3    0  502 -0.76004177762E+02  0.48398737146E+03  0.24598537330E+02  0.49053757421E+03  0.12699999809E+01 0. -1.
</event>
<event>
 5   0  0.6412712E-04  0.1099754E+04  0.7818609E-02  0.9205432E-01
        2   -1    0    0  501    0  0.00000000000E+00  0.00000000000E+00  0.88441702298E+03  0.88441702299E+03  0.25500000920E-02 0.  1.
       -2   -1    0    0    0  501  0.00000000000E+00  0.00000000000E+00 -0.34188035662E+03  0.34188035663E+03  0.25500000920E-02 0. -1.
    10030    2    1    2    0    0  0.00000000000E+00  0.00000000000E+00  0.54253666636E+03  0.12262973796E+04  0.10997541675E+04 0.  0.
        2    1    3    3  502    0 -0.18571204945E+03 -0.48511122522E+03  0.70114374540E+02  0.52415445402E+03  0.25500000920E-02 0. -1.
       -2    1    3    3    0  502  0.18571204945E+03  0.48511122522E+03  0.47242229182E+03  0.70214292560E+03  0.25500000920E-02 0.  1.
</event>
<event>
 5   0  0.3523525E-04  0.1098835E+04  0.7818609E-02  0.9206328E-01
       -1   -1    0    0    0  501  0.00000000000E+00  0.00000000000E+00  0.27858846965E+03  0.27858846970E+03  0.50400001928E-02 0.  1.
        1   -1    0    0  501    0  0.00000000000E+00  0.00000000000E+00 -0.10835323815E+04  0.10835323815E+04  0.50400001928E-02 0. -1.
    10030    2    1    2    0    0  0.00000000000E+00  0.00000000000E+00 -0.80494391183E+03  0.13621208512E+04  0.10988350705E+04 0.  0.
        5    1    3    3  502    0  0.51367974222E+03 -0.19153043240E+03 -0.44693824409E+03  0.70733773272E+03  0.46999998093E+01 0. -1.
       -5    1    3    3    0  502 -0.51367974222E+03  0.19153043240E+03 -0.35800566774E+03  0.65478311847E+03  0.46999998093E+01 0.  1.
</event>
<event>
 5   0  0.3657529E-04  0.1099513E+04  0.7818609E-02  0.9205666E-01
        1   -1    0    0  501    0  0.00000000000E+00  0.00000000000E+00  0.13428199332E+04  0.13428199332E+04  0.50400001928E-02 0.  1.
       -1   -1    0    0    0  501  0.00000000000E+00  0.00000000000E+00 -0.22507288187E+03  0.22507288193E+03  0.50400001928E-02 0. -1.
    10030    2    1    2    0    0  0.00000000000E+00  0.00000000000E+00  0.11177470513E+04  0.15678928151E+04  0.10995132600E+04 0.  0.
        4    1    3    3  502    0 -0.38054010264E+03  0.14076171247E+02 -0.65479811244E+01  0.38085876289E+03  0.12699999809E+01 0. -1.
       -4    1    3    3    0  502  0.38054010264E+03 -0.14076171247E+02  0.11242950324E+04  0.11870340522E+04  0.12699999809E+01 0.  1.
</event>
<event>
 5   0  0.3621403E-04  0.1100561E+04  0.7818609E-02  0.9204646E-01
       -1   -1    0    0    0  501  0.00000000000E+00  0.00000000000E+00  0.55909790931E+03  0.55909790934E+03  0.50400001928E-02 0.  1.
        1   -1    0    0  501    0  0.00000000000E+00  0.00000000000E+00 -0.54160189341E+03  0.54160189343E+03  0.50400001928E-02 0. -1.
    10030    2    1    2    0    0  0.00000000000E+00  0.00000000000E+00  0.17496015904E+02  0.11006998028E+04  0.11005607413E+04 0.  0.
        3    1    3    3  502    0 -0.10676298270E+03 -0.45349223630E+03  0.30162444226E+03  0.55500527676E+03  0.10100000352E+00 0.  1.
       -3    1    3    3    0  502  0.10676298270E+03  0.45349223630E+03 -0.28412842636E+03  0.54569452601E+03  0.10100000352E+00 0. -1.
</event>
<event>
 5   0  0.2403875E-04  0.1103676E+04  0.7818609E-02  0.9201616E-01
       -3   -1    0    0    0  501  0.00000000000E+00  0.00000000000E+00  0.27992629657E+03  0.27992631480E+03  0.10100000352E+00 0.  1.
        3   -1    0    0  501    0  0.00000000000E+00  0.00000000000E+00 -0.10878771759E+04  0.10878771806E+04  0.10100000352E+00 0. -1.
    10030    2    1    2    0    0  0.00000000000E+00  0.00000000000E+00 -0.80795087937E+03  0.13678034954E+04  0.11036764828E+04 0.  0.
        1    1    3    3  502    0  0.54258394239E+03 -0.50685387399E+02 -0.29622550598E+03  0.62025470047E+03  0.50400001928E-02 0. -1.
       -1    1    3    3    0  502 -0.54258394239E+03  0.50685387399E+02 -0.51172537339E+03  0.74754879495E+03  0.50400001928E-02 0.  1.
</event>
<event>
 5   0  0.3657529E-04  0.1099235E+04  0.7818609E-02  0.9205937E-01
       -1   -1    0    0    0  501  0.00000000000E+00  0.00000000000E+00  0.34520605846E+03  0.34520605850E+03  0.50400001928E-02 0. -1.
        1   -1    0    0  501    0  0.00000000000E+00  0.00000000000E+00 -0.87507049264E+03  0.87507049266E+03  0.50400001928E-02 0.  1.
    10030    2    1    2    0    0  0.00000000000E+00  0.00000000000E+00 -0.52986443418E+03  0.12202765512E+04  0.10992354355E+04 0.  0.
        4    1    3    3  502    0 -0.11573666626E+03 -0.53147176628E+03 -0.35248923515E+03  0.64815699337E+03  0.12699999809E+01 0.  1.
       -4    1    3    3    0  502  0.11573666626E+03  0.53147176628E+03 -0.17737519903E+03  0.57211955778E+03  0.12699999809E+01 0. -1.
</event>
<event>
 5   0  0.3642161E-04  0.1100559E+04  0.7818609E-02  0.9204647E-01
       -1   -1    0    0    0  501  0.00000000000E+00  0.00000000000E+00  0.28669137194E+03  0.28669137198E+03  0.50400001928E-02 0.  1.
        1   -1    0    0  501    0  0.00000000000E+00  0.00000000000E+00 -0.10562144963E+04  0.10562144963E+04  0.50400001928E-02 0. -1.
    10030    2    1    2    0    0  0.00000000000E+00  0.00000000000E+00 -0.76952312436E+03  0.13429058683E+04  0.11005590998E+04 0.  0.
        2    1    3    3  502    0 -0.12638891633E+03  0.47573486715E+03 -0.68491610552E+03  0.84344999473E+03  0.25500000920E-02 0. -1.
       -2    1    3    3    0  502  0.12638891633E+03 -0.47573486715E+03 -0.84607018840E+02  0.49945587356E+03  0.25500000920E-02 0.  1.
</event>
<event>
 5   0  0.6109149E-04  0.1099288E+04  0.7818609E-02  0.9205887E-01
       -2   -1    0    0    0  501  0.00000000000E+00  0.00000000000E+00  0.41934034792E+03  0.41934034793E+03  0.25500000920E-02 0.  1.
        2   -1    0    0  501    0  0.00000000000E+00  0.00000000000E+00 -0.72043694522E+03  0.72043694522E+03  0.25500000920E-02 0. -1.
    10030    2    1    2    0    0  0.00000000000E+00  0.00000000000E+00 -0.30109659730E+03  0.11397772931E+04  0.10992875498E+04 0.  0.
        1    1    3    3  502    0  0.14632593763E+03 -0.73203273635E+02  0.39350567777E+03  0.42616512968E+03  0.50400001928E-02 0.  1.
       -1    1    3    3    0  502 -0.14632593763E+03  0.73203273635E+02 -0.69460227507E+03  0.71361216347E+03  0.50400001928E-02 0. -1.
</event>
<event>
 5   0  0.6412712E-04  0.1098816E+04  0.7818609E-02  0.9206346E-01
        2   -1    0    0  501    0  0.00000000000E+00  0.00000000000E+00  0.65153824610E+03  0.65153824610E+03  0.25500000920E-02 0. -1.
       -2   -1    0    0    0  501  0.00000000000E+00  0.00000000000E+00 -0.46328708671E+03  0.46328708671E+03  0.25500000920E-02 0.  1.
    10030    2    1    2    0    0  0.00000000000E+00  0.00000000000E+00  0.18825115939E+03  0.11148253328E+04  0.10988161919E+04 0.  0.
        2    1    3    3  502    0 -0.15538532297E+02 -0.44008285941E+03  0.42744659694E+03  0.61369777771E+03  0.25500000920E-02 0. -1.
       -2    1    3    3    0  502  0.15538532297E+02  0.44008285941E+03 -0.23919543755E+03  0.50112755510E+03  0.25500000920E-02 0.  1.
</event>
<event>
 5   0  0.5948818E-04  0.1098291E+04  0.7818609E-02  0.9206859E-01
        2   -1    0    0  501    0  0.00000000000E+00  0.00000000000E+00  0.45833265077E+03  0.45833265078E+03  0.25500000920E-02 0. -1.
       -2   -1    0    0    0  501  0.00000000000E+00  0.00000000000E+00 -0.65795185989E+03  0.65795185990E+03  0.25500000920E-02 0.  1.
    10030    2    1    2    0    0  0.00000000000E+00  0.00000000000E+00 -0.19961920912E+03  0.11162845107E+04  0.10982910726E+04 0.  0.
        3    1    3    3  502    0 -0.19004559132E+03 -0.99498505205E+02  0.41398541533E+03  0.46626303052E+03  0.10100000352E+00 0. -1.
       -3    1    3    3    0  502  0.19004559132E+03  0.99498505205E+02 -0.61360462445E+03  0.65002148016E+03  0.10100000352E+00 0.  1.
</event>
<event>
 5   0  0.6245176E-04  0.1098386E+04  0.7818609E-02  0.9206767E-01
        2   -1    0    0  501    0  0.00000000000E+00  0.00000000000E+00  0.16708585860E+04  0.16708585860E+04  0.25500000920E-02 0.  1.
       -2   -1    0    0    0  501  0.00000000000E+00  0.00000000000E+00 -0.18051370996E+03  0.18051370998E+03  0.25500000920E-02 0. -1.
    10030    2    1    2    0    0  0.00000000000E+00  0.00000000000E+00  0.14903448760E+04  0.18513722959E+04  0.10983858742E+04 0.  0.
        5    1    3    3  502    0 -0.14939831355E+03  0.74825008421E+02 -0.13659514183E+03  0.21586792431E+03  0.46999998093E+01 0. -1.
       -5    1    3    3    0  502  0.14939831355E+03 -0.74825008421E+02  0.16269400178E+04  0.16355043716E+04  0.46999998093E+01 0.  1.
</event>
<event>
 5   0  0.3523525E-04  0.1087217E+04  0.7818609E-02  0.9217742E-01
        1   -1    0    0  501    0  0.00000000000E+00  0.00000000000E+00  0.16228588450E+04  0.16228588450E+04  0.50400001928E-02 0. -1.
       -1   -1    0    0    0  501  0.00000000000E+00  0.00000000000E+00 -0.18209230080E+03  0.18209230087E+03  0.50400001928E-02 0.  1.
    10030    2    1    2    0    0  0.00000000000E+00  0.00000000000E+00  0.14407665442E+04  0.18049511459E+04  0.10872168156E+04 0.  0.
        5    1    3    3  502    0 -0.43533595741E+03 -0.14874634720E+02  0.18051455181E+03  0.47153604738E+03  0.46999998093E+01 0.  1.
       -5    1    3    3    0  502  0.43533595741E+03  0.14874634720E+02  0.12602519924E+04  0.13334150985E+04  0.46999998093E+01 0. -1.
</event>
<event>
 5   0  0.3642161E-04  0.1100876E+04  0.7818609E-02  0.9204339E-01
        1   -1    0    0  501    0  0.00000000000E+00  0.00000000000E+00  0.12049350761E+04  0.12049350761E+04  0.50400001928E-02 0. -1.
       -1   -1    0    0    0  501  0.00000000000E+00  0.00000000000E+00 -0.25145072659E+03  0.25145072665E+03  0.50400001928E-02 0.  1.
    10030    2    1    2    0    0  0.00000000000E+00  0.00000000000E+00  0.95348434948E+03  0.14563858027E+04  0.11008756522E+04 0.  0.
        2    1    3    3  502    0 -0.15097612003E+03  0.39039789230E+03  0.38464815435E+01  0.41859180422E+03  0.25500000920E-02 0.  1.
       -2    1    3    3    0  502  0.15097612003E+03 -0.39039789230E+03  0.94963786794E+03  0.10377939985E+04  0.25500000920E-02 0. -1.
</event>
<event>
 5   0  0.3523525E-04  0.1098927E+04  0.7818609E-02  0.9206239E-01
       -1   -1    0    0    0  501  0.00000000000E+00  0.00000000000E+00  0.31043675156E+03  0.31043675160E+03  0.50400001928E-02 0.  1.
        1   -1    0    0  501    0  0.00000000000E+00  0.00000000000E+00 -0.97253304375E+03  0.97253304376E+03  0.50400001928E-02 0. -1.
    10030    2    1    2    0    0  0.00000000000E+00  0.00000000000E+00 -0.66209629219E+03  0.12829697954E+04  0.10989267472E+04 0.  0.
        5    1    3    3  502    0 -0.37641875876E+03  0.38637694594E+03 -0.45299026759E+03  0.70441500469E+03  0.46999998093E+01 0.  1.
       -5    1    3    3    0  502  0.37641875876E+03 -0.38637694594E+03 -0.20910602460E+03  0.57855479068E+03  0.46999998093E+01 0. -1.
</event>
<event>
 5   0  0.6412712E-04  0.1106386E+04  0.7818609E-02  0.9198990E-01
       -2   -1    0    0    0  501  0.00000000000E+00  0.00000000000E+00  0.45399946105E+03  0.45399946106E+03  0.25500000920E-02 0. -1.
        2   -1    0    0  501    0  0.00000000000E+00  0.00000000000E+00 -0.67405957983E+03  0.67405957983E+03  0.25500000920E-02 0.  1.
    10030    2    1    2    0    0  0.00000000000E+00  0.00000000000E+00 -0.22006011878E+03  0.11280590409E+04  0.11063863448E+04 0.  0.
        2    1    3    3  502    0 -0.38522635540E+02 -0.52169560657E+03 -0.29347780649E+03  0.59981624042E+03  0.25500000920E-02 0.  1.
       -2    1    3    3    0  502  0.38522635540E+02  0.52169560657E+03  0.73417687707E+02  0.52824280046E+03  0.25500000920E-02 0. -1.
</event>
<event>
 5   0  0.6109149E-04  0.1091746E+04  0.7818609E-02  0.9213275E-01
        2   -1    0    0  501    0  0.00000000000E+00  0.00000000000E+00  0.97048337702E+03  0.97048337702E+03  0.25500000920E-02 0.  1.
       -2   -1    0    0    0  501  0.00000000000E+00  0.00000000000E+00 -0.30703992097E+03  0.30703992098E+03  0.25500000920E-02 0. -1.
    10030    2    1    2    0    0  0.00000000000E+00  0.00000000000E+00  0.66344345605E+03  0.12775232980E+04  0.10917456469E+04 0.  0.
        1    1    3    3  502    0 -0.19042234830E+03  0.50881485017E+03  0.26953849256E+03  0.60646864839E+03  0.50400001928E-02 0. -1.
       -1    1    3    3    0  502  0.19042234830E+03 -0.50881485017E+03  0.39390496349E+03  0.67105464962E+03  0.50400001928E-02 0.  1.
</event>
<event>
 5   0  0.6109149E-04  0.1100904E+04  0.7818609E-02  0.9204311E-01
       -2   -1    0    0    0  501  0.00000000000E+00  0.00000000000E+00  0.67130623089E+03  0.67130623089E+03  0.25500000920E-02 0. -1.
        2   -1    0    0  501    0  0.00000000000E+00  0.00000000000E+00 -0.45135534593E+03  0.45135534594E+03  0.25500000920E-02 0.  1.
    10030    2    1    2    0    0  0.00000000000E+00  0.00000000000E+00  0.21995088496E+03  0.11226615768E+04  0.11009044574E+04 0.  0.
        1    1    3    3  502    0  0.34219956339E+03 -0.68621243423E+02 -0.32409901589E+03  0.47628729603E+03  0.50400001928E-02 0.  1.
       -1    1    3    3    0  502 -0.34219956339E+03  0.68621243423E+02  0.54404990085E+03  0.64637428080E+03  0.50400001928E-02 0. -1.
</event>
<event>
 5   0  0.5948818E-04  0.1102159E+04  0.7818609E-02  0.9203090E-01
        2   -1    0    0  501    0  0.00000000000E+00  0.00000000000E+00  0.42373444214E+03  0.42373444214E+03  0.25500000920E-02 0. -1.
       -2   -1    0    0    0  501  0.00000000000E+00  0.00000000000E+00 -0.71669541215E+03  0.71669541216E+03  0.25500000920E-02 0.  1.
    10030    2    1    2    0    0  0.00000000000E+00  0.00000000000E+00 -0.29296097002E+03  0.11404298543E+04  0.11021588464E+04 0.  0.
        3    1    3    3  502    0 -0.22523408744E+03 -0.50002861491E+03 -0.20248485578E+03  0.58460169081E+03  0.10100000352E+00 0.  1.
       -3    1    3    3    0  502  0.22523408744E+03  0.50002861491E+03 -0.90476114232E+02  0.55582816349E+03  0.10100000352E+00 0. -1.
</event>
<event>
 5   0  0.3657529E-04  0.1097836E+04  0.7818609E-02  0.9207304E-01
        1   -1    0    0  501    0  0.00000000000E+00  0.00000000000E+00  0.38086686970E+03  0.38086686974E+03  0.50400001928E-02 0. -1.
       -1   -1    0    0    0  501  0.00000000000E+00  0.00000000000E+00 -0.79111864063E+03  0.79111864065E+03  0.50400001928E-02 0.  1.
    10030    2    1    2    0    0  0.00000000000E+00  0.00000000000E+00 -0.41025177093E+03  0.11719855104E+04  0.10978358352E+04 0.  0.
        4    1    3    3  502    0 -0.24223167080E+03  0.44888392175E+03 -0.42164562933E+03  0.66178516694E+03  0.12699999809E+01 0.  1.
       -4    1    3    3    0  502  0.24223167080E+03 -0.44888392175E+03  0.11393858400E+02  0.51020034345E+03  0.12699999809E+01 0. -1.
</event>
<event>
 5   0  0.5948818E-04  0.1095194E+04  0.7818609E-02  0.9209889E-01
        2   -1    0    0  501    0  0.00000000000E+00  0.00000000000E+00  0.26177798162E+03  0.26177798163E+03  0.25500000920E-02 0. -1.
       -2   -1    0    0    0  501  0.00000000000E+00  0.00000000000E+00 -0.11454845123E+04  0.11454845123E+04  0.25500000920E-02 0.  1.
    10030    2    1    2    0    0  0.00000000000E+00  0.00000000000E+00 -0.88370653064E+03  0.14072624939E+04  0.10951942724E+04 0.  0.
        3    1    3    3  502    0 -0.33553607407E+03 -0.31904472894E+03 -0.66155946541E+02  0.46770783138E+03  0.10100000352E+00 0. -1.
       -3    1    3    3    0  502  0.33553607407E+03  0.31904472894E+03 -0.81755058410E+03  0.93955466250E+03  0.10100000352E+00 0.  1.
</event>
<event>
 5   0  0.3642161E-04  0.1100843E+04  0.7818609E-02  0.9204371E-01
        1   -1    0    0  501    0  0.00000000000E+00  0.00000000000E+00  0.78741360006E+03  0.78741360008E+03  0.50400001928E-02 0.  1.
       -1   -1    0    0    0  501  0.00000000000E+00  0.00000000000E+00 -0.38475791507E+03  0.38475791510E+03  0.50400001928E-02 0. -1.
    10030    2    1    2    0    0  0.00000000000E+00  0.00000000000E+00  0.40265568499E+03  0.11721715152E+04  0.11008426138E+04 0.  0.
        2    1    3    3  502    0  0.61224026220E+02 -0.16086251209E+03 -0.35536587840E+03  0.39485445004E+03  0.25500000920E-02 0. -1.
       -2    1    3    3    0  502 -0.61224026220E+02  0.16086251209E+03  0.75802156339E+03  0.77731706514E+03  0.25500000920E-02 0.  1.
</event>
<event>
 5   0  0.6245176E-04  0.1103089E+04  0.7818609E-02  0.9202187E-01
        2   -1    0    0  501    0  0.00000000000E+00  0.00000000000E+00  0.76715867121E+03  0.76715867121E+03  0.25500000920E-02 0. -1.
       -2   -1    0    0    0  501  0.00000000000E+00  0.00000000000E+00 -0.39652968068E+03  0.39652968069E+03  0.25500000920E-02 0.  1.
    10030    2    1    2    0    0  0.00000000000E+00  0.00000000000E+00  0.37062899053E+03  0.11636883519E+04  0.11030887234E+04 0.  0.
        5    1    3    3  502    0  0.27780357423E+03  0.31356276422E+03  0.56374510461E+03  0.70237245528E+03  0.46999998093E+01 0. -1.
       -5    1    3    3    0  502 -0.27780357423E+03 -0.31356276422E+03 -0.19311611408E+03  0.46131589662E+03  0.46999998093E+01 0.  1.
</event>
<event>
 5   0  0.5948818E-04  0.1100743E+04  0.7818609E-02  0.9204468E-01
        2   -1    0    0  501    0  0.00000000000E+00  0.00000000000E+00  0.12141832284E+04  0.12141832284E+04  0.25500000920E-02 0. -1.
       -2   -1    0    0    0  501  0.00000000000E+00  0.00000000000E+00 -0.24947513919E+03  0.24947513920E+03  0.25500000920E-02 0.  1.
    10030    2    1    2    0    0  0.00000000000E+00  0.00000000000E+00  0.96470808921E+03  0.14636583676E+04  0.11007425311E+04 0.  0.
        3    1    3    3  502    0 -0.23774734618E+03  0.42591258882E+03  0.14338934528E+03  0.50841503564E+03  0.10100000352E+00 0.  1.
       -3    1    3    3    0  502  0.23774734618E+03 -0.42591258882E+03  0.82131874393E+03  0.95524333196E+03  0.10100000352E+00 0. -1.
</event>
<event>
 5   0  0.3642161E-04  0.1099615E+04  0.7818609E-02  0.9205568E-01
       -1   -1    0    0    0  501  0.00000000000E+00  0.00000000000E+00  0.44721125565E+03  0.44721125568E+03  0.50400001928E-02 0. -1.
        1   -1    0    0  501    0  0.00000000000E+00  0.00000000000E+00 -0.67594019318E+03  0.67594019320E+03  0.50400001928E-02 0.  1.
    10030    2    1    2    0    0  0.00000000000E+00  0.00000000000E+00 -0.22872893753E+03  0.11231514489E+04  0.10996145917E+04 0.  0.
        2    1    3    3  502    0  0.48678932866E+03 -0.62252949702E+02 -0.36755908569E+03  0.61313861543E+03  0.25500000920E-02 0.  1.
       -2    1    3    3    0  502 -0.48678932866E+03  0.62252949702E+02  0.13883014816E+03  0.51001283345E+03  0.25500000920E-02 0. -1.
</event>
<event>
 5   0  0.3642161E-04  0.1101059E+04  0.7818609E-02  0.9204160E-01
       -1   -1    0    0    0  501  0.00000000000E+00  0.00000000000E+00  0.90140740491E+03  0.90140740493E+03  0.50400001928E-02 0. -1.
        1   -1    0    0  501    0  0.00000000000E+00  0.00000000000E+00 -0.33623281900E+03  0.33623281903E+03  0.50400001928E-02 0.  1.
    10030    2    1    2    0    0  0.00000000000E+00  0.00000000000E+00  0.56517458592E+03  0.12376402240E+04  0.11010590408E+04 0.  0.
        2    1    3    3  502    0 -0.25796605819E+03 -0.17344519209E+02  0.82891890152E+03  0.86830516803E+03  0.25500000920E-02 0. -1.
       -2    1    3    3    0  502  0.25796605819E+03  0.17344519209E+02 -0.26374431560E+03  0.36933505593E+03  0.25500000920E-02 0.  1.
</event>
<event>
 5   0  0.2403875E-04  0.1098345E+04  0.7818609E-02  0.9206807E-01
        3   -1    0    0  501    0  0.00000000000E+00  0.00000000000E+00  0.19823198130E+04  0.19823198156E+04  0.10100000352E+00 0. -1.
       -3   -1    0    0    0  501  0.00000000000E+00  0.00000000000E+00 -0.15214001559E+03  0.15214004912E+03  0.10100000352E+00 0.  1.
    10030    2    1    2    0    0  0.00000000000E+00  0.00000000000E+00  0.18301797974E+04  0.21344598647E+04  0.10983445831E+04 0.  0.
        5    1    3    3  502    0 -0.24282490234E+03  0.86303191173E+02 -0.27292918462E+02  0.25918944307E+03  0.46999998093E+01 0.  1.
       -5    1    3    3    0  502  0.24282490234E+03 -0.86303191173E+02  0.18574727159E+04  0.18752704216E+04  0.46999998093E+01 0. -1.
</event>
<event>
 5   0  0.3523525E-04  0.1094148E+04  0.7818609E-02  0.9210915E-01
       -1   -1    0    0    0  501  0.00000000000E+00  0.00000000000E+00  0.16981653719E+03  0.16981653726E+03  0.50400001928E-02 0. -1.
        1   -1    0    0  501    0  0.00000000000E+00  0.00000000000E+00 -0.17624297793E+04  0.17624297793E+04  0.50400001928E-02 0.  1.
    10030    2    1    2    0    0  0.00000000000E+00  0.00000000000E+00 -0.15926132421E+04  0.19322463165E+04  0.10941475627E+04 0.  0.
        5    1    3    3  502    0 -0.37471672636E+03 -0.29743557852E+03 -0.12648319531E+04  0.13522952740E+04  0.46999998093E+01 0.  1.
       -5    1    3    3    0  502  0.37471672636E+03  0.29743557852E+03 -0.32778128898E+03  0.57995104258E+03  0.46999998093E+01 0. -1.
</event>
<event>
 5   0  0.6412712E-04  0.1099245E+04  0.7818609E-02  0.9205928E-01
        2   -1    0    0  501    0  0.00000000000E+00  0.00000000000E+00  0.13753588851E+04  0.13753588852E+04  0.25500000920E-02 0. -1.
       -2   -1    0    0    0  501  0.00000000000E+00  0.00000000000E+00 -0.21964070946E+03  0.21964070947E+03  0.25500000920E-02 0.  1.
    10030    2    1    2    0    0  0.00000000000E+00  0.00000000000E+00  0.11557181757E+04  0.15949995946E+04  0.10992448341E+04 0.  0.
        2    1    3    3  502    0 -0.25154342553E+03 -0.94769389615E+01 -0.13108397924E+03  0.28380788734E+03  0.25500000920E-02 0.  1.
       -2    1    3    3    0  502  0.25154342553E+03  0.94769389615E+01  0.12868021549E+04  0.13111917073E+04  0.25500000920E-02 0. -1.
</event>
<event>
 5   0  0.6412712E-04  0.1097995E+04  0.7818609E-02  0.9207148E-01
       -2   -1    0    0    0  501  0.00000000000E+00  0.00000000000E+00  0.13161401245E+03  0.13161401248E+03  0.25500000920E-02 0. -1.
        2   -1    0    0  501    0  0.00000000000E+00  0.00000000000E+00 -0.22900166427E+04  0.22900166427E+04  0.25500000920E-02 0.  1.
    10030    2    1    2    0    0  0.00000000000E+00  0.00000000000E+00 -0.21584026303E+04  0.24216306552E+04  0.10979950436E+04 0.  0.
        2    1    3    3  502    0 -0.29416269825E+03  0.45422974703E+03 -0.12830394082E+04  0.13924964916E+04  0.25500000920E-02 0.  1.
       -2    1    3    3    0  502  0.29416269825E+03 -0.45422974703E+03 -0.87536322209E+03  0.10291341636E+04  0.25500000920E-02 0. -1.
</event>
<event>
 5   0  0.3621403E-04  0.1100990E+04  0.7818609E-02  0.9204227E-01
       -1   -1    0    0    0  501  0.00000000000E+00  0.00000000000E+00  0.34886312772E+03  0.34886312776E+03  0.50400001928E-02 0. -1.
        1   -1    0    0  501    0  0.00000000000E+00  0.00000000000E+00 -0.86866397470E+03  0.86866397471E+03  0.50400001928E-02 0.  1.
    10030    2    1    2    0    0  0.00000000000E+00  0.00000000000E+00 -0.51980084698E+03  0.12175271025E+04  0.11009901565E+04 0.  0.
        3    1    3    3  502    0 -0.10716016933E+03 -0.17741807026E+03 -0.82386562750E+03  0.84953814272E+03  0.10100000352E+00 0.  1.
       -3    1    3    3    0  502  0.10716016933E+03  0.17741807026E+03  0.30406478053E+03  0.36798895976E+03  0.10100000352E+00 0. -1.
</event>
<event>
 5   0  0.6264830E-04  0.1103491E+04  0.7818609E-02  0.9201796E-01
       -2   -1    0    0    0  501  0.00000000000E+00  0.00000000000E+00  0.22382542798E+03  0.22382542800E+03  0.25500000920E-02 0. -1.
        2   -1    0    0  501    0  0.00000000000E+00  0.00000000000E+00 -0.13600928155E+04  0.13600928155E+04  0.25500000920E-02 0.  1.
    10030    2    1    2    0    0  0.00000000000E+00  0.00000000000E+00 -0.11362673875E+04  0.15839182435E+04  0.11034914708E+04 0.  0.
        4    1    3    3  502    0 -0.40351951031E+03  0.20062480881E+03 -0.11119115583E+03  0.46415880380E+03  0.12699999809E+01 0. -1.
       -4    1    3    3    0  502  0.40351951031E+03 -0.20062480881E+03 -0.10250762317E+04  0.11197594397E+04  0.12699999809E+01 0.  1.
</event>
<event>
 5   0  0.3423758E-04  0.1099243E+04  0.7818609E-02  0.9205930E-01
        1   -1    0    0  501    0  0.00000000000E+00  0.00000000000E+00  0.26604797954E+03  0.26604797958E+03  0.50400001928E-02 0.  1.
       -1   -1    0    0    0  501  0.00000000000E+00  0.00000000000E+00 -0.11354493914E+04  0.11354493914E+04  0.50400001928E-02 0. -1.
    10030    2    1    2    0    0  0.00000000000E+00  0.00000000000E+00 -0.86940141187E+03  0.14014973710E+04  0.10992434061E+04 0.  0.
        1    1    3    3  502    0 -0.30391918042E+03  0.12829689824E+03 -0.99518841819E+03  0.10484402463E+04  0.50400001928E-02 0. -1.
       -1    1    3    3    0  502  0.30391918042E+03 -0.12829689824E+03  0.12578700631E+03  0.35305712471E+03  0.50400001928E-02 0.  1.
</event>
<event>
 5   0  0.6412712E-04  0.1099583E+04  0.7818609E-02  0.9205598E-01
       -2   -1    0    0    0  501  0.00000000000E+00  0.00000000000E+00  0.24349287597E+03  0.24349287598E+03  0.25500000920E-02 0.  1.
        2   -1    0    0  501    0  0.00000000000E+00  0.00000000000E+00 -0.12413944805E+04  0.12413944805E+04  0.25500000920E-02 0. -1.
    10030    2    1    2    0    0  0.00000000000E+00  0.00000000000E+00 -0.99790160455E+03  0.14848873565E+04  0.10995830342E+04 0.  0.
        2    1    3    3  502    0 -0.39260984868E+03  0.25982372642E+03 -0.11552046431E+03  0.48476369478E+03  0.25500000920E-02 0.  1.
       -2    1    3    3    0  502  0.39260984868E+03 -0.25982372642E+03 -0.88238114024E+03  0.10001236617E+04  0.25500000920E-02 0. -1.
</event>
<event>
 5   0  0.3621403E-04  0.1100117E+04  0.7818609E-02  0.9205078E-01
        1   -1    0    0  501    0  0.00000000000E+00  0.00000000000E+00  0.17168229812E+04  0.17168229812E+04  0.50400001928E-02 0. -1.
       -1   -1    0    0    0  501  0.00000000000E+00  0.00000000000E+00 -0.17623488039E+03  0.17623488047E+03  0.50400001928E-02 0.  1.
    10030    2    1    2    0    0  0.00000000000E+00  0.00000000000E+00  0.15405881008E+04  0.18930578617E+04  0.11001165262E+04 0.  0.
        3    1    3    3  502    0 -0.21376863358E+03  0.17486582437E+03 -0.48278012992E+02  0.28036736967E+03  0.10100000352E+00 0.  1.
       -3    1    3    3    0  502  0.21376863358E+03 -0.17486582437E+03  0.15888661138E+04  0.16126904920E+04  0.10100000352E+00 0. -1.
</event>
<event>
 5   0  0.6109149E-04  0.1100275E+04  0.7818609E-02  0.9204924E-01
       -2   -1    0    0    0  501  0.00000000000E+00  0.00000000000E+00  0.30279777946E+03  0.30279777947E+03  0.25500000920E-02 0. -1.
        2   -1    0    0  501    0  0.00000000000E+00  0.00000000000E+00 -0.99951528251E+03  0.99951528251E+03  0.25500000920E-02 0.  1.
    10030    2    1    2    0    0  0.00000000000E+00  0.00000000000E+00 -0.69671750305E+03  0.13023130620E+04  0.11002745259E+04 0.  0.
        1    1    3    3  502    0  0.31839666281E+03  0.22909235642E+03 -0.80492421553E+03  0.89541204784E+03  0.50400001928E-02 0.  1.
       -1    1    3    3    0  502 -0.31839666281E+03 -0.22909235642E+03  0.10820671248E+03  0.40690101414E+03  0.50400001928E-02 0. -1.
</event>
<event>
 5   0  0.6245176E-04  0.1100238E+04  0.7818609E-02  0.9204960E-01
        2   -1    0    0  501    0  0.00000000000E+00  0.00000000000E+00  0.13400420784E+04  0.13400420784E+04  0.25500000920E-02 0. -1.
       -2   -1    0    0    0  501  0.00000000000E+00  0.00000000000E+00 -0.22583670641E+03  0.22583670642E+03  0.25500000920E-02 0.  1.
    10030    2    1    2    0    0  0.00000000000E+00  0.00000000000E+00  0.11142053720E+04  0.15658787848E+04  0.11002375915E+04 0.  0.
        5    1    3    3  502    0 -0.84608617541E+02  0.30365564089E+03 -0.84519995906E+02  0.32639100189E+03  0.46999998093E+01 0.  1.
       -5    1    3    3    0  502  0.84608617541E+02 -0.30365564089E+03  0.11987253679E+04  0.12394877830E+04  0.46999998093E+01 0. -1.
</event>
<event>
 5   0  0.3423758E-04  0.1100110E+04  0.7818609E-02  0.9205084E-01
       -1   -1    0    0    0  501  0.00000000000E+00  0.00000000000E+00  0.64438234187E+03  0.64438234189E+03  0.50400001928E-02 0. -1.
        1   -1    0    0  501    0  0.00000000000E+00  0.00000000000E+00 -0.46953609648E+03  0.46953609651E+03  0.50400001928E-02 0.  1.
    10030    2    1    2    0    0  0.00000000000E+00  0.00000000000E+00  0.17484624539E+03  0.11139184384E+04  0.11001104844E+04 0.  0.
        1    1    3    3  502    0 -0.27414490503E+03 -0.21985210628E+03  0.51590156954E+03  0.62421535311E+03  0.50400001928E-02 0. -1.
       -1    1    3    3    0  502  0.27414490503E+03  0.21985210628E+03 -0.34105532415E+03  0.48970308529E+03  0.50400001928E-02 0.  1.
</event>
<event>
 5   0  0.3642161E-04  0.1116387E+04  0.7818609E-02  0.9189366E-01
        1   -1    0    0  501    0  0.00000000000E+00  0.00000000000E+00  0.12530718608E+04  0.12530718608E+04  0.50400001928E-02 0.  1.
       -1   -1    0    0    0  501  0.00000000000E+00  0.00000000000E+00 -0.24865270701E+03  0.24865270706E+03  0.50400001928E-02 0. -1.
    10030    2    1    2    0    0  0.00000000000E+00  0.00000000000E+00  0.10044191538E+04  0.15017245679E+04  0.11163865107E+04 0.  0.
        2    1    3    3  502    0 -0.32103834123E+03 -0.45188687355E+03  0.59054452729E+03  0.80994456708E+03  0.25500000920E-02 0.  1.
       -2    1    3    3    0  502  0.32103834123E+03  0.45188687355E+03  0.41387462648E+03  0.69178000078E+03  0.25500000920E-02 0. -1.
</event>
<event>
 5   0  0.3657529E-04  0.1097871E+04  0.7818609E-02  0.9207270E-01
        1   -1    0    0  501    0  0.00000000000E+00  0.00000000000E+00  0.13205063649E+04  0.13205063649E+04  0.50400001928E-02 0.  1.
       -1   -1    0    0    0  501  0.00000000000E+00  0.00000000000E+00 -0.22819277477E+03  0.22819277482E+03  0.50400001928E-02 0. -1.
    10030    2    1    2    0    0  0.00000000000E+00  0.00000000000E+00  0.10923135901E+04  0.15486991397E+04  0.10978706874E+04 0.  0.
        4    1    3    3  502    0  0.25518313372E+03 -0.35692119612E+03  0.10114906967E+04  0.11025544042E+04  0.12699999809E+01 0.  1.
       -4    1    3    3    0  502 -0.25518313372E+03  0.35692119612E+03  0.80822893434E+02  0.44614473546E+03  0.12699999809E+01 0. -1.
</event>
<event>
 5   0  0.6412712E-04  0.1100533E+04  0.7818609E-02  0.9204672E-01
       -2   -1    0    0    0  501  0.00000000000E+00  0.00000000000E+00  0.79476766971E+03  0.79476766971E+03  0.25500000920E-02 0. -1.
        2   -1    0    0  501    0  0.00000000000E+00  0.00000000000E+00 -0.38098362201E+03  0.38098362202E+03  0.25500000920E-02 0.  1.
    10030    2    1    2    0    0  0.00000000000E+00  0.00000000000E+00  0.41378404770E+03  0.11757512917E+04  0.11005334442E+04 0.  0.
        2    1    3    3  502    0  0.17755426475E+03  0.32844224567E+02 -0.34843168653E+03  0.39243967715E+03  0.25500000920E-02 0.  1.
       -2    1    3    3    0  502 -0.17755426475E+03 -0.32844224567E+02  0.76221573423E+03  0.78331161458E+03  0.25500000920E-02 0. -1.
</event>
<event>
 5   0  0.6412712E-04  0.1099803E+04  0.7818609E-02  0.9205384E-01
       -2   -1    0    0    0  501  0.00000000000E+00  0.00000000000E+00  0.24041557124E+03  0.24041557125E+03  0.25500000920E-02 0.  1.
        2   -1    0    0  501    0  0.00000000000E+00  0.00000000000E+00 -0.12577879982E+04  0.12577879982E+04  0.25500000920E-02 0. -1.
    10030    2    1    2    0    0  0.00000000000E+00  0.00000000000E+00 -0.10173724270E+04  0.14982035694E+04  0.10998032917E+04 0.  0.
        2    1    3    3  502    0  0.41572559662E+03 -0.28326888068E+03 -0.20614842482E+03  0.54366000727E+03  0.25500000920E-02 0.  1.
       -2    1    3    3    0  502 -0.41572559662E+03  0.28326888068E+03 -0.81122400213E+03  0.95454356218E+03  0.25500000920E-02 0. -1.
</event>
<event>
 5   0  0.6264830E-04  0.1101008E+04  0.7818609E-02  0.9204210E-01
       -2   -1    0    0    0  501  0.00000000000E+00  0.00000000000E+00  0.22276735697E+03  0.22276735698E+03  0.25500000920E-02 0. -1.
        2   -1    0    0  501    0  0.00000000000E+00  0.00000000000E+00 -0.13604076478E+04  0.13604076478E+04  0.25500000920E-02 0.  1.
    10030    2    1    2    0    0  0.00000000000E+00  0.00000000000E+00 -0.11376402909E+04  0.15831750048E+04  0.11010075679E+04 0.  0.
        4    1    3    3  502    0  0.10274783261E+03 -0.53199335755E+03 -0.70881569775E+03  0.89218571825E+03  0.12699999809E+01 0.  1.
       -4    1    3    3    0  502 -0.10274783261E+03  0.53199335755E+03 -0.42882459311E+03  0.69098928656E+03  0.12699999809E+01 0. -1.
</event>
<event>
 5   0  0.6245176E-04  0.1100496E+04  0.7818609E-02  0.9204709E-01
        2   -1    0    0  501    0  0.00000000000E+00  0.00000000000E+00  0.81339620773E+03  0.81339620773E+03  0.25500000920E-02 0. -1.
       -2   -1    0    0    0  501  0.00000000000E+00  0.00000000000E+00 -0.37223288611E+03  0.37223288612E+03  0.25500000920E-02 0.  1.
    10030    2    1    2    0    0  0.00000000000E+00  0.00000000000E+00  0.44116332162E+03  0.11856290938E+04  0.11004959209E+04 0.  0.
        5    1    3    3  502    0  0.32160872889E+03 -0.32405880807E+03  0.55142811644E+03  0.71591992792E+03  0.46999998093E+01 0. -1.
       -5    1    3    3    0  502 -0.32160872889E+03  0.32405880807E+03 -0.11026479483E+03  0.46970916593E+03  0.46999998093E+01 0.  1.
</event>
<event>
 5   0  0.6412712E-04  0.1094828E+04  0.7818609E-02  0.9210248E-01
        2   -1    0    0  501    0  0.00000000000E+00  0.00000000000E+00  0.88435476056E+03  0.88435476057E+03  0.25500000920E-02 0. -1.
       -2   -1    0    0    0  501  0.00000000000E+00  0.00000000000E+00 -0.33884797888E+03  0.33884797889E+03  0.25500000920E-02 0.  1.
    10030    2    1    2    0    0  0.00000000000E+00  0.00000000000E+00  0.54550678168E+03  0.12232027395E+04  0.10948275175E+04 0.  0.
        2    1    3    3  502    0  0.14134985896E+03 -0.50517952975E+03  0.44754482805E+03  0.68955240050E+03  0.25500000920E-02 0. -1.
       -2    1    3    3    0  502 -0.14134985896E+03  0.50517952975E+03  0.97961953629E+02  0.53365033896E+03  0.25500000920E-02 0.  1.
</event>
<event>
 5   0  0.6109149E-04  0.1101187E+04  0.7818609E-02  0.9204036E-01
       -2   -1    0    0    0  501  0.00000000000E+00  0.00000000000E+00  0.21590249169E+03  0.21590249170E+03  0.25500000920E-02 0.  1.
        2   -1    0    0  501    0  0.00000000000E+00  0.00000000000E+00 -0.14041199517E+04  0.14041199517E+04  0.25500000920E-02 0. -1.
    10030    2    1    2    0    0  0.00000000000E+00  0.00000000000E+00 -0.11882174600E+04  0.16200224434E+04  0.11011866258E+04 0.  0.
        1    1    3    3  502    0  0.63573191741E+02 -0.70857323876E+02 -0.13919210484E+04  0.13951725757E+04  0.50400001928E-02 0. -1.
       -1    1    3    3    0  502 -0.63573191741E+02  0.70857323876E+02  0.20370358838E+03  0.22484986769E+03  0.50400001928E-02 0.  1.
</event>
<event>
 5   0  0.6264830E-04  0.1103587E+04  0.7818609E-02  0.9201703E-01
       -2   -1    0    0    0  501  0.00000000000E+00  0.00000000000E+00  0.21044283317E+03  0.21044283319E+03  0.25500000920E-02 0.  1.
        2   -1    0    0  501    0  0.00000000000E+00  0.00000000000E+00 -0.14468346318E+04  0.14468346318E+04  0.25500000920E-02 0. -1.
    10030    2    1    2    0    0  0.00000000000E+00  0.00000000000E+00 -0.12363917987E+04  0.16572774650E+04  0.11035868413E+04 0.  0.
        4    1    3    3  502    0 -0.27059841286E+03 -0.42731871386E+03 -0.28696696469E+03  0.58152939390E+03  0.12699999809E+01 0.  1.
       -4    1    3    3    0  502  0.27059841286E+03  0.42731871386E+03 -0.94942483396E+03  0.10757480711E+04  0.12699999809E+01 0. -1.
</event>
<event>
 5   0  0.6264830E-04  0.1100705E+04  0.7818609E-02  0.9204505E-01
       -2   -1    0    0    0  501  0.00000000000E+00  0.00000000000E+00  0.57361278752E+03  0.57361278753E+03  0.25500000920E-02 0.  1.
        2   -1    0    0  501    0  0.00000000000E+00  0.00000000000E+00 -0.52803531772E+03  0.52803531772E+03  0.25500000920E-02 0. -1.
    10030    2    1    2    0    0  0.00000000000E+00  0.00000000000E+00  0.45577469807E+02  0.11016481053E+04  0.11007048842E+04 0.  0.
        4    1    3    3  502    0  0.24682679122E+03  0.46829535313E+03 -0.12787994535E+03  0.54459057644E+03  0.12699999809E+01 0. -1.
       -4    1    3    3    0  502 -0.24682679122E+03 -0.46829535313E+03  0.17345741516E+03  0.55705752881E+03  0.12699999809E+01 0.  1.
</event>
<event>
 5   0  0.6245176E-04  0.1099517E+04  0.7818609E-02  0.9205663E-01
       -2   -1    0    0    0  501  0.00000000000E+00  0.00000000000E+00  0.20358646281E+03  0.20358646283E+03  0.25500000920E-02 0. -1.
        2   -1    0    0  501    0  0.00000000000E+00  0.00000000000E+00 -0.14845496698E+04  0.14845496698E+04  0.25500000920E-02 0.  1.
    10030    2    1    2    0    0  0.00000000000E+00  0.00000000000E+00 -0.12809632069E+04  0.16881361326E+04  0.10995166504E+04 0.  0.
        5    1    3    3  502    0  0.68763279536E+02 -0.46764528089E+02 -0.14748061817E+04  0.14771562792E+04  0.46999998093E+01 0.  1.
       -5    1    3    3    0  502 -0.68763279536E+02  0.46764528089E+02  0.19384297471E+03  0.21097985340E+03  0.46999998093E+01 0. -1.
</event>
<event>
 5   0  0.3642161E-04  0.1098474E+04  0.7818609E-02  0.9206680E-01
       -1   -1    0    0    0  501  0.00000000000E+00  0.00000000000E+00  0.61797611749E+03  0.61797611751E+03  0.50400001928E-02 0. -1.
        1   -1    0    0  501    0  0.00000000000E+00  0.00000000000E+00 -0.48814394255E+03  0.48814394258E+03  0.50400001928E-02 0.  1.
    10030    2    1    2    0    0  0.00000000000E+00  0.00000000000E+00  0.12983217494E+03  0.11061200601E+04  0.10984740296E+04 0.  0.
        2    1    3    3  502    0 -0.20629252932E+02 -0.68934829687E+02 -0.48337716540E+03  0.48870344879E+03  0.25500000920E-02 0.  1.
       -2    1    3    3    0  502  0.20629252932E+02  0.68934829687E+02  0.61320934034E+03  0.61741661130E+03  0.25500000920E-02 0. -1.
</event>
<event>
 5   0  0.6245176E-04  0.1101679E+04  0.7818609E-02  0.9203557E-01
       -2   -1    0    0    0  501  0.00000000000E+00  0.00000000000E+00  0.52411283238E+03  0.52411283239E+03  0.25500000920E-02 0.  1.
        2   -1    0    0  501    0  0.00000000000E+00  0.00000000000E+00 -0.57892937317E+03  0.57892937318E+03  0.25500000920E-02 0. -1.
    10030    2    1    2    0    0  0.00000000000E+00  0.00000000000E+00 -0.54816540789E+02  0.11030422056E+04  0.11016792882E+04 0.  0.
        5    1    3    3  502    0 -0.31591210841E+02  0.39086524596E+03  0.35988880755E+03  0.53227407310E+03  0.46999998093E+01 0.  1.
       -5    1    3    3    0  502  0.31591210841E+02 -0.39086524596E+03 -0.41470534834E+03  0.57076813246E+03  0.46999998093E+01 0. -1.
</event>
<event>
 5   0  0.5948818E-04  0.1099845E+04  0.7818609E-02  0.9205343E-01
       -2   -1    0    0    0  501  0.00000000000E+00  0.00000000000E+00  0.54184593987E+03  0.54184593987E+03  0.25500000920E-02 0. -1.
        2   -1    0    0  501    0  0.00000000000E+00  0.00000000000E+00 -0.55811905215E+03  0.55811905215E+03  0.25500000920E-02 0.  1.
    10030    2    1    2    0    0  0.00000000000E+00  0.00000000000E+00 -0.16273112280E+02  0.10999649920E+04  0.10998446115E+04 0.  0.
        3    1    3    3  502    0 -0.14281248907E+03 -0.49298750784E+03  0.18932477211E+03  0.54706121180E+03  0.10100000352E+00 0.  1.
       -3    1    3    3    0  502  0.14281248907E+03  0.49298750784E+03 -0.20559788439E+03  0.55290378023E+03  0.10100000352E+00 0. -1.
</event>
<event>
 5   0  0.2403875E-04  0.1105324E+04  0.7818609E-02  0.9200018E-01
        4   -1    0    0  501    0  0.00000000000E+00  0.00000000000E+00  0.88902584940E+03  0.88902675651E+03  0.12699999809E+01 0. -1.
       -4   -1    0    0    0  501  0.00000000000E+00  0.00000000000E+00 -0.34355974665E+03  0.34356209398E+03  0.12699999809E+01 0.  1.
    10030    2    1    2    0    0  0.00000000000E+00  0.00000000000E+00  0.54546610275E+03  0.12325888505E+04  0.11053243891E+04 0.  0.
        2    1    3    3  502    0 -0.23777512536E+03  0.39754914006E+03  0.60885628274E+03  0.76504137277E+03  0.25500000920E-02 0. -1.
       -2    1    3    3    0  502  0.23777512536E+03 -0.39754914006E+03 -0.63390179998E+02  0.46754747773E+03  0.25500000920E-02 0.  1.
</event>
<event>
 5   0  0.3423758E-04  0.1099362E+04  0.7818609E-02  0.9205814E-01
        1   -1    0    0  501    0  0.00000000000E+00  0.00000000000E+00  0.75631843977E+03  0.75631843979E+03  0.50400001928E-02 0. -1.
       -1   -1    0    0    0  501  0.00000000000E+00  0.00000000000E+00 -0.39949980170E+03  0.39949980173E+03  0.50400001928E-02 0.  1.
    10030    2    1    2    0    0  0.00000000000E+00  0.00000000000E+00  0.35681863807E+03  0.11558182415E+04  0.10993617544E+04 0.  0.
        1    1    3    3  502    0 -0.37162429449E+03  0.34140216165E+03  0.40752008568E+03  0.64863909264E+03  0.50400001928E-02 0. -1.
       -1    1    3    3    0  502  0.37162429449E+03 -0.34140216165E+03 -0.50701447610E+02  0.50717914888E+03  0.50400001928E-02 0.  1.
</event>
<event>
 5   0  0.3523525E-04  0.1100445E+04  0.7818609E-02  0.9204759E-01
        1   -1    0    0  501    0  0.00000000000E+00  0.00000000000E+00  0.17525055592E+04  0.17525055592E+04  0.50400001928E-02 0. -1.
       -1   -1    0    0    0  501  0.00000000000E+00  0.00000000000E+00 -0.17274959130E+03  0.17274959138E+03  0.50400001928E-02 0.  1.
    10030    2    1    2    0    0  0.00000000000E+00  0.00000000000E+00  0.15797559679E+04  0.19252551506E+04  0.11004446723E+04 0.  0.
        5    1    3    3  502    0  0.29730027627E+03 -0.40970299430E+03  0.11670559204E+04  0.12721185516E+04  0.46999998093E+01 0. -1.
       -5    1    3    3    0  502 -0.29730027627E+03  0.40970299430E+03  0.41270004746E+03  0.65313659902E+03  0.46999998093E+01 0.  1.
</event>
<event>
 5   0  0.3523525E-04  0.1102471E+04  0.7818609E-02  0.9202787E-01
       -1   -1    0    0    0  501  0.00000000000E+00  0.00000000000E+00  0.44885260185E+03  0.44885260188E+03  0.50400001928E-02 0.  1.
        1   -1    0    0  501    0  0.00000000000E+00  0.00000000000E+00 -0.67697124326E+03  0.67697124327E+03  0.50400001928E-02 0. -1.
    10030    2    1    2    0    0  0.00000000000E+00  0.00000000000E+00 -0.22811864141E+03  0.11258238452E+04  0.11024705056E+04 0.  0.
        5    1    3    3  502    0  0.23125633666E+03 -0.34483800998E+03  0.25617465531E+03  0.48789372859E+03  0.46999998093E+01 0.  1.
       -5    1    3    3    0  502 -0.23125633666E+03  0.34483800998E+03 -0.48429329672E+03  0.63793011656E+03  0.46999998093E+01 0. -1.
</event>
<event>
 5   0  0.2403875E-04  0.1100557E+04  0.7818609E-02  0.9204650E-01
        3   -1    0    0  501    0  0.00000000000E+00  0.00000000000E+00  0.89820895445E+03  0.89820896013E+03  0.10100000352E+00 0.  1.
       -3   -1    0    0    0  501  0.00000000000E+00  0.00000000000E+00 -0.33712217601E+03  0.33712219114E+03  0.10100000352E+00 0. -1.
    10030    2    1    2    0    0  0.00000000000E+00  0.00000000000E+00  0.56108677844E+03  0.12353311513E+04  0.11005565321E+04 0.  0.
        3    1    3    3  502    0  0.31192969601E+03  0.39360818909E+03  0.53298126507E+03  0.73232273001E+03  0.10100000352E+00 0.  1.
       -3    1    3    3    0  502 -0.31192969601E+03 -0.39360818909E+03  0.28105513367E+02  0.50300842126E+03  0.10100000352E+00 0. -1.
</event>
<event>
 5   0  0.6109149E-04  0.1100932E+04  0.7818609E-02  0.9204284E-01
       -2   -1    0    0    0  501  0.00000000000E+00  0.00000000000E+00  0.43066703524E+03  0.43066703525E+03  0.25500000920E-02 0.  1.
        2   -1    0    0  501    0  0.00000000000E+00  0.00000000000E+00 -0.70358893350E+03  0.70358893351E+03  0.25500000920E-02 0. -1.
    10030    2    1    2    0    0  0.00000000000E+00  0.00000000000E+00 -0.27292189826E+03  0.11342559688E+04  0.11009315329E+04 0.  0.
        1    1    3    3  502    0  0.17816056832E+03 -0.45509659299E+03 -0.39742322897E+03  0.62992009017E+03  0.50400001928E-02 0. -1.
       -1    1    3    3    0  502 -0.17816056832E+03  0.45509659299E+03  0.12450133071E+03  0.50433587858E+03  0.50400001928E-02 0.  1.
</event>
<event>
 5   0  0.6109149E-04  0.1101486E+04  0.7818609E-02  0.9203744E-01
        2   -1    0    0  501    0  0.00000000000E+00  0.00000000000E+00  0.13664609086E+04  0.13664609086E+04  0.25500000920E-02 0.  1.
       -2   -1    0    0    0  501  0.00000000000E+00  0.00000000000E+00 -0.22197343985E+03  0.22197343987E+03  0.25500000920E-02 0. -1.
    10030    2    1    2    0    0  0.00000000000E+00  0.00000000000E+00  0.11444874687E+04  0.15884343484E+04  0.11014863200E+04 0.  0.
        1    1    3    3  502    0  0.38705310343E+03  0.38843685274E+03  0.64612475393E+03  0.84744940327E+03  0.50400001928E-02 0.  1.
       -1    1    3    3    0  502 -0.38705310343E+03 -0.38843685274E+03  0.49836271480E+03  0.74098494517E+03  0.50400001928E-02 0. -1.
</event>
<event>
 5   0  0.3657529E-04  0.1100071E+04  0.7818609E-02  0.9205123E-01
        1   -1    0    0  501    0  0.00000000000E+00  0.00000000000E+00  0.10060333343E+04  0.10060333343E+04  0.50400001928E-02 0.  1.
       -1   -1    0    0    0  501  0.00000000000E+00  0.00000000000E+00 -0.30072467241E+03  0.30072467246E+03  0.50400001928E-02 0. -1.
    10030    2    1    2    0    0  0.00000000000E+00  0.00000000000E+00  0.70530866188E+03  0.13067580068E+04  0.11000709885E+04 0.  0.
        4    1    3    3  502    0  0.24013485706E+03 -0.48251761248E+03  0.48304839454E+03  0.72375780500E+03  0.12699999809E+01 0.  1.
       -4    1    3    3    0  502 -0.24013485706E+03  0.48251761248E+03  0.22226026734E+03  0.58300020177E+03  0.12699999809E+01 0. -1.
</event>
<event>
 5   0  0.6412712E-04  0.1099955E+04  0.7818609E-02  0.9205235E-01
       -2   -1    0    0    0  501  0.00000000000E+00  0.00000000000E+00  0.28947946467E+03  0.28947946468E+03  0.25500000920E-02 0.  1.
        2   -1    0    0  501    0  0.00000000000E+00  0.00000000000E+00 -0.10448942659E+04  0.10448942659E+04  0.25500000920E-02 0. -1.
    10030    2    1    2    0    0  0.00000000000E+00  0.00000000000E+00 -0.75541480126E+03  0.13343737306E+04  0.10999553314E+04 0.  0.
        2    1    3    3  502    0  0.49585113608E+02  0.44289614137E+03 -0.76866178330E+03  0.88851370988E+03  0.25500000920E-02 0. -1.
       -2    1    3    3    0  502 -0.49585113608E+02 -0.44289614137E+03  0.13246982047E+02  0.44586002072E+03  0.25500000920E-02 0.  1.
</event>
<event>
 5   0  0.3523525E-04  0.1099903E+04  0.7818609E-02  0.9205286E-01
       -1   -1    0    0    0  501  0.00000000000E+00  0.00000000000E+00  0.30406309092E+03  0.30406309096E+03  0.50400001928E-02 0. -1.
        1   -1    0    0  501    0  0.00000000000E+00  0.00000000000E+00 -0.99468391905E+03  0.99468391906E+03  0.50400001928E-02 0.  1.
    10030    2    1    2    0    0  0.00000000000E+00  0.00000000000E+00 -0.69062082813E+03  0.12987470100E+04  0.10999030265E+04 0.  0.
        5    1    3    3  502    0 -0.45956587977E+03  0.18855353988E+02 -0.70124997228E+03  0.83864768279E+03  0.46999998093E+01 0.  1.
       -5    1    3    3    0  502  0.45956587977E+03 -0.18855353988E+02  0.10629144146E+02  0.46009932724E+03  0.46999998093E+01 0. -1.
</event>
<event>
 5   0  0.6245176E-04  0.1100593E+04  0.7818609E-02  0.9204614E-01
        2   -1    0    0  501    0  0.00000000000E+00  0.00000000000E+00  0.14868027645E+04  0.14868027645E+04  0.25500000920E-02 0. -1.
       -2   -1    0    0    0  501  0.00000000000E+00  0.00000000000E+00 -0.20367614821E+03  0.20367614823E+03  0.25500000920E-02 0.  1.
    10030    2    1    2    0    0  0.00000000000E+00  0.00000000000E+00  0.12831266163E+04  0.16904789127E+04  0.11005930406E+04 0.  0.
        5    1    3    3  502    0 -0.45683837669E+03 -0.15448385238E+03  0.10486321385E+04  0.11542174903E+04  0.46999998093E+01 0. -1.
       -5    1    3    3    0  502  0.45683837669E+03  0.15448385238E+03  0.23449447781E+03  0.53626142243E+03  0.46999998093E+01 0.  1.
</event>
<event>
 5   0  0.6245176E-04  0.1100945E+04  0.7818609E-02  0.9204272E-01
       -2   -1    0    0    0  501  0.00000000000E+00  0.00000000000E+00  0.17892851855E+03  0.17892851856E+03  0.25500000920E-02 0. -1.
        2   -1    0    0  501    0  0.00000000000E+00  0.00000000000E+00 -0.16935245421E+04  0.16935245421E+04  0.25500000920E-02 0.  1.
    10030    2    1    2    0    0  0.00000000000E+00  0.00000000000E+00 -0.15145960235E+04  0.18724530606E+04  0.11009447533E+04 0.  0.
        5    1    3    3  502    0 -0.16252531235E+03  0.21753924783E+03  0.57048998328E+02  0.27751482791E+03  0.46999998093E+01 0. -1.
       -5    1    3    3    0  502  0.16252531235E+03 -0.21753924783E+03 -0.15716450218E+04  0.15949382327E+04  0.46999998093E+01 0.  1.
</event>
<event>
 5   0  0.3423758E-04  0.1100004E+04  0.7818609E-02  0.9205188E-01
        1   -1    0    0  501    0  0.00000000000E+00  0.00000000000E+00  0.68250733491E+03  0.68250733493E+03  0.50400001928E-02 0. -1.
       -1   -1    0    0    0  501  0.00000000000E+00  0.00000000000E+00 -0.44322173862E+03  0.44322173865E+03  0.50400001928E-02 0.  1.
    10030    2    1    2    0    0  0.00000000000E+00  0.00000000000E+00  0.23928559629E+03  0.11257290736E+04  0.11000037957E+04 0.  0.
        1    1    3    3  502    0  0.45785085551E+03 -0.11544363015E+03  0.40828034836E+03  0.62421749456E+03  0.50400001928E-02 0. -1.
       -1    1    3    3    0  502 -0.45785085551E+03  0.11544363015E+03 -0.16899475207E+03  0.50151157902E+03  0.50400001928E-02 0.  1.
</event>
<event>
 5   0  0.3657529E-04  0.1098665E+04  0.7818609E-02  0.9206494E-01
       -1   -1    0    0    0  501  0.00000000000E+00  0.00000000000E+00  0.86746084600E+03  0.86746084602E+03  0.50400001928E-02 0. -1.
        1   -1    0    0  501    0  0.00000000000E+00  0.00000000000E+00 -0.34787301521E+03  0.34787301525E+03  0.50400001928E-02 0.  1.
    10030    2    1    2    0    0  0.00000000000E+00  0.00000000000E+00  0.51958783079E+03  0.12153338613E+04  0.10986650447E+04 0.  0.
        4    1    3    3  502    0  0.83522994362E+02 -0.30720849958E+03  0.75500637264E+03  0.81938354172E+03  0.12699999809E+01 0. -1.
       -4    1    3    3    0  502 -0.83522994362E+02  0.30720849958E+03 -0.23541854185E+03  0.39595031955E+03  0.12699999809E+01 0.  1.
</event>
<event>
 5   0  0.5948818E-04  0.1090403E+04  0.7818609E-02  0.9214597E-01
       -2   -1    0    0    0  501  0.00000000000E+00  0.00000000000E+00  0.46557958945E+03  0.46557958945E+03  0.25500000920E-02 0. -1.
        2   -1    0    0  501    0  0.00000000000E+00  0.00000000000E+00 -0.63843957744E+03  0.63843957745E+03  0.25500000920E-02 0.  1.
    10030    2    1    2    0    0  0.00000000000E+00  0.00000000000E+00 -0.17285998799E+03  0.11040191669E+04  0.10904025612E+04 0.  0.
        3    1    3    3  502    0  0.43458919588E+03  0.24418616729E+03  0.13712071307E+03  0.51700749862E+03  0.10100000352E+00 0. -1.
       -3    1    3    3    0  502 -0.43458919588E+03 -0.24418616729E+03 -0.30998070107E+03  0.58701166829E+03  0.10100000352E+00 0.  1.
</event>
<event>
 5   0  0.6109149E-04  0.1101405E+04  0.7818609E-02  0.9203823E-01
        2   -1    0    0  501    0  0.00000000000E+00  0.00000000000E+00  0.38537279844E+03  0.38537279845E+03  0.25500000920E-02 0.  1.
       -2   -1    0    0    0  501  0.00000000000E+00  0.00000000000E+00 -0.78696090447E+03  0.78696090447E+03  0.25500000920E-02 0. -1.
    10030    2    1    2    0    0  0.00000000000E+00  0.00000000000E+00 -0.40158810603E+03  0.11723337029E+04  0.11014051498E+04 0.  0.
        1    1    3    3  502    0 -0.20809599140E+02 -0.18300568414E+03 -0.75320464561E+03  0.77539754839E+03  0.50400001928E-02 0. -1.
       -1    1    3    3    0  502  0.20809599140E+02  0.18300568414E+03  0.35161653959E+03  0.39693615454E+03  0.50400001928E-02 0.  1.
</event>
<event>
 5   0  0.6245176E-04  0.1100077E+04  0.7818609E-02  0.9205117E-01
        2   -1    0    0  501    0  0.00000000000E+00  0.00000000000E+00  0.15890995753E+04  0.15890995753E+04  0.25500000920E-02 0.  1.
       -2   -1    0    0    0  501  0.00000000000E+00  0.00000000000E+00 -0.19038607405E+03  0.19038607407E+03  0.25500000920E-02 0. -1.
    10030    2    1    2    0    0  0.00000000000E+00  0.00000000000E+00  0.13987135012E+04  0.17794856493E+04  0.11000771417E+04 0.  0.
        5    1    3    3  502    0 -0.26758310007E+03 -0.39340946120E+03  0.11457343245E+04  0.12406050750E+04  0.46999998093E+01 0.  1.
       -5    1    3    3    0  502  0.26758310007E+03  0.39340946120E+03  0.25297917668E+03  0.53888057437E+03  0.46999998093E+01 0. -1.
</event>
<event>
 5   0  0.2403875E-04  0.1102006E+04  0.7818609E-02  0.9203239E-01
        4   -1    0    0  501    0  0.00000000000E+00  0.00000000000E+00  0.72277714612E+03  0.72277826189E+03  0.12699999809E+01 0. -1.
       -4   -1    0    0    0  501  0.00000000000E+00  0.00000000000E+00 -0.42005020738E+03  0.42005212727E+03  0.12699999809E+01 0.  1.
    10030    2    1    2    0    0  0.00000000000E+00  0.00000000000E+00  0.30272693874E+03  0.11428303892E+04  0.11020062155E+04 0.  0.
        4    1    3    3  502    0 -0.81381292212E+02 -0.41519710892E+03 -0.21468746643E+03  0.47445113038E+03  0.12699999809E+01 0.  1.
       -4    1    3    3    0  502  0.81381292212E+02  0.41519710892E+03  0.51741440517E+03  0.66837925877E+03  0.12699999809E+01 0. -1.
</event>
<event>
 5   0  0.5948818E-04  0.1094497E+04  0.7818609E-02  0.9210572E-01
       -2   -1    0    0    0  501  0.00000000000E+00  0.00000000000E+00  0.56934695556E+03  0.56934695557E+03  0.25500000920E-02 0.  1.
        2   -1    0    0  501    0  0.00000000000E+00  0.00000000000E+00 -0.52600766129E+03  0.52600766129E+03  0.25500000920E-02 0. -1.
    10030    2    1    2    0    0  0.00000000000E+00  0.00000000000E+00  0.43339294279E+02  0.10953546169E+04  0.10944968900E+04 0.  0.
        3    1    3    3  502    0  0.34742951252E+03  0.48416924692E+02 -0.39869450402E+03  0.53104499103E+03  0.10100000352E+00 0. -1.
       -3    1    3    3    0  502 -0.34742951252E+03 -0.48416924692E+02  0.44203379829E+03  0.56430962583E+03  0.10100000352E+00 0.  1.
</event>
<event>
 5   0  0.6264830E-04  0.1095226E+04  0.7818609E-02  0.9209857E-01
       -2   -1    0    0    0  501  0.00000000000E+00  0.00000000000E+00  0.17860226401E+03  0.17860226403E+03  0.25500000920E-02 0. -1.
        2   -1    0    0  501    0  0.00000000000E+00  0.00000000000E+00 -0.16790380261E+04  0.16790380261E+04  0.25500000920E-02 0.  1.
    10030    2    1    2    0    0  0.00000000000E+00  0.00000000000E+00 -0.15004357620E+04  0.18576402901E+04  0.10952259910E+04 0.  0.
        4    1    3    3  502    0 -0.36768854061E+03  0.12602908965E+02 -0.14381940781E+04  0.14845058152E+04  0.12699999809E+01 0.  1.
       -4    1    3    3    0  502  0.36768854061E+03 -0.12602908965E+02 -0.62241683925E+02  0.37313447486E+03  0.12699999809E+01 0. -1.
</event>
<event>
 5   0  0.3523525E-04  0.1099483E+04  0.7818609E-02  0.9205696E-01
       -1   -1    0    0    0  501  0.00000000000E+00  0.00000000000E+00  0.15305551817E+03  0.15305551826E+03  0.50400001928E-02 0.  1.
        1   -1    0    0  501    0  0.00000000000E+00  0.00000000000E+00 -0.19745499276E+04  0.19745499276E+04  0.50400001928E-02 0. -1.
    10030    2    1    2    0    0  0.00000000000E+00  0.00000000000E+00 -0.18214944094E+04  0.21276054458E+04  0.10994830829E+04 0.  0.
        5    1    3    3  502    0 -0.47418330235E+03  0.12593351244E+02 -0.37313419259E+03  0.60353923850E+03  0.46999998093E+01 0.  1.
       -5    1    3    3    0  502  0.47418330235E+03 -0.12593351244E+02 -0.14483602168E+04  0.15240662074E+04  0.46999998093E+01 0. -1.
</event>
<event>
 5   0  0.5948818E-04  0.1097461E+04  0.7818609E-02  0.9207670E-01
       -2   -1    0    0    0  501  0.00000000000E+00  0.00000000000E+00  0.16804113191E+03  0.16804113193E+03  0.25500000920E-02 0.  1.
        2   -1    0    0  501    0  0.00000000000E+00  0.00000000000E+00 -0.17918549135E+04  0.17918549135E+04  0.25500000920E-02 0. -1.
    10030    2    1    2    0    0  0.00000000000E+00  0.00000000000E+00 -0.16238137816E+04  0.19598960454E+04  0.10974613030E+04 0.  0.
        3    1    3    3  502    0 -0.23944445201E+03 -0.29195967329E+03 -0.15229586635E+04  0.15690688951E+04  0.10100000352E+00 0. -1.
       -3    1    3    3    0  502  0.23944445201E+03  0.29195967329E+03 -0.10085511806E+03  0.39082715037E+03  0.10100000352E+00 0.  1.
</event>
<event>
 5   0  0.6264830E-04  0.1103029E+04  0.7818609E-02  0.9202245E-01
        2   -1    0    0  501    0  0.00000000000E+00  0.00000000000E+00  0.11197857393E+04  0.11197857393E+04  0.25500000920E-02 0.  1.
       -2   -1    0    0    0  501  0.00000000000E+00  0.00000000000E+00 -0.27163069446E+03  0.27163069447E+03  0.25500000920E-02 0. -1.
    10030    2    1    2    0    0  0.00000000000E+00  0.00000000000E+00  0.84815504483E+03  0.13914164338E+04  0.11030288809E+04 0.  0.
        4    1    3    3  502    0  0.44679717670E+03  0.25593207608E+03  0.67331417700E+03  0.84763349304E+03  0.12699999809E+01 0.  1.
       -4    1    3    3    0  502 -0.44679717670E+03 -0.25593207608E+03  0.17484086783E+03  0.54378294073E+03  0.12699999809E+01 0. -1.
</event>
<event>
 5   0  0.6109149E-04  0.1101329E+04  0.7818609E-02  0.9203898E-01
        2   -1    0    0  501    0  0.00000000000E+00  0.00000000000E+00  0.27845017043E+03  0.27845017044E+03  0.25500000920E-02 0. -1.
       -2   -1    0    0    0  501  0.00000000000E+00  0.00000000000E+00 -0.10889964903E+04  0.10889964903E+04  0.25500000920E-02 0.  1.
    10030    2    1    2    0    0  0.00000000000E+00  0.00000000000E+00 -0.81054631990E+03  0.13674466608E+04  0.11013287581E+04 0.  0.
        1    1    3    3  502    0 -0.61673103183E+02  0.49154472167E+03 -0.10673459985E+03  0.50676627738E+03  0.50400001928E-02 0. -1.
       -1    1    3    3    0  502  0.61673103183E+02 -0.49154472167E+03 -0.70381172006E+03  0.86068038340E+03  0.50400001928E-02 0.  1.
</event>
<event>
 5   0  0.3657529E-04  0.1102280E+04  0.7818609E-02  0.9202973E-01
        1   -1    0    0  501    0  0.00000000000E+00  0.00000000000E+00  0.11852557500E+04  0.11852557500E+04  0.50400001928E-02 0.  1.
       -1   -1    0    0    0  501  0.00000000000E+00  0.00000000000E+00 -0.25627815246E+03  0.25627815251E+03  0.50400001928E-02 0. -1.
    10030    2    1    2    0    0  0.00000000000E+00  0.00000000000E+00  0.92897759756E+03  0.14415339025E+04  0.11022797356E+04 0.  0.
        4    1    3    3  502    0  0.43604012623E+03 -0.15135158003E+03  0.70600404573E+02  0.46693074699E+03  0.12699999809E+01 0. -1.
       -4    1    3    3    0  502 -0.43604012623E+03  0.15135158003E+03  0.85837719299E+03  0.97460315555E+03  0.12699999809E+01 0.  1.
</event>
<event>
 5   0  0.5948818E-04  0.1098653E+04  0.7818609E-02  0.9206506E-01
       -2   -1    0    0    0  501  0.00000000000E+00  0.00000000000E+00  0.19399540683E+03  0.19399540685E+03  0.25500000920E-02 0. -1.
        2   -1    0    0  501    0  0.00000000000E+00  0.00000000000E+00 -0.15554992485E+04  0.15554992485E+04  0.25500000920E-02 0.  1.
    10030    2    1    2    0    0  0.00000000000E+00  0.00000000000E+00 -0.13615038416E+04  0.17494946553E+04  0.10986531929E+04 0.  0.
        3    1    3    3  502    0 -0.12770519184E+03  0.50862700597E+03 -0.94119394804E+03  0.10774303250E+04  0.10100000352E+00 0.  1.
       -3    1    3    3    0  502  0.12770519184E+03 -0.50862700597E+03 -0.42030989360E+03  0.67206433031E+03  0.10100000352E+00 0. -1.
</event>
<event>
 5   0  0.6245176E-04  0.1101434E+04  0.7818609E-02  0.9203796E-01
       -2   -1    0    0    0  501  0.00000000000E+00  0.00000000000E+00  0.21860867960E+03  0.21860867962E+03  0.25500000920E-02 0.  1.
        2   -1    0    0  501    0  0.00000000000E+00  0.00000000000E+00 -0.13873607402E+04  0.13873607402E+04  0.25500000920E-02 0. -1.
    10030    2    1    2    0    0  0.00000000000E+00  0.00000000000E+00 -0.11687520606E+04  0.16059694198E+04  0.11014337920E+04 0.  0.
        5    1    3    3  502    0  0.30210315756E+03 -0.46029995057E+03 -0.56809731099E+03  0.79113779271E+03  0.46999998093E+01 0. -1.
       -5    1    3    3    0  502 -0.30210315756E+03  0.46029995057E+03 -0.60065474958E+03  0.81483162708E+03  0.46999998093E+01 0.  1.
</event>
<event>
 5   0  0.3621403E-04  0.1107232E+04  0.7818609E-02  0.9198172E-01
       -1   -1    0    0    0  501  0.00000000000E+00  0.00000000000E+00  0.58314594360E+03  0.58314594362E+03  0.50400001928E-02 0. -1.
        1   -1    0    0  501    0  0.00000000000E+00  0.00000000000E+00 -0.52558139450E+03  0.52558139452E+03  0.50400001928E-02 0.  1.
    10030    2    1    2    0    0  0.00000000000E+00  0.00000000000E+00  0.57564549107E+02  0.11087273381E+04  0.11072319689E+04 0.  0.
        3    1    3    3  502    0  0.21544986900E+03  0.18879850024E+03  0.50315948374E+03  0.57899308806E+03  0.10100000352E+00 0. -1.
       -3    1    3    3    0  502 -0.21544986900E+03 -0.18879850024E+03 -0.44559493463E+03  0.52973425009E+03  0.10100000352E+00 0.  1.
</event>
<event>
 5   0  0.2403875E-04  0.1101221E+04  0.7818609E-02  0.9204002E-01
        3   -1    0    0  501    0  0.00000000000E+00  0.00000000000E+00  0.29189688836E+03  0.29189690583E+03  0.10100000352E+00 0. -1.
       -3   -1    0    0    0  501  0.00000000000E+00  0.00000000000E+00 -0.10386275685E+04  0.10386275734E+04  0.10100000352E+00 0.  1.
    10030    2    1    2    0    0  0.00000000000E+00  0.00000000000E+00 -0.74673068018E+03  0.13305244793E+04  0.11012214497E+04 0.  0.
        4    1    3    3  502    0  0.49803014624E+03  0.23432987635E+03 -0.35520011645E+03  0.65506736535E+03  0.12699999809E+01 0. -1.
       -4    1    3    3    0  502 -0.49803014624E+03 -0.23432987635E+03 -0.39153056373E+03  0.67545711393E+03  0.12699999809E+01 0.  1.
</event>
<event>
 5   0  0.3657529E-04  0.1112523E+04  0.7818609E-02  0.9193071E-01
       -1   -1    0    0    0  501  0.00000000000E+00  0.00000000000E+00  0.55877543799E+03  0.55877543801E+03  0.50400001928E-02 0. -1.
        1   -1    0    0  501    0  0.00000000000E+00  0.00000000000E+00 -0.55375890406E+03  0.55375890408E+03  0.50400001928E-02 0.  1.
    10030    2    1    2    0    0  0.00000000000E+00  0.00000000000E+00  0.50165339296E+01  0.11125343421E+04  0.11125230320E+04 0.  0.
        4    1    3    3  502    0 -0.19932615060E+03 -0.47685806608E+03  0.20818177489E+03  0.55719457445E+03  0.12699999809E+01 0. -1.
       -4    1    3    3    0  502  0.19932615060E+03  0.47685806608E+03 -0.20316524096E+03  0.55533976765E+03  0.12699999809E+01 0.  1.
</event>
<event>
 5   0  0.6264830E-04  0.1100341E+04  0.7818609E-02  0.9204860E-01
        2   -1    0    0  501    0  0.00000000000E+00  0.00000000000E+00  0.40692511463E+03  0.40692511464E+03  0.25500000920E-02 0.  1.
       -2   -1    0    0    0  501  0.00000000000E+00  0.00000000000E+00 -0.74384067213E+03  0.74384067213E+03  0.25500000920E-02 0. -1.
    10030    2    1    2    0    0  0.00000000000E+00  0.00000000000E+00 -0.33691555750E+03  0.11507657868E+04  0.11003407668E+04 0.  0.
        4    1    3    3  502    0  0.33558743099E+03  0.24347700273E+03  0.20975843220E+03  0.46465060795E+03  0.12699999809E+01 0.  1.
       -4    1    3    3    0  502 -0.33558743099E+03 -0.24347700273E+03 -0.54667398970E+03  0.68611517882E+03  0.12699999809E+01 0. -1.
</event>
<event>
 5   0  0.3621403E-04  0.1101582E+04  0.7818609E-02  0.9203651E-01
        1   -1    0    0  501    0  0.00000000000E+00  0.00000000000E+00  0.91249469186E+03  0.91249469187E+03  0.50400001928E-02 0.  1.
       -1   -1    0    0    0  501  0.00000000000E+00  0.00000000000E+00 -0.33246325893E+03  0.33246325897E+03  0.50400001928E-02 0. -1.
    10030    2    1    2    0    0  0.00000000000E+00  0.00000000000E+00  0.58003143293E+03  0.12449579508E+04  0.11015824237E+04 0.  0.
        3    1    3    3  502    0  0.90137505734E+02 -0.54209715204E+03  0.33195123807E+03  0.64201692099E+03  0.10100000352E+00 0. -1.
       -3    1    3    3    0  502 -0.90137505734E+02  0.54209715204E+03  0.24808019486E+03  0.60294102984E+03  0.10100000352E+00 0.  1.
</event>
<event>
 5   0  0.6245176E-04  0.1101424E+04  0.7818609E-02  0.9203805E-01
       -2   -1    0    0    0  501  0.00000000000E+00  0.00000000000E+00  0.21373678080E+03  0.21373678081E+03  0.25500000920E-02 0.  1.
        2   -1    0    0  501    0  0.00000000000E+00  0.00000000000E+00 -0.14189599823E+04  0.14189599823E+04  0.25500000920E-02 0. -1.
    10030    2    1    2    0    0  0.00000000000E+00  0.00000000000E+00 -0.12052232015E+04  0.16326967631E+04  0.11014244209E+04 0.  0.
        5    1    3    3  502    0 -0.40016859287E+03  0.12193165009E+03 -0.11334909140E+04  0.12082325820E+04  0.46999998093E+01 0. -1.
       -5    1    3    3    0  502  0.40016859287E+03 -0.12193165009E+03 -0.71732287502E+02  0.42446418115E+03  0.46999998093E+01 0.  1.
</event>
<event>
 5   0  0.6412712E-04  0.1127023E+04  0.7818609E-02  0.9179247E-01
       -2   -1    0    0    0  501  0.00000000000E+00  0.00000000000E+00  0.16686380702E+03  0.16686380704E+03  0.25500000920E-02 0.  1.
        2   -1    0    0  501    0  0.00000000000E+00  0.00000000000E+00 -0.19030194813E+04  0.19030194813E+04  0.25500000920E-02 0. -1.
    10030    2    1    2    0    0  0.00000000000E+00  0.00000000000E+00 -0.17361556743E+04  0.20698832884E+04  0.11270227602E+04 0.  0.
        2    1    3    3  502    0 -0.21008504267E+03 -0.51942343199E+03 -0.97840576768E+03  0.11274813848E+04  0.25500000920E-02 0. -1.
       -2    1    3    3    0  502  0.21008504267E+03  0.51942343199E+03 -0.75774990661E+03  0.94240190356E+03  0.25500000920E-02 0.  1.
</event>
<event>
 5   0  0.6245176E-04  0.1099649E+04  0.7818609E-02  0.9205534E-01
       -2   -1    0    0    0  501  0.00000000000E+00  0.00000000000E+00  0.25732272191E+03  0.25732272192E+03  0.25500000920E-02 0.  1.
        2   -1    0    0  501    0  0.00000000000E+00  0.00000000000E+00 -0.11748169138E+04  0.11748169138E+04  0.25500000920E-02 0. -1.
    10030    2    1    2    0    0  0.00000000000E+00  0.00000000000E+00 -0.91749419185E+03  0.14321396357E+04  0.10996491913E+04 0.  0.
        5    1    3    3  502    0 -0.23178430777E+03 -0.23228831313E+03  0.11577423873E+03  0.34800515815E+03  0.46999998093E+01 0.  1.
       -5    1    3    3    0  502  0.23178430777E+03  0.23228831313E+03 -0.10332684306E+04  0.10841344775E+04  0.46999998093E+01 0. -1.
</event>
<event>
 5   0  0.3621403E-04  0.1095278E+04  0.7818609E-02  0.9209807E-01
        1   -1    0    0  501    0  0.00000000000E+00  0.00000000000E+00  0.22625244243E+03  0.22625244249E+03  0.50400001928E-02 0. -1.
       -1   -1    0    0    0  501  0.00000000000E+00  0.00000000000E+00 -0.13255470309E+04  0.13255470309E+04  0.50400001928E-02 0.  1.
    10030    2    1    2    0    0  0.00000000000E+00  0.00000000000E+00 -0.10992945885E+04  0.15517994734E+04  0.10952775965E+04 0.  0.
        3    1    3    3  502    0 -0.28950983446E+03 -0.58482514529E+02 -0.12030285177E+04  0.12387549286E+04  0.10100000352E+00 0.  1.
       -3    1    3    3    0  502  0.28950983446E+03  0.58482514529E+02  0.10373392917E+03  0.31304454478E+03  0.10100000352E+00 0. -1.
</event>
<event>
 5   0  0.3657529E-04  0.1099607E+04  0.7818609E-02  0.9205575E-01
       -1   -1    0    0    0  501  0.00000000000E+00  0.00000000000E+00  0.31082729749E+03  0.31082729753E+03  0.50400001928E-02 0.  1.
        1   -1    0    0  501    0  0.00000000000E+00  0.00000000000E+00 -0.97251429600E+03  0.97251429601E+03  0.50400001928E-02 0. -1.
    10030    2    1    2    0    0  0.00000000000E+00  0.00000000000E+00 -0.66168699850E+03  0.12833415935E+04  0.10996071852E+04 0.  0.
        4    1    3    3  502    0  0.53770639700E+02 -0.20324923886E+03  0.26205805009E+03  0.33597257226E+03  0.12699999809E+01 0.  1.
       -4    1    3    3    0  502 -0.53770639700E+02  0.20324923886E+03 -0.92374504859E+03  0.94736902129E+03  0.12699999809E+01 0. -1.
</event>
<event>
 5   0  0.5948818E-04  0.1102307E+04  0.7818609E-02  0.9202946E-01
       -2   -1    0    0    0  501  0.00000000000E+00  0.00000000000E+00  0.74002707170E+03  0.74002707170E+03  0.25500000920E-02 0. -1.
        2   -1    0    0  501    0  0.00000000000E+00  0.00000000000E+00 -0.41048559632E+03  0.41048559633E+03  0.25500000920E-02 0.  1.
    10030    2    1    2    0    0  0.00000000000E+00  0.00000000000E+00  0.32954147538E+03  0.11505126680E+04  0.11023074958E+04 0.  0.
        3    1    3    3  502    0 -0.18192788638E+03 -0.26447908037E+03 -0.30284353565E+03  0.44131752411E+03  0.10100000352E+00 0.  1.
       -3    1    3    3    0  502  0.18192788638E+03  0.26447908037E+03  0.63238501103E+03  0.70919514393E+03  0.10100000352E+00 0. -1.
</event>
<event>
 5   0  0.3642161E-04  0.1083033E+04  0.7818609E-02  0.9221889E-01
       -1   -1    0    0    0  501  0.00000000000E+00  0.00000000000E+00  0.12263589621E+04  0.12263589621E+04  0.50400001928E-02 0.  1.
        1   -1    0    0  501    0  0.00000000000E+00  0.00000000000E+00 -0.23911432130E+03  0.23911432135E+03  0.50400001928E-02 0. -1.
    10030    2    1    2    0    0  0.00000000000E+00  0.00000000000E+00  0.98724464084E+03  0.14654732835E+04  0.10830327621E+04 0.  0.
        2    1    3    3  502    0 -0.12181788658E+03 -0.23903600784E+03  0.11301098585E+04  0.11615188775E+04  0.25500000920E-02 0.  1.
       -2    1    3    3    0  502  0.12181788658E+03  0.23903600784E+03 -0.14286521762E+03  0.30395440603E+03  0.25500000920E-02 0. -1.
</event>
<event>
 5   0  0.6264830E-04  0.1103343E+04  0.7818609E-02  0.9201940E-01
       -2   -1    0    0    0  501  0.00000000000E+00  0.00000000000E+00  0.12599930546E+03  0.12599930549E+03  0.25500000920E-02 0.  1.
        2   -1    0    0  501    0  0.00000000000E+00  0.00000000000E+00 -0.24154201255E+04  0.24154201255E+04  0.25500000920E-02 0. -1.
    10030    2    1    2    0    0  0.00000000000E+00  0.00000000000E+00 -0.22894208200E+04  0.25414194310E+04  0.11033426634E+04 0.  0.
        4    1    3    3  502    0 -0.10052979891E+03 -0.47889102822E+03 -0.17314934268E+04  0.17993093000E+04  0.12699999809E+01 0. -1.
       -4    1    3    3    0  502  0.10052979891E+03  0.47889102822E+03 -0.55792739323E+03  0.74211013091E+03  0.12699999809E+01 0.  1.
</event>
<event>
 5   0  0.3657529E-04  0.1100533E+04  0.7818609E-02  0.9204672E-01
       -1   -1    0    0    0  501  0.00000000000E+00  0.00000000000E+00  0.67381779010E+03  0.67381779012E+03  0.50400001928E-02 0. -1.
        1   -1    0    0  501    0  0.00000000000E+00  0.00000000000E+00 -0.44936991518E+03  0.44936991520E+03  0.50400001928E-02 0.  1.
    10030    2    1    2    0    0  0.00000000000E+00  0.00000000000E+00  0.22444787493E+03  0.11231877053E+04  0.11005334038E+04 0.  0.
        4    1    3    3  502    0 -0.51593513055E+03 -0.85871325411E+02 -0.62259918385E+02  0.52672654556E+03  0.12699999809E+01 0.  1.
       -4    1    3    3    0  502  0.51593513055E+03  0.85871325411E+02  0.28670779331E+03  0.59646115976E+03  0.12699999809E+01 0. -1.
</event>
<event>
 5   0  0.3423758E-04  0.1102649E+04  0.7818609E-02  0.9202614E-01
        1   -1    0    0  501    0  0.00000000000E+00  0.00000000000E+00  0.66144124527E+03  0.66144124529E+03  0.50400001928E-02 0.  1.
       -1   -1    0    0    0  501  0.00000000000E+00  0.00000000000E+00 -0.45954004029E+03  0.45954004032E+03  0.50400001928E-02 0. -1.
    10030    2    1    2    0    0  0.00000000000E+00  0.00000000000E+00  0.20190120498E+03  0.11209812856E+04  0.11026490585E+04 0.  0.
        1    1    3    3  502    0  0.20422611047E+02  0.10122144699E+03 -0.44962127785E+03  0.46132651982E+03  0.50400001928E-02 0. -1.
       -1    1    3    3    0  502 -0.20422611047E+02 -0.10122144699E+03  0.65152248283E+03  0.65965476579E+03  0.50400001928E-02 0.  1.
</event>
<event>
 5   0  0.3523525E-04  0.1100249E+04  0.7818609E-02  0.9204950E-01
       -1   -1    0    0    0  501  0.00000000000E+00  0.00000000000E+00  0.47829977658E+03  0.47829977661E+03  0.50400001928E-02 0.  1.
        1   -1    0    0  501    0  0.00000000000E+00  0.00000000000E+00 -0.63273453483E+03  0.63273453485E+03  0.50400001928E-02 0. -1.
    10030    2    1    2    0    0  0.00000000000E+00  0.00000000000E+00 -0.15443475825E+03  0.11110343115E+04  0.11002486749E+04 0.  0.
        5    1    3    3  502    0  0.46613578571E+03 -0.28247081157E+03 -0.20405090787E+01  0.54506750388E+03  0.46999998093E+01 0.  1.
       -5    1    3    3    0  502 -0.46613578571E+03  0.28247081157E+03 -0.15239424917E+03  0.56596680758E+03  0.46999998093E+01 0. -1.
</event>
<event>
 5   0  0.3621403E-04  0.1099361E+04  0.7818609E-02  0.9205815E-01
       -1   -1    0    0    0  501  0.00000000000E+00  0.00000000000E+00  0.41974029210E+03  0.41974029213E+03  0.50400001928E-02 0. -1.
        1   -1    0    0  501    0  0.00000000000E+00  0.00000000000E+00 -0.71984662703E+03  0.71984662704E+03  0.50400001928E-02 0.  1.
    10030    2    1    2    0    0  0.00000000000E+00  0.00000000000E+00 -0.30010633493E+03  0.11395869192E+04  0.10993609662E+04 0.  0.
        3    1    3    3  502    0  0.39259048784E+03 -0.58210890763E+02  0.24416857772E+03  0.46597650530E+03  0.10100000352E+00 0. -1.
       -3    1    3    3    0  502 -0.39259048784E+03  0.58210890763E+02 -0.54427491264E+03  0.67361041387E+03  0.10100000352E+00 0.  1.
</event>
<event>
 5   0  0.6412712E-04  0.1098728E+04  0.7818609E-02  0.9206433E-01
        2   -1    0    0  501    0  0.00000000000E+00  0.00000000000E+00  0.13238221981E+04  0.13238221981E+04  0.25500000920E-02 0. -1.
       -2   -1    0    0    0  501  0.00000000000E+00  0.00000000000E+00 -0.22797684947E+03  0.22797684948E+03  0.25500000920E-02 0.  1.
    10030    2    1    2    0    0  0.00000000000E+00  0.00000000000E+00  0.10958453486E+04  0.15517990476E+04  0.10987280173E+04 0.  0.
        2    1    3    3  502    0  0.21605471581E+03  0.89599696682E+02  0.12499848295E+04  0.12716799203E+04  0.25500000920E-02 0. -1.
       -2    1    3    3    0  502 -0.21605471581E+03 -0.89599696682E+02 -0.15413948087E+03  0.28011912723E+03  0.25500000920E-02 0.  1.
</event>
<event>
 5   0  0.3657529E-04  0.1109387E+04  0.7818609E-02  0.9196090E-01
        1   -1    0    0  501    0  0.00000000000E+00  0.00000000000E+00  0.78420642215E+03  0.78420642217E+03  0.50400001928E-02 0. -1.
       -1   -1    0    0    0  501  0.00000000000E+00  0.00000000000E+00 -0.39235205355E+03  0.39235205358E+03  0.50400001928E-02 0.  1.
    10030    2    1    2    0    0  0.00000000000E+00  0.00000000000E+00  0.39185436860E+03  0.11765584758E+04  0.11093872185E+04 0.  0.
        4    1    3    3  502    0 -0.23359596820E+03 -0.14689112703E+03  0.70624734278E+03  0.75824204687E+03  0.12699999809E+01 0. -1.
       -4    1    3    3    0  502  0.23359596820E+03  0.14689112703E+03 -0.31439297418E+03  0.41831642888E+03  0.12699999809E+01 0.  1.
</event>
<event>
 5   0  0.5948818E-04  0.1100103E+04  0.7818609E-02  0.9205092E-01
       -2   -1    0    0    0  501  0.00000000000E+00  0.00000000000E+00  0.36197185344E+03  0.36197185345E+03  0.25500000920E-02 0.  1.
        2   -1    0    0  501    0  0.00000000000E+00  0.00000000000E+00 -0.83585665485E+03  0.83585665485E+03  0.25500000920E-02 0. -1.
    10030    2    1    2    0    0  0.00000000000E+00  0.00000000000E+00 -0.47388480141E+03  0.11978285083E+04  0.11001028726E+04 0.  0.
        3    1    3    3  502    0  0.31723035216E+03  0.13387497292E+03 -0.70399849101E+03  0.78369094052E+03  0.10100000352E+00 0. -1.
       -3    1    3    3    0  502 -0.31723035216E+03 -0.13387497292E+03  0.23011368960E+03  0.41413756778E+03  0.10100000352E+00 0.  1.
</event>
<event>
 5   0  0.2403875E-04  0.1084799E+04  0.7818609E-02  0.9220136E-01
        3   -1    0    0  501    0  0.00000000000E+00  0.00000000000E+00  0.73143043639E+03  0.73143044336E+03  0.10100000352E+00 0. -1.
       -3   -1    0    0    0  501  0.00000000000E+00  0.00000000000E+00 -0.40222144685E+03  0.40222145954E+03  0.10100000352E+00 0.  1.
    10030    2    1    2    0    0  0.00000000000E+00  0.00000000000E+00  0.32920898954E+03  0.11336519029E+04  0.10847986348E+04 0.  0.
        1    1    3    3  502    0  0.36079788784E+03  0.33141415922E+03 -0.78658683561E+02  0.49618308046E+03  0.50400001928E-02 0.  1.
       -1    1    3    3    0  502 -0.36079788784E+03 -0.33141415922E+03  0.40786767310E+03  0.63746882244E+03  0.50400001928E-02 0. -1.
</event>
<event>
 5   0  0.6264830E-04  0.1100003E+04  0.7818609E-02  0.9205189E-01
       -2   -1    0    0    0  501  0.00000000000E+00  0.00000000000E+00  0.46011165587E+03  0.46011165588E+03  0.25500000920E-02 0.  1.
        2   -1    0    0  501    0  0.00000000000E+00  0.00000000000E+00 -0.65745273038E+03  0.65745273038E+03  0.25500000920E-02 0. -1.
    10030    2    1    2    0    0  0.00000000000E+00  0.00000000000E+00 -0.19734107451E+03  0.11175643863E+04  0.11000030262E+04 0.  0.
        4    1    3    3  502    0  0.35206686578E+03  0.82804872051E+02  0.32230234091E+03  0.48444621649E+03  0.12699999809E+01 0.  1.
       -4    1    3    3    0  502 -0.35206686578E+03 -0.82804872051E+02 -0.51964341541E+03  0.63311816977E+03  0.12699999809E+01 0. -1.
</event>
<event>
 5   0  0.3423758E-04  0.1099623E+04  0.7818609E-02  0.9205560E-01
       -1   -1    0    0    0  501  0.00000000000E+00  0.00000000000E+00  0.30332402286E+03  0.30332402290E+03  0.50400001928E-02 0.  1.
        1   -1    0    0  501    0  0.00000000000E+00  0.00000000000E+00 -0.99659965915E+03  0.99659965916E+03  0.50400001928E-02 0. -1.
    10030    2    1    2    0    0  0.00000000000E+00  0.00000000000E+00 -0.69327563629E+03  0.12999236821E+04  0.10996228769E+04 0.  0.
        1    1    3    3  502    0  0.28585369935E+03  0.46598975456E+03 -0.27736490964E+03  0.61301719545E+03  0.50400001928E-02 0.  1.
       -1    1    3    3    0  502 -0.28585369935E+03 -0.46598975456E+03 -0.41591072665E+03  0.68690648662E+03  0.50400001928E-02 0. -1.
</event>
<event>
 5   0  0.6245176E-04  0.1102400E+04  0.7818609E-02  0.9202856E-01
       -2   -1    0    0    0  501  0.00000000000E+00  0.00000000000E+00  0.90102007258E+03  0.90102007258E+03  0.25500000920E-02 0. -1.
        2   -1    0    0  501    0  0.00000000000E+00  0.00000000000E+00 -0.33719701684E+03  0.33719701685E+03  0.25500000920E-02 0.  1.
    10030    2    1    2    0    0  0.00000000000E+00  0.00000000000E+00  0.56382305573E+03  0.12382170894E+04  0.11023997108E+04 0.  0.
        5    1    3    3  502    0  0.40464534617E+03 -0.31887697183E+03  0.50195245312E+03  0.71930434069E+03  0.46999998093E+01 0. -1.
       -5    1    3    3    0  502 -0.40464534617E+03  0.31887697183E+03  0.61870602610E+02  0.51891274874E+03  0.46999998093E+01 0.  1.
</event>
<event>
 5   0  0.2403875E-04  0.1101656E+04  0.7818609E-02  0.9203580E-01
       -3   -1    0    0    0  501  0.00000000000E+00  0.00000000000E+00  0.81018431648E+03  0.81018432277E+03  0.10100000352E+00 0.  1.
        3   -1    0    0  501    0  0.00000000000E+00  0.00000000000E+00 -0.37449661553E+03  0.37449662914E+03  0.10100000352E+00 0. -1.
    10030    2    1    2    0    0  0.00000000000E+00  0.00000000000E+00  0.43568770095E+03  0.11846809519E+04  0.11016556563E+04 0.  0.
        4    1    3    3  502    0 -0.36800657972E+03  0.20869050081E+03  0.59717328537E+03  0.73184568969E+03  0.12699999809E+01 0.  1.
       -4    1    3    3    0  502  0.36800657972E+03 -0.20869050081E+03 -0.16148558442E+03  0.45283526223E+03  0.12699999809E+01 0. -1.
</event>
<event>
 5   0  0.6109149E-04  0.1100379E+04  0.7818609E-02  0.9204823E-01
        2   -1    0    0  501    0  0.00000000000E+00  0.00000000000E+00  0.51342745537E+03  0.51342745538E+03  0.25500000920E-02 0. -1.
       -2   -1    0    0    0  501  0.00000000000E+00  0.00000000000E+00 -0.58958361691E+03  0.58958361692E+03  0.25500000920E-02 0.  1.
    10030    2    1    2    0    0  0.00000000000E+00  0.00000000000E+00 -0.76156161540E+02  0.11030110723E+04  0.11003788732E+04 0.  0.
        1    1    3    3  502    0 -0.30219877121E+03  0.34052131979E+03  0.27157760981E+03  0.53012570653E+03  0.50400001928E-02 0. -1.
       -1    1    3    3    0  502  0.30219877121E+03 -0.34052131979E+03 -0.34773377135E+03  0.57288536577E+03  0.50400001928E-02 0.  1.
</event>
<event>
 5   0  0.5948818E-04  0.1099191E+04  0.7818609E-02  0.9205981E-01
        2   -1    0    0  501    0  0.00000000000E+00  0.00000000000E+00  0.84608201905E+03  0.84608201906E+03  0.25500000920E-02 0. -1.
       -2   -1    0    0    0  501  0.00000000000E+00  0.00000000000E+00 -0.35700460016E+03  0.35700460017E+03  0.25500000920E-02 0.  1.
    10030    2    1    2    0    0  0.00000000000E+00  0.00000000000E+00  0.48907741890E+03  0.12030866192E+04  0.10991909259E+04 0.  0.
        3    1    3    3  502    0  0.33781100662E+03 -0.41062081598E+03  0.92367214112E+02  0.53968272453E+03  0.10100000352E+00 0.  1.
       -3    1    3    3    0  502 -0.33781100662E+03  0.41062081598E+03  0.39671020478E+03  0.66340389469E+03  0.10100000352E+00 0. -1.
</event>
<event>
 5   0  0.3423758E-04  0.1107064E+04  0.7818609E-02  0.9198334E-01
       -1   -1    0    0    0  501  0.00000000000E+00  0.00000000000E+00  0.55949838369E+03  0.55949838371E+03  0.50400001928E-02 0. -1.
        1   -1    0    0  501    0  0.00000000000E+00  0.00000000000E+00 -0.54762956913E+03  0.54762956915E+03  0.50400001928E-02 0.  1.
    10030    2    1    2    0    0  0.00000000000E+00  0.00000000000E+00  0.11868814563E+02  0.11071279529E+04  0.11070643320E+04 0.  0.
        1    1    3    3  502    0 -0.45452295070E+03 -0.82529376411E+02 -0.29903499605E+03  0.55029459344E+03  0.50400001928E-02 0.  1.
       -1    1    3    3    0  502  0.45452295070E+03  0.82529376411E+02  0.31090381062E+03  0.55683335942E+03  0.50400001928E-02 0. -1.
</event>
<event>
 5   0  0.2403875E-04  0.1095733E+04  0.7818609E-02  0.9209361E-01
       -4   -1    0    0    0  501  0.00000000000E+00  0.00000000000E+00  0.52575072238E+03  0.52575225627E+03  0.12699999809E+01 0. -1.
        4   -1    0    0  501    0  0.00000000000E+00  0.00000000000E+00 -0.57090966418E+03  0.57091107675E+03  0.12699999809E+01 0.  1.
    10030    2    1    2    0    0  0.00000000000E+00  0.00000000000E+00 -0.45158941806E+02  0.10966633330E+04  0.10957331500E+04 0.  0.
        5    1    3    3  502    0 -0.40935631464E+03  0.33191065465E+02 -0.38546340340E+03  0.56327467946E+03  0.46999998093E+01 0.  1.
       -5    1    3    3    0  502  0.40935631464E+03 -0.33191065465E+02  0.34030446160E+03  0.53338865356E+03  0.46999998093E+01 0. -1.
</event>
<event>
 5   0  0.6109149E-04  0.1103302E+04  0.7818609E-02  0.9201980E-01
        2   -1    0    0  501    0  0.00000000000E+00  0.00000000000E+00  0.61357763915E+03  0.61357763915E+03  0.25500000920E-02 0. -1.
       -2   -1    0    0    0  501  0.00000000000E+00  0.00000000000E+00 -0.49597399717E+03  0.49597399718E+03  0.25500000920E-02 0.  1.
    10030    2    1    2    0    0  0.00000000000E+00  0.00000000000E+00  0.11760364197E+03  0.11095516363E+04  0.11033015078E+04 0.  0.
        1    1    3    3  502    0  0.25217302743E+03  0.18920568867E+03 -0.39645295914E+03  0.50652243507E+03  0.50400001928E-02 0.  1.
       -1    1    3    3    0  502 -0.25217302743E+03 -0.18920568867E+03  0.51405660112E+03  0.60302920126E+03  0.50400001928E-02 0. -1.
</event>
<event>
 5   0  0.5948818E-04  0.1098155E+04  0.7818609E-02  0.9206992E-01
        2   -1    0    0  501    0  0.00000000000E+00  0.00000000000E+00  0.75508225475E+03  0.75508225476E+03  0.25500000920E-02 0. -1.
       -2   -1    0    0    0  501  0.00000000000E+00  0.00000000000E+00 -0.39927550114E+03  0.39927550115E+03  0.25500000920E-02 0.  1.
    10030    2    1    2    0    0  0.00000000000E+00  0.00000000000E+00  0.35580675361E+03  0.11543577559E+04  0.10981545350E+04 0.  0.
        3    1    3    3  502    0  0.21061393369E+03  0.45917225313E+03 -0.48255311887E+02  0.50747016901E+03  0.10100000352E+00 0.  1.
       -3    1    3    3    0  502 -0.21061393369E+03 -0.45917225313E+03  0.40406206550E+03  0.64688758690E+03  0.10100000352E+00 0. -1.
</event>
<event>
 5   0  0.3523525E-04  0.1099023E+04  0.7818609E-02  0.9206144E-01
       -1   -1    0    0    0  501  0.00000000000E+00  0.00000000000E+00  0.29938329601E+03  0.29938329605E+03  0.50400001928E-02 0. -1.
        1   -1    0    0  501    0  0.00000000000E+00  0.00000000000E+00 -0.10086169580E+04  0.10086169580E+04  0.50400001928E-02 0.  1.
    10030    2    1    2    0    0  0.00000000000E+00  0.00000000000E+00 -0.70923366198E+03  0.13080002540E+04  0.10990233288E+04 0.  0.
        5    1    3    3  502    0 -0.33381199329E+03  0.26280774056E+02 -0.87314425917E+03  0.93515993994E+03  0.46999998093E+01 0.  1.
       -5    1    3    3    0  502  0.33381199329E+03 -0.26280774056E+02  0.16391059719E+03  0.37284031410E+03  0.46999998093E+01 0. -1.
</event>
<event>
 5   0  0.5948818E-04  0.1099024E+04  0.7818609E-02  0.9206143E-01
        2   -1    0    0  501    0  0.00000000000E+00  0.00000000000E+00  0.13452128976E+04  0.13452128976E+04  0.25500000920E-02 0. -1.
       -2   -1    0    0    0  501  0.00000000000E+00  0.00000000000E+00 -0.22447273294E+03  0.22447273296E+03  0.25500000920E-02 0.  1.
    10030    2    1    2    0    0  0.00000000000E+00  0.00000000000E+00  0.11207401646E+04  0.15696856305E+04  0.10990243228E+04 0.  0.
        3    1    3    3  502    0  0.42213776598E+03  0.21537418817E+03  0.95766415218E+03  0.10685068895E+04  0.10100000352E+00 0. -1.
       -3    1    3    3    0  502 -0.42213776598E+03 -0.21537418817E+03  0.16307601244E+03  0.50117874100E+03  0.10100000352E+00 0.  1.
</event>
<event>
 5   0  0.3642161E-04  0.1098001E+04  0.7818609E-02  0.9207142E-01
       -1   -1    0    0    0  501  0.00000000000E+00  0.00000000000E+00  0.30471950435E+03  0.30471950440E+03  0.50400001928E-02 0.  1.
        1   -1    0    0  501    0  0.00000000000E+00  0.00000000000E+00 -0.98911182355E+03  0.98911182357E+03  0.50400001928E-02 0. -1.
    10030    2    1    2    0    0  0.00000000000E+00  0.00000000000E+00 -0.68439231920E+03  0.12938313280E+04  0.10980012107E+04 0.  0.
        2    1    3    3  502    0 -0.11250444333E+03  0.29290465164E+03  0.18865251940E+03  0.36611495162E+03  0.25500000920E-02 0.  1.
       -2    1    3    3    0  502  0.11250444333E+03 -0.29290465164E+03 -0.87304483860E+03  0.92771637634E+03  0.25500000920E-02 0. -1.
</event>
<event>
 5   0  0.3657529E-04  0.1098929E+04  0.7818609E-02  0.9206236E-01
       -1   -1    0    0    0  501  0.00000000000E+00  0.00000000000E+00  0.67153689084E+03  0.67153689086E+03  0.50400001928E-02 0. -1.
        1   -1    0    0  501    0  0.00000000000E+00  0.00000000000E+00 -0.44958259750E+03  0.44958259753E+03  0.50400001928E-02 0.  1.
    10030    2    1    2    0    0  0.00000000000E+00  0.00000000000E+00  0.22195429334E+03  0.11211194884E+04  0.10989291146E+04 0.  0.
        4    1    3    3  502    0  0.26680500676E+03 -0.12505331021E+03  0.58411614156E+03  0.65422971635E+03  0.12699999809E+01 0. -1.
       -4    1    3    3    0  502 -0.26680500676E+03  0.12505331021E+03 -0.36216184822E+03  0.46688977204E+03  0.12699999809E+01 0.  1.
</event>
<event>
 5   0  0.5948818E-04  0.1098613E+04  0.7818609E-02  0.9206545E-01
       -2   -1    0    0    0  501  0.00000000000E+00  0.00000000000E+00  0.22029404719E+03  0.22029404721E+03  0.25500000920E-02 0.  1.
        2   -1    0    0  501    0  0.00000000000E+00  0.00000000000E+00 -0.13697031084E+04  0.13697031084E+04  0.25500000920E-02 0. -1.
    10030    2    1    2    0    0  0.00000000000E+00  0.00000000000E+00 -0.11494090612E+04  0.15899971556E+04  0.10986126546E+04 0.  0.
        3    1    3    3  502    0  0.77731986710E+02  0.54335027772E+03 -0.54347401132E+03  0.77242203311E+03  0.10100000352E+00 0. -1.
       -3    1    3    3    0  502 -0.77731986710E+02 -0.54335027772E+03 -0.60593504992E+03  0.81757512253E+03  0.10100000352E+00 0.  1.
</event>
<event>
 5   0  0.3621403E-04  0.1102288E+04  0.7818609E-02  0.9202965E-01
       -1   -1    0    0    0  501  0.00000000000E+00  0.00000000000E+00  0.52566779504E+03  0.52566779506E+03  0.50400001928E-02 0.  1.
        1   -1    0    0  501    0  0.00000000000E+00  0.00000000000E+00 -0.57785439549E+03  0.57785439551E+03  0.50400001928E-02 0. -1.
    10030    2    1    2    0    0  0.00000000000E+00  0.00000000000E+00 -0.52186600451E+02  0.11035221906E+04  0.11022875232E+04 0.  0.
        3    1    3    3  502    0  0.28594735725E+03  0.27679079714E+03  0.35562159538E+03  0.53370943949E+03  0.10100000352E+00 0.  1.
       -3    1    3    3    0  502 -0.28594735725E+03 -0.27679079714E+03 -0.40780819583E+03  0.56981275108E+03  0.10100000352E+00 0. -1.
</event>
<event>
 5   0  0.3423758E-04  0.1102648E+04  0.7818609E-02  0.9202615E-01
       -1   -1    0    0    0  501  0.00000000000E+00  0.00000000000E+00  0.10658448010E+04  0.10658448010E+04  0.50400001928E-02 0. -1.
        1   -1    0    0  501    0  0.00000000000E+00  0.00000000000E+00 -0.28518054184E+03  0.28518054189E+03  0.50400001928E-02 0.  1.
    10030    2    1    2    0    0  0.00000000000E+00  0.00000000000E+00  0.78066425918E+03  0.13510253429E+04  0.11026480815E+04 0.  0.
        1    1    3    3  502    0 -0.39999923293E+03 -0.33864719498E+03  0.18068494633E+03  0.55437204012E+03  0.50400001928E-02 0.  1.
       -1    1    3    3    0  502  0.39999923293E+03  0.33864719498E+03  0.59997931285E+03  0.79665330281E+03  0.50400001928E-02 0. -1.
</event>
<event>
 5   0  0.3657529E-04  0.1106274E+04  0.7818609E-02  0.9199099E-01
        1   -1    0    0  501    0  0.00000000000E+00  0.00000000000E+00  0.73097514594E+03  0.73097514596E+03  0.50400001928E-02 0. -1.
       -1   -1    0    0    0  501  0.00000000000E+00  0.00000000000E+00 -0.41856456832E+03  0.41856456835E+03  0.50400001928E-02 0.  1.
    10030    2    1    2    0    0  0.00000000000E+00  0.00000000000E+00  0.31241057762E+03  0.11495397143E+04  0.11062735583E+04 0.  0.
        4    1    3    3  502    0  0.20584503221E+03  0.18358752388E+03 -0.34200655932E+03  0.43937074974E+03  0.12699999809E+01 0.  1.
       -4    1    3    3    0  502 -0.20584503221E+03 -0.18358752388E+03  0.65441713694E+03  0.71016896456E+03  0.12699999809E+01 0. -1.
</event>
<event>
 5   0  0.6412712E-04  0.1100579E+04  0.7818609E-02  0.9204627E-01
        2   -1    0    0  501    0  0.00000000000E+00  0.00000000000E+00  0.49737421663E+03  0.49737421664E+03  0.25500000920E-02 0. -1.
       -2   -1    0    0    0  501  0.00000000000E+00  0.00000000000E+00 -0.60883470562E+03  0.60883470563E+03  0.25500000920E-02 0.  1.
    10030    2    1    2    0    0  0.00000000000E+00  0.00000000000E+00 -0.11146048899E+03  0.11062089223E+04  0.11005792743E+04 0.  0.
        2    1    3    3  502    0  0.35670422113E+02 -0.81290950845E+02  0.49012973742E+03  0.49810416302E+03  0.25500000920E-02 0. -1.
       -2    1    3    3    0  502 -0.35670422113E+02  0.81290950845E+02 -0.60159022641E+03  0.60810475925E+03  0.25500000920E-02 0.  1.
</event>
<event>
 5   0  0.6412712E-04  0.1098035E+04  0.7818609E-02  0.9207110E-01
       -2   -1    0    0    0  501  0.00000000000E+00  0.00000000000E+00  0.72809109391E+03  0.72809109392E+03  0.25500000920E-02 0. -1.
        2   -1    0    0  501    0  0.00000000000E+00  0.00000000000E+00 -0.41398661626E+03  0.41398661626E+03  0.25500000920E-02 0.  1.
    10030    2    1    2    0    0  0.00000000000E+00  0.00000000000E+00  0.31410447766E+03  0.11420777102E+04  0.10980345501E+04 0.  0.
        2    1    3    3  502    0  0.18121929804E+03  0.15545887363E+03  0.67126278219E+03  0.71246166081E+03  0.25500000920E-02 0. -1.
       -2    1    3    3    0  502 -0.18121929804E+03 -0.15545887363E+03 -0.35715830453E+03  0.42961604937E+03  0.25500000920E-02 0.  1.
</event>
<event>
 5   0  0.6412712E-04  0.1107018E+04  0.7818609E-02  0.9198378E-01
       -2   -1    0    0    0  501  0.00000000000E+00  0.00000000000E+00  0.28640412417E+03  0.28640412418E+03  0.25500000920E-02 0. -1.
        2   -1    0    0  501    0  0.00000000000E+00  0.00000000000E+00 -0.10697207419E+04  0.10697207419E+04  0.25500000920E-02 0.  1.
    10030    2    1    2    0    0  0.00000000000E+00  0.00000000000E+00 -0.78331661772E+03  0.13561248661E+04  0.11070183959E+04 0.  0.
        2    1    3    3  502    0  0.39304461754E+03  0.28597876412E+03 -0.71601122893E+03  0.86541319892E+03  0.25500000920E-02 0.  1.
       -2    1    3    3    0  502 -0.39304461754E+03 -0.28597876412E+03 -0.67305388790E+02  0.49071166714E+03  0.25500000920E-02 0. -1.
</event>
<event>
 5   0  0.3642161E-04  0.1084829E+04  0.7818609E-02  0.9220106E-01
       -1   -1    0    0    0  501  0.00000000000E+00  0.00000000000E+00  0.64229528211E+03  0.64229528213E+03  0.50400001928E-02 0.  1.
        1   -1    0    0  501    0  0.00000000000E+00  0.00000000000E+00 -0.45806547078E+03  0.45806547081E+03  0.50400001928E-02 0. -1.
    10030    2    1    2    0    0  0.00000000000E+00  0.00000000000E+00  0.18422981133E+03  0.11003607529E+04  0.10848286331E+04 0.  0.
        2    1    3    3  502    0  0.17632875869E+03 -0.80797638938E+02  0.60591777445E+03  0.63620471469E+03  0.25500000920E-02 0.  1.
       -2    1    3    3    0  502 -0.17632875869E+03  0.80797638938E+02 -0.42168796312E+03  0.46415603825E+03  0.25500000920E-02 0. -1.
</event>
<event>
 5   0  0.3657529E-04  0.1099892E+04  0.7818609E-02  0.9205298E-01
        1   -1    0    0  501    0  0.00000000000E+00  0.00000000000E+00  0.84799310784E+03  0.84799310786E+03  0.50400001928E-02 0. -1.
       -1   -1    0    0    0  501  0.00000000000E+00  0.00000000000E+00 -0.35665428794E+03  0.35665428797E+03  0.50400001928E-02 0.  1.
    10030    2    1    2    0    0  0.00000000000E+00  0.00000000000E+00  0.49133881991E+03  0.12046473958E+04  0.10998915912E+04 0.  0.
        4    1    3    3  502    0 -0.10186234664E+02  0.30920912671E+03  0.74364295610E+03  0.80543187327E+03  0.12699999809E+01 0. -1.
       -4    1    3    3    0  502  0.10186234664E+02 -0.30920912671E+03 -0.25230413619E+03  0.39921552256E+03  0.12699999809E+01 0.  1.
</event>
<event>
 5   0  0.3621403E-04  0.1096361E+04  0.7818609E-02  0.9208746E-01
       -1   -1    0    0    0  501  0.00000000000E+00  0.00000000000E+00  0.35664857678E+03  0.35664857681E+03  0.50400001928E-02 0.  1.
        1   -1    0    0  501    0  0.00000000000E+00  0.00000000000E+00 -0.84257192820E+03  0.84257192822E+03  0.50400001928E-02 0. -1.
    10030    2    1    2    0    0  0.00000000000E+00  0.00000000000E+00 -0.48592335142E+03  0.11992205050E+04  0.10963613985E+04 0.  0.
        3    1    3    3  502    0 -0.52057347947E+03  0.13704920917E+03 -0.35622782424E+03  0.64550562060E+03  0.10100000352E+00 0. -1.
       -3    1    3    3    0  502  0.52057347947E+03 -0.13704920917E+03 -0.12969552718E+03  0.55371488443E+03  0.10100000352E+00 0.  1.
</event>
<event>
 5   0  0.6245176E-04  0.1097081E+04  0.7818609E-02  0.9208042E-01
        2   -1    0    0  501    0  0.00000000000E+00  0.00000000000E+00  0.41876409684E+03  0.41876409685E+03  0.25500000920E-02 0.  1.
       -2   -1    0    0    0  501  0.00000000000E+00  0.00000000000E+00 -0.71853469999E+03  0.71853469999E+03  0.25500000920E-02 0. -1.
    10030    2    1    2    0    0  0.00000000000E+00  0.00000000000E+00 -0.29977060315E+03  0.11372987968E+04  0.10970807349E+04 0.  0.
        5    1    3    3  502    0  0.25899115735E+03  0.39828891702E+03 -0.43409626578E+03  0.64356207080E+03  0.46999998093E+01 0. -1.
       -5    1    3    3    0  502 -0.25899115735E+03 -0.39828891702E+03  0.13432566264E+03  0.49373672604E+03  0.46999998093E+01 0.  1.
</event>
<event>
 5   0  0.3657529E-04  0.1098851E+04  0.7818609E-02  0.9206313E-01
       -1   -1    0    0    0  501  0.00000000000E+00  0.00000000000E+00  0.23300861730E+03  0.23300861735E+03  0.50400001928E-02 0. -1.
        1   -1    0    0  501    0  0.00000000000E+00  0.00000000000E+00 -0.12955234695E+04  0.12955234695E+04  0.50400001928E-02 0.  1.
    10030    2    1    2    0    0  0.00000000000E+00  0.00000000000E+00 -0.10625148522E+04  0.15285320869E+04  0.10988505492E+04 0.  0.
        4    1    3    3  502    0 -0.50222575971E+03 -0.19276840810E+03 -0.37588420675E+03  0.65626284571E+03  0.12699999809E+01 0.  1.
       -4    1    3    3    0  502  0.50222575971E+03  0.19276840810E+03 -0.68663064545E+03  0.87226924115E+03  0.12699999809E+01 0. -1.
</event>
<event>
 5   0  0.6245176E-04  0.1099156E+04  0.7818609E-02  0.9206015E-01
        2   -1    0    0  501    0  0.00000000000E+00  0.00000000000E+00  0.79754884383E+03  0.79754884384E+03  0.25500000920E-02 0. -1.
       -2   -1    0    0    0  501  0.00000000000E+00  0.00000000000E+00 -0.37870552260E+03  0.37870552261E+03  0.25500000920E-02 0.  1.
    10030    2    1    2    0    0  0.00000000000E+00  0.00000000000E+00  0.41884332123E+03  0.11762543664E+04  0.10991563159E+04 0.  0.
        5    1    3    3  502    0 -0.45500203463E+03  0.30682512853E+03  0.24053965624E+03  0.59920774965E+03  0.46999998093E+01 0.  1.
       -5    1    3    3    0  502  0.45500203463E+03 -0.30682512853E+03  0.17830366499E+03  0.57704661680E+03  0.46999998093E+01 0. -1.
</event>
<event>
 5   0  0.3657529E-04  0.1100359E+04  0.7818609E-02  0.9204842E-01
        1   -1    0    0  501    0  0.00000000000E+00  0.00000000000E+00  0.91028196127E+03  0.91028196128E+03  0.50400001928E-02 0. -1.
       -1   -1    0    0    0  501  0.00000000000E+00  0.00000000000E+00 -0.33253167134E+03  0.33253167137E+03  0.50400001928E-02 0.  1.
    10030    2    1    2    0    0  0.00000000000E+00  0.00000000000E+00  0.57775028993E+03  0.12428136327E+04  0.11003591814E+04 0.  0.
        4    1    3    3  502    0 -0.32517561384E+03 -0.21864990782E+03 -0.14732089669E+03  0.41863112824E+03  0.12699999809E+01 0.  1.
       -4    1    3    3    0  502  0.32517561384E+03  0.21864990782E+03  0.72507118662E+03  0.82418250442E+03  0.12699999809E+01 0. -1.
</event>
<event>
 5   0  0.3523525E-04  0.1099624E+04  0.7818609E-02  0.9205559E-01
       -1   -1    0    0    0  501  0.00000000000E+00  0.00000000000E+00  0.25094494143E+03  0.25094494148E+03  0.50400001928E-02 0. -1.
        1   -1    0    0  501    0  0.00000000000E+00  0.00000000000E+00 -0.12046189671E+04  0.12046189671E+04  0.50400001928E-02 0.  1.
    10030    2    1    2    0    0  0.00000000000E+00  0.00000000000E+00 -0.95367402563E+03  0.14555639085E+04  0.10996236378E+04 0.  0.
        5    1    3    3  502    0 -0.35452454805E+03  0.34712409297E+03 -0.16334766452E+03  0.52238619870E+03  0.46999998093E+01 0. -1.
       -5    1    3    3    0  502  0.35452454805E+03 -0.34712409297E+03 -0.79032636111E+03  0.93317770985E+03  0.46999998093E+01 0.  1.
</event>
<event>
 5   0  0.3621403E-04  0.1100254E+04  0.7818609E-02  0.9204944E-01
        1   -1    0    0  501    0  0.00000000000E+00  0.00000000000E+00  0.86339772215E+03  0.86339772217E+03  0.50400001928E-02 0.  1.
       -1   -1    0    0    0  501  0.00000000000E+00  0.00000000000E+00 -0.35052197811E+03  0.35052197815E+03  0.50400001928E-02 0. -1.
    10030    2    1    2    0    0  0.00000000000E+00  0.00000000000E+00  0.51287574404E+03  0.12139197003E+04  0.11002542933E+04 0.  0.
        3    1    3    3  502    0  0.41552222271E+03 -0.34965680121E+03  0.35338641536E+03  0.64792018410E+03  0.10100000352E+00 0. -1.
       -3    1    3    3    0  502 -0.41552222271E+03  0.34965680121E+03  0.15948932867E+03  0.56599951622E+03  0.10100000352E+00 0.  1.
</event>
<event>
 5   0  0.3423758E-04  0.1091064E+04  0.7818609E-02  0.9213945E-01
        1   -1    0    0  501    0  0.00000000000E+00  0.00000000000E+00  0.10371133784E+04  0.10371133784E+04  0.50400001928E-02 0.  1.
       -1   -1    0    0    0  501  0.00000000000E+00  0.00000000000E+00 -0.28695544581E+03  0.28695544586E+03  0.50400001928E-02 0. -1.
    10030    2    1    2    0    0  0.00000000000E+00  0.00000000000E+00  0.75015793254E+03  0.13240688242E+04  0.10910643095E+04 0.  0.
        1    1    3    3  502    0 -0.23762412030E+03  0.43025482324E+02  0.96871670583E+03  0.99836289538E+03  0.50400001928E-02 0.  1.
       -1    1    3    3    0  502  0.23762412030E+03 -0.43025482324E+02 -0.21855877330E+03  0.32570592885E+03  0.50400001928E-02 0. -1.
</event>
<event>
 5   0  0.6264830E-04  0.1094026E+04  0.7818609E-02  0.9211034E-01
        2   -1    0    0  501    0  0.00000000000E+00  0.00000000000E+00  0.47061122938E+03  0.47061122938E+03  0.25500000920E-02 0. -1.
       -2   -1    0    0    0  501  0.00000000000E+00  0.00000000000E+00 -0.63581834359E+03  0.63581834359E+03  0.25500000920E-02 0.  1.
    10030    2    1    2    0    0  0.00000000000E+00  0.00000000000E+00 -0.16520711421E+03  0.11064295730E+04  0.10940260552E+04 0.  0.
        4    1    3    3  502    0  0.18001499830E+03 -0.14597343082E+03 -0.58370878290E+03  0.62803757710E+03  0.12699999809E+01 0.  1.
       -4    1    3    3    0  502 -0.18001499830E+03  0.14597343082E+03  0.41850166869E+03  0.47839199587E+03  0.12699999809E+01 0. -1.
</event>
<event>
 5   0  0.6412712E-04  0.1099710E+04  0.7818609E-02  0.9205474E-01
       -2   -1    0    0    0  501  0.00000000000E+00  0.00000000000E+00  0.44182684942E+03  0.44182684942E+03  0.25500000920E-02 0.  1.
        2   -1    0    0  501    0  0.00000000000E+00  0.00000000000E+00 -0.68429687643E+03  0.68429687644E+03  0.25500000920E-02 0. -1.
    10030    2    1    2    0    0  0.00000000000E+00  0.00000000000E+00 -0.24247002702E+03  0.11261237259E+04  0.10997103855E+04 0.  0.
        2    1    3    3  502    0 -0.45409981543E+02 -0.49029557945E+03 -0.37183497002E+03  0.61701950260E+03  0.25500000920E-02 0. -1.
       -2    1    3    3    0  502  0.45409981543E+02  0.49029557945E+03  0.12936494301E+03  0.50910422326E+03  0.25500000920E-02 0.  1.
</event>
<event>
 5   0  0.3621403E-04  0.1101477E+04  0.7818609E-02  0.9203754E-01
        1   -1    0    0  501    0  0.00000000000E+00  0.00000000000E+00  0.57259494235E+03  0.57259494238E+03  0.50400001928E-02 0.  1.
       -1   -1    0    0    0  501  0.00000000000E+00  0.00000000000E+00 -0.52971612410E+03  0.52971612412E+03  0.50400001928E-02 0. -1.
    10030    2    1    2    0    0  0.00000000000E+00  0.00000000000E+00  0.42878818255E+02  0.11023110665E+04  0.11014767788E+04 0.  0.
        3    1    3    3  502    0 -0.44029736636E+03 -0.14294360146E+03  0.32002443853E+03  0.56277019775E+03  0.10100000352E+00 0.  1.
       -3    1    3    3    0  502  0.44029736636E+03  0.14294360146E+03 -0.27714562027E+03  0.53954086875E+03  0.10100000352E+00 0. -1.
</event>
<event>
 5   0  0.5948818E-04  0.1099495E+04  0.7818609E-02  0.9205684E-01
       -2   -1    0    0    0  501  0.00000000000E+00  0.00000000000E+00  0.29391663895E+03  0.29391663896E+03  0.25500000920E-02 0.  1.
        2   -1    0    0  501    0  0.00000000000E+00  0.00000000000E+00 -0.10282590124E+04  0.10282590124E+04  0.25500000920E-02 0. -1.
    10030    2    1    2    0    0  0.00000000000E+00  0.00000000000E+00 -0.73434237343E+03  0.13221756513E+04  0.10994952167E+04 0.  0.
        3    1    3    3  502    0  0.14165809921E+03 -0.10089821400E+03  0.25996270028E+03  0.31277481101E+03  0.10100000352E+00 0.  1.
       -3    1    3    3    0  502 -0.14165809921E+03  0.10089821400E+03 -0.99430507372E+03  0.10094008403E+04  0.10100000352E+00 0. -1.
</event>
<event>
 5   0  0.3423758E-04  0.1093349E+04  0.7818609E-02  0.9211698E-01
       -1   -1    0    0    0  501  0.00000000000E+00  0.00000000000E+00  0.40647529789E+03  0.40647529792E+03  0.50400001928E-02 0. -1.
        1   -1    0    0  501    0  0.00000000000E+00  0.00000000000E+00 -0.73523101982E+03  0.73523101983E+03  0.50400001928E-02 0.  1.
    10030    2    1    2    0    0  0.00000000000E+00  0.00000000000E+00 -0.32875572193E+03  0.11417063178E+04  0.10933494370E+04 0.  0.
        1    1    3    3  502    0 -0.32111936082E+03 -0.22104372274E+03 -0.56457111844E+03  0.68608929380E+03  0.50400001928E-02 0.  1.
       -1    1    3    3    0  502  0.32111936082E+03  0.22104372274E+03  0.23581539652E+03  0.45561702395E+03  0.50400001928E-02 0. -1.
</event>
<event>
 5   0  0.3657529E-04  0.1101584E+04  0.7818609E-02  0.9203649E-01
        1   -1    0    0  501    0  0.00000000000E+00  0.00000000000E+00  0.20099061669E+04  0.20099061669E+04  0.50400001928E-02 0.  1.
       -1   -1    0    0    0  501  0.00000000000E+00  0.00000000000E+00 -0.15093840853E+03  0.15093840862E+03  0.50400001928E-02 0. -1.
    10030    2    1    2    0    0  0.00000000000E+00  0.00000000000E+00  0.18589677584E+04  0.21608445755E+04  0.11015843830E+04 0.  0.
        4    1    3    3  502    0 -0.22108363960E+03  0.10789843050E+03 -0.37179245879E+02  0.24880505668E+03  0.12699999809E+01 0. -1.
       -4    1    3    3    0  502  0.22108363960E+03 -0.10789843050E+03  0.18961470043E+04  0.19120395189E+04  0.12699999809E+01 0.  1.
</event>
<event>
 5   0  0.3523525E-04  0.1099882E+04  0.7818609E-02  0.9205307E-01
       -1   -1    0    0    0  501  0.00000000000E+00  0.00000000000E+00  0.23575830977E+03  0.23575830983E+03  0.50400001928E-02 0. -1.
        1   -1    0    0  501    0  0.00000000000E+00  0.00000000000E+00 -0.12828176354E+04  0.12828176354E+04  0.50400001928E-02 0.  1.
    10030    2    1    2    0    0  0.00000000000E+00  0.00000000000E+00 -0.10470593256E+04  0.15185759453E+04  0.10998816619E+04 0.  0.
        5    1    3    3  502    0  0.32180851829E+03  0.13653945266E+03  0.62580016150E+02  0.35516488143E+03  0.46999998093E+01 0. -1.
       -5    1    3    3    0  502 -0.32180851829E+03 -0.13653945266E+03 -0.11096393418E+04  0.11634110638E+04  0.46999998093E+01 0.  1.
</event>
<event>
 5   0  0.5948818E-04  0.1097521E+04  0.7818609E-02  0.9207611E-01
        2   -1    0    0  501    0  0.00000000000E+00  0.00000000000E+00  0.91550988155E+03  0.91550988155E+03  0.25500000920E-02 0. -1.
       -2   -1    0    0    0  501  0.00000000000E+00  0.00000000000E+00 -0.32892963551E+03  0.32892963552E+03  0.25500000920E-02 0.  1.
    10030    2    1    2    0    0  0.00000000000E+00  0.00000000000E+00  0.58658024604E+03  0.12444395171E+04  0.10975214470E+04 0.  0.
        3    1    3    3  502    0 -0.66228755335E+02  0.24051492070E+03  0.84749848739E+03  0.88345196329E+03  0.10100000352E+00 0. -1.
       -3    1    3    3    0  502  0.66228755335E+02 -0.24051492070E+03 -0.26091824135E+03  0.36098755378E+03  0.10100000352E+00 0.  1.
</event>
<event>
 5   0  0.3423758E-04  0.1101698E+04  0.7818609E-02  0.9203539E-01
        1   -1    0    0  501    0  0.00000000000E+00  0.00000000000E+00  0.10604492635E+04  0.10604492635E+04  0.50400001928E-02 0.  1.
       -1   -1    0    0    0  501  0.00000000000E+00  0.00000000000E+00 -0.28613761733E+03  0.28613761737E+03  0.50400001928E-02 0. -1.
    10030    2    1    2    0    0  0.00000000000E+00  0.00000000000E+00  0.77431164619E+03  0.13465868809E+04  0.11016976456E+04 0.  0.
        1    1    3    3  502    0 -0.78995035364E+02  0.33226811050E+03  0.91542007770E+03  0.97705487642E+03  0.50400001928E-02 0. -1.
       -1    1    3    3    0  502  0.78995035364E+02 -0.33226811050E+03 -0.14110843151E+03  0.36953200448E+03  0.50400001928E-02 0.  1.
</event>
<event>
 5   0  0.6109149E-04  0.1100465E+04  0.7818609E-02  0.9204739E-01
        2   -1    0    0  501    0  0.00000000000E+00  0.00000000000E+00  0.76265205314E+03  0.76265205314E+03  0.25500000920E-02 0. -1.
       -2   -1    0    0    0  501  0.00000000000E+00  0.00000000000E+00 -0.39697781031E+03  0.39697781032E+03  0.25500000920E-02 0.  1.
    10030    2    1    2    0    0  0.00000000000E+00  0.00000000000E+00  0.36567424283E+03  0.11596298635E+04  0.11004652509E+04 0.  0.
        1    1    3    3  502    0  0.22583631312E+03  0.49301083085E+03  0.84581268426E+02  0.54883122238E+03  0.50400001928E-02 0.  1.
       -1    1    3    3    0  502 -0.22583631312E+03 -0.49301083085E+03  0.28109297440E+03  0.61079864108E+03  0.50400001928E-02 0. -1.
</event>
<event>
 5   0  0.3657529E-04  0.1101756E+04  0.7818609E-02  0.9203482E-01
       -1   -1    0    0    0  501  0.00000000000E+00  0.00000000000E+00  0.39947584837E+03  0.39947584840E+03  0.50400001928E-02 0. -1.
        1   -1    0    0  501    0  0.00000000000E+00  0.00000000000E+00 -0.75966129491E+03  0.75966129493E+03  0.50400001928E-02 0.  1.
    10030    2    1    2    0    0  0.00000000000E+00  0.00000000000E+00 -0.36018544654E+03  0.11591371433E+04  0.11017555814E+04 0.  0.
        4    1    3    3  502    0  0.18284917958E+03 -0.41047734904E+03  0.15515554308E+03  0.47539492214E+03  0.12699999809E+01 0. -1.
       -4    1    3    3    0  502 -0.18284917958E+03  0.41047734904E+03 -0.51534098962E+03  0.68374222119E+03  0.12699999809E+01 0.  1.
</event>
<event>
 5   0  0.3523525E-04  0.1099060E+04  0.7818609E-02  0.9206108E-01
       -1   -1    0    0    0  501  0.00000000000E+00  0.00000000000E+00  0.42386462753E+03  0.42386462756E+03  0.50400001928E-02 0. -1.
        1   -1    0    0  501    0  0.00000000000E+00  0.00000000000E+00 -0.71245239320E+03  0.71245239322E+03  0.50400001928E-02 0.  1.
    10030    2    1    2    0    0  0.00000000000E+00  0.00000000000E+00 -0.28858776567E+03  0.11363170208E+04  0.10990602682E+04 0.  0.
        5    1    3    3  502    0  0.17592840370E+03 -0.12608689088E+03  0.37791461368E+03  0.43553444469E+03  0.46999998093E+01 0. -1.
       -5    1    3    3    0  502 -0.17592840370E+03  0.12608689088E+03 -0.66650237935E+03  0.70078257610E+03  0.46999998093E+01 0.  1.
</event>
<event>
 5   0  0.2403875E-04  0.1098633E+04  0.7818609E-02  0.9206525E-01
       -3   -1    0    0    0  501  0.00000000000E+00  0.00000000000E+00  0.12593022729E+04  0.12593022769E+04  0.10100000352E+00 0.  1.
        3   -1    0    0  501    0  0.00000000000E+00  0.00000000000E+00 -0.23961587051E+03  0.23961589180E+03  0.10100000352E+00 0. -1.
    10030    2    1    2    0    0  0.00000000000E+00  0.00000000000E+00  0.10196864024E+04  0.14989181687E+04  0.10986333862E+04 0.  0.
        5    1    3    3  502    0  0.25403606533E+03 -0.46501619983E+02  0.11712776292E+04  0.11994207343E+04  0.46999998093E+01 0.  1.
       -5    1    3    3    0  502 -0.25403606533E+03  0.46501619983E+02 -0.15159122688E+03  0.29949743440E+03  0.46999998093E+01 0. -1.
</event>
<event>
 5   0  0.3642161E-04  0.1099536E+04  0.7818609E-02  0.9205644E-01
        1   -1    0    0  501    0  0.00000000000E+00  0.00000000000E+00  0.89839998640E+03  0.89839998642E+03  0.50400001928E-02 0.  1.
       -1   -1    0    0    0  501  0.00000000000E+00  0.00000000000E+00 -0.33642564404E+03  0.33642564408E+03  0.50400001928E-02 0. -1.
    10030    2    1    2    0    0  0.00000000000E+00  0.00000000000E+00  0.56197434236E+03  0.12348256305E+04  0.10995358913E+04 0.  0.
        2    1    3    3  502    0  0.32526641140E+03  0.42298386290E+03  0.13229019441E+03  0.54974019519E+03  0.25500000920E-02 0. -1.
       -2    1    3    3    0  502 -0.32526641140E+03 -0.42298386290E+03  0.42968414795E+03  0.68508543531E+03  0.25500000920E-02 0.  1.
</event>
<event>
 5   0  0.3642161E-04  0.1106518E+04  0.7818609E-02  0.9198862E-01
       -1   -1    0    0    0  501  0.00000000000E+00  0.00000000000E+00  0.69132940609E+03  0.69132940611E+03  0.50400001928E-02 0.  1.
        1   -1    0    0  501    0  0.00000000000E+00  0.00000000000E+00 -0.44276372259E+03  0.44276372262E+03  0.50400001928E-02 0. -1.
    10030    2    1    2    0    0  0.00000000000E+00  0.00000000000E+00  0.24856568350E+03  0.11340931287E+04  0.11065181090E+04 0.  0.
        2    1    3    3  502    0  0.54419748245E+03 -0.11428898589E+02  0.22581756437E+03  0.58930051079E+03  0.25500000920E-02 0. -1.
       -2    1    3    3    0  502 -0.54419748245E+03  0.11428898589E+02  0.22748119131E+02  0.54479261794E+03  0.25500000920E-02 0.  1.
</event>
<event>
 5   0  0.3523525E-04  0.1100629E+04  0.7818609E-02  0.9204579E-01
        1   -1    0    0  501    0  0.00000000000E+00  0.00000000000E+00  0.30251886542E+03  0.30251886546E+03  0.50400001928E-02 0.  1.
       -1   -1    0    0    0  501  0.00000000000E+00  0.00000000000E+00 -0.10010811468E+04  0.10010811468E+04  0.50400001928E-02 0. -1.
    10030    2    1    2    0    0  0.00000000000E+00  0.00000000000E+00 -0.69856228135E+03  0.13036000122E+04  0.11006287889E+04 0.  0.
        5    1    3    3  502    0 -0.24031238685E+03  0.47186611318E+03 -0.17195032976E+03  0.55677345299E+03  0.46999998093E+01 0.  1.
       -5    1    3    3    0  502  0.24031238685E+03 -0.47186611318E+03 -0.52661195159E+03  0.74682655925E+03  0.46999998093E+01 0. -1.
</event>
<event>
 5   0  0.6412712E-04  0.1097940E+04  0.7818609E-02  0.9207202E-01
        2   -1    0    0  501    0  0.00000000000E+00  0.00000000000E+00  0.35658221708E+03  0.35658221709E+03  0.25500000920E-02 0.  1.
       -2   -1    0    0    0  501  0.00000000000E+00  0.00000000000E+00 -0.84515781714E+03  0.84515781715E+03  0.25500000920E-02 0. -1.
    10030    2    1    2    0    0  0.00000000000E+00  0.00000000000E+00 -0.48857560006E+03  0.12017400342E+04  0.10979403412E+04 0.  0.
        2    1    3    3  502    0 -0.37786520696E+03  0.25139928347E+03 -0.58232988185E+03  0.73830332904E+03  0.25500000920E-02 0. -1.
       -2    1    3    3    0  502  0.37786520696E+03 -0.25139928347E+03  0.93754281790E+02  0.46343670520E+03  0.25500000920E-02 0.  1.
</event>
<event>
 5   0  0.3657529E-04  0.1100309E+04  0.7818609E-02  0.9204891E-01
       -1   -1    0    0    0  501  0.00000000000E+00  0.00000000000E+00  0.44665810776E+03  0.44665810779E+03  0.50400001928E-02 0. -1.
        1   -1    0    0  501    0  0.00000000000E+00  0.00000000000E+00 -0.67763251404E+03  0.67763251405E+03  0.50400001928E-02 0.  1.
    10030    2    1    2    0    0  0.00000000000E+00  0.00000000000E+00 -0.23097440627E+03  0.11242906218E+04  0.11003091502E+04 0.  0.
        4    1    3    3  502    0 -0.51937697164E+03 -0.54570222502E+02  0.61310227819E+02  0.52582402455E+03  0.12699999809E+01 0. -1.
       -4    1    3    3    0  502  0.51937697164E+03  0.54570222502E+02 -0.29228463409E+03  0.59846659730E+03  0.12699999809E+01 0.  1.
</event>
<event>
 5   0  0.3423758E-04  0.1101906E+04  0.7818609E-02  0.9203336E-01
        1   -1    0    0  501    0  0.00000000000E+00  0.00000000000E+00  0.36102981648E+03  0.36102981651E+03  0.50400001928E-02 0. -1.
       -1   -1    0    0    0  501  0.00000000000E+00  0.00000000000E+00 -0.84078729855E+03  0.84078729856E+03  0.50400001928E-02 0.  1.
    10030    2    1    2    0    0  0.00000000000E+00  0.00000000000E+00 -0.47975748207E+03  0.12018171151E+04  0.11019061378E+04 0.  0.
        1    1    3    3  502    0 -0.54172358490E+02  0.23311329895E+03 -0.78113387956E+03  0.81697404634E+03  0.50400001928E-02 0.  1.
       -1    1    3    3    0  502  0.54172358490E+02 -0.23311329895E+03  0.30137639748E+03  0.38484306874E+03  0.50400001928E-02 0. -1.
</event>
<event>
 5   0  0.3423758E-04  0.1100554E+04  0.7818609E-02  0.9204652E-01
       -1   -1    0    0    0  501  0.00000000000E+00  0.00000000000E+00  0.65324940298E+03  0.65324940300E+03  0.50400001928E-02 0.  1.
        1   -1    0    0  501    0  0.00000000000E+00  0.00000000000E+00 -0.46353597788E+03  0.46353597791E+03  0.50400001928E-02 0. -1.
    10030    2    1    2    0    0  0.00000000000E+00  0.00000000000E+00  0.18971342510E+03  0.11167853809E+04  0.11005536804E+04 0.  0.
        1    1    3    3  502    0  0.46882286493E+03  0.26534002633E+03  0.20878182087E+03  0.57774566810E+03  0.50400001928E-02 0.  1.
       -1    1    3    3    0  502 -0.46882286493E+03 -0.26534002633E+03 -0.19068395772E+02  0.53903971282E+03  0.50400001928E-02 0. -1.
</event>
<event>
 5   0  0.2403875E-04  0.1096479E+04  0.7818609E-02  0.9208631E-01
        3   -1    0    0  501    0  0.00000000000E+00  0.00000000000E+00  0.90790510945E+03  0.90790511507E+03  0.10100000352E+00 0.  1.
       -3   -1    0    0    0  501  0.00000000000E+00  0.00000000000E+00 -0.33105481785E+03  0.33105483326E+03  0.10100000352E+00 0. -1.
    10030    2    1    2    0    0  0.00000000000E+00  0.00000000000E+00  0.57685029160E+03  0.12389599483E+04  0.10964786795E+04 0.  0.
        1    1    3    3  502    0 -0.81772486899E+02 -0.33093423664E+02 -0.32298281107E+03  0.33481309798E+03  0.50400001928E-02 0. -1.
       -1    1    3    3    0  502  0.81772486899E+02  0.33093423664E+02  0.89983310267E+03  0.90414685035E+03  0.50400001928E-02 0.  1.
</event>
<event>
 5   0  0.6264830E-04  0.1102001E+04  0.7818609E-02  0.9203244E-01
       -2   -1    0    0    0  501  0.00000000000E+00  0.00000000000E+00  0.44919701448E+03  0.44919701449E+03  0.25500000920E-02 0. -1.
        2   -1    0    0  501    0  0.00000000000E+00  0.00000000000E+00 -0.67587615025E+03  0.67587615026E+03  0.25500000920E-02 0.  1.
    10030    2    1    2    0    0  0.00000000000E+00  0.00000000000E+00 -0.22667913577E+03  0.11250731647E+04  0.11020009961E+04 0.  0.
        4    1    3    3  502    0 -0.48450301509E+03  0.10286363459E+03  0.13311849968E+03  0.51288034356E+03  0.12699999809E+01 0. -1.
       -4    1    3    3    0  502  0.48450301509E+03 -0.10286363459E+03 -0.35979763544E+03  0.61219282119E+03  0.12699999809E+01 0.  1.
</event>
<event>
 5   0  0.3423758E-04  0.1084576E+04  0.7818609E-02  0.9220357E-01
        1   -1    0    0  501    0  0.00000000000E+00  0.00000000000E+00  0.14498451382E+04  0.14498451382E+04  0.50400001928E-02 0.  1.
       -1   -1    0    0    0  501  0.00000000000E+00  0.00000000000E+00 -0.20283289049E+03  0.20283289055E+03  0.50400001928E-02 0. -1.
    10030    2    1    2    0    0  0.00000000000E+00  0.00000000000E+00  0.12470122477E+04  0.16526780287E+04  0.10845760097E+04 0.  0.
        1    1    3    3  502    0 -0.10158813739E+03  0.26245054000E+03 -0.82847305494E+02  0.29336685508E+03  0.50400001928E-02 0. -1.
       -1    1    3    3    0  502  0.10158813739E+03 -0.26245054000E+03  0.13298595532E+04  0.13593111736E+04  0.50400001928E-02 0.  1.
</event>
<event>
 5   0  0.6264830E-04  0.1101110E+04  0.7818609E-02  0.9204110E-01
        2   -1    0    0  501    0  0.00000000000E+00  0.00000000000E+00  0.31780984593E+03  0.31780984594E+03  0.25500000920E-02 0.  1.
       -2   -1    0    0    0  501  0.00000000000E+00  0.00000000000E+00 -0.95374948777E+03  0.95374948777E+03  0.25500000920E-02 0. -1.
    10030    2    1    2    0    0  0.00000000000E+00  0.00000000000E+00 -0.63593964184E+03  0.12715593337E+04  0.11011103083E+04 0.  0.
        4    1    3    3  502    0 -0.26216273274E+03  0.33611730384E+03  0.84399157019E+02  0.43454455581E+03  0.12699999809E+01 0.  1.
       -4    1    3    3    0  502  0.26216273274E+03 -0.33611730384E+03 -0.72033879886E+03  0.83701477790E+03  0.12699999809E+01 0. -1.
</event>
<event>
 5   0  0.5948818E-04  0.1099550E+04  0.7818609E-02  0.9205631E-01
       -2   -1    0    0    0  501  0.00000000000E+00  0.00000000000E+00  0.21385365272E+03  0.21385365274E+03  0.25500000920E-02 0.  1.
        2   -1    0    0  501    0  0.00000000000E+00  0.00000000000E+00 -0.14133609582E+04  0.14133609582E+04  0.25500000920E-02 0. -1.
    10030    2    1    2    0    0  0.00000000000E+00  0.00000000000E+00 -0.11995073055E+04  0.16272146110E+04  0.10995497325E+04 0.  0.
        3    1    3    3  502    0  0.31138998980E+03 -0.20464722105E+03 -0.15254853830E+01  0.37262118584E+03  0.10100000352E+00 0.  1.
       -3    1    3    3    0  502 -0.31138998980E+03  0.20464722105E+03 -0.11979818201E+04  0.12545934251E+04  0.10100000352E+00 0. -1.
</event>
<event>
 5   0  0.6109149E-04  0.1099444E+04  0.7818609E-02  0.9205734E-01
        2   -1    0    0  501    0  0.00000000000E+00  0.00000000000E+00  0.98229189530E+03  0.98229189531E+03  0.25500000920E-02 0. -1.
       -2   -1    0    0    0  501  0.00000000000E+00  0.00000000000E+00 -0.30764200925E+03  0.30764200926E+03  0.25500000920E-02 0.  1.
    10030    2    1    2    0    0  0.00000000000E+00  0.00000000000E+00  0.67464988606E+03  0.12899339046E+04  0.10994439546E+04 0.  0.
        1    1    3    3  502    0  0.56164413093E+02  0.33611759590E+03  0.84341341025E+03  0.90965689146E+03  0.50400001928E-02 0. -1.
       -1    1    3    3    0  502 -0.56164413093E+02 -0.33611759590E+03 -0.16876352419E+03  0.38027701310E+03  0.50400001928E-02 0.  1.
</event>
<event>
 5   0  0.6264830E-04  0.1103210E+04  0.7818609E-02  0.9202069E-01
        2   -1    0    0  501    0  0.00000000000E+00  0.00000000000E+00  0.68106382700E+03  0.68106382700E+03  0.25500000920E-02 0.  1.
       -2   -1    0    0    0  501  0.00000000000E+00  0.00000000000E+00 -0.44675398797E+03  0.44675398797E+03  0.25500000920E-02 0. -1.
    10030    2    1    2    0    0  0.00000000000E+00  0.00000000000E+00  0.23430983903E+03  0.11278178150E+04  0.11032098273E+04 0.  0.
        4    1    3    3  502    0  0.52775648860E+03 -0.51840668185E+02  0.27237044172E+03  0.59615571503E+03  0.12699999809E+01 0.  1.
       -4    1    3    3    0  502 -0.52775648860E+03  0.51840668185E+02 -0.38060602688E+02  0.53166209995E+03  0.12699999809E+01 0. -1.
</event>
<event>
 5   0  0.3423758E-04  0.1098831E+04  0.7818609E-02  0.9206332E-01
        1   -1    0    0  501    0  0.00000000000E+00  0.00000000000E+00  0.34825602178E+03  0.34825602182E+03  0.50400001928E-02 0. -1.
       -1   -1    0    0    0  501  0.00000000000E+00  0.00000000000E+00 -0.86676796997E+03  0.86676796999E+03  0.50400001928E-02 0.  1.
    10030    2    1    2    0    0  0.00000000000E+00  0.00000000000E+00 -0.51851194819E+03  0.12150239918E+04  0.10988305876E+04 0.  0.
        1    1    3    3  502    0 -0.41983413540E+03 -0.28066696376E+03 -0.49852225651E+03  0.70961897244E+03  0.50400001928E-02 0.  1.
       -1    1    3    3    0  502  0.41983413540E+03  0.28066696376E+03 -0.19989691681E+02  0.50540501936E+03  0.50400001928E-02 0. -1.
</event>
<event>
 5   0  0.5948818E-04  0.1099508E+04  0.7818609E-02  0.9205672E-01
       -2   -1    0    0    0  501  0.00000000000E+00  0.00000000000E+00  0.40046607043E+03  0.40046607044E+03  0.25500000920E-02 0. -1.
        2   -1    0    0  501    0  0.00000000000E+00  0.00000000000E+00 -0.75469433745E+03  0.75469433745E+03  0.25500000920E-02 0.  1.
    10030    2    1    2    0    0  0.00000000000E+00  0.00000000000E+00 -0.35422826702E+03  0.11551604079E+04  0.10995080276E+04 0.  0.
        3    1    3    3  502    0 -0.42604512588E+03  0.25097101576E+03  0.75314882085E+02  0.50017321170E+03  0.10100000352E+00 0. -1.
       -3    1    3    3    0  502  0.42604512588E+03 -0.25097101576E+03 -0.42954314910E+03  0.65498719619E+03  0.10100000352E+00 0.  1.
</event>
<event>
 5   0  0.3423758E-04  0.1099873E+04  0.7818609E-02  0.9205316E-01
        1   -1    0    0  501    0  0.00000000000E+00  0.00000000000E+00  0.18772564402E+04  0.18772564402E+04  0.50400001928E-02 0.  1.
       -1   -1    0    0    0  501  0.00000000000E+00  0.00000000000E+00 -0.16110209830E+03  0.16110209838E+03  0.50400001928E-02 0. -1.
    10030    2    1    2    0    0  0.00000000000E+00  0.00000000000E+00  0.17161543419E+04  0.20383585386E+04  0.10998726320E+04 0.  0.
        1    1    3    3  502    0 -0.33358701600E+02 -0.51108473662E+03  0.48691643652E+03  0.70668806921E+03  0.50400001928E-02 0. -1.
       -1    1    3    3    0  502  0.33358701600E+02  0.51108473662E+03  0.12292379054E+04  0.13316704694E+04  0.50400001928E-02 0.  1.
</event>
<event>
 5   0  0.6264830E-04  0.1100974E+04  0.7818609E-02  0.9204243E-01
       -2   -1    0    0    0  501  0.00000000000E+00  0.00000000000E+00  0.85489534873E+03  0.85489534873E+03  0.25500000920E-02 0.  1.
        2   -1    0    0  501    0  0.00000000000E+00  0.00000000000E+00 -0.35447119178E+03  0.35447119179E+03  0.25500000920E-02 0. -1.
    10030    2    1    2    0    0  0.00000000000E+00  0.00000000000E+00  0.50042415695E+03  0.12093665405E+04  0.11009737020E+04 0.  0.
        4    1    3    3  502    0 -0.55042401278E+02 -0.33493148819E+03 -0.22584404507E+03  0.40769585883E+03  0.12699999809E+01 0. -1.
       -4    1    3    3    0  502  0.55042401278E+02  0.33493148819E+03  0.72626820202E+03  0.80167068169E+03  0.12699999809E+01 0.  1.
</event>
<event>
 5   0  0.6412712E-04  0.1101676E+04  0.7818609E-02  0.9203560E-01
       -2   -1    0    0    0  501  0.00000000000E+00  0.00000000000E+00  0.31891664147E+03  0.31891664148E+03  0.25500000920E-02 0. -1.
        2   -1    0    0  501    0  0.00000000000E+00  0.00000000000E+00 -0.95141666902E+03  0.95141666903E+03  0.25500000920E-02 0.  1.
    10030    2    1    2    0    0  0.00000000000E+00  0.00000000000E+00 -0.63250002755E+03  0.12703333105E+04  0.11016761933E+04 0.  0.
        2    1    3    3  502    0 -0.26772211545E+03 -0.32739445694E+03  0.90711768536E+02  0.43254004034E+03  0.25500000920E-02 0. -1.
       -2    1    3    3    0  502  0.26772211545E+03  0.32739445694E+03 -0.72321179609E+03  0.83779327017E+03  0.25500000920E-02 0.  1.
</event>
<event>
 5   0  0.6109149E-04  0.1098896E+04  0.7818609E-02  0.9206268E-01
        2   -1    0    0  501    0  0.00000000000E+00  0.00000000000E+00  0.19432585151E+04  0.19432585151E+04  0.25500000920E-02 0. -1.
       -2   -1    0    0    0  501  0.00000000000E+00  0.00000000000E+00 -0.15535418017E+03  0.15535418019E+03  0.25500000920E-02 0.  1.
    10030    2    1    2    0    0  0.00000000000E+00  0.00000000000E+00  0.17879043349E+04  0.20986126952E+04  0.10988964164E+04 0.  0.
        1    1    3    3  502    0  0.23125246029E+03  0.33899262722E+03  0.19617689899E+03  0.45483961725E+03  0.50400001928E-02 0.  1.
       -1    1    3    3    0  502 -0.23125246029E+03 -0.33899262722E+03  0.15917274359E+04  0.16437730780E+04  0.50400001928E-02 0. -1.
</event>
<event>
 5   0  0.5948818E-04  0.1100811E+04  0.7818609E-02  0.9204401E-01
       -2   -1    0    0    0  501  0.00000000000E+00  0.00000000000E+00  0.25709650735E+03  0.25709650737E+03  0.25500000920E-02 0.  1.
        2   -1    0    0  501    0  0.00000000000E+00  0.00000000000E+00 -0.11783374238E+04  0.11783374238E+04  0.25500000920E-02 0. -1.
    10030    2    1    2    0    0  0.00000000000E+00  0.00000000000E+00 -0.92124091641E+03  0.14354339311E+04  0.11008114028E+04 0.  0.
        3    1    3    3  502    0 -0.24575411347E+03 -0.32993487487E+03 -0.93741005050E+03  0.10237136899E+04  0.10100000352E+00 0. -1.
       -3    1    3    3    0  502  0.24575411347E+03  0.32993487487E+03  0.16169134084E+02  0.41172024123E+03  0.10100000352E+00 0.  1.
</event>
<event>
 5   0  0.2403875E-04  0.1097101E+04  0.7818609E-02  0.9208022E-01
       -3   -1    0    0    0  501  0.00000000000E+00  0.00000000000E+00  0.46739968492E+03  0.46739969583E+03  0.10100000352E+00 0.  1.
        3   -1    0    0  501    0  0.00000000000E+00  0.00000000000E+00 -0.64379077791E+03  0.64379078583E+03  0.10100000352E+00 0. -1.
    10030    2    1    2    0    0  0.00000000000E+00  0.00000000000E+00 -0.17639109299E+03  0.11111904817E+04  0.10971009383E+04 0.  0.
        1    1    3    3  502    0 -0.47539672217E+03 -0.25666916076E+02  0.18778644687E+03  0.51178568139E+03  0.50400001928E-02 0.  1.
       -1    1    3    3    0  502  0.47539672217E+03  0.25666916076E+02 -0.36417753986E+03  0.59940480027E+03  0.50400001928E-02 0. -1.
</event>
<event>
 5   0  0.6412712E-04  0.1099521E+04  0.7818609E-02  0.9205659E-01
        2   -1    0    0  501    0  0.00000000000E+00  0.00000000000E+00  0.14874005859E+04  0.14874005859E+04  0.25500000920E-02 0.  1.
       -2   -1    0    0    0  501  0.00000000000E+00  0.00000000000E+00 -0.20319778867E+03  0.20319778868E+03  0.25500000920E-02 0. -1.
    10030    2    1    2    0    0  0.00000000000E+00  0.00000000000E+00  0.12842027972E+04  0.16905983746E+04  0.10995208228E+04 0.  0.
        2    1    3    3  502    0  0.42351265733E+03  0.62370323006E+02  0.11724730776E+04  0.12481771292E+04  0.25500000920E-02 0.  1.
       -2    1    3    3    0  502 -0.42351265733E+03 -0.62370323006E+02  0.11172971960E+03  0.44242124537E+03  0.25500000920E-02 0. -1.
</event>
<event>
 5   0  0.3642161E-04  0.1100364E+04  0.7818609E-02  0.9204838E-01
       -1   -1    0    0    0  501  0.00000000000E+00  0.00000000000E+00  0.25804864020E+03  0.25804864025E+03  0.50400001928E-02 0. -1.
        1   -1    0    0  501    0  0.00000000000E+00  0.00000000000E+00 -0.11730345704E+04  0.11730345704E+04  0.50400001928E-02 0.  1.
    10030    2    1    2    0    0  0.00000000000E+00  0.00000000000E+00 -0.91498593019E+03  0.14310832106E+04  0.11003635324E+04 0.  0.
        2    1    3    3  502    0 -0.52667024788E+03  0.15737348688E+03 -0.48804940431E+03  0.73507835325E+03  0.25500000920E-02 0. -1.
       -2    1    3    3    0  502  0.52667024788E+03 -0.15737348688E+03 -0.42693652588E+03  0.69600485739E+03  0.25500000920E-02 0.  1.
</event>
<event>
 5   0  0.3642161E-04  0.1097804E+04  0.7818609E-02  0.9207334E-01
       -1   -1    0    0    0  501  0.00000000000E+00  0.00000000000E+00  0.29557350552E+03  0.29557350557E+03  0.50400001928E-02 0.  1.
        1   -1    0    0  501    0  0.00000000000E+00  0.00000000000E+00 -0.10193526378E+04  0.10193526378E+04  0.50400001928E-02 0. -1.
    10030    2    1    2    0    0  0.00000000000E+00  0.00000000000E+00 -0.72377913230E+03  0.13149261434E+04  0.10978044135E+04 0.  0.
        2    1    3    3  502    0  0.31576217902E+03 -0.27780243419E+03 -0.78437376133E+03  0.89001244014E+03  0.25500000920E-02 0. -1.
       -2    1    3    3    0  502 -0.31576217902E+03  0.27780243419E+03  0.60594629027E+02  0.42491370326E+03  0.25500000920E-02 0.  1.
</event>
<event>
 5   0  0.3657529E-04  0.1106517E+04  0.7818609E-02  0.9198863E-01
       -1   -1    0    0    0  501  0.00000000000E+00  0.00000000000E+00  0.49217718517E+03  0.49217718519E+03  0.50400001928E-02 0.  1.
        1   -1    0    0  501    0  0.00000000000E+00  0.00000000000E+00 -0.62191988673E+03  0.62191988675E+03  0.50400001928E-02 0. -1.
    10030    2    1    2    0    0  0.00000000000E+00  0.00000000000E+00 -0.12974270156E+03  0.11140970719E+04  0.11065166592E+04 0.  0.
        4    1    3    3  502    0  0.15421733873E+03  0.31936390251E+03  0.36267505907E+03  0.50725841655E+03  0.12699999809E+01 0.  1.
       -4    1    3    3    0  502 -0.15421733873E+03 -0.31936390251E+03 -0.49241776063E+03  0.60683865539E+03  0.12699999809E+01 0. -1.
</event>
<event>
 5   0  0.3523525E-04  0.1103299E+04  0.7818609E-02  0.9201983E-01
       -1   -1    0    0    0  501  0.00000000000E+00  0.00000000000E+00  0.63578722793E+03  0.63578722795E+03  0.50400001928E-02 0.  1.
        1   -1    0    0  501    0  0.00000000000E+00  0.00000000000E+00 -0.47864603341E+03  0.47864603343E+03  0.50400001928E-02 0. -1.
    10030    2    1    2    0    0  0.00000000000E+00  0.00000000000E+00  0.15714119452E+03  0.11144332614E+04  0.11032987533E+04 0.  0.
        5    1    3    3  502    0 -0.25235287078E+02  0.36025525828E+03 -0.34261993745E+03  0.49782645809E+03  0.46999998093E+01 0. -1.
       -5    1    3    3    0  502  0.25235287078E+02 -0.36025525828E+03  0.49976113197E+03  0.61660680329E+03  0.46999998093E+01 0.  1.
</event>
<event>
 5   0  0.3523525E-04  0.1101139E+04  0.7818609E-02  0.9204082E-01
       -1   -1    0    0    0  501  0.00000000000E+00  0.00000000000E+00  0.36557159737E+03  0.36557159741E+03  0.50400001928E-02 0. -1.
        1   -1    0    0  501    0  0.00000000000E+00  0.00000000000E+00 -0.82918649259E+03  0.82918649260E+03  0.50400001928E-02 0.  1.
    10030    2    1    2    0    0  0.00000000000E+00  0.00000000000E+00 -0.46361489522E+03  0.11947580900E+04  0.11011394655E+04 0.  0.
        5    1    3    3  502    0 -0.10963968309E+03  0.64220932716E+02  0.34942271816E+03  0.37183802155E+03  0.46999998093E+01 0. -1.
       -5    1    3    3    0  502  0.10963968309E+03 -0.64220932716E+02 -0.81303761338E+03  0.82292006846E+03  0.46999998093E+01 0.  1.
</event>
<event>
 5   0  0.5948818E-04  0.1099540E+04  0.7818609E-02  0.9205640E-01
        2   -1    0    0  501    0  0.00000000000E+00  0.00000000000E+00  0.19252157296E+04  0.19252157296E+04  0.25500000920E-02 0.  1.
       -2   -1    0    0    0  501  0.00000000000E+00  0.00000000000E+00 -0.15699389481E+03  0.15699389483E+03  0.25500000920E-02 0. -1.
    10030    2    1    2    0    0  0.00000000000E+00  0.00000000000E+00  0.17682218348E+04  0.20822096244E+04  0.10995401143E+04 0.  0.
        3    1    3    3  502    0  0.23106376689E+03 -0.49776685259E+03  0.94648275525E+03  0.10940712591E+04  0.10100000352E+00 0. -1.
       -3    1    3    3    0  502 -0.23106376689E+03  0.49776685259E+03  0.82173907951E+03  0.98813836526E+03  0.10100000352E+00 0.  1.
</event>
<event>
 5   0  0.5948818E-04  0.1107329E+04  0.7818609E-02  0.9198078E-01
        2   -1    0    0  501    0  0.00000000000E+00  0.00000000000E+00  0.76525140388E+03  0.76525140388E+03  0.25500000920E-02 0. -1.
       -2   -1    0    0    0  501  0.00000000000E+00  0.00000000000E+00 -0.40058019483E+03  0.40058019484E+03  0.25500000920E-02 0.  1.
    10030    2    1    2    0    0  0.00000000000E+00  0.00000000000E+00  0.36467120905E+03  0.11658315987E+04  0.11073293213E+04 0.  0.
        3    1    3    3  502    0 -0.21653852911E+03  0.16935271903E+03  0.68832540481E+03  0.74118901175E+03  0.10100000352E+00 0. -1.
       -3    1    3    3    0  502  0.21653852911E+03 -0.16935271903E+03 -0.32365419576E+03  0.42464258697E+03  0.10100000352E+00 0.  1.
</event>
<event>
 5   0  0.3523525E-04  0.1100494E+04  0.7818609E-02  0.9204710E-01
       -1   -1    0    0    0  501  0.00000000000E+00  0.00000000000E+00  0.30195796460E+03  0.30195796464E+03  0.50400001928E-02 0. -1.
        1   -1    0    0  501    0  0.00000000000E+00  0.00000000000E+00 -0.10026956874E+04  0.10026956874E+04  0.50400001928E-02 0.  1.
    10030    2    1    2    0    0  0.00000000000E+00  0.00000000000E+00 -0.70073772275E+03  0.13046536520E+04  0.11004943415E+04 0.  0.
        5    1    3    3  502    0 -0.49002275496E+03 -0.17076681280E+03 -0.13349312185E+03  0.53584149551E+03  0.46999998093E+01 0. -1.
       -5    1    3    3    0  502  0.49002275496E+03  0.17076681280E+03 -0.56724460091E+03  0.76881215650E+03  0.46999998093E+01 0.  1.
</event>
<event>
 5   0  0.6109149E-04  0.1100553E+04  0.7818609E-02  0.9204653E-01
       -2   -1    0    0    0  501  0.00000000000E+00  0.00000000000E+00  0.11537720489E+03  0.11537720492E+03  0.25500000920E-02 0. -1.
        2   -1    0    0  501    0  0.00000000000E+00  0.00000000000E+00 -0.26244707862E+04  0.26244707862E+04  0.25500000920E-02 0.  1.
    10030    2    1    2    0    0  0.00000000000E+00  0.00000000000E+00 -0.25090935813E+04  0.27398479911E+04  0.11005527769E+04 0.  0.
        1    1    3    3  502    0  0.18794940033E+03  0.96841341807E+02  0.10219663452E+02  0.21167820888E+03  0.50400001928E-02 0. -1.
       -1    1    3    3    0  502 -0.18794940033E+03 -0.96841341807E+02 -0.25193132448E+04  0.25281697822E+04  0.50400001928E-02 0.  1.
</event>
<event>
 5   0  0.3642161E-04  0.1127961E+04  0.7818609E-02  0.9178359E-01
        1   -1    0    0  501    0  0.00000000000E+00  0.00000000000E+00  0.49887476062E+03  0.49887476065E+03  0.50400001928E-02 0.  1.
       -1   -1    0    0    0  501  0.00000000000E+00  0.00000000000E+00 -0.63758343847E+03  0.63758343849E+03  0.50400001928E-02 0. -1.
    10030    2    1    2    0    0  0.00000000000E+00  0.00000000000E+00 -0.13870867784E+03  0.11364581991E+04  0.11279614980E+04 0.  0.
        2    1    3    3  502    0 -0.14923514106E+03 -0.41857653082E+03 -0.41924082207E+03  0.61093396237E+03  0.25500000920E-02 0. -1.
       -2    1    3    3    0  502  0.14923514106E+03  0.41857653082E+03  0.28053214423E+03  0.52552423677E+03  0.25500000920E-02 0.  1.
</event>
<event>
 5   0  0.5948818E-04  0.1101551E+04  0.7818609E-02  0.9203682E-01
        2   -1    0    0  501    0  0.00000000000E+00  0.00000000000E+00  0.58523625985E+03  0.58523625985E+03  0.25500000920E-02 0. -1.
       -2   -1    0    0    0  501  0.00000000000E+00  0.00000000000E+00 -0.51834351512E+03  0.51834351512E+03  0.25500000920E-02 0.  1.
    10030    2    1    2    0    0  0.00000000000E+00  0.00000000000E+00  0.66892744733E+02  0.11035797750E+04  0.11015505801E+04 0.  0.
        3    1    3    3  502    0 -0.43020515633E+03 -0.13414146614E+03  0.35070464030E+03  0.57102028371E+03  0.10100000352E+00 0. -1.
       -3    1    3    3    0  502  0.43020515633E+03  0.13414146614E+03 -0.28381189556E+03  0.53255949127E+03  0.10100000352E+00 0.  1.
</event>
<event>
 5   0  0.6264830E-04  0.1105194E+04  0.7818609E-02  0.9200144E-01
        2   -1    0    0  501    0  0.00000000000E+00  0.00000000000E+00  0.11056286822E+04  0.11056286822E+04  0.25500000920E-02 0. -1.
       -2   -1    0    0    0  501  0.00000000000E+00  0.00000000000E+00 -0.27619006132E+03  0.27619006133E+03  0.25500000920E-02 0.  1.
    10030    2    1    2    0    0  0.00000000000E+00  0.00000000000E+00  0.82943862085E+03  0.13818187435E+04  0.11051943784E+04 0.  0.
        4    1    3    3  502    0  0.17978932634E+03 -0.32771229952E+02  0.10667499896E+04  0.10822916929E+04  0.12699999809E+01 0. -1.
       -4    1    3    3    0  502 -0.17978932634E+03  0.32771229952E+02 -0.23731136876E+03  0.29952705057E+03  0.12699999809E+01 0.  1.
</event>
<event>
 5   0  0.6245176E-04  0.1099502E+04  0.7818609E-02  0.9205678E-01
        2   -1    0    0  501    0  0.00000000000E+00  0.00000000000E+00  0.15566652520E+04  0.15566652520E+04  0.25500000920E-02 0.  1.
       -2   -1    0    0    0  501  0.00000000000E+00  0.00000000000E+00 -0.19414969654E+03  0.19414969656E+03  0.25500000920E-02 0. -1.
    10030    2    1    2    0    0  0.00000000000E+00  0.00000000000E+00  0.13625155554E+04  0.17508149485E+04  0.10995018623E+04 0.  0.
        5    1    3    3  502    0 -0.49400443160E+03 -0.11432640133E+03  0.10193999074E+04  0.11385557367E+04  0.46999998093E+01 0. -1.
       -5    1    3    3    0  502  0.49400443160E+03  0.11432640133E+03  0.34311564803E+03  0.61225921178E+03  0.46999998093E+01 0.  1.
</event>
<event>
 5   0  0.3423758E-04  0.1099217E+04  0.7818609E-02  0.9205955E-01
        1   -1    0    0  501    0  0.00000000000E+00  0.00000000000E+00  0.67765056350E+03  0.67765056352E+03  0.50400001928E-02 0. -1.
       -1   -1    0    0    0  501  0.00000000000E+00  0.00000000000E+00 -0.44576035649E+03  0.44576035652E+03  0.50400001928E-02 0.  1.
    10030    2    1    2    0    0  0.00000000000E+00  0.00000000000E+00  0.23189020701E+03  0.11234109200E+04  0.10992174613E+04 0.  0.
        1    1    3    3  502    0  0.44975761529E+03  0.51936699153E+02  0.43439654586E+03  0.62743899489E+03  0.50400001928E-02 0. -1.
       -1    1    3    3    0  502 -0.44975761529E+03 -0.51936699153E+02 -0.20250633885E+03  0.49597192515E+03  0.50400001928E-02 0.  1.
</event>
<event>
 5   0  0.3621403E-04  0.1100007E+04  0.7818609E-02  0.9205185E-01
       -1   -1    0    0    0  501  0.00000000000E+00  0.00000000000E+00  0.69144028441E+03  0.69144028443E+03  0.50400001928E-02 0.  1.
        1   -1    0    0  501    0  0.00000000000E+00  0.00000000000E+00 -0.43749854899E+03  0.43749854902E+03  0.50400001928E-02 0. -1.
    10030    2    1    2    0    0  0.00000000000E+00  0.00000000000E+00  0.25394173542E+03  0.11289388334E+04  0.11000074930E+04 0.  0.
        3    1    3    3  502    0  0.65461650934E+02  0.52529876015E+03  0.28016188344E+03  0.59892796419E+03  0.10100000352E+00 0.  1.
       -3    1    3    3    0  502 -0.65461650934E+02 -0.52529876015E+03 -0.26220148014E+02  0.53001086925E+03  0.10100000352E+00 0. -1.
</event>
<event>
 5   0  0.3657529E-04  0.1080126E+04  0.7818609E-02  0.9224782E-01
       -1   -1    0    0    0  501  0.00000000000E+00  0.00000000000E+00  0.62381584514E+03  0.62381584516E+03  0.50400001928E-02 0. -1.
        1   -1    0    0  501    0  0.00000000000E+00  0.00000000000E+00 -0.46755447247E+03  0.46755447250E+03  0.50400001928E-02 0.  1.
    10030    2    1    2    0    0  0.00000000000E+00  0.00000000000E+00  0.15626137267E+03  0.10913703177E+04  0.10801257120E+04 0.  0.
        4    1    3    3  502    0 -0.35597633753E+02  0.33732656410E+03 -0.34649408191E+03  0.48488778503E+03  0.12699999809E+01 0.  1.
       -4    1    3    3    0  502  0.35597633753E+02 -0.33732656410E+03  0.50275545458E+03  0.60648253263E+03  0.12699999809E+01 0. -1.
</event>
<event>
 5   0  0.3523525E-04  0.1101368E+04  0.7818609E-02  0.9203860E-01
       -1   -1    0    0    0  501  0.00000000000E+00  0.00000000000E+00  0.32901551836E+03  0.32901551840E+03  0.50400001928E-02 0. -1.
        1   -1    0    0  501    0  0.00000000000E+00  0.00000000000E+00 -0.92169699286E+03  0.92169699287E+03  0.50400001928E-02 0.  1.
    10030    2    1    2    0    0  0.00000000000E+00  0.00000000000E+00 -0.59268147449E+03  0.12507125113E+04  0.11013675389E+04 0.  0.
        5    1    3    3  502    0 -0.30080665676E+03 -0.23243313476E+03  0.15607950763E+03  0.41096558199E+03  0.46999998093E+01 0. -1.
       -5    1    3    3    0  502  0.30080665676E+03  0.23243313476E+03 -0.74876098212E+03  0.83974692928E+03  0.46999998093E+01 0.  1.
</event>
<event>
 5   0  0.5948818E-04  0.1102439E+04  0.7818609E-02  0.9202818E-01
        2   -1    0    0  501    0  0.00000000000E+00  0.00000000000E+00  0.82331432447E+03  0.82331432448E+03  0.25500000920E-02 0. -1.
       -2   -1    0    0    0  501  0.00000000000E+00  0.00000000000E+00 -0.36904877755E+03  0.36904877756E+03  0.25500000920E-02 0.  1.
    10030    2    1    2    0    0  0.00000000000E+00  0.00000000000E+00  0.45426554692E+03  0.11923631020E+04  0.11024393770E+04 0.  0.
        3    1    3    3  502    0 -0.37826995070E+03 -0.11647270560E+03  0.64207880789E+03  0.75426736141E+03  0.10100000352E+00 0. -1.
       -3    1    3    3    0  502  0.37826995070E+03  0.11647270560E+03 -0.18781326096E+03  0.43809574062E+03  0.10100000352E+00 0.  1.
</event>
<event>
 5   0  0.3642161E-04  0.1099910E+04  0.7818609E-02  0.9205280E-01
       -1   -1    0    0    0  501  0.00000000000E+00  0.00000000000E+00  0.51672490037E+03  0.51672490040E+03  0.50400001928E-02 0.  1.
        1   -1    0    0  501    0  0.00000000000E+00  0.00000000000E+00 -0.58532162468E+03  0.58532162470E+03  0.50400001928E-02 0. -1.
    10030    2    1    2    0    0  0.00000000000E+00  0.00000000000E+00 -0.68596724311E+02  0.11020465251E+04  0.10999095567E+04 0.  0.
        2    1    3    3  502    0  0.85583540065E+02 -0.38968457706E+03 -0.41354617048E+03  0.57462948675E+03  0.25500000920E-02 0. -1.
       -2    1    3    3    0  502 -0.85583540065E+02  0.38968457706E+03  0.34494944616E+03  0.52741703835E+03  0.25500000920E-02 0.  1.
</event>
<event>
 5   0  0.3657529E-04  0.1100267E+04  0.7818609E-02  0.9204932E-01
       -1   -1    0    0    0  501  0.00000000000E+00  0.00000000000E+00  0.17882613624E+03  0.17882613631E+03  0.50400001928E-02 0. -1.
        1   -1    0    0  501    0  0.00000000000E+00  0.00000000000E+00 -0.16924072571E+04  0.16924072571E+04  0.50400001928E-02 0.  1.
    10030    2    1    2    0    0  0.00000000000E+00  0.00000000000E+00 -0.15135811209E+04  0.18712333934E+04  0.11002666055E+04 0.  0.
        4    1    3    3  502    0 -0.23017512969E+03  0.39988754065E+03 -0.24727446564E+03  0.52348534818E+03  0.12699999809E+01 0. -1.
       -4    1    3    3    0  502  0.23017512969E+03 -0.39988754065E+03 -0.12663066552E+04  0.13477480452E+04  0.12699999809E+01 0.  1.
</event>
<event>
 5   0  0.3621403E-04  0.1099892E+04  0.7818609E-02  0.9205297E-01
       -1   -1    0    0    0  501  0.00000000000E+00  0.00000000000E+00  0.91836821417E+03  0.91836821418E+03  0.50400001928E-02 0.  1.
        1   -1    0    0  501    0  0.00000000000E+00  0.00000000000E+00 -0.32932391332E+03  0.32932391336E+03  0.50400001928E-02 0. -1.
    10030    2    1    2    0    0  0.00000000000E+00  0.00000000000E+00  0.58904430084E+03  0.12476921275E+04  0.10998920205E+04 0.  0.
        3    1    3    3  502    0  0.47819235816E+03  0.25165009441E+03  0.41045581939E+03  0.67857917098E+03  0.10100000352E+00 0. -1.
       -3    1    3    3    0  502 -0.47819235816E+03 -0.25165009441E+03  0.17858848145E+03  0.56911295656E+03  0.10100000352E+00 0.  1.
</event>
<event>
 5   0  0.3657529E-04  0.1101404E+04  0.7818609E-02  0.9203825E-01
        1   -1    0    0  501    0  0.00000000000E+00  0.00000000000E+00  0.73749810799E+03  0.73749810801E+03  0.50400001928E-02 0. -1.
       -1   -1    0    0    0  501  0.00000000000E+00  0.00000000000E+00 -0.41121820720E+03  0.41121820723E+03  0.50400001928E-02 0.  1.
    10030    2    1    2    0    0  0.00000000000E+00  0.00000000000E+00  0.32627990079E+03  0.11487163152E+04  0.11014039219E+04 0.  0.
        4    1    3    3  502    0 -0.43215213430E+03 -0.29113131762E+03  0.34900323250E+03  0.62715052458E+03  0.12699999809E+01 0. -1.
       -4    1    3    3    0  502  0.43215213430E+03  0.29113131762E+03 -0.22723331715E+02  0.52156579066E+03  0.12699999809E+01 0.  1.
</event>
<event>
 5   0  0.6412712E-04  0.1102989E+04  0.7818609E-02  0.9202283E-01
        2   -1    0    0  501    0  0.00000000000E+00  0.00000000000E+00  0.50971658166E+03  0.50971658167E+03  0.25500000920E-02 0.  1.
       -2   -1    0    0    0  501  0.00000000000E+00  0.00000000000E+00 -0.59669694617E+03  0.59669694618E+03  0.25500000920E-02 0. -1.
    10030    2    1    2    0    0  0.00000000000E+00  0.00000000000E+00 -0.86980364509E+02  0.11064135278E+04  0.11029892614E+04 0.  0.
        2    1    3    3  502    0 -0.13717136851E+03  0.41601573898E+03  0.29260410175E+03  0.52678481354E+03  0.25500000920E-02 0.  1.
       -2    1    3    3    0  502  0.13717136851E+03 -0.41601573898E+03 -0.37958446626E+03  0.57962871430E+03  0.25500000920E-02 0. -1.
</event>
<event>
 5   0  0.6245176E-04  0.1099896E+04  0.7818609E-02  0.9205293E-01
        2   -1    0    0  501    0  0.00000000000E+00  0.00000000000E+00  0.23404420695E+04  0.23404420695E+04  0.25500000920E-02 0.  1.
       -2   -1    0    0    0  501  0.00000000000E+00  0.00000000000E+00 -0.12922463063E+03  0.12922463066E+03  0.25500000920E-02 0. -1.
    10030    2    1    2    0    0  0.00000000000E+00  0.00000000000E+00  0.22112174388E+04  0.24696667001E+04  0.10998959259E+04 0.  0.
        5    1    3    3  502    0 -0.37422217214E+02  0.32673232248E+03  0.11595008339E+03  0.34874194576E+03  0.46999998093E+01 0. -1.
       -5    1    3    3    0  502  0.37422217214E+02 -0.32673232248E+03  0.20952673554E+04  0.21209247543E+04  0.46999998093E+01 0.  1.
</event>
<event>
 5   0  0.5948818E-04  0.1102569E+04  0.7818609E-02  0.9202692E-01
        2   -1    0    0  501    0  0.00000000000E+00  0.00000000000E+00  0.49631362188E+03  0.49631362189E+03  0.25500000920E-02 0. -1.
       -2   -1    0    0    0  501  0.00000000000E+00  0.00000000000E+00 -0.61234380053E+03  0.61234380054E+03  0.25500000920E-02 0.  1.
    10030    2    1    2    0    0  0.00000000000E+00  0.00000000000E+00 -0.11603017865E+03  0.11086574224E+04  0.11025689448E+04 0.  0.
        3    1    3    3  502    0  0.38651474333E+03  0.39270615777E+03 -0.40518250302E+02  0.55249752214E+03  0.10100000352E+00 0. -1.
       -3    1    3    3    0  502 -0.38651474333E+03 -0.39270615777E+03 -0.75511928345E+02  0.55615990029E+03  0.10100000352E+00 0.  1.
</event>
<event>
 5   0  0.6245176E-04  0.1101191E+04  0.7818609E-02  0.9204032E-01
        2   -1    0    0  501    0  0.00000000000E+00  0.00000000000E+00  0.56872450015E+03  0.56872450015E+03  0.25500000920E-02 0. -1.
       -2   -1    0    0    0  501  0.00000000000E+00  0.00000000000E+00 -0.53304442201E+03  0.53304442201E+03  0.25500000920E-02 0.  1.
    10030    2    1    2    0    0  0.00000000000E+00  0.00000000000E+00  0.35680078139E+02  0.11017689222E+04  0.11011910324E+04 0.  0.
        5    1    3    3  502    0 -0.19001831358E+03  0.49435282886E+03  0.16839044214E+03  0.55575993909E+03  0.46999998093E+01 0. -1.
       -5    1    3    3    0  502  0.19001831358E+03 -0.49435282886E+03 -0.13271036400E+03  0.54600898308E+03  0.46999998093E+01 0.  1.
</event>
<event>
 5   0  0.3657529E-04  0.1097663E+04  0.7818609E-02  0.9207473E-01
       -1   -1    0    0    0  501  0.00000000000E+00  0.00000000000E+00  0.46284279653E+03  0.46284279656E+03  0.50400001928E-02 0. -1.
        1   -1    0    0  501    0  0.00000000000E+00  0.00000000000E+00 -0.65079523524E+03  0.65079523526E+03  0.50400001928E-02 0.  1.
    10030    2    1    2    0    0  0.00000000000E+00  0.00000000000E+00 -0.18795243871E+03  0.11136380318E+04  0.10976627655E+04 0.  0.
        4    1    3    3  502    0  0.33593399594E+03  0.23273269839E+03 -0.46563836502E+03  0.61954568710E+03  0.12699999809E+01 0.  1.
       -4    1    3    3    0  502 -0.33593399594E+03 -0.23273269839E+03  0.27768592632E+03  0.49409234471E+03  0.12699999809E+01 0. -1.
</event>
<event>
 5   0  0.3621403E-04  0.1098475E+04  0.7818609E-02  0.9206680E-01
        1   -1    0    0  501    0  0.00000000000E+00  0.00000000000E+00  0.24740123831E+03  0.24740123836E+03  0.50400001928E-02 0.  1.
       -1   -1    0    0    0  501  0.00000000000E+00  0.00000000000E+00 -0.12193216161E+04  0.12193216161E+04  0.50400001928E-02 0. -1.
    10030    2    1    2    0    0  0.00000000000E+00  0.00000000000E+00 -0.97192037776E+03  0.14667228544E+04  0.10984747203E+04 0.  0.
        3    1    3    3  502    0 -0.51291473034E+03 -0.20560820302E+02 -0.74678408482E+03  0.90619575561E+03  0.10100000352E+00 0. -1.
       -3    1    3    3    0  502  0.51291473034E+03  0.20560820302E+02 -0.22513629294E+03  0.56052709884E+03  0.10100000352E+00 0.  1.
</event>
<event>
 5   0  0.3621403E-04  0.1102744E+04  0.7818609E-02  0.9202522E-01
        1   -1    0    0  501    0  0.00000000000E+00  0.00000000000E+00  0.95877465956E+03  0.95877465957E+03  0.50400001928E-02 0.  1.
       -1   -1    0    0    0  501  0.00000000000E+00  0.00000000000E+00 -0.31708291514E+03  0.31708291518E+03  0.50400001928E-02 0. -1.
    10030    2    1    2    0    0  0.00000000000E+00  0.00000000000E+00  0.64169174442E+03  0.12758575748E+04  0.11027439667E+04 0.  0.
        3    1    3    3  502    0 -0.20192115806E+03  0.28983595189E+03 -0.16897549898E+03  0.39157344462E+03  0.10100000352E+00 0. -1.
       -3    1    3    3    0  502  0.20192115806E+03 -0.28983595189E+03  0.81066724340E+03  0.88428413013E+03  0.10100000352E+00 0.  1.
</event>
<event>
 5   0  0.3523525E-04  0.1098188E+04  0.7818609E-02  0.9206960E-01
       -1   -1    0    0    0  501  0.00000000000E+00  0.00000000000E+00  0.25510698156E+03  0.25510698161E+03  0.50400001928E-02 0.  1.
        1   -1    0    0  501    0  0.00000000000E+00  0.00000000000E+00 -0.11818735226E+04  0.11818735226E+04  0.50400001928E-02 0. -1.
    10030    2    1    2    0    0  0.00000000000E+00  0.00000000000E+00 -0.92676654104E+03  0.14369805042E+04  0.10981879384E+04 0.  0.
        5    1    3    3  502    0  0.45256800702E+03 -0.44051826317E+02 -0.60662890360E+02  0.45875967635E+03  0.46999998093E+01 0.  1.
       -5    1    3    3    0  502 -0.45256800702E+03  0.44051826317E+02 -0.86610365068E+03  0.97822082788E+03  0.46999998093E+01 0. -1.
</event>
<event>
 5   0  0.6412712E-04  0.1099393E+04  0.7818609E-02  0.9205784E-01
       -2   -1    0    0    0  501  0.00000000000E+00  0.00000000000E+00  0.44653143876E+03  0.44653143877E+03  0.25500000920E-02 0. -1.
        2   -1    0    0  501    0  0.00000000000E+00  0.00000000000E+00 -0.67669604311E+03  0.67669604311E+03  0.25500000920E-02 0.  1.
    10030    2    1    2    0    0  0.00000000000E+00  0.00000000000E+00 -0.23016460435E+03  0.11232274819E+04  0.10993926646E+04 0.  0.
        2    1    3    3  502    0 -0.24798186553E+03 -0.10904102539E+02  0.38601205209E+03  0.45893268510E+03  0.25500000920E-02 0. -1.
       -2    1    3    3    0  502  0.24798186553E+03  0.10904102539E+02 -0.61617665644E+03  0.66429479678E+03  0.25500000920E-02 0.  1.
</event>
<event>
 5   0  0.5948818E-04  0.1101269E+04  0.7818609E-02  0.9203956E-01
        2   -1    0    0  501    0  0.00000000000E+00  0.00000000000E+00  0.97235931525E+03  0.97235931525E+03  0.25500000920E-02 0. -1.
       -2   -1    0    0    0  501  0.00000000000E+00  0.00000000000E+00 -0.31181733237E+03  0.31181733239E+03  0.25500000920E-02 0.  1.
    10030    2    1    2    0    0  0.00000000000E+00  0.00000000000E+00  0.66054198287E+03  0.12841766476E+04  0.11012692456E+04 0.  0.
        3    1    3    3  502    0  0.20764246654E+03 -0.50869805901E+03  0.28807587466E+03  0.62038442027E+03  0.10100000352E+00 0. -1.
       -3    1    3    3    0  502 -0.20764246654E+03  0.50869805901E+03  0.37246610822E+03  0.66379222737E+03  0.10100000352E+00 0.  1.
</event>
<event>
 5   0  0.5948818E-04  0.1099255E+04  0.7818609E-02  0.9205919E-01
       -2   -1    0    0    0  501  0.00000000000E+00  0.00000000000E+00  0.30810151147E+03  0.30810151148E+03  0.25500000920E-02 0.  1.
        2   -1    0    0  501    0  0.00000000000E+00  0.00000000000E+00 -0.98048899050E+03  0.98048899050E+03  0.25500000920E-02 0. -1.
    10030    2    1    2    0    0  0.00000000000E+00  0.00000000000E+00 -0.67238747903E+03  0.12885905020E+04  0.10992545473E+04 0.  0.
        3    1    3    3  502    0  0.16707583391E+02 -0.42354278870E+03 -0.74634803466E+03  0.85831406620E+03  0.10100000352E+00 0. -1.
       -3    1    3    3    0  502 -0.16707583391E+02  0.42354278870E+03  0.73960555629E+02  0.43027643578E+03  0.10100000352E+00 0.  1.
</event>
<event>
 5   0  0.3642161E-04  0.1099401E+04  0.7818609E-02  0.9205776E-01
       -1   -1    0    0    0  501  0.00000000000E+00  0.00000000000E+00  0.49451142759E+03  0.49451142762E+03  0.50400001928E-02 0.  1.
        1   -1    0    0  501    0  0.00000000000E+00  0.00000000000E+00 -0.61104877724E+03  0.61104877726E+03  0.50400001928E-02 0. -1.
    10030    2    1    2    0    0  0.00000000000E+00  0.00000000000E+00 -0.11653734965E+03  0.11055602049E+04  0.10994009336E+04 0.  0.
        2    1    3    3  502    0 -0.69670032524E+02  0.17145099761E+03  0.46224227821E+03  0.49791292591E+03  0.25500000920E-02 0.  1.
       -2    1    3    3    0  502  0.69670032524E+02 -0.17145099761E+03 -0.57877962786E+03  0.60764727898E+03  0.25500000920E-02 0. -1.
</event>
<event>
 5   0  0.6264830E-04  0.1100444E+04  0.7818609E-02  0.9204760E-01
       -2   -1    0    0    0  501  0.00000000000E+00  0.00000000000E+00  0.31893930188E+03  0.31893930190E+03  0.25500000920E-02 0.  1.
        2   -1    0    0  501    0  0.00000000000E+00  0.00000000000E+00 -0.94922145952E+03  0.94922145953E+03  0.25500000920E-02 0. -1.
    10030    2    1    2    0    0  0.00000000000E+00  0.00000000000E+00 -0.63028215764E+03  0.12681607614E+04  0.11004436008E+04 0.  0.
        4    1    3    3  502    0  0.12779453815E+03 -0.51581311943E+03 -0.47952723373E+03  0.71578111106E+03  0.12699999809E+01 0. -1.
       -4    1    3    3    0  502 -0.12779453815E+03  0.51581311943E+03 -0.15075492390E+03  0.55237965036E+03  0.12699999809E+01 0.  1.
</event>
<event>
 5   0  0.5948818E-04  0.1099421E+04  0.7818609E-02  0.9205756E-01
        2   -1    0    0  501    0  0.00000000000E+00  0.00000000000E+00  0.15561284478E+04  0.15561284478E+04  0.25500000920E-02 0.  1.
       -2   -1    0    0    0  501  0.00000000000E+00  0.00000000000E+00 -0.19418821731E+03  0.19418821733E+03  0.25500000920E-02 0. -1.
    10030    2    1    2    0    0  0.00000000000E+00  0.00000000000E+00  0.13619402305E+04  0.17503166652E+04  0.10994213191E+04 0.  0.
        3    1    3    3  502    0 -0.39354223255E+03  0.36989397753E+03  0.84398663955E+03  0.10020032442E+04  0.10100000352E+00 0.  1.
       -3    1    3    3    0  502  0.39354223255E+03 -0.36989397753E+03  0.51795359095E+03  0.74831342096E+03  0.10100000352E+00 0. -1.
</event>
<event>
 5   0  0.5948818E-04  0.1089444E+04  0.7818609E-02  0.9215541E-01
       -2   -1    0    0    0  501  0.00000000000E+00  0.00000000000E+00  0.12227597925E+04  0.12227597925E+04  0.25500000920E-02 0. -1.
        2   -1    0    0  501    0  0.00000000000E+00  0.00000000000E+00 -0.24266606555E+03  0.24266606557E+03  0.25500000920E-02 0.  1.
    10030    2    1    2    0    0  0.00000000000E+00  0.00000000000E+00  0.98009372690E+03  0.14654258580E+04  0.10894444602E+04 0.  0.
        3    1    3    3  502    0  0.11546778656E+03  0.43719592607E+03  0.81501689957E+02  0.45947320180E+03  0.10100000352E+00 0.  1.
       -3    1    3    3    0  502 -0.11546778656E+03 -0.43719592607E+03  0.89859203695E+03  0.10059526562E+04  0.10100000352E+00 0. -1.
</event>
<event>
 5   0  0.2403875E-04  0.1097893E+04  0.7818609E-02  0.9207248E-01
        3   -1    0    0  501    0  0.00000000000E+00  0.00000000000E+00  0.45751894639E+03  0.45751895754E+03  0.10100000352E+00 0. -1.
       -3   -1    0    0    0  501  0.00000000000E+00  0.00000000000E+00 -0.65864374562E+03  0.65864375337E+03  0.10100000352E+00 0.  1.
    10030    2    1    2    0    0  0.00000000000E+00  0.00000000000E+00 -0.20112479923E+03  0.11161627109E+04  0.10978925322E+04 0.  0.
        3    1    3    3  502    0  0.21875017906E+03  0.27979995758E+03 -0.52609969037E+03  0.63476023151E+03  0.10100000352E+00 0.  1.
       -3    1    3    3    0  502 -0.21875017906E+03 -0.27979995758E+03  0.32497489113E+03  0.48140247939E+03  0.10100000352E+00 0. -1.
</event>
<event>
 5   0  0.5948818E-04  0.1098856E+04  0.7818609E-02  0.9206307E-01
       -2   -1    0    0    0  501  0.00000000000E+00  0.00000000000E+00  0.49970072988E+03  0.49970072989E+03  0.25500000920E-02 0. -1.
        2   -1    0    0  501    0  0.00000000000E+00  0.00000000000E+00 -0.60410402882E+03  0.60410402883E+03  0.25500000920E-02 0.  1.
    10030    2    1    2    0    0  0.00000000000E+00  0.00000000000E+00 -0.10440329894E+03  0.11038047587E+04  0.10988561765E+04 0.  0.
        3    1    3    3  502    0  0.32592290221E+03  0.14618568646E+03 -0.47154448674E+03  0.59156589344E+03  0.10100000352E+00 0.  1.
       -3    1    3    3    0  502 -0.32592290221E+03 -0.14618568646E+03  0.36714118780E+03  0.51223886527E+03  0.10100000352E+00 0. -1.
</event>
<event>
 5   0  0.6245176E-04  0.1110848E+04  0.7818609E-02  0.9194683E-01
        2   -1    0    0  501    0  0.00000000000E+00  0.00000000000E+00  0.47445736486E+03  0.47445736487E+03  0.25500000920E-02 0.  1.
       -2   -1    0    0    0  501  0.00000000000E+00  0.00000000000E+00 -0.65020715608E+03  0.65020715609E+03  0.25500000920E-02 0. -1.
    10030    2    1    2    0    0  0.00000000000E+00  0.00000000000E+00 -0.17574979122E+03  0.11246645210E+04  0.11108475573E+04 0.  0.
        5    1    3    3  502    0 -0.36138074263E+03 -0.21825648406E+03  0.27750387358E+03  0.50523501841E+03  0.46999998093E+01 0.  1.
       -5    1    3    3    0  502  0.36138074263E+03  0.21825648406E+03 -0.45325366480E+03  0.61942950255E+03  0.46999998093E+01 0. -1.
</event>
<event>
 5   0  0.3621403E-04  0.1102446E+04  0.7818609E-02  0.9202811E-01
        1   -1    0    0  501    0  0.00000000000E+00  0.00000000000E+00  0.12603035049E+04  0.12603035050E+04  0.50400001928E-02 0. -1.
       -1   -1    0    0    0  501  0.00000000000E+00  0.00000000000E+00 -0.24109013304E+03  0.24109013309E+03  0.50400001928E-02 0.  1.
    10030    2    1    2    0    0  0.00000000000E+00  0.00000000000E+00  0.10192133719E+04  0.15013936381E+04  0.11024458984E+04 0.  0.
        3    1    3    3  502    0 -0.52948429869E+03  0.40190175501E+02  0.71104388430E+03  0.88744142813E+03  0.10100000352E+00 0. -1.
       -3    1    3    3    0  502  0.52948429869E+03 -0.40190175501E+02  0.30816948760E+03  0.61395220992E+03  0.10100000352E+00 0.  1.
</event>
<event>
 5   0  0.2403875E-04  0.1098495E+04  0.7818609E-02  0.9206660E-01
       -3   -1    0    0    0  501  0.00000000000E+00  0.00000000000E+00  0.53527141037E+03  0.53527141990E+03  0.10100000352E+00 0. -1.
        3   -1    0    0  501    0  0.00000000000E+00  0.00000000000E+00 -0.56358888643E+03  0.56358889548E+03  0.10100000352E+00 0.  1.
    10030    2    1    2    0    0  0.00000000000E+00  0.00000000000E+00 -0.28317476054E+02  0.10988603154E+04  0.10984953861E+04 0.  0.
        1    1    3    3  502    0 -0.42682194333E+03 -0.18405382938E+03  0.27854784173E+03  0.54188715022E+03  0.50400001928E-02 0. -1.
       -1    1    3    3    0  502  0.42682194333E+03  0.18405382938E+03 -0.30686531779E+03  0.55697316516E+03  0.50400001928E-02 0.  1.
</event>
<event>
 5   0  0.3642161E-04  0.1093520E+04  0.7818609E-02  0.9211531E-01
       -1   -1    0    0    0  501  0.00000000000E+00  0.00000000000E+00  0.63514480212E+03  0.63514480214E+03  0.50400001928E-02 0.  1.
        1   -1    0    0  501    0  0.00000000000E+00  0.00000000000E+00 -0.47067479380E+03  0.47067479383E+03  0.50400001928E-02 0. -1.
    10030    2    1    2    0    0  0.00000000000E+00  0.00000000000E+00  0.16447000832E+03  0.11058195960E+04  0.10935202765E+04 0.  0.
        2    1    3    3  502    0  0.49677216304E+03 -0.97118743401E+02 -0.12680727658E+03  0.52181866361E+03  0.25500000920E-02 0. -1.
       -2    1    3    3    0  502 -0.49677216304E+03  0.97118743401E+02  0.29127728491E+03  0.58400093236E+03  0.25500000920E-02 0.  1.
</event>
<event>
 5   0  0.3657529E-04  0.1115110E+04  0.7818609E-02  0.9190588E-01
       -1   -1    0    0    0  501  0.00000000000E+00  0.00000000000E+00  0.31467563198E+03  0.31467563202E+03  0.50400001928E-02 0.  1.
        1   -1    0    0  501    0  0.00000000000E+00  0.00000000000E+00 -0.98789858037E+03  0.98789858038E+03  0.50400001928E-02 0. -1.
    10030    2    1    2    0    0  0.00000000000E+00  0.00000000000E+00 -0.67322294838E+03  0.13025742124E+04  0.11151100576E+04 0.  0.
        4    1    3    3  502    0 -0.32207128611E+02 -0.32152717791E+03  0.19413987328E+03  0.37697337912E+03  0.12699999809E+01 0.  1.
       -4    1    3    3    0  502  0.32207128611E+02  0.32152717791E+03 -0.86736282166E+03  0.92560083328E+03  0.12699999809E+01 0. -1.
</event>
<event>
 5   0  0.5948818E-04  0.1100569E+04  0.7818609E-02  0.9204637E-01
        2   -1    0    0  501    0  0.00000000000E+00  0.00000000000E+00  0.11513186988E+04  0.11513186988E+04  0.25500000920E-02 0. -1.
       -2   -1    0    0    0  501  0.00000000000E+00  0.00000000000E+00 -0.26301409383E+03  0.26301409385E+03  0.25500000920E-02 0.  1.
    10030    2    1    2    0    0  0.00000000000E+00  0.00000000000E+00  0.88830460497E+03  0.14143327927E+04  0.11005690243E+04 0.  0.
        3    1    3    3  502    0  0.27854451175E+03 -0.38960266930E+03  0.95904735861E+02  0.48844141257E+03  0.10100000352E+00 0. -1.
       -3    1    3    3    0  502 -0.27854451175E+03  0.38960266930E+03  0.79239986911E+03  0.92589138009E+03  0.10100000352E+00 0.  1.
</event>
<event>
 5   0  0.5948818E-04  0.1100174E+04  0.7818609E-02  0.9205023E-01
        2   -1    0    0  501    0  0.00000000000E+00  0.00000000000E+00  0.84714881722E+03  0.84714881722E+03  0.25500000920E-02 0.  1.
       -2   -1    0    0    0  501  0.00000000000E+00  0.00000000000E+00 -0.35719282542E+03  0.35719282543E+03  0.25500000920E-02 0. -1.
    10030    2    1    2    0    0  0.00000000000E+00  0.00000000000E+00  0.48995599179E+03  0.12043416427E+04  0.11001735855E+04 0.  0.
        3    1    3    3  502    0  0.22006340586E+03 -0.23192344239E+03 -0.24504299340E+03  0.40281815319E+03  0.10100000352E+00 0. -1.
       -3    1    3    3    0  502 -0.22006340586E+03  0.23192344239E+03  0.73499898519E+03  0.80152348946E+03  0.10100000352E+00 0.  1.
</event>
<event>
 5   0  0.6109149E-04  0.1101004E+04  0.7818609E-02  0.9204214E-01
       -2   -1    0    0    0  501  0.00000000000E+00  0.00000000000E+00  0.37594635233E+03  0.37594635234E+03  0.25500000920E-02 0. -1.
        2   -1    0    0  501    0  0.00000000000E+00  0.00000000000E+00 -0.80610543935E+03  0.80610543935E+03  0.25500000920E-02 0.  1.
    10030    2    1    2    0    0  0.00000000000E+00  0.00000000000E+00 -0.43015908701E+03  0.11820517917E+04  0.11010039047E+04 0.  0.
        1    1    3    3  502    0  0.30534432380E+02  0.24320270981E+03 -0.74428729706E+03  0.78360927139E+03  0.50400001928E-02 0.  1.
       -1    1    3    3    0  502 -0.30534432380E+02 -0.24320270981E+03  0.31412821004E+03  0.39844252031E+03  0.50400001928E-02 0. -1.
</event>
<event>
 5   0  0.3423758E-04  0.1100686E+04  0.7818609E-02  0.9204524E-01
        1   -1    0    0  501    0  0.00000000000E+00  0.00000000000E+00  0.10302038407E+04  0.10302038407E+04  0.50400001928E-02 0.  1.
       -1   -1    0    0    0  501  0.00000000000E+00  0.00000000000E+00 -0.29399750957E+03  0.29399750961E+03  0.50400001928E-02 0. -1.
    10030    2    1    2    0    0  0.00000000000E+00  0.00000000000E+00  0.73620633110E+03  0.13242013503E+04  0.11006859017E+04 0.  0.
        1    1    3    3  502    0 -0.29410325473E+03  0.24981172264E+03 -0.10397657786E+03  0.39964202730E+03  0.50400001928E-02 0. -1.
       -1    1    3    3    0  502  0.29410325473E+03 -0.24981172264E+03  0.84018290895E+03  0.92455932299E+03  0.50400001928E-02 0.  1.
</event>
<event>
 5   0  0.6412712E-04  0.1098496E+04  0.7818609E-02  0.9206659E-01
        2   -1    0    0  501    0  0.00000000000E+00  0.00000000000E+00  0.95370584786E+03  0.95370584787E+03  0.25500000920E-02 0.  1.
       -2   -1    0    0    0  501  0.00000000000E+00  0.00000000000E+00 -0.31631684755E+03  0.31631684756E+03  0.25500000920E-02 0. -1.
    10030    2    1    2    0    0  0.00000000000E+00  0.00000000000E+00  0.63738900031E+03  0.12700226954E+04  0.10984957484E+04 0.  0.
        2    1    3    3  502    0  0.37940737228E+03  0.27523564633E+03  0.64970128242E+03  0.80113442788E+03  0.25500000920E-02 0.  1.
       -2    1    3    3    0  502 -0.37940737228E+03 -0.27523564633E+03 -0.12312282109E+02  0.46888826755E+03  0.25500000920E-02 0. -1.
</event>
<event>
 5   0  0.5948818E-04  0.1100755E+04  0.7818609E-02  0.9204456E-01
       -2   -1    0    0    0  501  0.00000000000E+00  0.00000000000E+00  0.52256409765E+03  0.52256409766E+03  0.25500000920E-02 0. -1.
        2   -1    0    0  501    0  0.00000000000E+00  0.00000000000E+00 -0.57967153632E+03  0.57967153632E+03  0.25500000920E-02 0.  1.
    10030    2    1    2    0    0  0.00000000000E+00  0.00000000000E+00 -0.57107438665E+02  0.11022356340E+04  0.11007552558E+04 0.  0.
        3    1    3    3  502    0 -0.30846201331E+02  0.36561187841E+03 -0.43933949937E+03  0.57240085576E+03  0.10100000352E+00 0.  1.
       -3    1    3    3    0  502  0.30846201331E+02 -0.36561187841E+03  0.38223206071E+03  0.52983477821E+03  0.10100000352E+00 0. -1.
</event>
<event>
 5   0  0.3423758E-04  0.1100483E+04  0.7818609E-02  0.9204721E-01
        1   -1    0    0  501    0  0.00000000000E+00  0.00000000000E+00  0.96443697411E+03  0.96443697412E+03  0.50400001928E-02 0.  1.
       -1   -1    0    0    0  501  0.00000000000E+00  0.00000000000E+00 -0.31393015857E+03  0.31393015861E+03  0.50400001928E-02 0. -1.
    10030    2    1    2    0    0  0.00000000000E+00  0.00000000000E+00  0.65050681554E+03  0.12783671327E+04  0.11004832616E+04 0.  0.
        1    1    3    3  502    0  0.76358803247E+02 -0.26144005372E+03 -0.23013311728E+03  0.35657091891E+03  0.50400001928E-02 0. -1.
       -1    1    3    3    0  502 -0.76358803247E+02  0.26144005372E+03  0.88063993282E+03  0.92179621382E+03  0.50400001928E-02 0.  1.
</event>
<event>
 5   0  0.6264830E-04  0.1098942E+04  0.7818609E-02  0.9206223E-01
        2   -1    0    0  501    0  0.00000000000E+00  0.00000000000E+00  0.63006732452E+03  0.63006732452E+03  0.25500000920E-02 0. -1.
       -2   -1    0    0    0  501  0.00000000000E+00  0.00000000000E+00 -0.47918457001E+03  0.47918457001E+03  0.25500000920E-02 0.  1.
    10030    2    1    2    0    0  0.00000000000E+00  0.00000000000E+00  0.15088275451E+03  0.11092518945E+04  0.10989422914E+04 0.  0.
        4    1    3    3  502    0 -0.17659653644E+03  0.17845742206E+03 -0.41790097961E+03  0.48752049170E+03  0.12699999809E+01 0.  1.
       -4    1    3    3    0  502  0.17659653644E+03 -0.17845742206E+03  0.56878373412E+03  0.62173140283E+03  0.12699999809E+01 0. -1.
</event>
<event>
 5   0  0.3523525E-04  0.1100617E+04  0.7818609E-02  0.9204591E-01
       -1   -1    0    0    0  501  0.00000000000E+00  0.00000000000E+00  0.41572947144E+03  0.41572947147E+03  0.50400001928E-02 0. -1.
        1   -1    0    0  501    0  0.00000000000E+00  0.00000000000E+00 -0.72845324641E+03  0.72845324643E+03  0.50400001928E-02 0.  1.
    10030    2    1    2    0    0  0.00000000000E+00  0.00000000000E+00 -0.31272377497E+03  0.11441827179E+04  0.11006170690E+04 0.  0.
        5    1    3    3  502    0 -0.15485219636E+03 -0.35401824041E+03 -0.56367318058E+03  0.68341617025E+03  0.46999998093E+01 0. -1.
       -5    1    3    3    0  502  0.15485219636E+03  0.35401824041E+03  0.25094940560E+03  0.46076654765E+03  0.46999998093E+01 0.  1.
</event>
<event>
 5   0  0.6245176E-04  0.1108944E+04  0.7818609E-02  0.9196518E-01
        2   -1    0    0  501    0  0.00000000000E+00  0.00000000000E+00  0.37250494748E+03  0.37250494749E+03  0.25500000920E-02 0. -1.
       -2   -1    0    0    0  501  0.00000000000E+00  0.00000000000E+00 -0.82532861581E+03  0.82532861581E+03  0.25500000920E-02 0.  1.
    10030    2    1    2    0    0  0.00000000000E+00  0.00000000000E+00 -0.45282366833E+03  0.11978335633E+04  0.11089436283E+04 0.  0.
        5    1    3    3  502    0 -0.87370017606E+01 -0.51806832358E+03 -0.13246191040E+02  0.51833259079E+03  0.46999998093E+01 0. -1.
       -5    1    3    3    0  502  0.87370017606E+01  0.51806832358E+03 -0.43957747729E+03  0.67950097251E+03  0.46999998093E+01 0.  1.
</event>
<event>
 5   0  0.6264830E-04  0.1099628E+04  0.7818609E-02  0.9205554E-01
        2   -1    0    0  501    0  0.00000000000E+00  0.00000000000E+00  0.98399071860E+03  0.98399071860E+03  0.25500000920E-02 0. -1.
       -2   -1    0    0    0  501  0.00000000000E+00  0.00000000000E+00 -0.30721382348E+03  0.30721382349E+03  0.25500000920E-02 0.  1.
    10030    2    1    2    0    0  0.00000000000E+00  0.00000000000E+00  0.67677689512E+03  0.12912045421E+04  0.10996282116E+04 0.  0.
        4    1    3    3  502    0  0.18654425552E+03  0.33826041643E+03 -0.12102256797E+03  0.40480482143E+03  0.12699999809E+01 0.  1.
       -4    1    3    3    0  502 -0.18654425552E+03 -0.33826041643E+03  0.79779946309E+03  0.88639972067E+03  0.12699999809E+01 0. -1.
</event>
<event>
 5   0  0.5948818E-04  0.1099181E+04  0.7818609E-02  0.9205991E-01
       -2   -1    0    0    0  501  0.00000000000E+00  0.00000000000E+00  0.25052914941E+03  0.25052914942E+03  0.25500000920E-02 0. -1.
        2   -1    0    0  501    0  0.00000000000E+00  0.00000000000E+00 -0.12056465329E+04  0.12056465329E+04  0.25500000920E-02 0.  1.
    10030    2    1    2    0    0  0.00000000000E+00  0.00000000000E+00 -0.95511738347E+03  0.14561756823E+04  0.10991807866E+04 0.  0.
        3    1    3    3  502    0  0.31744798876E+03  0.18642525802E+03 -0.10181641659E+04  0.10826753351E+04  0.10100000352E+00 0.  1.
       -3    1    3    3    0  502 -0.31744798876E+03 -0.18642525802E+03  0.63046782388E+02  0.37350034721E+03  0.10100000352E+00 0. -1.
</event>
<event>
 5   0  0.5948818E-04  0.1099993E+04  0.7818609E-02  0.9205199E-01
        2   -1    0    0  501    0  0.00000000000E+00  0.00000000000E+00  0.32387557320E+04  0.32387557320E+04  0.25500000920E-02 0. -1.
       -2   -1    0    0    0  501  0.00000000000E+00  0.00000000000E+00 -0.93398813477E+02  0.93398813512E+02  0.25500000920E-02 0.  1.
    10030    2    1    2    0    0  0.00000000000E+00  0.00000000000E+00  0.31453569185E+04  0.33321545455E+04  0.10999926228E+04 0.  0.
        3    1    3    3  502    0 -0.40550471879E+03 -0.37135489396E+03  0.15346739469E+04  0.16302032597E+04  0.10100000352E+00 0. -1.
       -3    1    3    3    0  502  0.40550471879E+03  0.37135489396E+03  0.16106829716E+04  0.17019512859E+04  0.10100000352E+00 0.  1.
</event>
<event>
 5   0  0.6264830E-04  0.1103529E+04  0.7818609E-02  0.9201759E-01
       -2   -1    0    0    0  501  0.00000000000E+00  0.00000000000E+00  0.13517479050E+03  0.13517479052E+03  0.25500000920E-02 0. -1.
        2   -1    0    0  501    0  0.00000000000E+00  0.00000000000E+00 -0.22522246083E+04  0.22522246083E+04  0.25500000920E-02 0.  1.
    10030    2    1    2    0    0  0.00000000000E+00  0.00000000000E+00 -0.21170498178E+04  0.23873993988E+04  0.11035288662E+04 0.  0.
        4    1    3    3  502    0 -0.75147257528E+02  0.33770544150E+03 -0.19884200100E+04  0.20182932950E+04  0.12699999809E+01 0.  1.
       -4    1    3    3    0  502  0.75147257528E+02 -0.33770544150E+03 -0.12862980779E+03  0.36910610383E+03  0.12699999809E+01 0. -1.
</event>
<event>
 5   0  0.5948818E-04  0.1115194E+04  0.7818609E-02  0.9190508E-01
       -2   -1    0    0    0  501  0.00000000000E+00  0.00000000000E+00  0.33642941111E+03  0.33642941112E+03  0.25500000920E-02 0.  1.
        2   -1    0    0  501    0  0.00000000000E+00  0.00000000000E+00 -0.92415864149E+03  0.92415864149E+03  0.25500000920E-02 0. -1.
    10030    2    1    2    0    0  0.00000000000E+00  0.00000000000E+00 -0.58772923037E+03  0.12605880526E+04  0.11151935214E+04 0.  0.
        3    1    3    3  502    0 -0.54963002562E+03 -0.92795805199E+02 -0.27748738887E+03  0.62265840371E+03  0.10100000352E+00 0. -1.
       -3    1    3    3    0  502  0.54963002562E+03  0.92795805199E+02 -0.31024184150E+03  0.63792964890E+03  0.10100000352E+00 0.  1.
</event>
<event>
 5   0  0.2403875E-04  0.1099039E+04  0.7818609E-02  0.9206129E-01
       -3   -1    0    0    0  501  0.00000000000E+00  0.00000000000E+00  0.59985050621E+03  0.59985051471E+03  0.10100000352E+00 0. -1.
        3   -1    0    0  501    0  0.00000000000E+00  0.00000000000E+00 -0.50341172306E+03  0.50341173319E+03  0.10100000352E+00 0.  1.
    10030    2    1    2    0    0  0.00000000000E+00  0.00000000000E+00  0.96438783147E+02  0.11032622479E+04  0.10990391935E+04 0.  0.
        1    1    3    3  502    0 -0.16617409007E+03  0.23462496234E+02 -0.47705741309E+03  0.50571542625E+03  0.50400001928E-02 0.  1.
       -1    1    3    3    0  502  0.16617409007E+03 -0.23462496234E+02  0.57349619624E+03  0.59754682165E+03  0.50400001928E-02 0. -1.
</event>
<event>
 5   0  0.3523525E-04  0.1089189E+04  0.7818609E-02  0.9215793E-01
       -1   -1    0    0    0  501  0.00000000000E+00  0.00000000000E+00  0.55234450480E+03  0.55234450482E+03  0.50400001928E-02 0.  1.
        1   -1    0    0  501    0  0.00000000000E+00  0.00000000000E+00 -0.53695347502E+03  0.53695347504E+03  0.50400001928E-02 0. -1.
    10030    2    1    2    0    0  0.00000000000E+00  0.00000000000E+00  0.15391029778E+02  0.10892979799E+04  0.10891892421E+04 0.  0.
        5    1    3    3  502    0  0.21643156180E+03 -0.11547989929E+03 -0.47854535497E+03  0.53777874153E+03  0.46999998093E+01 0. -1.
       -5    1    3    3    0  502 -0.21643156180E+03  0.11547989929E+03  0.49393638475E+03  0.55151923834E+03  0.46999998093E+01 0.  1.
</event>
<event>
 5   0  0.6109149E-04  0.1097987E+04  0.7818609E-02  0.9207156E-01
        2   -1    0    0  501    0  0.00000000000E+00  0.00000000000E+00  0.72827554089E+03  0.72827554089E+03  0.25500000920E-02 0.  1.
       -2   -1    0    0    0  501  0.00000000000E+00  0.00000000000E+00 -0.41384577556E+03  0.41384577557E+03  0.25500000920E-02 0. -1.
    10030    2    1    2    0    0  0.00000000000E+00  0.00000000000E+00  0.31442976533E+03  0.11421213165E+04  0.10979868051E+04 0.  0.
        1    1    3    3  502    0  0.39277273178E+03  0.10637508197E+03  0.54054882880E+03  0.67659375790E+03  0.50400001928E-02 0.  1.
       -1    1    3    3    0  502 -0.39277273178E+03 -0.10637508197E+03 -0.22611906347E+03  0.46552755856E+03  0.50400001928E-02 0. -1.
</event>
<event>
 5   0  0.3423758E-04  0.1100399E+04  0.7818609E-02  0.9204803E-01
       -1   -1    0    0    0  501  0.00000000000E+00  0.00000000000E+00  0.15025134822E+03  0.15025134830E+03  0.50400001928E-02 0.  1.
        1   -1    0    0  501    0  0.00000000000E+00  0.00000000000E+00 -0.20147528774E+04  0.20147528774E+04  0.50400001928E-02 0. -1.
    10030    2    1    2    0    0  0.00000000000E+00  0.00000000000E+00 -0.18645015292E+04  0.21650042257E+04  0.11003987209E+04 0.  0.
        1    1    3    3  502    0  0.51014453886E+02  0.31513505873E+03 -0.50597475362E+02  0.32322234496E+03  0.50400001928E-02 0.  1.
       -1    1    3    3    0  502 -0.51014453886E+02 -0.31513505873E+03 -0.18139040538E+04  0.18417818808E+04  0.50400001928E-02 0. -1.
</event>
<event>
 5   0  0.6264830E-04  0.1097053E+04  0.7818609E-02  0.9208069E-01
        2   -1    0    0  501    0  0.00000000000E+00  0.00000000000E+00  0.73473338385E+03  0.73473338385E+03  0.25500000920E-02 0. -1.
       -2   -1    0    0    0  501  0.00000000000E+00  0.00000000000E+00 -0.40951099926E+03  0.40951099926E+03  0.25500000920E-02 0.  1.
    10030    2    1    2    0    0  0.00000000000E+00  0.00000000000E+00  0.32522238459E+03  0.11442443831E+04  0.10970531477E+04 0.  0.
        4    1    3    3  502    0 -0.39676242752E+03  0.37194266144E+03  0.87993434224E+02  0.55091399026E+03  0.12699999809E+01 0. -1.
       -4    1    3    3    0  502  0.39676242752E+03 -0.37194266144E+03  0.23722895037E+03  0.59333039286E+03  0.12699999809E+01 0.  1.
</event>
<event>
 5   0  0.6264830E-04  0.1093983E+04  0.7818609E-02  0.9211076E-01
       -2   -1    0    0    0  501  0.00000000000E+00  0.00000000000E+00  0.17455673897E+03  0.17455673899E+03  0.25500000920E-02 0. -1.
        2   -1    0    0  501    0  0.00000000000E+00  0.00000000000E+00 -0.17140553445E+04  0.17140553445E+04  0.25500000920E-02 0.  1.
    10030    2    1    2    0    0  0.00000000000E+00  0.00000000000E+00 -0.15394986055E+04  0.18886120835E+04  0.10939833844E+04 0.  0.
        4    1    3    3  502    0 -0.50242002509E+03 -0.21602026749E+03 -0.78766200063E+03  0.95890754388E+03  0.12699999809E+01 0.  1.
       -4    1    3    3    0  502  0.50242002509E+03  0.21602026749E+03 -0.75183660490E+03  0.92970453959E+03  0.12699999809E+01 0. -1.
</event>
<event>
 5   0  0.2403875E-04  0.1100060E+04  0.7818609E-02  0.9205133E-01
        3   -1    0    0  501    0  0.00000000000E+00  0.00000000000E+00  0.94686467271E+03  0.94686467810E+03  0.10100000352E+00 0.  1.
       -3   -1    0    0    0  501  0.00000000000E+00  0.00000000000E+00 -0.31951054223E+03  0.31951055819E+03  0.10100000352E+00 0. -1.
    10030    2    1    2    0    0  0.00000000000E+00  0.00000000000E+00  0.62735413048E+03  0.12663752363E+04  0.11000604684E+04 0.  0.
        2    1    3    3  502    0 -0.32274175868E+03  0.44195880010E+03  0.37718497912E+03  0.66464902938E+03  0.25500000920E-02 0. -1.
       -2    1    3    3    0  502  0.32274175868E+03 -0.44195880010E+03  0.25016915137E+03  0.60172620691E+03  0.25500000920E-02 0.  1.
</event>
<event>
 5   0  0.6264830E-04  0.1099520E+04  0.7818609E-02  0.9205660E-01
        2   -1    0    0  501    0  0.00000000000E+00  0.00000000000E+00  0.13390392089E+04  0.13390392089E+04  0.25500000920E-02 0. -1.
       -2   -1    0    0    0  501  0.00000000000E+00  0.00000000000E+00 -0.22571127021E+03  0.22571127023E+03  0.25500000920E-02 0.  1.
    10030    2    1    2    0    0  0.00000000000E+00  0.00000000000E+00  0.11133279387E+04  0.15647504792E+04  0.10995203331E+04 0.  0.
        4    1    3    3  502    0 -0.10827527755E+03  0.49760141728E+03  0.26188918968E+03  0.57264148189E+03  0.12699999809E+01 0.  1.
       -4    1    3    3    0  502  0.10827527755E+03 -0.49760141728E+03  0.85143874903E+03  0.99210899727E+03  0.12699999809E+01 0. -1.
</event>
<event>
 5   0  0.6109149E-04  0.1099486E+04  0.7818609E-02  0.9205693E-01
       -2   -1    0    0    0  501  0.00000000000E+00  0.00000000000E+00  0.19783454630E+03  0.19783454631E+03  0.25500000920E-02 0. -1.
        2   -1    0    0  501    0  0.00000000000E+00  0.00000000000E+00 -0.15276269583E+04  0.15276269583E+04  0.25500000920E-02 0.  1.
    10030    2    1    2    0    0  0.00000000000E+00  0.00000000000E+00 -0.13297924120E+04  0.17254615046E+04  0.10994860367E+04 0.  0.
        1    1    3    3  502    0  0.42366838845E+03  0.31679653576E+03 -0.89957569213E+03  0.10435954074E+04  0.50400001928E-02 0.  1.
       -1    1    3    3    0  502 -0.42366838845E+03 -0.31679653576E+03 -0.43021671986E+03  0.68186609720E+03  0.50400001928E-02 0. -1.
</event>
<event>
 5   0  0.3657529E-04  0.1099586E+04  0.7818609E-02  0.9205596E-01
       -1   -1    0    0    0  501  0.00000000000E+00  0.00000000000E+00  0.19183122944E+03  0.19183122951E+03  0.50400001928E-02 0. -1.
        1   -1    0    0  501    0  0.00000000000E+00  0.00000000000E+00 -0.15757187992E+04  0.15757187992E+04  0.50400001928E-02 0.  1.
    10030    2    1    2    0    0  0.00000000000E+00  0.00000000000E+00 -0.13838875697E+04  0.17675500287E+04  0.10995855120E+04 0.  0.
        4    1    3    3  502    0 -0.37641276804E+02  0.50546546996E+03 -0.34959335838E+03  0.61573479370E+03  0.12699999809E+01 0. -1.
       -4    1    3    3    0  502  0.37641276804E+02 -0.50546546996E+03 -0.10342942114E+04  0.11518152350E+04  0.12699999809E+01 0.  1.
</event>
<event>
 5   0  0.2403875E-04  0.1099689E+04  0.7818609E-02  0.9205495E-01
        3   -1    0    0  501    0  0.00000000000E+00  0.00000000000E+00  0.33929260352E+03  0.33929261856E+03  0.10100000352E+00 0. -1.
       -3   -1    0    0    0  501  0.00000000000E+00  0.00000000000E+00 -0.89105661126E+03  0.89105661698E+03  0.10100000352E+00 0.  1.
    10030    2    1    2    0    0  0.00000000000E+00  0.00000000000E+00 -0.55176400773E+03  0.12303492355E+04  0.10996889202E+04 0.  0.
        2    1    3    3  502    0 -0.94802896916E+02  0.22301620967E+03  0.27632479890E+03  0.36753124157E+03  0.25500000920E-02 0. -1.
       -2    1    3    3    0  502  0.94802896916E+02 -0.22301620967E+03 -0.82808880663E+03  0.86281799397E+03  0.25500000920E-02 0.  1.
</event>
<event>
 5   0  0.3621403E-04  0.1101081E+04  0.7818609E-02  0.9204138E-01
        1   -1    0    0  501    0  0.00000000000E+00  0.00000000000E+00  0.47884862784E+03  0.47884862787E+03  0.50400001928E-02 0. -1.
       -1   -1    0    0    0  501  0.00000000000E+00  0.00000000000E+00 -0.63296645084E+03  0.63296645086E+03  0.50400001928E-02 0.  1.
    10030    2    1    2    0    0  0.00000000000E+00  0.00000000000E+00 -0.15411782300E+03  0.11118150787E+04  0.11010814983E+04 0.  0.
        3    1    3    3  502    0 -0.46221971029E+03 -0.11850567711E+03 -0.35433446661E+03  0.59434298222E+03  0.10100000352E+00 0.  1.
       -3    1    3    3    0  502  0.46221971029E+03  0.11850567711E+03  0.20021664361E+03  0.51747209651E+03  0.10100000352E+00 0. -1.
</event>
<event>
 5   0  0.6264830E-04  0.1108150E+04  0.7818609E-02  0.9197285E-01
        2   -1    0    0  501    0  0.00000000000E+00  0.00000000000E+00  0.21302697795E+04  0.21302697795E+04  0.25500000920E-02 0. -1.
       -2   -1    0    0    0  501  0.00000000000E+00  0.00000000000E+00 -0.14411270496E+03  0.14411270499E+03  0.25500000920E-02 0.  1.
    10030    2    1    2    0    0  0.00000000000E+00  0.00000000000E+00  0.19861570745E+04  0.22743824845E+04  0.11081497015E+04 0.  0.
        4    1    3    3  502    0 -0.43683797501E+02 -0.54735343307E+03  0.11451965489E+04  0.12700318120E+04  0.12699999809E+01 0.  1.
       -4    1    3    3    0  502  0.43683797501E+02  0.54735343307E+03  0.84096052564E+03  0.10043506725E+04  0.12699999809E+01 0. -1.
</event>
<event>
 5   0  0.6109149E-04  0.1099347E+04  0.7818609E-02  0.9205828E-01
       -2   -1    0    0    0  501  0.00000000000E+00  0.00000000000E+00  0.56733593832E+03  0.56733593832E+03  0.25500000920E-02 0.  1.
        2   -1    0    0  501    0  0.00000000000E+00  0.00000000000E+00 -0.53256099002E+03  0.53256099003E+03  0.25500000920E-02 0. -1.
    10030    2    1    2    0    0  0.00000000000E+00  0.00000000000E+00  0.34774948295E+02  0.10998969283E+04  0.10993470589E+04 0.  0.
        1    1    3    3  502    0 -0.54924489123E+03 -0.14006970127E+02  0.80078622765E+00  0.54942405030E+03  0.50400001928E-02 0. -1.
       -1    1    3    3    0  502  0.54924489123E+03  0.14006970127E+02  0.33974162068E+02  0.55047287805E+03  0.50400001928E-02 0.  1.
</event>
<event>
 5   0  0.6412712E-04  0.1098727E+04  0.7818609E-02  0.9206434E-01
        2   -1    0    0  501    0  0.00000000000E+00  0.00000000000E+00  0.82143652381E+03  0.82143652382E+03  0.25500000920E-02 0. -1.
       -2   -1    0    0    0  501  0.00000000000E+00  0.00000000000E+00 -0.36740526271E+03  0.36740526272E+03  0.25500000920E-02 0.  1.
    10030    2    1    2    0    0  0.00000000000E+00  0.00000000000E+00  0.45403126110E+03  0.11888417865E+04  0.10987267210E+04 0.  0.
        2    1    3    3  502    0  0.30046153742E+01  0.13164484327E+03 -0.35007698798E+03  0.37402311425E+03  0.25500000920E-02 0.  1.
       -2    1    3    3    0  502 -0.30046153742E+01 -0.13164484327E+03  0.80410824908E+03  0.81481867229E+03  0.25500000920E-02 0. -1.
</event>
<event>
 5   0  0.6245176E-04  0.1104669E+04  0.7818609E-02  0.9200653E-01
        2   -1    0    0  501    0  0.00000000000E+00  0.00000000000E+00  0.20785844067E+04  0.20785844067E+04  0.25500000920E-02 0. -1.
       -2   -1    0    0    0  501  0.00000000000E+00  0.00000000000E+00 -0.14676981644E+03  0.14676981646E+03  0.25500000920E-02 0.  1.
    10030    2    1    2    0    0  0.00000000000E+00  0.00000000000E+00  0.19318145903E+04  0.22253542232E+04  0.11046690941E+04 0.  0.
        5    1    3    3  502    0 -0.19461645616E+03  0.51361315732E+03  0.84883526555E+03  0.10110476934E+04  0.46999998093E+01 0.  1.
       -5    1    3    3    0  502  0.19461645616E+03 -0.51361315732E+03  0.10829793248E+04  0.12143065298E+04  0.46999998093E+01 0. -1.
</event>
<event>
 5   0  0.6412712E-04  0.1102075E+04  0.7818609E-02  0.9203172E-01
        2   -1    0    0  501    0  0.00000000000E+00  0.00000000000E+00  0.54483120264E+03  0.54483120265E+03  0.25500000920E-02 0. -1.
       -2   -1    0    0    0  501  0.00000000000E+00  0.00000000000E+00 -0.55731442013E+03  0.55731442013E+03  0.25500000920E-02 0.  1.
    10030    2    1    2    0    0  0.00000000000E+00  0.00000000000E+00 -0.12483217488E+02  0.11021456228E+04  0.11020749263E+04 0.  0.
        2    1    3    3  502    0 -0.52189859456E+03 -0.12495798870E+03  0.11886495262E+03  0.54965581859E+03  0.25500000920E-02 0. -1.
       -2    1    3    3    0  502  0.52189859456E+03  0.12495798870E+03 -0.13134817010E+03  0.55248980419E+03  0.25500000920E-02 0.  1.
</event>
<event>
 5   0  0.3621403E-04  0.1099014E+04  0.7818609E-02  0.9206153E-01
        1   -1    0    0  501    0  0.00000000000E+00  0.00000000000E+00  0.17114273035E+04  0.17114273035E+04  0.50400001928E-02 0.  1.
       -1   -1    0    0    0  501  0.00000000000E+00  0.00000000000E+00 -0.17643645518E+03  0.17643645525E+03  0.50400001928E-02 0. -1.
    10030    2    1    2    0    0  0.00000000000E+00  0.00000000000E+00  0.15349908484E+04  0.18878637588E+04  0.10990144072E+04 0.  0.
        3    1    3    3  502    0  0.88486386702E+02  0.31066416084E+03  0.38734444108E+01  0.32304345719E+03  0.10100000352E+00 0. -1.
       -3    1    3    3    0  502 -0.88486386702E+02 -0.31066416084E+03  0.15311174039E+04  0.15648203016E+04  0.10100000352E+00 0.  1.
</event>
<event>
 5   0  0.6109149E-04  0.1082239E+04  0.7818609E-02  0.9222678E-01
       -2   -1    0    0    0  501  0.00000000000E+00  0.00000000000E+00  0.27922423033E+03  0.27922423034E+03  0.25500000920E-02 0. -1.
        2   -1    0    0  501    0  0.00000000000E+00  0.00000000000E+00 -0.10486571715E+04  0.10486571716E+04  0.25500000920E-02 0.  1.
    10030    2    1    2    0    0  0.00000000000E+00  0.00000000000E+00 -0.76943294122E+03  0.13278814019E+04  0.10822393296E+04 0.  0.
        1    1    3    3  502    0  0.11082496290E+03  0.52469940234E+03 -0.29607771540E+03  0.61257950406E+03  0.50400001928E-02 0. -1.
       -1    1    3    3    0  502 -0.11082496290E+03 -0.52469940234E+03 -0.47335522581E+03  0.71530189783E+03  0.50400001928E-02 0.  1.
</event>
<event>
 5   0  0.3642161E-04  0.1100917E+04  0.7818609E-02  0.9204298E-01
       -1   -1    0    0    0  501  0.00000000000E+00  0.00000000000E+00  0.94411941122E+03  0.94411941124E+03  0.50400001928E-02 0.  1.
        1   -1    0    0  501    0  0.00000000000E+00  0.00000000000E+00 -0.32093909806E+03  0.32093909810E+03  0.50400001928E-02 0. -1.
    10030    2    1    2    0    0  0.00000000000E+00  0.00000000000E+00  0.62318031316E+03  0.12650585093E+04  0.11009174943E+04 0.  0.
        2    1    3    3  502    0 -0.18609604383E+03 -0.50000770478E+03  0.46731428772E+03  0.70924049932E+03  0.25500000920E-02 0.  1.
       -2    1    3    3    0  502  0.18609604383E+03  0.50000770478E+03  0.15586602544E+03  0.55581801002E+03  0.25500000920E-02 0. -1.
</event>
<event>
 5   0  0.3657529E-04  0.1099433E+04  0.7818609E-02  0.9205744E-01
        1   -1    0    0  501    0  0.00000000000E+00  0.00000000000E+00  0.17017500007E+04  0.17017500007E+04  0.50400001928E-02 0. -1.
       -1   -1    0    0    0  501  0.00000000000E+00  0.00000000000E+00 -0.17757513189E+03  0.17757513197E+03  0.50400001928E-02 0.  1.
    10030    2    1    2    0    0  0.00000000000E+00  0.00000000000E+00  0.15241748688E+04  0.18793251327E+04  0.10994334557E+04 0.  0.
        4    1    3    3  502    0  0.94853829366E+02  0.29204283830E+03  0.15414882291E+04  0.15717741065E+04  0.12699999809E+01 0. -1.
       -4    1    3    3    0  502 -0.94853829366E+02 -0.29204283830E+03 -0.17313360361E+02  0.30755102616E+03  0.12699999809E+01 0.  1.
</event>
<event>
 5   0  0.5948818E-04  0.1100031E+04  0.7818609E-02  0.9205162E-01
        2   -1    0    0  501    0  0.00000000000E+00  0.00000000000E+00  0.11739786908E+04  0.11739786908E+04  0.25500000920E-02 0. -1.
       -2   -1    0    0    0  501  0.00000000000E+00  0.00000000000E+00 -0.25768530987E+03  0.25768530988E+03  0.25500000920E-02 0.  1.
    10030    2    1    2    0    0  0.00000000000E+00  0.00000000000E+00  0.91629338092E+03  0.14316640007E+04  0.11000310227E+04 0.  0.
        3    1    3    3  502    0  0.14206281894E+03  0.11853717876E+03  0.11322612010E+04  0.11472786692E+04  0.10100000352E+00 0. -1.
       -3    1    3    3    0  502 -0.14206281894E+03 -0.11853717876E+03 -0.21596782007E+03  0.28438533151E+03  0.10100000352E+00 0.  1.
</event>
<event>
 5   0  0.6245176E-04  0.1099058E+04  0.7818609E-02  0.9206111E-01
        2   -1    0    0  501    0  0.00000000000E+00  0.00000000000E+00  0.12726157307E+04  0.12726157307E+04  0.25500000920E-02 0.  1.
       -2   -1    0    0    0  501  0.00000000000E+00  0.00000000000E+00 -0.23729241789E+03  0.23729241790E+03  0.25500000920E-02 0. -1.
    10030    2    1    2    0    0  0.00000000000E+00  0.00000000000E+00  0.10353233128E+04  0.15099081486E+04  0.10990578944E+04 0.  0.
        5    1    3    3  502    0 -0.49343096291E+02  0.28995516019E+03 -0.12002078010E+03  0.31770397184E+03  0.46999998093E+01 0. -1.
       -5    1    3    3    0  502  0.49343096291E+02 -0.28995516019E+03  0.11553440929E+04  0.11922041768E+04  0.46999998093E+01 0.  1.
</event>
<event>
 5   0  0.2403875E-04  0.1103661E+04  0.7818609E-02  0.9201631E-01
       -3   -1    0    0    0  501  0.00000000000E+00  0.00000000000E+00  0.74642857669E+03  0.74642858352E+03  0.10100000352E+00 0. -1.
        3   -1    0    0  501    0  0.00000000000E+00  0.00000000000E+00 -0.40796534504E+03  0.40796535754E+03  0.10100000352E+00 0.  1.
    10030    2    1    2    0    0  0.00000000000E+00  0.00000000000E+00  0.33846323165E+03  0.11543939411E+04  0.11036611853E+04 0.  0.
        3    1    3    3  502    0 -0.51723776850E+03  0.25299800889E+02 -0.30167259173E+02  0.51873409645E+03  0.10100000352E+00 0.  1.
       -3    1    3    3    0  502  0.51723776850E+03 -0.25299800889E+02  0.36863049082E+03  0.63565984461E+03  0.10100000352E+00 0. -1.
</event>
<event>
 5   0  0.2403875E-04  0.1098873E+04  0.7818609E-02  0.9206291E-01
        3   -1    0    0  501    0  0.00000000000E+00  0.00000000000E+00  0.52279020820E+03  0.52279021796E+03  0.10100000352E+00 0. -1.
       -3   -1    0    0    0  501  0.00000000000E+00  0.00000000000E+00 -0.57744111708E+03  0.57744112591E+03  0.10100000352E+00 0.  1.
    10030    2    1    2    0    0  0.00000000000E+00  0.00000000000E+00 -0.54650908875E+02  0.11002313439E+04  0.10988731902E+04 0.  0.
        2    1    3    3  502    0 -0.26089215596E+02  0.35638051153E+03 -0.44520547275E+03  0.57087269084E+03  0.25500000920E-02 0.  1.
       -2    1    3    3    0  502  0.26089215596E+02 -0.35638051153E+03  0.39055456388E+03  0.52935865303E+03  0.25500000920E-02 0. -1.
</event>
<event>
 5   0  0.6245176E-04  0.1101507E+04  0.7818609E-02  0.9203724E-01
       -2   -1    0    0    0  501  0.00000000000E+00  0.00000000000E+00  0.33353854894E+03  0.33353854895E+03  0.25500000920E-02 0. -1.
        2   -1    0    0  501    0  0.00000000000E+00  0.00000000000E+00 -0.90942835506E+03  0.90942835506E+03  0.25500000920E-02 0.  1.
    10030    2    1    2    0    0  0.00000000000E+00  0.00000000000E+00 -0.57588980612E+03  0.12429669040E+04  0.11015069930E+04 0.  0.
        5    1    3    3  502    0  0.29811355844E+03 -0.45777920261E+03 -0.36672337947E+03  0.65798299303E+03  0.46999998093E+01 0.  1.
       -5    1    3    3    0  502 -0.29811355844E+03  0.45777920261E+03 -0.20916642665E+03  0.58498391098E+03  0.46999998093E+01 0. -1.
</event>
<event>
 5   0  0.6109149E-04  0.1098195E+04  0.7818609E-02  0.9206953E-01
       -2   -1    0    0    0  501  0.00000000000E+00  0.00000000000E+00  0.17066724887E+03  0.17066724889E+03  0.25500000920E-02 0. -1.
        2   -1    0    0  501    0  0.00000000000E+00  0.00000000000E+00 -0.17666431780E+04  0.17666431780E+04  0.25500000920E-02 0.  1.
    10030    2    1    2    0    0  0.00000000000E+00  0.00000000000E+00 -0.15959759291E+04  0.19373104268E+04  0.10981951210E+04 0.  0.
        1    1    3    3  502    0 -0.11830290635E+03 -0.53441331873E+02  0.14320856589E+03  0.19328798972E+03  0.50400001928E-02 0. -1.
       -1    1    3    3    0  502  0.11830290635E+03  0.53441331873E+02 -0.17391844950E+04  0.17440224371E+04  0.50400001928E-02 0.  1.
</event>
<event>
 5   0  0.3657529E-04  0.1101618E+04  0.7818609E-02  0.9203616E-01
        1   -1    0    0  501    0  0.00000000000E+00  0.00000000000E+00  0.36579702106E+03  0.36579702109E+03  0.50400001928E-02 0. -1.
       -1   -1    0    0    0  501  0.00000000000E+00  0.00000000000E+00 -0.82939582923E+03  0.82939582925E+03  0.50400001928E-02 0.  1.
    10030    2    1    2    0    0  0.00000000000E+00  0.00000000000E+00 -0.46359880817E+03  0.11951928503E+04  0.11016179440E+04 0.  0.
        4    1    3    3  502    0 -0.37541701620E+03 -0.36086872203E+03 -0.37038538027E+02  0.52205137371E+03  0.12699999809E+01 0. -1.
       -4    1    3    3    0  502  0.37541701620E+03  0.36086872203E+03 -0.42656027015E+03  0.67314147663E+03  0.12699999809E+01 0.  1.
</event>
<event>
 5   0  0.3523525E-04  0.1103596E+04  0.7818609E-02  0.9201694E-01
       -1   -1    0    0    0  501  0.00000000000E+00  0.00000000000E+00  0.33555300871E+03  0.33555300875E+03  0.50400001928E-02 0.  1.
        1   -1    0    0  501    0  0.00000000000E+00  0.00000000000E+00 -0.90740145515E+03  0.90740145516E+03  0.50400001928E-02 0. -1.
    10030    2    1    2    0    0  0.00000000000E+00  0.00000000000E+00 -0.57184844644E+03  0.12429544639E+04  0.11035964632E+04 0.  0.
        5    1    3    3  502    0 -0.26168745139E+02 -0.31123791575E+03  0.22638335939E+03  0.38577889889E+03  0.46999998093E+01 0.  1.
       -5    1    3    3    0  502  0.26168745139E+02  0.31123791575E+03 -0.79823180583E+03  0.85717556502E+03  0.46999998093E+01 0. -1.
</event>
<event>
 5   0  0.6245176E-04  0.1099216E+04  0.7818609E-02  0.9205956E-01
        2   -1    0    0  501    0  0.00000000000E+00  0.00000000000E+00  0.22404122190E+04  0.22404122190E+04  0.25500000920E-02 0. -1.
       -2   -1    0    0    0  501  0.00000000000E+00  0.00000000000E+00 -0.13482743911E+03  0.13482743913E+03  0.25500000920E-02 0.  1.
    10030    2    1    2    0    0  0.00000000000E+00  0.00000000000E+00  0.21055847799E+04  0.23752396582E+04  0.10992161609E+04 0.  0.
        5    1    3    3  502    0  0.33801882580E+03  0.13500379811E+03  0.19425903661E+04  0.19764013187E+04  0.46999998093E+01 0. -1.
       -5    1    3    3    0  502 -0.33801882580E+03 -0.13500379811E+03  0.16299441384E+03  0.39883833948E+03  0.46999998093E+01 0.  1.
</event>
<event>
 5   0  0.6412712E-04  0.1100774E+04  0.7818609E-02  0.9204438E-01
       -2   -1    0    0    0  501  0.00000000000E+00  0.00000000000E+00  0.49546994841E+03  0.49546994842E+03  0.25500000920E-02 0. -1.
        2   -1    0    0  501    0  0.00000000000E+00  0.00000000000E+00 -0.61139041653E+03  0.61139041653E+03  0.25500000920E-02 0.  1.
    10030    2    1    2    0    0  0.00000000000E+00  0.00000000000E+00 -0.11592046811E+03  0.11068603649E+04  0.11007735065E+04 0.  0.
        2    1    3    3  502    0  0.18555975196E+03  0.76393536074E+02  0.45737461234E+03  0.49945963793E+03  0.25500000920E-02 0. -1.
       -2    1    3    3    0  502 -0.18555975196E+03 -0.76393536074E+02 -0.57329508046E+03  0.60740072702E+03  0.25500000920E-02 0.  1.
</event>
<event>
 5   0  0.5948818E-04  0.1101534E+04  0.7818609E-02  0.9203698E-01
        2   -1    0    0  501    0  0.00000000000E+00  0.00000000000E+00  0.60018805047E+03  0.60018805047E+03  0.25500000920E-02 0. -1.
       -2   -1    0    0    0  501  0.00000000000E+00  0.00000000000E+00 -0.50541505131E+03  0.50541505132E+03  0.25500000920E-02 0.  1.
    10030    2    1    2    0    0  0.00000000000E+00  0.00000000000E+00  0.94772999151E+02  0.11056031018E+04  0.11015336115E+04 0.  0.
        3    1    3    3  502    0 -0.10346303404E+03 -0.51510086697E+03  0.21325610446E+03  0.56701999864E+03  0.10100000352E+00 0. -1.
       -3    1    3    3    0  502  0.10346303404E+03  0.51510086697E+03 -0.11848310531E+03  0.53858310316E+03  0.10100000352E+00 0.  1.
</event>
<event>
 5   0  0.3423758E-04  0.1099405E+04  0.7818609E-02  0.9205772E-01
        1   -1    0    0  501    0  0.00000000000E+00  0.00000000000E+00  0.31850162834E+03  0.31850162838E+03  0.50400001928E-02 0.  1.
       -1   -1    0    0    0  501  0.00000000000E+00  0.00000000000E+00 -0.94873205255E+03  0.94873205256E+03  0.50400001928E-02 0. -1.
    10030    2    1    2    0    0  0.00000000000E+00  0.00000000000E+00 -0.63023042420E+03  0.12672336809E+04  0.10994047546E+04 0.  0.
        1    1    3    3  502    0 -0.12453995138E+03  0.52564155467E+03 -0.43245667187E+03  0.69197399991E+03  0.50400001928E-02 0.  1.
       -1    1    3    3    0  502  0.12453995138E+03 -0.52564155467E+03 -0.19777375233E+03  0.57525968103E+03  0.50400001928E-02 0. -1.
</event>
<event>
 5   0  0.5948818E-04  0.1092453E+04  0.7818609E-02  0.9212579E-01
        2   -1    0    0  501    0  0.00000000000E+00  0.00000000000E+00  0.49238425941E+03  0.49238425942E+03  0.25500000920E-02 0.  1.
       -2   -1    0    0    0  501  0.00000000000E+00  0.00000000000E+00 -0.60595687020E+03  0.60595687020E+03  0.25500000920E-02 0. -1.
    10030    2    1    2    0    0  0.00000000000E+00  0.00000000000E+00 -0.11357261078E+03  0.10983411296E+04  0.10924534311E+04 0.  0.
        3    1    3    3  502    0  0.24516374050E+03 -0.36568632292E+03  0.26827005620E+03  0.51555851238E+03  0.10100000352E+00 0.  1.
       -3    1    3    3    0  502 -0.24516374050E+03  0.36568632292E+03 -0.38184266699E+03  0.58278261724E+03  0.10100000352E+00 0. -1.
</event>
<event>
 5   0  0.6245176E-04  0.1099535E+04  0.7818609E-02  0.9205645E-01
        2   -1    0    0  501    0  0.00000000000E+00  0.00000000000E+00  0.10714056553E+04  0.10714056553E+04  0.25500000920E-02 0. -1.
       -2   -1    0    0    0  501  0.00000000000E+00  0.00000000000E+00 -0.28210077140E+03  0.28210077141E+03  0.25500000920E-02 0.  1.
    10030    2    1    2    0    0  0.00000000000E+00  0.00000000000E+00  0.78930488390E+03  0.13535064267E+04  0.10995351051E+04 0.  0.
        5    1    3    3  502    0  0.12391112931E+03  0.52430813091E+03  0.52932694331E+03  0.75528940614E+03  0.46999998093E+01 0. -1.
       -5    1    3    3    0  502 -0.12391112931E+03 -0.52430813091E+03  0.25997794059E+03  0.59821702057E+03  0.46999998093E+01 0.  1.
</event>
<event>
 5   0  0.3423758E-04  0.1105174E+04  0.7818609E-02  0.9200163E-01
       -1   -1    0    0    0  501  0.00000000000E+00  0.00000000000E+00  0.44859112935E+03  0.44859112938E+03  0.50400001928E-02 0.  1.
        1   -1    0    0  501    0  0.00000000000E+00  0.00000000000E+00 -0.68069226226E+03  0.68069226227E+03  0.50400001928E-02 0. -1.
    10030    2    1    2    0    0  0.00000000000E+00  0.00000000000E+00 -0.23210113291E+03  0.11292833917E+04  0.11051742138E+04 0.  0.
        1    1    3    3  502    0 -0.10548937253E+03 -0.25171693058E+03 -0.60701434158E+03  0.66554927072E+03  0.50400001928E-02 0. -1.
       -1    1    3    3    0  502  0.10548937253E+03  0.25171693058E+03  0.37491320867E+03  0.46373412093E+03  0.50400001928E-02 0.  1.
</event>
<event>
 5   0  0.3642161E-04  0.1100258E+04  0.7818609E-02  0.9204941E-01
       -1   -1    0    0    0  501  0.00000000000E+00  0.00000000000E+00  0.28157697425E+03  0.28157697429E+03  0.50400001928E-02 0. -1.
        1   -1    0    0  501    0  0.00000000000E+00  0.00000000000E+00 -0.10748096753E+04  0.10748096753E+04  0.50400001928E-02 0.  1.
    10030    2    1    2    0    0  0.00000000000E+00  0.00000000000E+00 -0.79323270104E+03  0.13563866496E+04  0.11002575268E+04 0.  0.
        2    1    3    3  502    0 -0.19595495984E+03 -0.13258860250E+03 -0.10088844988E+04  0.10362557675E+04  0.25500000920E-02 0.  1.
       -2    1    3    3    0  502  0.19595495984E+03  0.13258860250E+03  0.21565179773E+03  0.32013088209E+03  0.25500000920E-02 0. -1.
</event>
<event>
 5   0  0.6264830E-04  0.1101414E+04  0.7818609E-02  0.9203815E-01
       -2   -1    0    0    0  501  0.00000000000E+00  0.00000000000E+00  0.30482213478E+03  0.30482213479E+03  0.25500000920E-02 0. -1.
        2   -1    0    0  501    0  0.00000000000E+00  0.00000000000E+00 -0.99493514011E+03  0.99493514012E+03  0.25500000920E-02 0.  1.
    10030    2    1    2    0    0  0.00000000000E+00  0.00000000000E+00 -0.69011300533E+03  0.12997572749E+04  0.11014140972E+04 0.  0.
        4    1    3    3  502    0  0.29970249677E+02 -0.40369178067E+03 -0.78567297077E+03  0.88382628358E+03  0.12699999809E+01 0.  1.
       -4    1    3    3    0  502 -0.29970249677E+02  0.40369178067E+03  0.95559965439E+02  0.41593099132E+03  0.12699999809E+01 0. -1.
</event>
<event>
 5   0  0.6264830E-04  0.1103782E+04  0.7818609E-02  0.9201513E-01
       -2   -1    0    0    0  501  0.00000000000E+00  0.00000000000E+00  0.26646923121E+03  0.26646923122E+03  0.25500000920E-02 0.  1.
        2   -1    0    0  501    0  0.00000000000E+00  0.00000000000E+00 -0.11430351191E+04  0.11430351191E+04  0.25500000920E-02 0. -1.
    10030    2    1    2    0    0  0.00000000000E+00  0.00000000000E+00 -0.87656588785E+03  0.14095043503E+04  0.11037820245E+04 0.  0.
        4    1    3    3  502    0  0.35853868195E+03  0.10149169893E+03  0.81576175606E+02  0.38145358398E+03  0.12699999809E+01 0.  1.
       -4    1    3    3    0  502 -0.35853868195E+03 -0.10149169893E+03 -0.95814206346E+03  0.10280507663E+04  0.12699999809E+01 0. -1.
</event>
<event>
 5   0  0.6412712E-04  0.1099838E+04  0.7818609E-02  0.9205349E-01
        2   -1    0    0  501    0  0.00000000000E+00  0.00000000000E+00  0.28021816858E+03  0.28021816860E+03  0.25500000920E-02 0.  1.
       -2   -1    0    0    0  501  0.00000000000E+00  0.00000000000E+00 -0.10791987862E+04  0.10791987862E+04  0.25500000920E-02 0. -1.
    10030    2    1    2    0    0  0.00000000000E+00  0.00000000000E+00 -0.79898061761E+03  0.13594169548E+04  0.10998383652E+04 0.  0.
        2    1    3    3  502    0  0.29807728966E+03  0.31846393159E+03  0.14421201060E+02  0.43643707150E+03  0.25500000920E-02 0.  1.
       -2    1    3    3    0  502 -0.29807728966E+03 -0.31846393159E+03 -0.81340181867E+03  0.92297988329E+03  0.25500000920E-02 0. -1.
</event>
<event>
 5   0  0.6109149E-04  0.1100344E+04  0.7818609E-02  0.9204857E-01
       -2   -1    0    0    0  501  0.00000000000E+00  0.00000000000E+00  0.13812324436E+03  0.13812324438E+03  0.25500000920E-02 0.  1.
        2   -1    0    0  501    0  0.00000000000E+00  0.00000000000E+00 -0.21914428051E+04  0.21914428051E+04  0.25500000920E-02 0. -1.
    10030    2    1    2    0    0  0.00000000000E+00  0.00000000000E+00 -0.20533195607E+04  0.23295660495E+04  0.11003439282E+04 0.  0.
        1    1    3    3  502    0 -0.26850291981E+02 -0.55861536655E+02 -0.21840280336E+04  0.21849072980E+04  0.50400001928E-02 0. -1.
       -1    1    3    3    0  502  0.26850291981E+02  0.55861536655E+02  0.13070847287E+03  0.14465875142E+03  0.50400001928E-02 0.  1.
</event>
<event>
 5   0  0.6264830E-04  0.1104487E+04  0.7818609E-02  0.9200830E-01
        2   -1    0    0  501    0  0.00000000000E+00  0.00000000000E+00  0.22924210847E+04  0.22924210847E+04  0.25500000920E-02 0.  1.
       -2   -1    0    0    0  501  0.00000000000E+00  0.00000000000E+00 -0.13303518964E+03  0.13303518967E+03  0.25500000920E-02 0. -1.
    10030    2    1    2    0    0  0.00000000000E+00  0.00000000000E+00  0.21593858950E+04  0.24254562744E+04  0.11044866206E+04 0.  0.
        4    1    3    3  502    0 -0.27217480550E+03 -0.47736301433E+03  0.12003030927E+04  0.13201074576E+04  0.12699999809E+01 0.  1.
       -4    1    3    3    0  502  0.27217480550E+03  0.47736301433E+03  0.95908280232E+03  0.11053488168E+04  0.12699999809E+01 0. -1.
</event>
<event>
 5   0  0.5948818E-04  0.1100013E+04  0.7818609E-02  0.9205179E-01
        2   -1    0    0  501    0  0.00000000000E+00  0.00000000000E+00  0.78697428468E+03  0.78697428468E+03  0.25500000920E-02 0. -1.
       -2   -1    0    0    0  501  0.00000000000E+00  0.00000000000E+00 -0.38439294103E+03  0.38439294104E+03  0.25500000920E-02 0.  1.
    10030    2    1    2    0    0  0.00000000000E+00  0.00000000000E+00  0.40258134365E+03  0.11713672257E+04  0.11000133814E+04 0.  0.
        3    1    3    3  502    0 -0.36850323340E+03  0.34366801356E+03 -0.33475561598E+02  0.50499798020E+03  0.10100000352E+00 0. -1.
       -3    1    3    3    0  502  0.36850323340E+03 -0.34366801356E+03  0.43605690524E+03  0.66636924553E+03  0.10100000352E+00 0.  1.
</event>
<event>
 5   0  0.3423758E-04  0.1093665E+04  0.7818609E-02  0.9211388E-01
       -1   -1    0    0    0  501  0.00000000000E+00  0.00000000000E+00  0.23159841806E+03  0.23159841812E+03  0.50400001928E-02 0.  1.
        1   -1    0    0  501    0  0.00000000000E+00  0.00000000000E+00 -0.12911399236E+04  0.12911399236E+04  0.50400001928E-02 0. -1.
    10030    2    1    2    0    0  0.00000000000E+00  0.00000000000E+00 -0.10595415055E+04  0.15227383417E+04  0.10936653306E+04 0.  0.
        1    1    3    3  502    0 -0.47724219898E+03  0.26443727663E+03 -0.47882658363E+03  0.72592154326E+03  0.50400001928E-02 0. -1.
       -1    1    3    3    0  502  0.47724219898E+03 -0.26443727663E+03 -0.58071492189E+03  0.79681679844E+03  0.50400001928E-02 0.  1.
</event>
<event>
 5   0  0.3423758E-04  0.1101623E+04  0.7818609E-02  0.9203612E-01
       -1   -1    0    0    0  501  0.00000000000E+00  0.00000000000E+00  0.63976565043E+03  0.63976565045E+03  0.50400001928E-02 0.  1.
        1   -1    0    0  501    0  0.00000000000E+00  0.00000000000E+00 -0.47422556356E+03  0.47422556359E+03  0.50400001928E-02 0. -1.
    10030    2    1    2    0    0  0.00000000000E+00  0.00000000000E+00  0.16554008687E+03  0.11139912140E+04  0.11016228504E+04 0.  0.
        1    1    3    3  502    0  0.24520938264E+03  0.43830260423E+03 -0.14594717871E+03  0.52300802404E+03  0.50400001928E-02 0. -1.
       -1    1    3    3    0  502 -0.24520938264E+03 -0.43830260423E+03  0.31148726558E+03  0.59098318999E+03  0.50400001928E-02 0.  1.
</event>
<event>
 5   0  0.3657529E-04  0.1099633E+04  0.7818609E-02  0.9205549E-01
        1   -1    0    0  501    0  0.00000000000E+00  0.00000000000E+00  0.18259018020E+04  0.18259018020E+04  0.50400001928E-02 0. -1.
       -1   -1    0    0    0  501  0.00000000000E+00  0.00000000000E+00 -0.16556114244E+03  0.16556114251E+03  0.50400001928E-02 0.  1.
    10030    2    1    2    0    0  0.00000000000E+00  0.00000000000E+00  0.16603406595E+04  0.19914629445E+04  0.10996333724E+04 0.  0.
        4    1    3    3  502    0 -0.94695227793E+02  0.50530834953E+03  0.11831717575E+04  0.12900390440E+04  0.12699999809E+01 0. -1.
       -4    1    3    3    0  502  0.94695227793E+02 -0.50530834953E+03  0.47716890200E+03  0.70142390051E+03  0.12699999809E+01 0.  1.
</event>
<event>
 5   0  0.3423758E-04  0.1099283E+04  0.7818609E-02  0.9205891E-01
        1   -1    0    0  501    0  0.00000000000E+00  0.00000000000E+00  0.13563642924E+04  0.13563642924E+04  0.50400001928E-02 0.  1.
       -1   -1    0    0    0  501  0.00000000000E+00  0.00000000000E+00 -0.22273203198E+03  0.22273203204E+03  0.50400001928E-02 0. -1.
    10030    2    1    2    0    0  0.00000000000E+00  0.00000000000E+00  0.11336322604E+04  0.15790963244E+04  0.10992829936E+04 0.  0.
        1    1    3    3  502    0  0.14777209865E+03  0.98396522834E+02 -0.18041132874E+03  0.25311403834E+03  0.50400001928E-02 0. -1.
       -1    1    3    3    0  502 -0.14777209865E+03 -0.98396522834E+02  0.13140435891E+04  0.13259822861E+04  0.50400001928E-02 0.  1.
</event>
<event>
 5   0  0.6109149E-04  0.1101363E+04  0.7818609E-02  0.9203864E-01
        2   -1    0    0  501    0  0.00000000000E+00  0.00000000000E+00  0.12739385646E+04  0.12739385646E+04  0.25500000920E-02 0.  1.
       -2   -1    0    0    0  501  0.00000000000E+00  0.00000000000E+00 -0.23804147625E+03  0.23804147626E+03  0.25500000920E-02 0. -1.
    10030    2    1    2    0    0  0.00000000000E+00  0.00000000000E+00  0.10358970884E+04  0.15119800409E+04  0.11013631855E+04 0.  0.
        1    1    3    3  502    0 -0.40525886969E+03 -0.29363222438E+03  0.83338674956E+03  0.97210498868E+03  0.50400001928E-02 0.  1.
       -1    1    3    3    0  502  0.40525886969E+03  0.29363222438E+03  0.20251033883E+03  0.53987505222E+03  0.50400001928E-02 0. -1.
</event>
<event>
 5   0  0.6264830E-04  0.1097561E+04  0.7818609E-02  0.9207572E-01
        2   -1    0    0  501    0  0.00000000000E+00  0.00000000000E+00  0.13398717236E+04  0.13398717236E+04  0.25500000920E-02 0.  1.
       -2   -1    0    0    0  501  0.00000000000E+00  0.00000000000E+00 -0.22476786805E+03  0.22476786807E+03  0.25500000920E-02 0. -1.
    10030    2    1    2    0    0  0.00000000000E+00  0.00000000000E+00  0.11151038555E+04  0.15646395917E+04  0.10975611341E+04 0.  0.
        4    1    3    3  502    0 -0.25006347987E+03 -0.38250484833E+03  0.99068959654E+03  0.10910129204E+04  0.12699999809E+01 0.  1.
       -4    1    3    3    0  502  0.25006347987E+03  0.38250484833E+03  0.12441425900E+03  0.47362667123E+03  0.12699999809E+01 0. -1.
</event>
<event>
 5   0  0.6412712E-04  0.1099862E+04  0.7818609E-02  0.9205327E-01
        2   -1    0    0  501    0  0.00000000000E+00  0.00000000000E+00  0.21163374061E+03  0.21163374063E+03  0.25500000920E-02 0. -1.
       -2   -1    0    0    0  501  0.00000000000E+00  0.00000000000E+00 -0.14289971443E+04  0.14289971443E+04  0.25500000920E-02 0.  1.
    10030    2    1    2    0    0  0.00000000000E+00  0.00000000000E+00 -0.12173634037E+04  0.16406308849E+04  0.10998618295E+04 0.  0.
        2    1    3    3  502    0 -0.47773458719E+03 -0.22877523947E+02 -0.20380857248E+03  0.51989580795E+03  0.25500000920E-02 0. -1.
       -2    1    3    3    0  502  0.47773458719E+03  0.22877523947E+02 -0.10135548312E+04  0.11207350770E+04  0.25500000920E-02 0.  1.
</event>
<event>
 5   0  0.3523525E-04  0.1099288E+04  0.7818609E-02  0.9205886E-01
       -1   -1    0    0    0  501  0.00000000000E+00  0.00000000000E+00  0.26644827840E+03  0.26644827845E+03  0.50400001928E-02 0.  1.
        1   -1    0    0  501    0  0.00000000000E+00  0.00000000000E+00 -0.11338358374E+04  0.11338358374E+04  0.50400001928E-02 0. -1.
    10030    2    1    2    0    0  0.00000000000E+00  0.00000000000E+00 -0.86738755901E+03  0.14002841159E+04  0.10992881459E+04 0.  0.
        5    1    3    3  502    0  0.33847070057E+03 -0.22329011189E+03  0.38931968016E+02  0.40738026136E+03  0.46999998093E+01 0.  1.
       -5    1    3    3    0  502 -0.33847070057E+03  0.22329011189E+03 -0.90631952703E+03  0.99290385450E+03  0.46999998093E+01 0. -1.
</event>
<event>
 5   0  0.3621403E-04  0.1096714E+04  0.7818609E-02  0.9208401E-01
        1   -1    0    0  501    0  0.00000000000E+00  0.00000000000E+00  0.17693538876E+04  0.17693538876E+04  0.50400001928E-02 0. -1.
       -1   -1    0    0    0  501  0.00000000000E+00  0.00000000000E+00 -0.16994638808E+03  0.16994638815E+03  0.50400001928E-02 0.  1.
    10030    2    1    2    0    0  0.00000000000E+00  0.00000000000E+00  0.15994074996E+04  0.19393002758E+04  0.10967138232E+04 0.  0.
        3    1    3    3  502    0  0.32064763700E+02 -0.21709479689E+03  0.16883199852E+04  0.17025224470E+04  0.10100000352E+00 0. -1.
       -3    1    3    3    0  502 -0.32064763700E+02  0.21709479689E+03 -0.88912485639E+02  0.23677782880E+03  0.10100000352E+00 0.  1.
</event>
<event>
 5   0  0.6109149E-04  0.1100862E+04  0.7818609E-02  0.9204352E-01
        2   -1    0    0  501    0  0.00000000000E+00  0.00000000000E+00  0.40866652944E+03  0.40866652945E+03  0.25500000920E-02 0.  1.
       -2   -1    0    0    0  501  0.00000000000E+00  0.00000000000E+00 -0.74137310445E+03  0.74137310445E+03  0.25500000920E-02 0. -1.
    10030    2    1    2    0    0  0.00000000000E+00  0.00000000000E+00 -0.33270657501E+03  0.11500396339E+04  0.11008621596E+04 0.  0.
        1    1    3    3  502    0 -0.15895184399E+03 -0.47275374865E+03  0.76883855731E+02  0.50465128838E+03  0.50400001928E-02 0.  1.
       -1    1    3    3    0  502  0.15895184399E+03  0.47275374865E+03 -0.40959043074E+03  0.64538834553E+03  0.50400001928E-02 0. -1.
</event>
<event>
 5   0  0.3657529E-04  0.1100587E+04  0.7818609E-02  0.9204620E-01
       -1   -1    0    0    0  501  0.00000000000E+00  0.00000000000E+00  0.50317734841E+03  0.50317734844E+03  0.50400001928E-02 0.  1.
        1   -1    0    0  501    0  0.00000000000E+00  0.00000000000E+00 -0.60182104153E+03  0.60182104155E+03  0.50400001928E-02 0. -1.
    10030    2    1    2    0    0  0.00000000000E+00  0.00000000000E+00 -0.98643693115E+02  0.11049983900E+04  0.11005865998E+04 0.  0.
        4    1    3    3  502    0 -0.34505668737E+03 -0.41663473139E+03 -0.15058489038E+03  0.56153899153E+03  0.12699999809E+01 0.  1.
       -4    1    3    3    0  502  0.34505668737E+03  0.41663473139E+03  0.51941197267E+02  0.54345939846E+03  0.12699999809E+01 0. -1.
</event>
<event>
 5   0  0.3621403E-04  0.1100843E+04  0.7818609E-02  0.9204371E-01
        1   -1    0    0  501    0  0.00000000000E+00  0.00000000000E+00  0.88239881050E+03  0.88239881052E+03  0.50400001928E-02 0.  1.
       -1   -1    0    0    0  501  0.00000000000E+00  0.00000000000E+00 -0.34334114654E+03  0.34334114657E+03  0.50400001928E-02 0. -1.
    10030    2    1    2    0    0  0.00000000000E+00  0.00000000000E+00  0.53905766396E+03  0.12257399571E+04  0.11008429849E+04 0.  0.
        3    1    3    3  502    0  0.47298308966E+03 -0.22453973600E+03  0.45859582574E+03  0.69601813032E+03  0.10100000352E+00 0.  1.
       -3    1    3    3    0  502 -0.47298308966E+03  0.22453973600E+03  0.80461838228E+02  0.52972182677E+03  0.10100000352E+00 0. -1.
</event>
<event>
 5   0  0.3423758E-04  0.1097632E+04  0.7818609E-02  0.9207503E-01
        1   -1    0    0  501    0  0.00000000000E+00  0.00000000000E+00  0.20893756629E+03  0.20893756635E+03  0.50400001928E-02 0. -1.
       -1   -1    0    0    0  501  0.00000000000E+00  0.00000000000E+00 -0.14415743107E+04  0.14415743107E+04  0.50400001928E-02 0.  1.
    10030    2    1    2    0    0  0.00000000000E+00  0.00000000000E+00 -0.12326367444E+04  0.16505118771E+04  0.10976320479E+04 0.  0.
        1    1    3    3  502    0 -0.56571321327E+02 -0.19897841159E+02  0.20399610083E+03  0.21262795597E+03  0.50400001928E-02 0. -1.
       -1    1    3    3    0  502  0.56571321327E+02  0.19897841159E+02 -0.14366328453E+04  0.14378839211E+04  0.50400001928E-02 0.  1.
</event>
<event>
 5   0  0.2403875E-04  0.1100682E+04  0.7818609E-02  0.9204528E-01
        3   -1    0    0  501    0  0.00000000000E+00  0.00000000000E+00  0.16875578670E+03  0.16875581693E+03  0.10100000352E+00 0.  1.
       -3   -1    0    0    0  501  0.00000000000E+00  0.00000000000E+00 -0.17947538629E+04  0.17947538657E+04  0.10100000352E+00 0. -1.
    10030    2    1    2    0    0  0.00000000000E+00  0.00000000000E+00 -0.16259980762E+04  0.19635096826E+04  0.11006818478E+04 0.  0.
        1    1    3    3  502    0 -0.22147608431E+03  0.33280538951E+03 -0.14877391045E+04  0.15405124882E+04  0.50400001928E-02 0. -1.
       -1    1    3    3    0  502  0.22147608431E+03 -0.33280538951E+03 -0.13825897162E+03  0.42299719440E+03  0.50400001928E-02 0.  1.
</event>
<event>
 5   0  0.3523525E-04  0.1098779E+04  0.7818609E-02  0.9206383E-01
       -1   -1    0    0    0  501  0.00000000000E+00  0.00000000000E+00  0.82017360112E+03  0.82017360113E+03  0.50400001928E-02 0.  1.
        1   -1    0    0  501    0  0.00000000000E+00  0.00000000000E+00 -0.36800582015E+03  0.36800582018E+03  0.50400001928E-02 0. -1.
    10030    2    1    2    0    0  0.00000000000E+00  0.00000000000E+00  0.45216778097E+03  0.11881794213E+04  0.10987787016E+04 0.  0.
        5    1    3    3  502    0 -0.39947357656E+03  0.36700959865E+03  0.13223930605E+03  0.55837667209E+03  0.46999998093E+01 0. -1.
       -5    1    3    3    0  502  0.39947357656E+03 -0.36700959865E+03  0.31992847492E+03  0.62980274923E+03  0.46999998093E+01 0.  1.
</event>
<event>
 5   0  0.3621403E-04  0.1097334E+04  0.7818609E-02  0.9207794E-01
        1   -1    0    0  501    0  0.00000000000E+00  0.00000000000E+00  0.70124017851E+03  0.70124017853E+03  0.50400001928E-02 0.  1.
       -1   -1    0    0    0  501  0.00000000000E+00  0.00000000000E+00 -0.42929043362E+03  0.42929043365E+03  0.50400001928E-02 0. -1.
    10030    2    1    2    0    0  0.00000000000E+00  0.00000000000E+00  0.27194974489E+03  0.11305306122E+04  0.10973344072E+04 0.  0.
        3    1    3    3  502    0  0.51825997783E+03  0.14289479570E+02  0.32095625614E+03  0.60976267711E+03  0.10100000352E+00 0.  1.
       -3    1    3    3    0  502 -0.51825997783E+03 -0.14289479570E+02 -0.49006511250E+02  0.52076793506E+03  0.10100000352E+00 0. -1.
</event>
<event>
 5   0  0.6264830E-04  0.1100057E+04  0.7818609E-02  0.9205136E-01
        2   -1    0    0  501    0  0.00000000000E+00  0.00000000000E+00  0.99191714012E+03  0.99191714013E+03  0.25500000920E-02 0. -1.
       -2   -1    0    0    0  501  0.00000000000E+00  0.00000000000E+00 -0.30499661601E+03  0.30499661602E+03  0.25500000920E-02 0.  1.
    10030    2    1    2    0    0  0.00000000000E+00  0.00000000000E+00  0.68692052411E+03  0.12969137562E+04  0.11000570369E+04 0.  0.
        4    1    3    3  502    0 -0.29974976163E+03  0.42944055923E+03  0.54165262967E+03  0.75343101717E+03  0.12699999809E+01 0.  1.
       -4    1    3    3    0  502  0.29974976163E+03 -0.42944055923E+03  0.14526789444E+03  0.54348273898E+03  0.12699999809E+01 0. -1.
</event>
<event>
 5   0  0.6109149E-04  0.1096292E+04  0.7818609E-02  0.9208814E-01
       -2   -1    0    0    0  501  0.00000000000E+00  0.00000000000E+00  0.22371135414E+03  0.22371135415E+03  0.25500000920E-02 0. -1.
        2   -1    0    0  501    0  0.00000000000E+00  0.00000000000E+00 -0.13430868871E+04  0.13430868871E+04  0.25500000920E-02 0.  1.
    10030    2    1    2    0    0  0.00000000000E+00  0.00000000000E+00 -0.11193755330E+04  0.15667982413E+04  0.10962915420E+04 0.  0.
        1    1    3    3  502    0  0.32549437487E+03 -0.11534615694E+03 -0.11680763314E+04  0.12180532172E+04  0.50400001928E-02 0.  1.
       -1    1    3    3    0  502 -0.32549437487E+03  0.11534615694E+03  0.48700798440E+02  0.34874502403E+03  0.50400001928E-02 0. -1.
</event>
<event>
 5   0  0.3657529E-04  0.1098325E+04  0.7818609E-02  0.9206826E-01
       -1   -1    0    0    0  501  0.00000000000E+00  0.00000000000E+00  0.24496656871E+03  0.24496656876E+03  0.50400001928E-02 0. -1.
        1   -1    0    0  501    0  0.00000000000E+00  0.00000000000E+00 -0.12311040698E+04  0.12311040698E+04  0.50400001928E-02 0.  1.
    10030    2    1    2    0    0  0.00000000000E+00  0.00000000000E+00 -0.98613750110E+03  0.14760706386E+04  0.10983247967E+04 0.  0.
        4    1    3    3  502    0  0.45021671390E+03  0.10663176006E+03 -0.89063628691E+03  0.10036433780E+04  0.12699999809E+01 0. -1.
       -4    1    3    3    0  502 -0.45021671390E+03 -0.10663176006E+03 -0.95501214182E+02  0.47242726058E+03  0.12699999809E+01 0.  1.
</event>
<event>
 5   0  0.6245176E-04  0.1098879E+04  0.7818609E-02  0.9206285E-01
       -2   -1    0    0    0  501  0.00000000000E+00  0.00000000000E+00  0.12518925925E+03  0.12518925927E+03  0.25500000920E-02 0. -1.
        2   -1    0    0  501    0  0.00000000000E+00  0.00000000000E+00 -0.24114196475E+04  0.24114196475E+04  0.25500000920E-02 0.  1.
    10030    2    1    2    0    0  0.00000000000E+00  0.00000000000E+00 -0.22862303883E+04  0.25366089068E+04  0.10988791370E+04 0.  0.
        5    1    3    3  502    0  0.42625941903E+02 -0.25191497776E+03 -0.20331947892E+02  0.25634665015E+03  0.46999998093E+01 0. -1.
       -5    1    3    3    0  502 -0.42625941903E+02  0.25191497776E+03 -0.22658984404E+04  0.22802622567E+04  0.46999998093E+01 0.  1.
</event>
<event>
 5   0  0.3657529E-04  0.1101345E+04  0.7818609E-02  0.9203882E-01
        1   -1    0    0  501    0  0.00000000000E+00  0.00000000000E+00  0.10934697537E+04  0.10934697537E+04  0.50400001928E-02 0. -1.
       -1   -1    0    0    0  501  0.00000000000E+00  0.00000000000E+00 -0.27731909645E+03  0.27731909650E+03  0.50400001928E-02 0.  1.
    10030    2    1    2    0    0  0.00000000000E+00  0.00000000000E+00  0.81615065721E+03  0.13707888502E+04  0.11013447128E+04 0.  0.
        4    1    3    3  502    0 -0.84405765763E+02  0.17446238450E+03 -0.23346542557E+03  0.30342902751E+03  0.12699999809E+01 0.  1.
       -4    1    3    3    0  502  0.84405765763E+02 -0.17446238450E+03  0.10496160828E+04  0.10673598227E+04  0.12699999809E+01 0. -1.
</event>
<event>
 5   0  0.3423758E-04  0.1101020E+04  0.7818609E-02  0.9204198E-01
       -1   -1    0    0    0  501  0.00000000000E+00  0.00000000000E+00  0.18299933146E+03  0.18299933153E+03  0.50400001928E-02 0.  1.
        1   -1    0    0  501    0  0.00000000000E+00  0.00000000000E+00 -0.16560788468E+04  0.16560788468E+04  0.50400001928E-02 0. -1.
    10030    2    1    2    0    0  0.00000000000E+00  0.00000000000E+00 -0.14730795153E+04  0.18390781783E+04  0.11010201122E+04 0.  0.
        1    1    3    3  502    0 -0.28283932888E+02 -0.54008553961E+03 -0.90825975731E+03  0.10570847448E+04  0.50400001928E-02 0. -1.
       -1    1    3    3    0  502  0.28283932888E+02  0.54008553961E+03 -0.56481975800E+03  0.78199343349E+03  0.50400001928E-02 0.  1.
</event>
<event>
 5   0  0.3423758E-04  0.1096201E+04  0.7818609E-02  0.9208902E-01
       -1   -1    0    0    0  501  0.00000000000E+00  0.00000000000E+00  0.30707136539E+03  0.30707136543E+03  0.50400001928E-02 0.  1.
        1   -1    0    0  501    0  0.00000000000E+00  0.00000000000E+00 -0.97832112656E+03  0.97832112657E+03  0.50400001928E-02 0. -1.
    10030    2    1    2    0    0  0.00000000000E+00  0.00000000000E+00 -0.67124976117E+03  0.12853924920E+04  0.10962014489E+04 0.  0.
        1    1    3    3  502    0  0.42452422020E+03 -0.31909526905E+03 -0.49456050041E+03  0.72569462783E+03  0.50400001928E-02 0. -1.
       -1    1    3    3    0  502 -0.42452422020E+03  0.31909526905E+03 -0.17668926075E+03  0.55969786417E+03  0.50400001928E-02 0.  1.
</event>
<event>
 5   0  0.3621403E-04  0.1100228E+04  0.7818609E-02  0.9204969E-01
        1   -1    0    0  501    0  0.00000000000E+00  0.00000000000E+00  0.76084514827E+03  0.76084514829E+03  0.50400001928E-02 0.  1.
       -1   -1    0    0    0  501  0.00000000000E+00  0.00000000000E+00 -0.39774915487E+03  0.39774915490E+03  0.50400001928E-02 0. -1.
    10030    2    1    2    0    0  0.00000000000E+00  0.00000000000E+00  0.36309599341E+03  0.11585943032E+04  0.11002281849E+04 0.  0.
        3    1    3    3  502    0  0.31517095675E+03  0.42194958560E+03  0.34888448987E+03  0.63173933092E+03  0.10100000352E+00 0.  1.
       -3    1    3    3    0  502 -0.31517095675E+03 -0.42194958560E+03  0.14211503534E+02  0.52685497226E+03  0.10100000352E+00 0. -1.
</event>
<event>
 5   0  0.6245176E-04  0.1100233E+04  0.7818609E-02  0.9204965E-01
       -2   -1    0    0    0  501  0.00000000000E+00  0.00000000000E+00  0.32343428843E+03  0.32343428844E+03  0.25500000920E-02 0.  1.
        2   -1    0    0  501    0  0.00000000000E+00  0.00000000000E+00 -0.93567159962E+03  0.93567159963E+03  0.25500000920E-02 0. -1.
    10030    2    1    2    0    0  0.00000000000E+00  0.00000000000E+00 -0.61223731119E+03  0.12591058881E+04  0.11002332081E+04 0.  0.
        5    1    3    3  502    0 -0.32565421837E+03  0.31982284374E+03 -0.65748620436E+03  0.80040459784E+03  0.46999998093E+01 0. -1.
       -5    1    3    3    0  502  0.32565421837E+03 -0.31982284374E+03  0.45248893170E+02  0.45870129022E+03  0.46999998093E+01 0.  1.
</event>
<event>
 5   0  0.6109149E-04  0.1101153E+04  0.7818609E-02  0.9204069E-01
        2   -1    0    0  501    0  0.00000000000E+00  0.00000000000E+00  0.44672105386E+03  0.44672105387E+03  0.25500000920E-02 0. -1.
       -2   -1    0    0    0  501  0.00000000000E+00  0.00000000000E+00 -0.67857682188E+03  0.67857682188E+03  0.25500000920E-02 0.  1.
    10030    2    1    2    0    0  0.00000000000E+00  0.00000000000E+00 -0.23185576801E+03  0.11252978758E+04  0.11011531283E+04 0.  0.
        1    1    3    3  502    0  0.81901346093E+02 -0.14045636485E+03  0.42162768645E+03  0.45189127777E+03  0.50400001928E-02 0. -1.
       -1    1    3    3    0  502 -0.81901346093E+02  0.14045636485E+03 -0.65348345447E+03  0.67340659798E+03  0.50400001928E-02 0.  1.
</event>
<event>
 5   0  0.3657529E-04  0.1101212E+04  0.7818609E-02  0.9204011E-01
       -1   -1    0    0    0  501  0.00000000000E+00  0.00000000000E+00  0.51162244042E+03  0.51162244045E+03  0.50400001928E-02 0. -1.
        1   -1    0    0  501    0  0.00000000000E+00  0.00000000000E+00 -0.59256010098E+03  0.59256010100E+03  0.50400001928E-02 0.  1.
    10030    2    1    2    0    0  0.00000000000E+00  0.00000000000E+00 -0.80937660560E+02  0.11041825414E+04  0.11012121412E+04 0.  0.
        4    1    3    3  502    0 -0.60240648919E+02  0.20844858348E+03  0.46694527505E+03  0.51489732038E+03  0.12699999809E+01 0. -1.
       -4    1    3    3    0  502  0.60240648919E+02 -0.20844858348E+03 -0.54788293561E+03  0.58928522107E+03  0.12699999809E+01 0.  1.
</event>
<event>
 5   0  0.3621403E-04  0.1100286E+04  0.7818609E-02  0.9204914E-01
       -1   -1    0    0    0  501  0.00000000000E+00  0.00000000000E+00  0.26116236721E+03  0.26116236726E+03  0.50400001928E-02 0. -1.
        1   -1    0    0  501    0  0.00000000000E+00  0.00000000000E+00 -0.11588848606E+04  0.11588848606E+04  0.50400001928E-02 0.  1.
    10030    2    1    2    0    0  0.00000000000E+00  0.00000000000E+00 -0.89772249342E+03  0.14200472279E+04  0.11002856240E+04 0.  0.
        3    1    3    3  502    0  0.11016273799E+03  0.29725820309E+03  0.13142691813E+03  0.34317825275E+03  0.10100000352E+00 0. -1.
       -3    1    3    3    0  502 -0.11016273799E+03 -0.29725820309E+03 -0.10291494116E+04  0.10768689752E+04  0.10100000352E+00 0.  1.
</event>
<event>
 5   0  0.6245176E-04  0.1099939E+04  0.7818609E-02  0.9205251E-01
       -2   -1    0    0    0  501  0.00000000000E+00  0.00000000000E+00  0.27649957149E+03  0.27649957150E+03  0.25500000920E-02 0. -1.
        2   -1    0    0  501    0  0.00000000000E+00  0.00000000000E+00 -0.10939138461E+04  0.10939138461E+04  0.25500000920E-02 0.  1.
    10030    2    1    2    0    0  0.00000000000E+00  0.00000000000E+00 -0.81741427465E+03  0.13704134176E+04  0.10999394705E+04 0.  0.
        5    1    3    3  502    0 -0.10393769783E+03 -0.19870890448E+03 -0.10343374268E+04  0.10583781348E+04  0.46999998093E+01 0.  1.
       -5    1    3    3    0  502  0.10393769783E+03  0.19870890448E+03  0.21692315220E+03  0.31203528280E+03  0.46999998093E+01 0. -1.
</event>
<event>
 5   0  0.3621403E-04  0.1097707E+04  0.7818609E-02  0.9207430E-01
        1   -1    0    0  501    0  0.00000000000E+00  0.00000000000E+00  0.72883343198E+03  0.72883343199E+03  0.50400001928E-02 0. -1.
       -1   -1    0    0    0  501  0.00000000000E+00  0.00000000000E+00 -0.41331826460E+03  0.41331826463E+03  0.50400001928E-02 0.  1.
    10030    2    1    2    0    0  0.00000000000E+00  0.00000000000E+00  0.31551516738E+03  0.11421516966E+04  0.10977070088E+04 0.  0.
        3    1    3    3  502    0  0.48385878680E+03  0.10638577909E+03 -0.88033279587E+02  0.50317703452E+03  0.10100000352E+00 0.  1.
       -3    1    3    3    0  502 -0.48385878680E+03 -0.10638577909E+03  0.40354844697E+03  0.63897466210E+03  0.10100000352E+00 0. -1.
</event>
<event>
 5   0  0.3423758E-04  0.1101528E+04  0.7818609E-02  0.9203704E-01
        1   -1    0    0  501    0  0.00000000000E+00  0.00000000000E+00  0.16474906631E+04  0.16474906631E+04  0.50400001928E-02 0. -1.
       -1   -1    0    0    0  501  0.00000000000E+00  0.00000000000E+00 -0.18412312595E+03  0.18412312602E+03  0.50400001928E-02 0.  1.
    10030    2    1    2    0    0  0.00000000000E+00  0.00000000000E+00  0.14633675371E+04  0.18316137891E+04  0.11015282673E+04 0.  0.
        1    1    3    3  502    0  0.14631152032E+03  0.15688732425E+03  0.15751649515E+04  0.15897060476E+04  0.50400001928E-02 0. -1.
       -1    1    3    3    0  502 -0.14631152032E+03 -0.15688732425E+03 -0.11179741437E+03  0.24190774145E+03  0.50400001928E-02 0.  1.
</event>
<event>
 5   0  0.6264830E-04  0.1100492E+04  0.7818609E-02  0.9204713E-01
       -2   -1    0    0    0  501  0.00000000000E+00  0.00000000000E+00  0.32939092232E+03  0.32939092233E+03  0.25500000920E-02 0.  1.
        2   -1    0    0  501    0  0.00000000000E+00  0.00000000000E+00 -0.91918260583E+03  0.91918260583E+03  0.25500000920E-02 0. -1.
    10030    2    1    2    0    0  0.00000000000E+00  0.00000000000E+00 -0.58979168351E+03  0.12485735282E+04  0.11004915380E+04 0.  0.
        4    1    3    3  502    0  0.30083688420E+03 -0.38559496806E+03 -0.88101366975E+01  0.48914777082E+03  0.12699999809E+01 0.  1.
       -4    1    3    3    0  502 -0.30083688420E+03  0.38559496806E+03 -0.58098154681E+03  0.75942575735E+03  0.12699999809E+01 0. -1.
</event>
<event>
 5   0  0.6412712E-04  0.1099810E+04  0.7818609E-02  0.9205377E-01
        2   -1    0    0  501    0  0.00000000000E+00  0.00000000000E+00  0.12122474774E+04  0.12122474774E+04  0.25500000920E-02 0. -1.
       -2   -1    0    0    0  501  0.00000000000E+00  0.00000000000E+00 -0.24945026281E+03  0.24945026282E+03  0.25500000920E-02 0.  1.
    10030    2    1    2    0    0  0.00000000000E+00  0.00000000000E+00  0.96279721457E+03  0.14616977402E+04  0.10998098960E+04 0.  0.
        2    1    3    3  502    0  0.44385635664E+03 -0.12402384191E+03  0.88012358918E+03  0.99348271798E+03  0.25500000920E-02 0. -1.
       -2    1    3    3    0  502 -0.44385635664E+03  0.12402384191E+03  0.82673625393E+02  0.46821502222E+03  0.25500000920E-02 0.  1.
</event>
<event>
 5   0  0.3642161E-04  0.1098608E+04  0.7818609E-02  0.9206549E-01
       -1   -1    0    0    0  501  0.00000000000E+00  0.00000000000E+00  0.44734529696E+03  0.44734529699E+03  0.50400001928E-02 0. -1.
        1   -1    0    0  501    0  0.00000000000E+00  0.00000000000E+00 -0.67450142364E+03  0.67450142366E+03  0.50400001928E-02 0.  1.
    10030    2    1    2    0    0  0.00000000000E+00  0.00000000000E+00 -0.22715612667E+03  0.11218467207E+04  0.10986082827E+04 0.  0.
        2    1    3    3  502    0  0.38184455878E+03 -0.20182486360E+03 -0.46016348436E+03  0.63110139833E+03  0.25500000920E-02 0.  1.
       -2    1    3    3    0  502 -0.38184455878E+03  0.20182486360E+03  0.23300735768E+03  0.49074532232E+03  0.25500000920E-02 0. -1.
</event>
<event>
 5   0  0.6412712E-04  0.1101425E+04  0.7818609E-02  0.9203804E-01
       -2   -1    0    0    0  501  0.00000000000E+00  0.00000000000E+00  0.44120183785E+03  0.44120183785E+03  0.25500000920E-02 0.  1.
        2   -1    0    0  501    0  0.00000000000E+00  0.00000000000E+00 -0.68740444452E+03  0.68740444453E+03  0.25500000920E-02 0. -1.
    10030    2    1    2    0    0  0.00000000000E+00  0.00000000000E+00 -0.24620260668E+03  0.11286062824E+04  0.11014247215E+04 0.  0.
        2    1    3    3  502    0  0.46136395272E+03  0.52534618616E+02  0.18029271013E+03  0.49811850432E+03  0.25500000920E-02 0.  1.
       -2    1    3    3    0  502 -0.46136395272E+03 -0.52534618616E+02 -0.42649531680E+03  0.63048777806E+03  0.25500000920E-02 0. -1.
</event>
<event>
 5   0  0.3642161E-04  0.1104187E+04  0.7818609E-02  0.9201120E-01
       -1   -1    0    0    0  501  0.00000000000E+00  0.00000000000E+00  0.54425768100E+03  0.54425768102E+03  0.50400001928E-02 0. -1.
        1   -1    0    0  501    0  0.00000000000E+00  0.00000000000E+00 -0.56004234848E+03  0.56004234850E+03  0.50400001928E-02 0.  1.
    10030    2    1    2    0    0  0.00000000000E+00  0.00000000000E+00 -0.15784667481E+02  0.11043000295E+04  0.11041872122E+04 0.  0.
        2    1    3    3  502    0 -0.34732271042E+03  0.79874007271E+01  0.42123248497E+03  0.54601618121E+03  0.25500000920E-02 0. -1.
       -2    1    3    3    0  502  0.34732271042E+03 -0.79874007271E+01 -0.43701715245E+03  0.55828384832E+03  0.25500000920E-02 0.  1.
</event>
<event>
 5   0  0.2403875E-04  0.1083048E+04  0.7818609E-02  0.9221873E-01
       -3   -1    0    0    0  501  0.00000000000E+00  0.00000000000E+00  0.23390955115E+04  0.23390955137E+04  0.10100000352E+00 0.  1.
        3   -1    0    0  501    0  0.00000000000E+00  0.00000000000E+00 -0.12536829212E+03  0.12536833281E+03  0.10100000352E+00 0. -1.
    10030    2    1    2    0    0  0.00000000000E+00  0.00000000000E+00  0.22137272194E+04  0.24644638465E+04  0.10830484056E+04 0.  0.
        2    1    3    3  502    0  0.48075839243E+03 -0.17671506983E+03  0.15068036507E+04  0.15914817277E+04  0.25500000920E-02 0.  1.
       -2    1    3    3    0  502 -0.48075839243E+03  0.17671506983E+03  0.70692356870E+03  0.87298211882E+03  0.25500000920E-02 0. -1.
</event>
<event>
 5   0  0.3423758E-04  0.1099518E+04  0.7818609E-02  0.9205662E-01
        1   -1    0    0  501    0  0.00000000000E+00  0.00000000000E+00  0.37007482008E+03  0.37007482011E+03  0.50400001928E-02 0.  1.
       -1   -1    0    0    0  501  0.00000000000E+00  0.00000000000E+00 -0.81668610498E+03  0.81668610499E+03  0.50400001928E-02 0. -1.
    10030    2    1    2    0    0  0.00000000000E+00  0.00000000000E+00 -0.44661128490E+03  0.11867609251E+04  0.10995180097E+04 0.  0.
        1    1    3    3  502    0 -0.30881776930E+03  0.43402488048E+03 -0.37006879664E+03  0.64861153688E+03  0.50400001928E-02 0. -1.
       -1    1    3    3    0  502  0.30881776930E+03 -0.43402488048E+03 -0.76542488264E+02  0.53814938822E+03  0.50400001928E-02 0.  1.
</event>
<event>
 5   0  0.6412712E-04  0.1100963E+04  0.7818609E-02  0.9204254E-01
        2   -1    0    0  501    0  0.00000000000E+00  0.00000000000E+00  0.14040334041E+04  0.14040334041E+04  0.25500000920E-02 0.  1.
       -2   -1    0    0    0  501  0.00000000000E+00  0.00000000000E+00 -0.21582808064E+03  0.21582808065E+03  0.25500000920E-02 0. -1.
    10030    2    1    2    0    0  0.00000000000E+00  0.00000000000E+00  0.11882053234E+04  0.16198614847E+04  0.11009629145E+04 0.  0.
        2    1    3    3  502    0  0.88981234353E+02  0.41006742777E+03  0.11183464685E+04  0.11944755247E+04  0.25500000920E-02 0.  1.
       -2    1    3    3    0  502 -0.88981234353E+02 -0.41006742777E+03  0.69858854910E+02  0.42538596005E+03  0.25500000920E-02 0. -1.
</event>
<event>
 5   0  0.6264830E-04  0.1098383E+04  0.7818609E-02  0.9206769E-01
        2   -1    0    0  501    0  0.00000000000E+00  0.00000000000E+00  0.45587237706E+03  0.45587237707E+03  0.25500000920E-02 0.  1.
       -2   -1    0    0    0  501  0.00000000000E+00  0.00000000000E+00 -0.66161364035E+03  0.66161364035E+03  0.25500000920E-02 0. -1.
    10030    2    1    2    0    0  0.00000000000E+00  0.00000000000E+00 -0.20574126329E+03  0.11174860174E+04  0.10983831443E+04 0.  0.
        4    1    3    3  502    0  0.45835053403E+03 -0.15974496642E+03 -0.36425540620E+03  0.60686677302E+03  0.12699999809E+01 0. -1.
       -4    1    3    3    0  502 -0.45835053403E+03  0.15974496642E+03  0.15851414291E+03  0.51061924440E+03  0.12699999809E+01 0.  1.
</event>
<event>
 5   0  0.6109149E-04  0.1099716E+04  0.7818609E-02  0.9205469E-01
        2   -1    0    0  501    0  0.00000000000E+00  0.00000000000E+00  0.11092972173E+04  0.11092972173E+04  0.25500000920E-02 0. -1.
       -2   -1    0    0    0  501  0.00000000000E+00  0.00000000000E+00 -0.27255445479E+03  0.27255445480E+03  0.25500000920E-02 0.  1.
    10030    2    1    2    0    0  0.00000000000E+00  0.00000000000E+00  0.83674276249E+03  0.13818516721E+04  0.10997161420E+04 0.  0.
        1    1    3    3  502    0 -0.75451816291E+02  0.79060535151E+02  0.10955128307E+04  0.11009504563E+04  0.50400001928E-02 0. -1.
       -1    1    3    3    0  502  0.75451816291E+02 -0.79060535151E+02 -0.25877006825E+03  0.28090121582E+03  0.50400001928E-02 0.  1.
</event>
<event>
 5   0  0.6109149E-04  0.1097609E+04  0.7818609E-02  0.9207525E-01
       -2   -1    0    0    0  501  0.00000000000E+00  0.00000000000E+00  0.52645722488E+03  0.52645722488E+03  0.25500000920E-02 0. -1.
        2   -1    0    0  501    0  0.00000000000E+00  0.00000000000E+00 -0.57210082364E+03  0.57210082365E+03  0.25500000920E-02 0.  1.
    10030    2    1    2    0    0  0.00000000000E+00  0.00000000000E+00 -0.45643598763E+02  0.10985580485E+04  0.10976094241E+04 0.  0.
        1    1    3    3  502    0 -0.27512564211E+03  0.47190473251E+03  0.30123981078E+02  0.54707919881E+03  0.50400001928E-02 0.  1.
       -1    1    3    3    0  502  0.27512564211E+03 -0.47190473251E+03 -0.75767579841E+02  0.55147884972E+03  0.50400001928E-02 0. -1.
</event>
<event>
 5   0  0.3642161E-04  0.1112254E+04  0.7818609E-02  0.9193330E-01
       -1   -1    0    0    0  501  0.00000000000E+00  0.00000000000E+00  0.45783413479E+03  0.45783413481E+03  0.50400001928E-02 0. -1.
        1   -1    0    0  501    0  0.00000000000E+00  0.00000000000E+00 -0.67552200335E+03  0.67552200337E+03  0.50400001928E-02 0.  1.
    10030    2    1    2    0    0  0.00000000000E+00  0.00000000000E+00 -0.21768786856E+03  0.11333561382E+04  0.11122536257E+04 0.  0.
        2    1    3    3  502    0 -0.15167433316E+03  0.15957450814E+03 -0.62922674944E+03  0.66662990422E+03  0.25500000920E-02 0.  1.
       -2    1    3    3    0  502  0.15167433316E+03 -0.15957450814E+03  0.41153888087E+03  0.46672623396E+03  0.25500000920E-02 0. -1.
</event>
<event>
 5   0  0.2403875E-04  0.1100225E+04  0.7818609E-02  0.9204973E-01
        4   -1    0    0  501    0  0.00000000000E+00  0.00000000000E+00  0.11536715506E+04  0.11536722496E+04  0.12699999809E+01 0.  1.
       -4   -1    0    0    0  501  0.00000000000E+00  0.00000000000E+00 -0.26231117254E+03  0.26231424692E+03  0.12699999809E+01 0. -1.
    10030    2    1    2    0    0  0.00000000000E+00  0.00000000000E+00  0.89136037808E+03  0.14159864966E+04  0.11002247202E+04 0.  0.
        4    1    3    3  502    0 -0.24148810956E+03 -0.10456167578E+03  0.10674110256E+04  0.10993714393E+04  0.12699999809E+01 0.  1.
       -4    1    3    3    0  502  0.24148810956E+03  0.10456167578E+03 -0.17605064751E+03  0.31661505727E+03  0.12699999809E+01 0. -1.
</event>
<event>
 5   0  0.6109149E-04  0.1099567E+04  0.7818609E-02  0.9205614E-01
       -2   -1    0    0    0  501  0.00000000000E+00  0.00000000000E+00  0.33342930653E+03  0.33342930654E+03  0.25500000920E-02 0. -1.
        2   -1    0    0  501    0  0.00000000000E+00  0.00000000000E+00 -0.90652459848E+03  0.90652459849E+03  0.25500000920E-02 0.  1.
    10030    2    1    2    0    0  0.00000000000E+00  0.00000000000E+00 -0.57309529196E+03  0.12399539050E+04  0.10995669479E+04 0.  0.
        1    1    3    3  502    0 -0.20730751732E+02  0.31239206421E+03  0.22308562848E+03  0.38442913978E+03  0.50400001928E-02 0. -1.
       -1    1    3    3    0  502  0.20730751732E+02 -0.31239206421E+03 -0.79618092044E+03  0.85552476524E+03  0.50400001928E-02 0.  1.
</event>
<event>
 5   0  0.6245176E-04  0.1098073E+04  0.7818609E-02  0.9207072E-01
        2   -1    0    0  501    0  0.00000000000E+00  0.00000000000E+00  0.18270113608E+04  0.18270113608E+04  0.25500000920E-02 0. -1.
       -2   -1    0    0    0  501  0.00000000000E+00  0.00000000000E+00 -0.16499147477E+03  0.16499147479E+03  0.25500000920E-02 0.  1.
    10030    2    1    2    0    0  0.00000000000E+00  0.00000000000E+00  0.16620198860E+04  0.19920028356E+04  0.10980734017E+04 0.  0.
        5    1    3    3  502    0  0.38970017105E+03 -0.64199004459E+02  0.15228214516E+04  0.15732116828E+04  0.46999998093E+01 0. -1.
       -5    1    3    3    0  502 -0.38970017105E+03  0.64199004459E+02  0.13919843443E+03  0.41879115277E+03  0.46999998093E+01 0.  1.
</event>
<event>
 5   0  0.6264830E-04  0.1085403E+04  0.7818609E-02  0.9219537E-01
       -2   -1    0    0    0  501  0.00000000000E+00  0.00000000000E+00  0.15966730284E+03  0.15966730286E+03  0.25500000920E-02 0.  1.
        2   -1    0    0  501    0  0.00000000000E+00  0.00000000000E+00 -0.18446164213E+04  0.18446164213E+04  0.25500000920E-02 0. -1.
    10030    2    1    2    0    0  0.00000000000E+00  0.00000000000E+00 -0.16849491184E+04  0.20042837241E+04  0.10854030197E+04 0.  0.
        4    1    3    3  502    0 -0.47658402029E+03 -0.14197267992E+03 -0.12438021009E+04  0.13395274724E+04  0.12699999809E+01 0. -1.
       -4    1    3    3    0  502  0.47658402029E+03  0.14197267992E+03 -0.44114701759E+03  0.66475625177E+03  0.12699999809E+01 0.  1.
</event>
<event>
 5   0  0.3423758E-04  0.1100430E+04  0.7818609E-02  0.9204773E-01
        1   -1    0    0  501    0  0.00000000000E+00  0.00000000000E+00  0.19874545979E+04  0.19874545979E+04  0.50400001928E-02 0. -1.
       -1   -1    0    0    0  501  0.00000000000E+00  0.00000000000E+00 -0.15232370131E+03  0.15232370140E+03  0.50400001928E-02 0.  1.
    10030    2    1    2    0    0  0.00000000000E+00  0.00000000000E+00  0.18351308966E+04  0.21397782993E+04  0.11004298081E+04 0.  0.
        1    1    3    3  502    0  0.54318011540E+03  0.63426611682E+02  0.79978520056E+03  0.96887767024E+03  0.50400001928E-02 0. -1.
       -1    1    3    3    0  502 -0.54318011540E+03 -0.63426611682E+02  0.10353456960E+04  0.11709006291E+04  0.50400001928E-02 0.  1.
</event>
<event>
 5   0  0.5948818E-04  0.1101050E+04  0.7818609E-02  0.9204169E-01
        2   -1    0    0  501    0  0.00000000000E+00  0.00000000000E+00  0.39603776904E+03  0.39603776905E+03  0.25500000920E-02 0.  1.
       -2   -1    0    0    0  501  0.00000000000E+00  0.00000000000E+00 -0.76527518516E+03  0.76527518516E+03  0.25500000920E-02 0. -1.
    10030    2    1    2    0    0  0.00000000000E+00  0.00000000000E+00 -0.36923741612E+03  0.11613129542E+04  0.11010501842E+04 0.  0.
        3    1    3    3  502    0  0.98769246765E+02  0.17032681513E+03 -0.72686926227E+03  0.75306408937E+03  0.10100000352E+00 0. -1.
       -3    1    3    3    0  502 -0.98769246765E+02 -0.17032681513E+03  0.35763184616E+03  0.40824886484E+03  0.10100000352E+00 0.  1.
</event>
<event>
 5   0  0.6109149E-04  0.1099069E+04  0.7818609E-02  0.9206100E-01
        2   -1    0    0  501    0  0.00000000000E+00  0.00000000000E+00  0.11038899007E+03  0.11038899010E+03  0.25500000920E-02 0.  1.
       -2   -1    0    0    0  501  0.00000000000E+00  0.00000000000E+00 -0.27356721724E+04  0.27356721724E+04  0.25500000920E-02 0. -1.
    10030    2    1    2    0    0  0.00000000000E+00  0.00000000000E+00 -0.26252831823E+04  0.28460611625E+04  0.10990688574E+04 0.  0.
        1    1    3    3  502    0  0.25281998178E+03 -0.44424053351E+03 -0.79009400834E+03  0.94101866976E+03  0.50400001928E-02 0. -1.
       -1    1    3    3    0  502 -0.25281998178E+03  0.44424053351E+03 -0.18351891740E+04  0.19050424927E+04  0.50400001928E-02 0.  1.
</event>
<event>
 5   0  0.3657529E-04  0.1095189E+04  0.7818609E-02  0.9209893E-01
        1   -1    0    0  501    0  0.00000000000E+00  0.00000000000E+00  0.48295139272E+03  0.48295139275E+03  0.50400001928E-02 0. -1.
       -1   -1    0    0    0  501  0.00000000000E+00  0.00000000000E+00 -0.62089047528E+03  0.62089047530E+03  0.50400001928E-02 0.  1.
    10030    2    1    2    0    0  0.00000000000E+00  0.00000000000E+00 -0.13793908255E+03  0.11038418680E+04  0.10951893348E+04 0.  0.
        4    1    3    3  502    0  0.21447583526E+03  0.15165574796E+03 -0.55324339447E+03  0.61243711206E+03  0.12699999809E+01 0.  1.
       -4    1    3    3    0  502 -0.21447583526E+03 -0.15165574796E+03  0.41530431192E+03  0.49140475598E+03  0.12699999809E+01 0. -1.
</event>
<event>
 5   0  0.5948818E-04  0.1099388E+04  0.7818609E-02  0.9205788E-01
       -2   -1    0    0    0  501  0.00000000000E+00  0.00000000000E+00  0.14715294879E+03  0.14715294881E+03  0.25500000920E-02 0.  1.
        2   -1    0    0  501    0  0.00000000000E+00  0.00000000000E+00 -0.20533991776E+04  0.20533991776E+04  0.25500000920E-02 0. -1.
    10030    2    1    2    0    0  0.00000000000E+00  0.00000000000E+00 -0.19062462288E+04  0.22005521264E+04  0.10993884555E+04 0.  0.
        3    1    3    3  502    0 -0.11336641891E+03 -0.22625157944E+02 -0.20287929767E+04  0.20320838554E+04  0.10100000352E+00 0. -1.
       -3    1    3    3    0  502  0.11336641891E+03  0.22625157944E+02  0.12254674793E+03  0.16846827101E+03  0.10100000352E+00 0.  1.
</event>
<event>
 5   0  0.6109149E-04  0.1093119E+04  0.7818609E-02  0.9211925E-01
        2   -1    0    0  501    0  0.00000000000E+00  0.00000000000E+00  0.13146130010E+04  0.13146130010E+04  0.25500000920E-02 0. -1.
       -2   -1    0    0    0  501  0.00000000000E+00  0.00000000000E+00 -0.22723573945E+03  0.22723573947E+03  0.25500000920E-02 0.  1.
    10030    2    1    2    0    0  0.00000000000E+00  0.00000000000E+00  0.10873772616E+04  0.15418487405E+04  0.10931185798E+04 0.  0.
        1    1    3    3  502    0  0.27091061939E+03 -0.46434467979E+03  0.40463754563E+03  0.67285963521E+03  0.50400001928E-02 0.  1.
       -1    1    3    3    0  502 -0.27091061939E+03  0.46434467979E+03  0.68273971596E+03  0.86898910529E+03  0.50400001928E-02 0. -1.
</event>
<event>
 5   0  0.3642161E-04  0.1099473E+04  0.7818609E-02  0.9205706E-01
        1   -1    0    0  501    0  0.00000000000E+00  0.00000000000E+00  0.56716208733E+03  0.56716208735E+03  0.50400001928E-02 0.  1.
       -1   -1    0    0    0  501  0.00000000000E+00  0.00000000000E+00 -0.53284597224E+03  0.53284597227E+03  0.50400001928E-02 0. -1.
    10030    2    1    2    0    0  0.00000000000E+00  0.00000000000E+00  0.34316115086E+02  0.11000080596E+04  0.10994726625E+04 0.  0.
        2    1    3    3  502    0 -0.31186600013E+03 -0.43653541304E+03 -0.10284394083E+03  0.54626041871E+03  0.25500000920E-02 0. -1.
       -2    1    3    3    0  502  0.31186600013E+03  0.43653541304E+03  0.13716005591E+03  0.55374764091E+03  0.25500000920E-02 0.  1.
</event>
<event>
 5   0  0.6245176E-04  0.1101791E+04  0.7818609E-02  0.9203448E-01
       -2   -1    0    0    0  501  0.00000000000E+00  0.00000000000E+00  0.15844307385E+03  0.15844307387E+03  0.25500000920E-02 0. -1.
        2   -1    0    0  501    0  0.00000000000E+00  0.00000000000E+00 -0.19154240651E+04  0.19154240651E+04  0.25500000920E-02 0.  1.
    10030    2    1    2    0    0  0.00000000000E+00  0.00000000000E+00 -0.17569809912E+04  0.20738671389E+04  0.11017906818E+04 0.  0.
        5    1    3    3  502    0 -0.26511769493E+03 -0.17884908354E+03 -0.34215034508E+02  0.32166309305E+03  0.46999998093E+01 0. -1.
       -5    1    3    3    0  502  0.26511769493E+03  0.17884908354E+03 -0.17227659567E+04  0.17522040459E+04  0.46999998093E+01 0.  1.
</event>
<event>
 5   0  0.3423758E-04  0.1101049E+04  0.7818609E-02  0.9204170E-01
        1   -1    0    0  501    0  0.00000000000E+00  0.00000000000E+00  0.62360334709E+03  0.62360334711E+03  0.50400001928E-02 0.  1.
       -1   -1    0    0    0  501  0.00000000000E+00  0.00000000000E+00 -0.48600941503E+03  0.48600941506E+03  0.50400001928E-02 0. -1.
    10030    2    1    2    0    0  0.00000000000E+00  0.00000000000E+00  0.13759393206E+03  0.11096127622E+04  0.11010487690E+04 0.  0.
        1    1    3    3  502    0 -0.47245645283E+03 -0.74415098300E+01 -0.21590099176E+03  0.51950333411E+03  0.50400001928E-02 0. -1.
       -1    1    3    3    0  502  0.47245645283E+03  0.74415098300E+01  0.35349492382E+03  0.59010942805E+03  0.50400001928E-02 0.  1.
</event>
<event>
 5   0  0.6109149E-04  0.1101782E+04  0.7818609E-02  0.9203456E-01
        2   -1    0    0  501    0  0.00000000000E+00  0.00000000000E+00  0.19521360864E+04  0.19521360864E+04  0.25500000920E-02 0.  1.
       -2   -1    0    0    0  501  0.00000000000E+00  0.00000000000E+00 -0.15546106733E+03  0.15546106735E+03  0.25500000920E-02 0. -1.
    10030    2    1    2    0    0  0.00000000000E+00  0.00000000000E+00  0.17966750191E+04  0.21075971538E+04  0.11017824823E+04 0.  0.
        1    1    3    3  502    0  0.74481019283E+01  0.42824416616E+03  0.15610747610E+04  0.16187658723E+04  0.50400001928E-02 0.  1.
       -1    1    3    3    0  502 -0.74481019283E+01 -0.42824416616E+03  0.23560025815E+03  0.48883128146E+03  0.50400001928E-02 0. -1.
</event>
<event>
 5   0  0.6412712E-04  0.1099171E+04  0.7818609E-02  0.9206000E-01
        2   -1    0    0  501    0  0.00000000000E+00  0.00000000000E+00  0.12275383347E+04  0.12275383347E+04  0.25500000920E-02 0.  1.
       -2   -1    0    0    0  501  0.00000000000E+00  0.00000000000E+00 -0.24605679788E+03  0.24605679789E+03  0.25500000920E-02 0. -1.
    10030    2    1    2    0    0  0.00000000000E+00  0.00000000000E+00  0.98148153684E+03  0.14735951326E+04  0.10991708728E+04 0.  0.
        2    1    3    3  502    0 -0.29538427710E+03  0.22426478621E+03 -0.53001045966E+02  0.37464072972E+03  0.25500000920E-02 0. -1.
       -2    1    3    3    0  502  0.29538427710E+03 -0.22426478621E+03  0.10344825828E+04  0.10989544029E+04  0.25500000920E-02 0.  1.
</event>
<event>
 5   0  0.3523525E-04  0.1100053E+04  0.7818609E-02  0.9205140E-01
        1   -1    0    0  501    0  0.00000000000E+00  0.00000000000E+00  0.74126740494E+03  0.74126740496E+03  0.50400001928E-02 0.  1.
       -1   -1    0    0    0  501  0.00000000000E+00  0.00000000000E+00 -0.40812452811E+03  0.40812452814E+03  0.50400001928E-02 0. -1.
    10030    2    1    2    0    0  0.00000000000E+00  0.00000000000E+00  0.33314287683E+03  0.11493919331E+04  0.11000534712E+04 0.  0.
        5    1    3    3  502    0  0.15642267356E+03  0.20521705359E+03  0.67407785864E+03  0.72179300454E+03  0.46999998093E+01 0.  1.
       -5    1    3    3    0  502 -0.15642267356E+03 -0.20521705359E+03 -0.34093498181E+03  0.42759892857E+03  0.46999998093E+01 0. -1.
</event>
<event>
 5   0  0.3621403E-04  0.1099220E+04  0.7818609E-02  0.9205952E-01
        1   -1    0    0  501    0  0.00000000000E+00  0.00000000000E+00  0.11368250593E+04  0.11368250593E+04  0.50400001928E-02 0.  1.
       -1   -1    0    0    0  501  0.00000000000E+00  0.00000000000E+00 -0.26571483613E+03  0.26571483618E+03  0.50400001928E-02 0. -1.
    10030    2    1    2    0    0  0.00000000000E+00  0.00000000000E+00  0.87111022314E+03  0.14025398955E+04  0.10992202407E+04 0.  0.
        3    1    3    3  502    0 -0.32889220392E+03 -0.25625028973E+03 -0.21361713263E+02  0.41748128794E+03  0.10100000352E+00 0. -1.
       -3    1    3    3    0  502  0.32889220392E+03  0.25625028973E+03  0.89247193640E+03  0.98505860752E+03  0.10100000352E+00 0.  1.
</event>
<event>
 5   0  0.5948818E-04  0.1102636E+04  0.7818609E-02  0.9202627E-01
        2   -1    0    0  501    0  0.00000000000E+00  0.00000000000E+00  0.47359612525E+03  0.47359612526E+03  0.25500000920E-02 0.  1.
       -2   -1    0    0    0  501  0.00000000000E+00  0.00000000000E+00 -0.64179471180E+03  0.64179471181E+03  0.25500000920E-02 0. -1.
    10030    2    1    2    0    0  0.00000000000E+00  0.00000000000E+00 -0.16819858655E+03  0.11153908371E+04  0.11026359122E+04 0.  0.
        3    1    3    3  502    0 -0.32390587309E+03  0.41808815948E+03  0.73389658361E+02  0.53394641667E+03  0.10100000352E+00 0.  1.
       -3    1    3    3    0  502  0.32390587309E+03 -0.41808815948E+03 -0.24158824491E+03  0.58144442039E+03  0.10100000352E+00 0. -1.
</event>
<event>
 5   0  0.6245176E-04  0.1100334E+04  0.7818609E-02  0.9204867E-01
        2   -1    0    0  501    0  0.00000000000E+00  0.00000000000E+00  0.55058522833E+03  0.55058522834E+03  0.25500000920E-02 0.  1.
       -2   -1    0    0    0  501  0.00000000000E+00  0.00000000000E+00 -0.54974887657E+03  0.54974887658E+03  0.25500000920E-02 0. -1.
    10030    2    1    2    0    0  0.00000000000E+00  0.00000000000E+00  0.83635176026E+00  0.11003341049E+04  0.11003337871E+04 0.  0.
        5    1    3    3  502    0 -0.15767959198E+03  0.52315684479E+03 -0.63656664215E+02  0.55011834988E+03  0.46999998093E+01 0. -1.
       -5    1    3    3    0  502  0.15767959198E+03 -0.52315684479E+03  0.64493015976E+02  0.55021575503E+03  0.46999998093E+01 0.  1.
</event>
<event>
 5   0  0.3523525E-04  0.1100353E+04  0.7818609E-02  0.9204848E-01
       -1   -1    0    0    0  501  0.00000000000E+00  0.00000000000E+00  0.15228864673E+04  0.15228864673E+04  0.50400001928E-02 0. -1.
        1   -1    0    0  501    0  0.00000000000E+00  0.00000000000E+00 -0.19876331488E+03  0.19876331495E+03  0.50400001928E-02 0.  1.
    10030    2    1    2    0    0  0.00000000000E+00  0.00000000000E+00  0.13241231524E+04  0.17216497823E+04  0.11003526026E+04 0.  0.
        5    1    3    3  502    0 -0.35604599052E+03 -0.41203677474E+03  0.53957135473E+03  0.76661749781E+03  0.46999998093E+01 0.  1.
       -5    1    3    3    0  502  0.35604599052E+03  0.41203677474E+03  0.78455179769E+03  0.95503228445E+03  0.46999998093E+01 0. -1.
</event>
<event>
 5   0  0.6109149E-04  0.1091924E+04  0.7818609E-02  0.9213099E-01
        2   -1    0    0  501    0  0.00000000000E+00  0.00000000000E+00  0.17038755606E+04  0.17038755606E+04  0.25500000920E-02 0. -1.
       -2   -1    0    0    0  501  0.00000000000E+00  0.00000000000E+00 -0.17493915306E+03  0.17493915308E+03  0.25500000920E-02 0.  1.
    10030    2    1    2    0    0  0.00000000000E+00  0.00000000000E+00  0.15289364076E+04  0.18788147137E+04  0.10919240771E+04 0.  0.
        1    1    3    3  502    0 -0.50065347056E+03  0.21195101173E+03  0.85045607068E+03  0.10093823147E+04  0.50400001928E-02 0. -1.
       -1    1    3    3    0  502  0.50065347056E+03 -0.21195101173E+03  0.67848033690E+03  0.86943239906E+03  0.50400001928E-02 0.  1.
</event>
<event>
 5   0  0.3423758E-04  0.1100490E+04  0.7818609E-02  0.9204715E-01
        1   -1    0    0  501    0  0.00000000000E+00  0.00000000000E+00  0.18022158576E+04  0.18022158576E+04  0.50400001928E-02 0.  1.
       -1   -1    0    0    0  501  0.00000000000E+00  0.00000000000E+00 -0.16799840779E+03  0.16799840787E+03  0.50400001928E-02 0. -1.
    10030    2    1    2    0    0  0.00000000000E+00  0.00000000000E+00  0.16342174498E+04  0.19702142655E+04  0.11004896995E+04 0.  0.
        1    1    3    3  502    0  0.32802188374E+03 -0.43242100772E+03  0.65515658715E+03  0.85077402279E+03  0.50400001928E-02 0. -1.
       -1    1    3    3    0  502 -0.32802188374E+03  0.43242100772E+03  0.97906086264E+03  0.11194402427E+04  0.50400001928E-02 0.  1.
</event>
<event>
 5   0  0.5948818E-04  0.1099057E+04  0.7818609E-02  0.9206111E-01
       -2   -1    0    0    0  501  0.00000000000E+00  0.00000000000E+00  0.54134100118E+03  0.54134100118E+03  0.25500000920E-02 0.  1.
        2   -1    0    0  501    0  0.00000000000E+00  0.00000000000E+00 -0.55784002851E+03  0.55784002852E+03  0.25500000920E-02 0. -1.
    10030    2    1    2    0    0  0.00000000000E+00  0.00000000000E+00 -0.16499027335E+02  0.10991810297E+04  0.10990571951E+04 0.  0.
        3    1    3    3  502    0 -0.21064822300E+03  0.26299317553E+03 -0.44239931809E+03  0.55610722984E+03  0.10100000352E+00 0. -1.
       -3    1    3    3    0  502  0.21064822300E+03 -0.26299317553E+03  0.42590029076E+03  0.54307379986E+03  0.10100000352E+00 0.  1.
</event>
<event>
 5   0  0.6264830E-04  0.1101833E+04  0.7818609E-02  0.9203407E-01
        2   -1    0    0  501    0  0.00000000000E+00  0.00000000000E+00  0.53980501196E+03  0.53980501196E+03  0.25500000920E-02 0. -1.
       -2   -1    0    0    0  501  0.00000000000E+00  0.00000000000E+00 -0.56225703302E+03  0.56225703302E+03  0.25500000920E-02 0.  1.
    10030    2    1    2    0    0  0.00000000000E+00  0.00000000000E+00 -0.22452021059E+02  0.11020620450E+04  0.11018333167E+04 0.  0.
        4    1    3    3  502    0 -0.48079116787E+03 -0.20731528802E+03 -0.18263187361E+03  0.55452302919E+03  0.12699999809E+01 0.  1.
       -4    1    3    3    0  502  0.48079116787E+03  0.20731528802E+03  0.16017985255E+03  0.54753901579E+03  0.12699999809E+01 0. -1.
</event>
<event>
 5   0  0.6412712E-04  0.1103301E+04  0.7818609E-02  0.9201980E-01
        2   -1    0    0  501    0  0.00000000000E+00  0.00000000000E+00  0.16668144788E+04  0.16668144788E+04  0.25500000920E-02 0.  1.
       -2   -1    0    0    0  501  0.00000000000E+00  0.00000000000E+00 -0.18257492109E+03  0.18257492111E+03  0.25500000920E-02 0. -1.
    10030    2    1    2    0    0  0.00000000000E+00  0.00000000000E+00  0.14842395577E+04  0.18493893999E+04  0.11033014492E+04 0.  0.
        2    1    3    3  502    0 -0.27553469439E+03  0.46888344770E+03  0.89709165197E+03  0.10490683902E+04  0.25500000920E-02 0.  1.
       -2    1    3    3    0  502  0.27553469439E+03 -0.46888344770E+03  0.58714790576E+03  0.80032100971E+03  0.25500000920E-02 0. -1.
</event>
<event>
 5   0  0.6264830E-04  0.1095584E+04  0.7818609E-02  0.9209507E-01
        2   -1    0    0  501    0  0.00000000000E+00  0.00000000000E+00  0.17031683755E+04  0.17031683755E+04  0.25500000920E-02 0. -1.
       -2   -1    0    0    0  501  0.00000000000E+00  0.00000000000E+00 -0.17618701032E+03  0.17618701034E+03  0.25500000920E-02 0.  1.
    10030    2    1    2    0    0  0.00000000000E+00  0.00000000000E+00  0.15269813651E+04  0.18793553858E+04  0.10955841258E+04 0.  0.
        4    1    3    3  502    0  0.46612974644E+03  0.71217515529E+02  0.28525125198E+03  0.55110685415E+03  0.12699999809E+01 0.  1.
       -4    1    3    3    0  502 -0.46612974644E+03 -0.71217515529E+02  0.12417301132E+04  0.13282485317E+04  0.12699999809E+01 0. -1.
</event>
<event>
 5   0  0.6109149E-04  0.1100283E+04  0.7818609E-02  0.9204916E-01
       -2   -1    0    0    0  501  0.00000000000E+00  0.00000000000E+00  0.50566826039E+03  0.50566826039E+03  0.25500000920E-02 0.  1.
        2   -1    0    0  501    0  0.00000000000E+00  0.00000000000E+00 -0.59852593539E+03  0.59852593539E+03  0.25500000920E-02 0. -1.
    10030    2    1    2    0    0  0.00000000000E+00  0.00000000000E+00 -0.92857675000E+02  0.11041941958E+04  0.11002828156E+04 0.  0.
        1    1    3    3  502    0  0.26394522543E+03 -0.47665785369E+03 -0.12276353266E+03  0.55851649617E+03  0.50400001928E-02 0. -1.
       -1    1    3    3    0  502 -0.26394522543E+03  0.47665785369E+03  0.29905857661E+02  0.54567769962E+03  0.50400001928E-02 0.  1.
</event>
<event>
 5   0  0.3523525E-04  0.1099435E+04  0.7818609E-02  0.9205743E-01
        1   -1    0    0  501    0  0.00000000000E+00  0.00000000000E+00  0.97474301080E+03  0.97474301082E+03  0.50400001928E-02 0. -1.
       -1   -1    0    0    0  501  0.00000000000E+00  0.00000000000E+00 -0.31001947044E+03  0.31001947048E+03  0.50400001928E-02 0.  1.
    10030    2    1    2    0    0  0.00000000000E+00  0.00000000000E+00  0.66472354036E+03  0.12847624813E+04  0.10994349677E+04 0.  0.
        5    1    3    3  502    0 -0.44583317117E+03  0.37685984525E+02  0.70553485997E+03  0.83545734695E+03  0.46999998093E+01 0. -1.
       -5    1    3    3    0  502  0.44583317117E+03 -0.37685984525E+02 -0.40811319610E+02  0.44930513435E+03  0.46999998093E+01 0.  1.
</event>
<event>
 5   0  0.3423758E-04  0.1101145E+04  0.7818609E-02  0.9204077E-01
       -1   -1    0    0    0  501  0.00000000000E+00  0.00000000000E+00  0.15499844573E+04  0.15499844573E+04  0.50400001928E-02 0. -1.
        1   -1    0    0  501    0  0.00000000000E+00  0.00000000000E+00 -0.19556961699E+03  0.19556961705E+03  0.50400001928E-02 0.  1.
    10030    2    1    2    0    0  0.00000000000E+00  0.00000000000E+00  0.13544148403E+04  0.17455540743E+04  0.11011446167E+04 0.  0.
        1    1    3    3  502    0 -0.55125685247E+02 -0.43427561533E+02  0.15428656462E+04  0.15444608110E+04  0.50400001928E-02 0. -1.
       -1    1    3    3    0  502  0.55125685247E+02  0.43427561533E+02 -0.18845080596E+03  0.20109326335E+03  0.50400001928E-02 0.  1.
</event>
<event>
 5   0  0.6109149E-04  0.1099556E+04  0.7818609E-02  0.9205625E-01
        2   -1    0    0  501    0  0.00000000000E+00  0.00000000000E+00  0.45555613605E+03  0.45555613605E+03  0.25500000920E-02 0.  1.
       -2   -1    0    0    0  501  0.00000000000E+00  0.00000000000E+00 -0.66348713659E+03  0.66348713660E+03  0.25500000920E-02 0. -1.
    10030    2    1    2    0    0  0.00000000000E+00  0.00000000000E+00 -0.20793100055E+03  0.11190432726E+04  0.10995556125E+04 0.  0.
        1    1    3    3  502    0 -0.40505010218E+03  0.65477173241E+02  0.26844721039E+03  0.49032310805E+03  0.50400001928E-02 0.  1.
       -1    1    3    3    0  502  0.40505010218E+03 -0.65477173241E+02 -0.47637821094E+03  0.62872016460E+03  0.50400001928E-02 0. -1.
</event>
<event>
 5   0  0.3642161E-04  0.1099625E+04  0.7818609E-02  0.9205558E-01
       -1   -1    0    0    0  501  0.00000000000E+00  0.00000000000E+00  0.13781664303E+04  0.13781664303E+04  0.50400001928E-02 0.  1.
        1   -1    0    0  501    0  0.00000000000E+00  0.00000000000E+00 -0.21934478097E+03  0.21934478103E+03  0.50400001928E-02 0. -1.
    10030    2    1    2    0    0  0.00000000000E+00  0.00000000000E+00  0.11588216493E+04  0.15975112113E+04  0.10996246884E+04 0.  0.
        2    1    3    3  502    0  0.73588560681E+02  0.13961062753E+03 -0.18573224543E+03  0.24372704113E+03  0.25500000920E-02 0. -1.
       -2    1    3    3    0  502 -0.73588560681E+02 -0.13961062753E+03  0.13445538947E+04  0.13537841702E+04  0.25500000920E-02 0.  1.
</event>
<event>
 5   0  0.3621403E-04  0.1101576E+04  0.7818609E-02  0.9203657E-01
        1   -1    0    0  501    0  0.00000000000E+00  0.00000000000E+00  0.11243247197E+04  0.11243247197E+04  0.50400001928E-02 0.  1.
       -1   -1    0    0    0  501  0.00000000000E+00  0.00000000000E+00 -0.26982197589E+03  0.26982197593E+03  0.50400001928E-02 0. -1.
    10030    2    1    2    0    0  0.00000000000E+00  0.00000000000E+00  0.85450274383E+03  0.13941466957E+04  0.11015761752E+04 0.  0.
        3    1    3    3  502    0 -0.26227479280E+03 -0.41368457541E+03  0.74603130211E+03  0.89246048025E+03  0.10100000352E+00 0.  1.
       -3    1    3    3    0  502  0.26227479280E+03  0.41368457541E+03  0.10847144172E+03  0.50168621542E+03  0.10100000352E+00 0. -1.
</event>
<event>
 5   0  0.3657529E-04  0.1099980E+04  0.7818609E-02  0.9205212E-01
        1   -1    0    0  501    0  0.00000000000E+00  0.00000000000E+00  0.87984976917E+03  0.87984976919E+03  0.50400001928E-02 0. -1.
       -1   -1    0    0    0  501  0.00000000000E+00  0.00000000000E+00 -0.34379601940E+03  0.34379601944E+03  0.50400001928E-02 0.  1.
    10030    2    1    2    0    0  0.00000000000E+00  0.00000000000E+00  0.53605374977E+03  0.12236457886E+04  0.10999797241E+04 0.  0.
        4    1    3    3  502    0  0.14590780685E+03  0.31864705746E+03  0.73954609133E+03  0.81838564835E+03  0.12699999809E+01 0. -1.
       -4    1    3    3    0  502 -0.14590780685E+03 -0.31864705746E+03 -0.20349234156E+03  0.40526014028E+03  0.12699999809E+01 0.  1.
</event>
<event>
 5   0  0.6109149E-04  0.1098774E+04  0.7818609E-02  0.9206388E-01
        2   -1    0    0  501    0  0.00000000000E+00  0.00000000000E+00  0.12646719335E+04  0.12646719335E+04  0.25500000920E-02 0.  1.
       -2   -1    0    0    0  501  0.00000000000E+00  0.00000000000E+00 -0.23865963538E+03  0.23865963540E+03  0.25500000920E-02 0. -1.
    10030    2    1    2    0    0  0.00000000000E+00  0.00000000000E+00  0.10260122981E+04  0.15033315689E+04  0.10987741215E+04 0.  0.
        1    1    3    3  502    0 -0.34532862228E+00 -0.20285716452E+03 -0.18554150949E+03  0.27491235007E+03  0.50400001928E-02 0. -1.
       -1    1    3    3    0  502  0.34532862228E+00  0.20285716452E+03  0.12115538076E+04  0.12284192188E+04  0.50400001928E-02 0.  1.
</event>
<event>
 5   0  0.3642161E-04  0.1100902E+04  0.7818609E-02  0.9204314E-01
        1   -1    0    0  501    0  0.00000000000E+00  0.00000000000E+00  0.45778153379E+03  0.45778153382E+03  0.50400001928E-02 0. -1.
       -1   -1    0    0    0  501  0.00000000000E+00  0.00000000000E+00 -0.66187911925E+03  0.66187911927E+03  0.50400001928E-02 0.  1.
    10030    2    1    2    0    0  0.00000000000E+00  0.00000000000E+00 -0.20409758546E+03  0.11196606531E+04  0.11009015186E+04 0.  0.
        2    1    3    3  502    0  0.29658991049E+03  0.12497002299E+03  0.35211722142E+03  0.47704257596E+03  0.25500000920E-02 0. -1.
       -2    1    3    3    0  502 -0.29658991049E+03 -0.12497002299E+03 -0.55621480688E+03  0.64261807713E+03  0.25500000920E-02 0.  1.
</event>
<event>
 5   0  0.3621403E-04  0.1101536E+04  0.7818609E-02  0.9203696E-01
        1   -1    0    0  501    0  0.00000000000E+00  0.00000000000E+00  0.17634348845E+04  0.17634348845E+04  0.50400001928E-02 0. -1.
       -1   -1    0    0    0  501  0.00000000000E+00  0.00000000000E+00 -0.17201961858E+03  0.17201961865E+03  0.50400001928E-02 0.  1.
    10030    2    1    2    0    0  0.00000000000E+00  0.00000000000E+00  0.15914152659E+04  0.19354545031E+04  0.11015360117E+04 0.  0.
        3    1    3    3  502    0 -0.14233971159E+03  0.33347778925E+03  0.15241473214E+04  0.15666821940E+04  0.10100000352E+00 0. -1.
       -3    1    3    3    0  502  0.14233971159E+03 -0.33347778925E+03  0.67267944472E+02  0.36877230912E+03  0.10100000352E+00 0.  1.
</event>
<event>
 5   0  0.3523525E-04  0.1101196E+04  0.7818609E-02  0.9204027E-01
       -1   -1    0    0    0  501  0.00000000000E+00  0.00000000000E+00  0.23385803914E+03  0.23385803920E+03  0.50400001928E-02 0.  1.
        1   -1    0    0  501    0  0.00000000000E+00  0.00000000000E+00 -0.12963341969E+04  0.12963341969E+04  0.50400001928E-02 0. -1.
    10030    2    1    2    0    0  0.00000000000E+00  0.00000000000E+00 -0.10624761577E+04  0.15301922361E+04  0.11011960287E+04 0.  0.
        5    1    3    3  502    0  0.29476817988E+03  0.32058676833E+03 -0.99932399446E+03  0.10901076515E+04  0.46999998093E+01 0. -1.
       -5    1    3    3    0  502 -0.29476817988E+03 -0.32058676833E+03 -0.63152163284E+02  0.44008458462E+03  0.46999998093E+01 0.  1.
</event>
<event>
 5   0  0.6109149E-04  0.1076298E+04  0.7818609E-02  0.9228607E-01
        2   -1    0    0  501    0  0.00000000000E+00  0.00000000000E+00  0.17110216451E+04  0.17110216451E+04  0.25500000920E-02 0. -1.
       -2   -1    0    0    0  501  0.00000000000E+00  0.00000000000E+00 -0.16925805923E+03  0.16925805925E+03  0.25500000920E-02 0.  1.
    10030    2    1    2    0    0  0.00000000000E+00  0.00000000000E+00  0.15417635859E+04  0.18802797044E+04  0.10762977339E+04 0.  0.
        1    1    3    3  502    0 -0.31972429176E+03  0.30175007772E+02  0.16494134155E+02  0.32156836026E+03  0.50400001928E-02 0.  1.
       -1    1    3    3    0  502  0.31972429176E+03 -0.30175007772E+02  0.15252694518E+04  0.15587113441E+04  0.50400001928E-02 0. -1.
</event>
<event>
 5   0  0.2403875E-04  0.1100038E+04  0.7818609E-02  0.9205154E-01
        3   -1    0    0  501    0  0.00000000000E+00  0.00000000000E+00  0.69072122207E+03  0.69072122945E+03  0.10100000352E+00 0.  1.
       -3   -1    0    0    0  501  0.00000000000E+00  0.00000000000E+00 -0.43797861039E+03  0.43797862203E+03  0.10100000352E+00 0. -1.
    10030    2    1    2    0    0  0.00000000000E+00  0.00000000000E+00  0.25274261168E+03  0.11286998515E+04  0.11000384207E+04 0.  0.
        4    1    3    3  502    0  0.43139434490E+03  0.25410615284E+03  0.36000674354E+03  0.61666643011E+03  0.12699999809E+01 0.  1.
       -4    1    3    3    0  502 -0.43139434490E+03 -0.25410615284E+03 -0.10726413186E+03  0.51203342138E+03  0.12699999809E+01 0. -1.
</event>
<event>
 5   0  0.3523525E-04  0.1099592E+04  0.7818609E-02  0.9205589E-01
        1   -1    0    0  501    0  0.00000000000E+00  0.00000000000E+00  0.76951746952E+03  0.76951746954E+03  0.50400001928E-02 0.  1.
       -1   -1    0    0    0  501  0.00000000000E+00  0.00000000000E+00 -0.39281217063E+03  0.39281217066E+03  0.50400001928E-02 0. -1.
    10030    2    1    2    0    0  0.00000000000E+00  0.00000000000E+00  0.37670529889E+03  0.11623296402E+04  0.10995923382E+04 0.  0.
        5    1    3    3  502    0  0.45846578406E+03  0.21835494452E+03 -0.34342487104E+02  0.50899042561E+03  0.46999998093E+01 0. -1.
       -5    1    3    3    0  502 -0.45846578406E+03 -0.21835494452E+03  0.41104778600E+03  0.65333921459E+03  0.46999998093E+01 0.  1.
</event>
<event>
 5   0  0.6412712E-04  0.1099401E+04  0.7818609E-02  0.9205776E-01
       -2   -1    0    0    0  501  0.00000000000E+00  0.00000000000E+00  0.18049207472E+04  0.18049207472E+04  0.25500000920E-02 0.  1.
        2   -1    0    0  501    0  0.00000000000E+00  0.00000000000E+00 -0.16741476683E+03  0.16741476685E+03  0.25500000920E-02 0. -1.
    10030    2    1    2    0    0  0.00000000000E+00  0.00000000000E+00  0.16375059804E+04  0.19723355140E+04  0.10994005386E+04 0.  0.
        2    1    3    3  502    0 -0.35479887304E+03 -0.34960900138E+03  0.40162468021E+03  0.63985238760E+03  0.25500000920E-02 0. -1.
       -2    1    3    3    0  502  0.35479887304E+03  0.34960900138E+03  0.12358813002E+04  0.13324831264E+04  0.25500000920E-02 0.  1.
</event>
<event>
 5   0  0.3642161E-04  0.1095734E+04  0.7818609E-02  0.9209360E-01
       -1   -1    0    0    0  501  0.00000000000E+00  0.00000000000E+00  0.23536732745E+03  0.23536732750E+03  0.50400001928E-02 0. -1.
        1   -1    0    0  501    0  0.00000000000E+00  0.00000000000E+00 -0.12752748841E+04  0.12752748841E+04  0.50400001928E-02 0.  1.
    10030    2    1    2    0    0  0.00000000000E+00  0.00000000000E+00 -0.10399075566E+04  0.15106422116E+04  0.10957336196E+04 0.  0.
        2    1    3    3  502    0  0.46030828841E+03 -0.19759061675E+03 -0.82585524208E+03  0.96589991877E+03  0.25500000920E-02 0.  1.
       -2    1    3    3    0  502 -0.46030828841E+03  0.19759061675E+03 -0.21405231454E+03  0.54474229281E+03  0.25500000920E-02 0. -1.
</event>
<event>
 5   0  0.6245176E-04  0.1100385E+04  0.7818609E-02  0.9204816E-01
        2   -1    0    0  501    0  0.00000000000E+00  0.00000000000E+00  0.19386383699E+04  0.19386383699E+04  0.25500000920E-02 0. -1.
       -2   -1    0    0    0  501  0.00000000000E+00  0.00000000000E+00 -0.15614667115E+03  0.15614667117E+03  0.25500000920E-02 0.  1.
    10030    2    1    2    0    0  0.00000000000E+00  0.00000000000E+00  0.17824916987E+04  0.20947850410E+04  0.11003852562E+04 0.  0.
        5    1    3    3  502    0 -0.47432987845E+03  0.74638857992E+02  0.14025187848E+04  0.14824442062E+04  0.46999998093E+01 0. -1.
       -5    1    3    3    0  502  0.47432987845E+03 -0.74638857992E+02  0.37997291388E+03  0.61234083482E+03  0.46999998093E+01 0.  1.
</event>
<event>
 5   0  0.6264830E-04  0.1100748E+04  0.7818609E-02  0.9204464E-01
        2   -1    0    0  501    0  0.00000000000E+00  0.00000000000E+00  0.82460854003E+03  0.82460854004E+03  0.25500000920E-02 0. -1.
       -2   -1    0    0    0  501  0.00000000000E+00  0.00000000000E+00 -0.36733952276E+03  0.36733952277E+03  0.25500000920E-02 0.  1.
    10030    2    1    2    0    0  0.00000000000E+00  0.00000000000E+00  0.45726901727E+03  0.11919480628E+04  0.11007475779E+04 0.  0.
        4    1    3    3  502    0  0.32357507401E+03 -0.56411718109E+01  0.71068914697E+03  0.78090545385E+03  0.12699999809E+01 0. -1.
       -4    1    3    3    0  502 -0.32357507401E+03  0.56411718109E+01 -0.25342012970E+03  0.41104260895E+03  0.12699999809E+01 0.  1.
</event>
<event>
 5   0  0.6264830E-04  0.1099600E+04  0.7818609E-02  0.9205582E-01
       -2   -1    0    0    0  501  0.00000000000E+00  0.00000000000E+00  0.16978945528E+03  0.16978945530E+03  0.25500000920E-02 0. -1.
        2   -1    0    0  501    0  0.00000000000E+00  0.00000000000E+00 -0.17803220138E+04  0.17803220138E+04  0.25500000920E-02 0.  1.
    10030    2    1    2    0    0  0.00000000000E+00  0.00000000000E+00 -0.16105325585E+04  0.19501114691E+04  0.10995997544E+04 0.  0.
        4    1    3    3  502    0  0.23515514711E+03 -0.49614320035E+03 -0.85612119924E+03  0.10170551308E+04  0.12699999809E+01 0. -1.
       -4    1    3    3    0  502 -0.23515514711E+03  0.49614320035E+03 -0.75441135927E+03  0.93305633826E+03  0.12699999809E+01 0.  1.
</event>
<event>
 5   0  0.3523525E-04  0.1097082E+04  0.7818609E-02  0.9208040E-01
        1   -1    0    0  501    0  0.00000000000E+00  0.00000000000E+00  0.68181633369E+03  0.68181633371E+03  0.50400001928E-02 0.  1.
       -1   -1    0    0    0  501  0.00000000000E+00  0.00000000000E+00 -0.44131729940E+03  0.44131729943E+03  0.50400001928E-02 0. -1.
    10030    2    1    2    0    0  0.00000000000E+00  0.00000000000E+00  0.24049903429E+03  0.11231336331E+04  0.10970822086E+04 0.  0.
        5    1    3    3  502    0  0.41041777570E+03 -0.29431386932E+03 -0.98870054378E+02  0.51464626875E+03  0.46999998093E+01 0. -1.
       -5    1    3    3    0  502 -0.41041777570E+03  0.29431386932E+03  0.33936908866E+03  0.60848736439E+03  0.46999998093E+01 0.  1.
</event>
<event>
 5   0  0.3523525E-04  0.1099904E+04  0.7818609E-02  0.9205285E-01
        1   -1    0    0  501    0  0.00000000000E+00  0.00000000000E+00  0.75205969830E+03  0.75205969832E+03  0.50400001928E-02 0.  1.
       -1   -1    0    0    0  501  0.00000000000E+00  0.00000000000E+00 -0.40215850931E+03  0.40215850934E+03  0.50400001928E-02 0. -1.
    10030    2    1    2    0    0  0.00000000000E+00  0.00000000000E+00  0.34990118899E+03  0.11542182077E+04  0.10999040089E+04 0.  0.
        5    1    3    3  502    0  0.44582171039E+03  0.29137121984E+03  0.31872317054E+03  0.62069375270E+03  0.46999998093E+01 0.  1.
       -5    1    3    3    0  502 -0.44582171039E+03 -0.29137121984E+03  0.31178018453E+02  0.53352445496E+03  0.46999998093E+01 0. -1.
</event>
<event>
 5   0  0.3523525E-04  0.1101374E+04  0.7818609E-02  0.9203854E-01
       -1   -1    0    0    0  501  0.00000000000E+00  0.00000000000E+00  0.94502893819E+03  0.94502893820E+03  0.50400001928E-02 0.  1.
        1   -1    0    0  501    0  0.00000000000E+00  0.00000000000E+00 -0.32089617637E+03  0.32089617641E+03  0.50400001928E-02 0. -1.
    10030    2    1    2    0    0  0.00000000000E+00  0.00000000000E+00  0.62413276182E+03  0.12659251146E+04  0.11013740016E+04 0.  0.
        5    1    3    3  502    0  0.81601458169E+01 -0.48258873778E+03  0.61676851223E+03  0.78318833335E+03  0.46999998093E+01 0.  1.
       -5    1    3    3    0  502 -0.81601458169E+01  0.48258873778E+03  0.73642495854E+01  0.48273678126E+03  0.46999998093E+01 0. -1.
</event>
<event>
 5   0  0.6109149E-04  0.1103701E+04  0.7818609E-02  0.9201592E-01
       -2   -1    0    0    0  501  0.00000000000E+00  0.00000000000E+00  0.63545145997E+03  0.63545145997E+03  0.25500000920E-02 0. -1.
        2   -1    0    0  501    0  0.00000000000E+00  0.00000000000E+00 -0.47924841749E+03  0.47924841750E+03  0.25500000920E-02 0.  1.
    10030    2    1    2    0    0  0.00000000000E+00  0.00000000000E+00  0.15620304247E+03  0.11146998775E+04  0.11037012396E+04 0.  0.
        1    1    3    3  502    0 -0.20592807073E+03  0.21549345465E+02  0.59473438751E+03  0.62974577118E+03  0.50400001928E-02 0. -1.
       -1    1    3    3    0  502  0.20592807073E+03 -0.21549345465E+02 -0.43853134504E+03  0.48495410629E+03  0.50400001928E-02 0.  1.
</event>
<event>
 5   0  0.6245176E-04  0.1097506E+04  0.7818609E-02  0.9207626E-01
       -2   -1    0    0    0  501  0.00000000000E+00  0.00000000000E+00  0.30552252279E+03  0.30552252280E+03  0.25500000920E-02 0. -1.
        2   -1    0    0  501    0  0.00000000000E+00  0.00000000000E+00 -0.98562253500E+03  0.98562253500E+03  0.25500000920E-02 0.  1.
    10030    2    1    2    0    0  0.00000000000E+00  0.00000000000E+00 -0.68010001221E+03  0.12911450578E+04  0.10975060518E+04 0.  0.
        5    1    3    3  502    0 -0.53757971303E+03 -0.80651373650E+02 -0.25192563196E+03  0.59915374151E+03  0.46999998093E+01 0. -1.
       -5    1    3    3    0  502  0.53757971303E+03  0.80651373650E+02 -0.42817438024E+03  0.69199131629E+03  0.46999998093E+01 0.  1.
</event>
<event>
 5   0  0.3621403E-04  0.1099212E+04  0.7818609E-02  0.9205960E-01
       -1   -1    0    0    0  501  0.00000000000E+00  0.00000000000E+00  0.28885469110E+03  0.28885469114E+03  0.50400001928E-02 0. -1.
        1   -1    0    0  501    0  0.00000000000E+00  0.00000000000E+00 -0.10457392681E+04  0.10457392681E+04  0.50400001928E-02 0.  1.
    10030    2    1    2    0    0  0.00000000000E+00  0.00000000000E+00 -0.75688457696E+03  0.13345939592E+04  0.10992118873E+04 0.  0.
        3    1    3    3  502    0  0.52814248515E+03 -0.13422296342E+03 -0.46528827487E+03  0.71654970341E+03  0.10100000352E+00 0. -1.
       -3    1    3    3    0  502 -0.52814248515E+03  0.13422296342E+03 -0.29159630209E+03  0.61804425580E+03  0.10100000352E+00 0.  1.
</event>
<event>
 5   0  0.6264830E-04  0.1101052E+04  0.7818609E-02  0.9204167E-01
        2   -1    0    0  501    0  0.00000000000E+00  0.00000000000E+00  0.95887035416E+03  0.95887035416E+03  0.25500000920E-02 0. -1.
       -2   -1    0    0    0  501  0.00000000000E+00  0.00000000000E+00 -0.31607895553E+03  0.31607895554E+03  0.25500000920E-02 0.  1.
    10030    2    1    2    0    0  0.00000000000E+00  0.00000000000E+00  0.64279139863E+03  0.12749493097E+04  0.11010517518E+04 0.  0.
        4    1    3    3  502    0 -0.23647941621E+03 -0.21473330000E+03 -0.19779987842E+03  0.37571173687E+03  0.12699999809E+01 0.  1.
       -4    1    3    3    0  502  0.23647941621E+03  0.21473330000E+03  0.84059127705E+03  0.89923757282E+03  0.12699999809E+01 0. -1.
</event>
<event>
 5   0  0.6109149E-04  0.1098852E+04  0.7818609E-02  0.9206312E-01
        2   -1    0    0  501    0  0.00000000000E+00  0.00000000000E+00  0.10253241359E+04  0.10253241359E+04  0.25500000920E-02 0. -1.
       -2   -1    0    0    0  501  0.00000000000E+00  0.00000000000E+00 -0.29441300581E+03  0.29441300582E+03  0.25500000920E-02 0.  1.
    10030    2    1    2    0    0  0.00000000000E+00  0.00000000000E+00  0.73091113013E+03  0.13197371418E+04  0.10988516930E+04 0.  0.
        1    1    3    3  502    0  0.50693115317E+02 -0.36979290073E+03 -0.11876670127E+03  0.39169134625E+03  0.50400001928E-02 0. -1.
       -1    1    3    3    0  502 -0.50693115317E+02  0.36979290073E+03  0.84967783140E+03  0.92804579551E+03  0.50400001928E-02 0.  1.
</event>
<event>
 5   0  0.3423758E-04  0.1099902E+04  0.7818609E-02  0.9205288E-01
       -1   -1    0    0    0  501  0.00000000000E+00  0.00000000000E+00  0.73659162443E+03  0.73659162445E+03  0.50400001928E-02 0. -1.
        1   -1    0    0  501    0  0.00000000000E+00  0.00000000000E+00 -0.41060180290E+03  0.41060180293E+03  0.50400001928E-02 0.  1.
    10030    2    1    2    0    0  0.00000000000E+00  0.00000000000E+00  0.32598982154E+03  0.11471934274E+04  0.10999015393E+04 0.  0.
        1    1    3    3  502    0  0.51858526231E+03  0.17986198004E+03  0.19859216562E+03  0.58371213318E+03  0.50400001928E-02 0. -1.
       -1    1    3    3    0  502 -0.51858526231E+03 -0.17986198004E+03  0.12739765592E+03  0.56348129420E+03  0.50400001928E-02 0.  1.
</event>
<event>
 5   0  0.5948818E-04  0.1101328E+04  0.7818609E-02  0.9203898E-01
       -2   -1    0    0    0  501  0.00000000000E+00  0.00000000000E+00  0.71637315097E+03  0.71637315097E+03  0.25500000920E-02 0. -1.
        2   -1    0    0  501    0  0.00000000000E+00  0.00000000000E+00 -0.42328622806E+03  0.42328622807E+03  0.25500000920E-02 0.  1.
    10030    2    1    2    0    0  0.00000000000E+00  0.00000000000E+00  0.29308692290E+03  0.11396593790E+04  0.11013280873E+04 0.  0.
        3    1    3    3  502    0 -0.23560548602E+02  0.52219860574E+03 -0.32643333892E+02  0.52374810810E+03  0.10100000352E+00 0. -1.
       -3    1    3    3    0  502  0.23560548602E+02 -0.52219860574E+03  0.32573025679E+03  0.61591127095E+03  0.10100000352E+00 0.  1.
</event>
<event>
 5   0  0.3621403E-04  0.1103093E+04  0.7818609E-02  0.9202182E-01
        1   -1    0    0  501    0  0.00000000000E+00  0.00000000000E+00  0.31196835010E+03  0.31196835014E+03  0.50400001928E-02 0. -1.
       -1   -1    0    0    0  501  0.00000000000E+00  0.00000000000E+00 -0.97511030856E+03  0.97511030857E+03  0.50400001928E-02 0.  1.
    10030    2    1    2    0    0  0.00000000000E+00  0.00000000000E+00 -0.66314195845E+03  0.12870786587E+04  0.11030930227E+04 0.  0.
        3    1    3    3  502    0  0.19332096975E+03  0.63772740273E+02 -0.92967337258E+03  0.95169982118E+03  0.10100000352E+00 0.  1.
       -3    1    3    3    0  502 -0.19332096975E+03 -0.63772740273E+02  0.26653141413E+03  0.33537883753E+03  0.10100000352E+00 0. -1.
</event>
<event>
 5   0  0.3523525E-04  0.1114144E+04  0.7818609E-02  0.9191514E-01
        1   -1    0    0  501    0  0.00000000000E+00  0.00000000000E+00  0.97138470378E+03  0.97138470380E+03  0.50400001928E-02 0. -1.
       -1   -1    0    0    0  501  0.00000000000E+00  0.00000000000E+00 -0.31947115730E+03  0.31947115734E+03  0.50400001928E-02 0.  1.
    10030    2    1    2    0    0  0.00000000000E+00  0.00000000000E+00  0.65191354649E+03  0.12908558611E+04  0.11141443273E+04 0.  0.
        5    1    3    3  502    0  0.22387540954E+03 -0.17125058569E+03 -0.23073008155E+03  0.36428755486E+03  0.46999998093E+01 0.  1.
       -5    1    3    3    0  502 -0.22387540954E+03  0.17125058569E+03  0.88264362803E+03  0.92656830628E+03  0.46999998093E+01 0. -1.
</event>
<event>
 5   0  0.2403875E-04  0.1097545E+04  0.7818609E-02  0.9207588E-01
        3   -1    0    0  501    0  0.00000000000E+00  0.00000000000E+00  0.22296964456E+03  0.22296966744E+03  0.10100000352E+00 0. -1.
       -3   -1    0    0    0  501  0.00000000000E+00  0.00000000000E+00 -0.13506374494E+04  0.13506374532E+04  0.10100000352E+00 0.  1.
    10030    2    1    2    0    0  0.00000000000E+00  0.00000000000E+00 -0.11276678049E+04  0.15736071207E+04  0.10975448474E+04 0.  0.
        5    1    3    3  502    0 -0.23823416970E+03  0.34030599565E+03 -0.10779202579E+04  0.11552046843E+04  0.46999998093E+01 0.  1.
       -5    1    3    3    0  502  0.23823416970E+03 -0.34030599565E+03 -0.49747546968E+02  0.41840243632E+03  0.46999998093E+01 0. -1.
</event>
<event>
 5   0  0.3423758E-04  0.1099703E+04  0.7818609E-02  0.9205482E-01
        1   -1    0    0  501    0  0.00000000000E+00  0.00000000000E+00  0.22618987206E+03  0.22618987212E+03  0.50400001928E-02 0.  1.
       -1   -1    0    0    0  501  0.00000000000E+00  0.00000000000E+00 -0.13366493498E+04  0.13366493498E+04  0.50400001928E-02 0. -1.
    10030    2    1    2    0    0  0.00000000000E+00  0.00000000000E+00 -0.11104594777E+04  0.15628392219E+04  0.10997027698E+04 0.  0.
        1    1    3    3  502    0  0.46224650828E+03 -0.28307514154E+03 -0.42395102415E+03  0.68814085846E+03  0.50400001928E-02 0.  1.
       -1    1    3    3    0  502 -0.46224650828E+03  0.28307514154E+03 -0.68650845357E+03  0.87469836345E+03  0.50400001928E-02 0. -1.
</event>
<event>
 5   0  0.3423758E-04  0.1099293E+04  0.7818609E-02  0.9205882E-01
        1   -1    0    0  501    0  0.00000000000E+00  0.00000000000E+00  0.71889546742E+03  0.71889546744E+03  0.50400001928E-02 0. -1.
       -1   -1    0    0    0  501  0.00000000000E+00  0.00000000000E+00 -0.42024336382E+03  0.42024336385E+03  0.50400001928E-02 0.  1.
    10030    2    1    2    0    0  0.00000000000E+00  0.00000000000E+00  0.29865210360E+03  0.11391388313E+04  0.10992925898E+04 0.  0.
        1    1    3    3  502    0 -0.38566853464E+03  0.61070953714E+02 -0.25153042294E+03  0.46447543927E+03  0.50400001928E-02 0.  1.
       -1    1    3    3    0  502  0.38566853464E+03 -0.61070953714E+02  0.55018252654E+03  0.67466339202E+03  0.50400001928E-02 0. -1.
</event>
<event>
 5   0  0.2403875E-04  0.1100939E+04  0.7818609E-02  0.9204277E-01
        3   -1    0    0  501    0  0.00000000000E+00  0.00000000000E+00  0.75484581659E+03  0.75484582334E+03  0.10100000352E+00 0. -1.
       -3   -1    0    0    0  501  0.00000000000E+00  0.00000000000E+00 -0.40142830215E+03  0.40142831486E+03  0.10100000352E+00 0.  1.
    10030    2    1    2    0    0  0.00000000000E+00  0.00000000000E+00  0.35341751444E+03  0.11562741382E+04  0.11009386646E+04 0.  0.
        5    1    3    3  502    0 -0.15394502796E+03 -0.43323549156E+03  0.49457979167E+03  0.67529498970E+03  0.46999998093E+01 0. -1.
       -5    1    3    3    0  502  0.15394502796E+03  0.43323549156E+03 -0.14116227724E+03  0.48097914850E+03  0.46999998093E+01 0.  1.
</event>
<event>
 5   0  0.5948818E-04  0.1097438E+04  0.7818609E-02  0.9207693E-01
        2   -1    0    0  501    0  0.00000000000E+00  0.00000000000E+00  0.68771844838E+03  0.68771844839E+03  0.25500000920E-02 0. -1.
       -2   -1    0    0    0  501  0.00000000000E+00  0.00000000000E+00 -0.43781334479E+03  0.43781334479E+03  0.25500000920E-02 0.  1.
    10030    2    1    2    0    0  0.00000000000E+00  0.00000000000E+00  0.24990510360E+03  0.11255317932E+04  0.10974375867E+04 0.  0.
        3    1    3    3  502    0 -0.27393040818E+03 -0.18602214978E+03  0.57370397964E+03  0.66240348368E+03  0.10100000352E+00 0. -1.
       -3    1    3    3    0  502  0.27393040818E+03  0.18602214978E+03 -0.32379887604E+03  0.46312830950E+03  0.10100000352E+00 0.  1.
</event>
<event>
 5   0  0.3423758E-04  0.1099742E+04  0.7818609E-02  0.9205443E-01
        1   -1    0    0  501    0  0.00000000000E+00  0.00000000000E+00  0.33573867296E+03  0.33573867299E+03  0.50400001928E-02 0. -1.
       -1   -1    0    0    0  501  0.00000000000E+00  0.00000000000E+00 -0.90057611141E+03  0.90057611143E+03  0.50400001928E-02 0.  1.
    10030    2    1    2    0    0  0.00000000000E+00  0.00000000000E+00 -0.56483743846E+03  0.12363147844E+04  0.10997422036E+04 0.  0.
        1    1    3    3  502    0 -0.14054931165E+03 -0.18540904523E+03  0.27767823360E+03  0.36226485407E+03  0.50400001928E-02 0. -1.
       -1    1    3    3    0  502  0.14054931165E+03  0.18540904523E+03 -0.84251567206E+03  0.87404993035E+03  0.50400001928E-02 0.  1.
</event>
<event>
 5   0  0.3642161E-04  0.1099258E+04  0.7818609E-02  0.9205916E-01
       -1   -1    0    0    0  501  0.00000000000E+00  0.00000000000E+00  0.41591478253E+03  0.41591478256E+03  0.50400001928E-02 0. -1.
        1   -1    0    0  501    0  0.00000000000E+00  0.00000000000E+00 -0.72633106746E+03  0.72633106748E+03  0.50400001928E-02 0.  1.
    10030    2    1    2    0    0  0.00000000000E+00  0.00000000000E+00 -0.31041628494E+03  0.11422458500E+04  0.10992576186E+04 0.  0.
        2    1    3    3  502    0  0.22683815680E+03 -0.30158272954E+03  0.26002402546E+03  0.45827959365E+03  0.25500000920E-02 0. -1.
       -2    1    3    3    0  502 -0.22683815680E+03  0.30158272954E+03 -0.57044031040E+03  0.68396625638E+03  0.25500000920E-02 0.  1.
</event>
<event>
 5   0  0.3621403E-04  0.1106283E+04  0.7818609E-02  0.9199090E-01
       -1   -1    0    0    0  501  0.00000000000E+00  0.00000000000E+00  0.24407209964E+03  0.24407209969E+03  0.50400001928E-02 0.  1.
        1   -1    0    0  501    0  0.00000000000E+00  0.00000000000E+00 -0.12535867757E+04  0.12535867757E+04  0.50400001928E-02 0. -1.
    10030    2    1    2    0    0  0.00000000000E+00  0.00000000000E+00 -0.10095146760E+04  0.14976588754E+04  0.11062830677E+04 0.  0.
        3    1    3    3  502    0  0.14923443939E+03 -0.47773969235E+03 -0.18594561663E+03  0.53393062667E+03  0.10100000352E+00 0. -1.
       -3    1    3    3    0  502 -0.14923443939E+03  0.47773969235E+03 -0.82356905939E+03  0.96372824869E+03  0.10100000352E+00 0.  1.
</event>
<event>
 5   0  0.6109149E-04  0.1101774E+04  0.7818609E-02  0.9203464E-01
        2   -1    0    0  501    0  0.00000000000E+00  0.00000000000E+00  0.69873498376E+03  0.69873498377E+03  0.25500000920E-02 0.  1.
       -2   -1    0    0    0  501  0.00000000000E+00  0.00000000000E+00 -0.43432286233E+03  0.43432286233E+03  0.25500000920E-02 0. -1.
    10030    2    1    2    0    0  0.00000000000E+00  0.00000000000E+00  0.26441212144E+03  0.11330578461E+04  0.11017741659E+04 0.  0.
        1    1    3    3  502    0 -0.20974106434E+03 -0.11469173995E+03 -0.37820384371E+03  0.44741888282E+03  0.50400001928E-02 0. -1.
       -1    1    3    3    0  502  0.20974106434E+03  0.11469173995E+03  0.64261596514E+03  0.68563896328E+03  0.50400001928E-02 0.  1.
</event>
<event>
 5   0  0.5948818E-04  0.1103183E+04  0.7818609E-02  0.9202095E-01
        2   -1    0    0  501    0  0.00000000000E+00  0.00000000000E+00  0.11242444998E+04  0.11242444998E+04  0.25500000920E-02 0.  1.
       -2   -1    0    0    0  501  0.00000000000E+00  0.00000000000E+00 -0.27062897726E+03  0.27062897727E+03  0.25500000920E-02 0. -1.
    10030    2    1    2    0    0  0.00000000000E+00  0.00000000000E+00  0.85361552258E+03  0.13948734771E+04  0.11031829208E+04 0.  0.
        3    1    3    3  502    0  0.11149245282E+03  0.10578976677E+02 -0.25610216799E+03  0.27951889460E+03  0.10100000352E+00 0. -1.
       -3    1    3    3    0  502 -0.11149245282E+03 -0.10578976677E+02  0.11097176906E+04  0.11153545825E+04  0.10100000352E+00 0.  1.
</event>
<event>
 5   0  0.3657529E-04  0.1099461E+04  0.7818609E-02  0.9205718E-01
       -1   -1    0    0    0  501  0.00000000000E+00  0.00000000000E+00  0.50375239472E+03  0.50375239474E+03  0.50400001928E-02 0.  1.
        1   -1    0    0  501    0  0.00000000000E+00  0.00000000000E+00 -0.59990492459E+03  0.59990492461E+03  0.50400001928E-02 0. -1.
    10030    2    1    2    0    0  0.00000000000E+00  0.00000000000E+00 -0.96152529874E+02  0.11036573194E+04  0.10994608540E+04 0.  0.
        4    1    3    3  502    0 -0.88002717846E+02  0.53066223066E+03  0.65736593166E+02  0.54191308711E+03  0.12699999809E+01 0.  1.
       -4    1    3    3    0  502  0.88002717846E+02 -0.53066223066E+03 -0.16188912304E+03  0.56174423224E+03  0.12699999809E+01 0. -1.
</event>
<event>
 5   0  0.3642161E-04  0.1107633E+04  0.7818609E-02  0.9197784E-01
        1   -1    0    0  501    0  0.00000000000E+00  0.00000000000E+00  0.11618559896E+04  0.11618559896E+04  0.50400001928E-02 0. -1.
       -1   -1    0    0    0  501  0.00000000000E+00  0.00000000000E+00 -0.26398520814E+03  0.26398520819E+03  0.50400001928E-02 0.  1.
    10030    2    1    2    0    0  0.00000000000E+00  0.00000000000E+00  0.89787078147E+03  0.14258411978E+04  0.11076331438E+04 0.  0.
        2    1    3    3  502    0 -0.39650681700E+03 -0.45147645345E+02 -0.45384017284E+02  0.40164122652E+03  0.25500000920E-02 0.  1.
       -2    1    3    3    0  502  0.39650681700E+03  0.45147645345E+02  0.94325479875E+03  0.10241999713E+04  0.25500000920E-02 0. -1.
</event>
<event>
 5   0  0.3657529E-04  0.1099743E+04  0.7818609E-02  0.9205442E-01
        1   -1    0    0  501    0  0.00000000000E+00  0.00000000000E+00  0.56737240474E+03  0.56737240476E+03  0.50400001928E-02 0.  1.
       -1   -1    0    0    0  501  0.00000000000E+00  0.00000000000E+00 -0.53291075708E+03  0.53291075711E+03  0.50400001928E-02 0. -1.
    10030    2    1    2    0    0  0.00000000000E+00  0.00000000000E+00  0.34461647651E+02  0.11002831619E+04  0.10997433478E+04 0.  0.
        4    1    3    3  502    0 -0.38790303890E+03  0.68444741195E+01 -0.37262906301E+03  0.53793089325E+03  0.12699999809E+01 0. -1.
       -4    1    3    3    0  502  0.38790303890E+03 -0.68444741195E+01  0.40709071066E+03  0.56235226862E+03  0.12699999809E+01 0.  1.
</event>
<event>
 5   0  0.3423758E-04  0.1100231E+04  0.7818609E-02  0.9204966E-01
       -1   -1    0    0    0  501  0.00000000000E+00  0.00000000000E+00  0.48535658732E+03  0.48535658735E+03  0.50400001928E-02 0. -1.
        1   -1    0    0  501    0  0.00000000000E+00  0.00000000000E+00 -0.62351532242E+03  0.62351532244E+03  0.50400001928E-02 0.  1.
    10030    2    1    2    0    0  0.00000000000E+00  0.00000000000E+00 -0.13815873510E+03  0.11088719098E+04  0.11002313740E+04 0.  0.
        1    1    3    3  502    0 -0.48132813040E+02 -0.38192505705E+03 -0.46515901701E+03  0.60378508430E+03  0.50400001928E-02 0.  1.
       -1    1    3    3    0  502  0.48132813040E+02  0.38192505705E+03  0.32700028191E+03  0.50508682549E+03  0.50400001928E-02 0. -1.
</event>
<event>
 5   0  0.2403875E-04  0.1100283E+04  0.7818609E-02  0.9204917E-01
        3   -1    0    0  501    0  0.00000000000E+00  0.00000000000E+00  0.44452278694E+03  0.44452279841E+03  0.10100000352E+00 0. -1.
       -3   -1    0    0    0  501  0.00000000000E+00  0.00000000000E+00 -0.68085462733E+03  0.68085463482E+03  0.10100000352E+00 0.  1.
    10030    2    1    2    0    0  0.00000000000E+00  0.00000000000E+00 -0.23633184039E+03  0.11253774332E+04  0.11002825221E+04 0.  0.
        2    1    3    3  502    0 -0.21400135073E+03  0.23614344938E+03  0.34049816243E+03  0.46636820799E+03  0.25500000920E-02 0. -1.
       -2    1    3    3    0  502  0.21400135073E+03 -0.23614344938E+03 -0.57683000281E+03  0.65900922524E+03  0.25500000920E-02 0.  1.
</event>
<event>
 5   0  0.3657529E-04  0.1098076E+04  0.7818609E-02  0.9207069E-01
       -1   -1    0    0    0  501  0.00000000000E+00  0.00000000000E+00  0.36162448208E+03  0.36162448212E+03  0.50400001928E-02 0. -1.
        1   -1    0    0  501    0  0.00000000000E+00  0.00000000000E+00 -0.83357905506E+03  0.83357905508E+03  0.50400001928E-02 0.  1.
    10030    2    1    2    0    0  0.00000000000E+00  0.00000000000E+00 -0.47195457298E+03  0.11952035372E+04  0.10980757608E+04 0.  0.
        4    1    3    3  502    0  0.37261984030E+03 -0.39908201362E+03 -0.17317646831E+03  0.57280337033E+03  0.12699999809E+01 0.  1.
       -4    1    3    3    0  502 -0.37261984030E+03  0.39908201362E+03 -0.29877810467E+03  0.62240016686E+03  0.12699999809E+01 0. -1.
</event>
<event>
 5   0  0.6264830E-04  0.1099934E+04  0.7818609E-02  0.9205256E-01
       -2   -1    0    0    0  501  0.00000000000E+00  0.00000000000E+00  0.42721191995E+03  0.42721191995E+03  0.25500000920E-02 0. -1.
        2   -1    0    0  501    0  0.00000000000E+00  0.00000000000E+00 -0.70799514687E+03  0.70799514688E+03  0.25500000920E-02 0.  1.
    10030    2    1    2    0    0  0.00000000000E+00  0.00000000000E+00 -0.28078322693E+03  0.11352070668E+04  0.10999344817E+04 0.  0.
        4    1    3    3  502    0  0.23398534773E+03 -0.41586991517E+03 -0.42259269176E+03  0.63740342431E+03  0.12699999809E+01 0.  1.
       -4    1    3    3    0  502 -0.23398534773E+03  0.41586991517E+03  0.14180946483E+03  0.49780364252E+03  0.12699999809E+01 0. -1.
</event>
<event>
 5   0  0.2403875E-04  0.1099281E+04  0.7818609E-02  0.9205893E-01
       -3   -1    0    0    0  501  0.00000000000E+00  0.00000000000E+00  0.25468296635E+03  0.25468298637E+03  0.10100000352E+00 0. -1.
        3   -1    0    0  501    0  0.00000000000E+00  0.00000000000E+00 -0.11861978496E+04  0.11861978539E+04  0.10100000352E+00 0.  1.
    10030    2    1    2    0    0  0.00000000000E+00  0.00000000000E+00 -0.93151488321E+03  0.14408808402E+04  0.10992805002E+04 0.  0.
        1    1    3    3  502    0  0.80969622721E+01 -0.40212002909E+03  0.25272175565E+02  0.40299474125E+03  0.50400001928E-02 0. -1.
       -1    1    3    3    0  502 -0.80969622721E+01  0.40212002909E+03 -0.95678705877E+03  0.10378860990E+04  0.50400001928E-02 0.  1.
</event>
<event>
 5   0  0.6264830E-04  0.1098894E+04  0.7818609E-02  0.9206270E-01
        2   -1    0    0  501    0  0.00000000000E+00  0.00000000000E+00  0.11679169437E+04  0.11679169437E+04  0.25500000920E-02 0.  1.
       -2   -1    0    0    0  501  0.00000000000E+00  0.00000000000E+00 -0.25848771071E+03  0.25848771073E+03  0.25500000920E-02 0. -1.
    10030    2    1    2    0    0  0.00000000000E+00  0.00000000000E+00  0.90942923299E+03  0.14264046544E+04  0.10988943117E+04 0.  0.
        4    1    3    3  502    0 -0.49584906149E+03 -0.49109790312E+02  0.75526677772E+03  0.90482461379E+03  0.12699999809E+01 0.  1.
       -4    1    3    3    0  502  0.49584906149E+03  0.49109790312E+02  0.15416245527E+03  0.52158004065E+03  0.12699999809E+01 0. -1.
</event>
<event>
 5   0  0.3423758E-04  0.1100160E+04  0.7818609E-02  0.9205036E-01
       -1   -1    0    0    0  501  0.00000000000E+00  0.00000000000E+00  0.36416119519E+03  0.36416119522E+03  0.50400001928E-02 0. -1.
        1   -1    0    0  501    0  0.00000000000E+00  0.00000000000E+00 -0.83091740357E+03  0.83091740358E+03  0.50400001928E-02 0.  1.
    10030    2    1    2    0    0  0.00000000000E+00  0.00000000000E+00 -0.46675620838E+03  0.11950785988E+04  0.11001597608E+04 0.  0.
        1    1    3    3  502    0  0.49956228262E+02  0.33939204018E+03  0.23372783005E+03  0.41510393909E+03  0.50400001928E-02 0. -1.
       -1    1    3    3    0  502 -0.49956228262E+02 -0.33939204018E+03 -0.70048403843E+03  0.77997465972E+03  0.50400001928E-02 0.  1.
</event>
<event>
 5   0  0.3657529E-04  0.1099242E+04  0.7818609E-02  0.9205931E-01
        1   -1    0    0  501    0  0.00000000000E+00  0.00000000000E+00  0.26946382250E+03  0.26946382255E+03  0.50400001928E-02 0.  1.
       -1   -1    0    0    0  501  0.00000000000E+00  0.00000000000E+00 -0.11210534597E+04  0.11210534597E+04  0.50400001928E-02 0. -1.
    10030    2    1    2    0    0  0.00000000000E+00  0.00000000000E+00 -0.85158963723E+03  0.13905172823E+04  0.10992421945E+04 0.  0.
        4    1    3    3  502    0 -0.49252195798E+03  0.87582337545E+02 -0.13779847064E+03  0.51888204474E+03  0.12699999809E+01 0.  1.
       -4    1    3    3    0  502  0.49252195798E+03 -0.87582337545E+02 -0.71379116659E+03  0.87163523755E+03  0.12699999809E+01 0. -1.
</event>
<event>
 5   0  0.6264830E-04  0.1100182E+04  0.7818609E-02  0.9205015E-01
        2   -1    0    0  501    0  0.00000000000E+00  0.00000000000E+00  0.62409734362E+03  0.62409734362E+03  0.25500000920E-02 0. -1.
       -2   -1    0    0    0  501  0.00000000000E+00  0.00000000000E+00 -0.48486003000E+03  0.48486003000E+03  0.25500000920E-02 0.  1.
    10030    2    1    2    0    0  0.00000000000E+00  0.00000000000E+00  0.13923731362E+03  0.11089573736E+04  0.11001815428E+04 0.  0.
        4    1    3    3  502    0 -0.29300684376E+03  0.40945258193E+03  0.29295731151E+03  0.58252040875E+03  0.12699999809E+01 0. -1.
       -4    1    3    3    0  502  0.29300684376E+03 -0.40945258193E+03 -0.15371999789E+03  0.52643696488E+03  0.12699999809E+01 0.  1.
</event>
<event>
 5   0  0.6264830E-04  0.1100305E+04  0.7818609E-02  0.9204894E-01
       -2   -1    0    0    0  501  0.00000000000E+00  0.00000000000E+00  0.31118467018E+03  0.31118467019E+03  0.25500000920E-02 0. -1.
        2   -1    0    0  501    0  0.00000000000E+00  0.00000000000E+00 -0.97263133613E+03  0.97263133614E+03  0.25500000920E-02 0.  1.
    10030    2    1    2    0    0  0.00000000000E+00  0.00000000000E+00 -0.66144666595E+03  0.12838160063E+04  0.11003053423E+04 0.  0.
        4    1    3    3  502    0  0.22612180593E+03  0.31396378253E+03 -0.78705580187E+03  0.87701925635E+03  0.12699999809E+01 0.  1.
       -4    1    3    3    0  502 -0.22612180593E+03 -0.31396378253E+03  0.12560913591E+03  0.40679674997E+03  0.12699999809E+01 0. -1.
</event>
<event>
 5   0  0.6245176E-04  0.1100642E+04  0.7818609E-02  0.9204567E-01
        2   -1    0    0  501    0  0.00000000000E+00  0.00000000000E+00  0.17115893627E+04  0.17115893627E+04  0.25500000920E-02 0. -1.
       -2   -1    0    0    0  501  0.00000000000E+00  0.00000000000E+00 -0.17694258867E+03  0.17694258869E+03  0.25500000920E-02 0.  1.
    10030    2    1    2    0    0  0.00000000000E+00  0.00000000000E+00  0.15346467740E+04  0.18885319514E+04  0.11006417266E+04 0.  0.
        5    1    3    3  502    0 -0.12862554423E+02 -0.38188549044E+03  0.87820141244E+02  0.39209238748E+03  0.46999998093E+01 0.  1.
       -5    1    3    3    0  502  0.12862554423E+02  0.38188549044E+03  0.14468266328E+04  0.14964395639E+04  0.46999998093E+01 0. -1.
</event>
<event>
 5   0  0.6109149E-04  0.1099557E+04  0.7818609E-02  0.9205623E-01
        2   -1    0    0  501    0  0.00000000000E+00  0.00000000000E+00  0.14067290722E+04  0.14067290722E+04  0.25500000920E-02 0. -1.
       -2   -1    0    0    0  501  0.00000000000E+00  0.00000000000E+00 -0.21486482194E+03  0.21486482196E+03  0.25500000920E-02 0.  1.
    10030    2    1    2    0    0  0.00000000000E+00  0.00000000000E+00  0.11918642503E+04  0.16215938942E+04  0.10995573503E+04 0.  0.
        1    1    3    3  502    0 -0.24912757718E+03 -0.28032492460E+03  0.30637282657E+01  0.37504133042E+03  0.50400001928E-02 0.  1.
       -1    1    3    3    0  502  0.24912757718E+03  0.28032492460E+03  0.11888005220E+04  0.12465525638E+04  0.50400001928E-02 0. -1.
</event>
<event>
 5   0  0.3523525E-04  0.1099475E+04  0.7818609E-02  0.9205704E-01
        1   -1    0    0  501    0  0.00000000000E+00  0.00000000000E+00  0.48641427014E+03  0.48641427016E+03  0.50400001928E-02 0.  1.
       -1   -1    0    0    0  501  0.00000000000E+00  0.00000000000E+00 -0.62130428612E+03  0.62130428614E+03  0.50400001928E-02 0. -1.
    10030    2    1    2    0    0  0.00000000000E+00  0.00000000000E+00 -0.13489001598E+03  0.11077185563E+04  0.10994749127E+04 0.  0.
        5    1    3    3  502    0 -0.72104804672E+02 -0.39166110431E+03  0.31433106895E+03  0.50736932741E+03  0.46999998093E+01 0.  1.
       -5    1    3    3    0  502  0.72104804672E+02  0.39166110431E+03 -0.44922108493E+03  0.60034922890E+03  0.46999998093E+01 0. -1.
</event>
<event>
 5   0  0.6245176E-04  0.1098954E+04  0.7818609E-02  0.9206212E-01
       -2   -1    0    0    0  501  0.00000000000E+00  0.00000000000E+00  0.94682630831E+03  0.94682630831E+03  0.25500000920E-02 0. -1.
        2   -1    0    0  501    0  0.00000000000E+00  0.00000000000E+00 -0.31888127221E+03  0.31888127223E+03  0.25500000920E-02 0.  1.
    10030    2    1    2    0    0  0.00000000000E+00  0.00000000000E+00  0.62794503610E+03  0.12657075805E+04  0.10989543717E+04 0.  0.
        5    1    3    3  502    0  0.17093453235E+03 -0.49332444514E+03  0.11677469527E+03  0.53501966503E+03  0.46999998093E+01 0.  1.
       -5    1    3    3    0  502 -0.17093453235E+03  0.49332444514E+03  0.51117034083E+03  0.73068791551E+03  0.46999998093E+01 0. -1.
</event>
<event>
 5   0  0.2403875E-04  0.1092381E+04  0.7818609E-02  0.9212650E-01
        4   -1    0    0  501    0  0.00000000000E+00  0.00000000000E+00  0.16772530154E+03  0.16773010963E+03  0.12699999809E+01 0. -1.
       -4   -1    0    0    0  501  0.00000000000E+00  0.00000000000E+00 -0.17786163732E+04  0.17786168266E+04  0.12699999809E+01 0.  1.
    10030    2    1    2    0    0  0.00000000000E+00  0.00000000000E+00 -0.16108910716E+04  0.19463469362E+04  0.10923810468E+04 0.  0.
        5    1    3    3  502    0  0.53053090980E+02  0.47205171239E+03 -0.12857067370E+04  0.13706609184E+04  0.46999998093E+01 0.  1.
       -5    1    3    3    0  502 -0.53053090980E+02 -0.47205171239E+03 -0.32518433466E+03  0.57568601784E+03  0.46999998093E+01 0. -1.
</event>
<event>
 5   0  0.6245176E-04  0.1101008E+04  0.7818609E-02  0.9204210E-01
       -2   -1    0    0    0  501  0.00000000000E+00  0.00000000000E+00  0.33303590843E+03  0.33303590844E+03  0.25500000920E-02 0. -1.
        2   -1    0    0  501    0  0.00000000000E+00  0.00000000000E+00 -0.90997626641E+03  0.90997626642E+03  0.25500000920E-02 0.  1.
    10030    2    1    2    0    0  0.00000000000E+00  0.00000000000E+00 -0.57694035799E+03  0.12430121749E+04  0.11010082153E+04 0.  0.
        5    1    3    3  502    0 -0.35084850182E+03 -0.34869123851E+03 -0.15751866069E+02  0.49492470369E+03  0.46999998093E+01 0. -1.
       -5    1    3    3    0  502  0.35084850182E+03  0.34869123851E+03 -0.56118849192E+03  0.74808747116E+03  0.46999998093E+01 0.  1.
</event>
<event>
 5   0  0.3621403E-04  0.1101833E+04  0.7818609E-02  0.9203407E-01
        1   -1    0    0  501    0  0.00000000000E+00  0.00000000000E+00  0.12832166668E+04  0.12832166668E+04  0.50400001928E-02 0.  1.
       -1   -1    0    0    0  501  0.00000000000E+00  0.00000000000E+00 -0.23652194484E+03  0.23652194489E+03  0.50400001928E-02 0. -1.
    10030    2    1    2    0    0  0.00000000000E+00  0.00000000000E+00  0.10466947220E+04  0.15197386117E+04  0.11018328398E+04 0.  0.
        3    1    3    3  502    0 -0.53152250481E+03 -0.11441646916E+03  0.64595299601E+03  0.84431190018E+03  0.10100000352E+00 0.  1.
       -3    1    3    3    0  502  0.53152250481E+03  0.11441646916E+03  0.40074172599E+03  0.67542671156E+03  0.10100000352E+00 0. -1.
</event>
<event>
 5   0  0.3657529E-04  0.1080171E+04  0.7818609E-02  0.9224737E-01
        1   -1    0    0  501    0  0.00000000000E+00  0.00000000000E+00  0.87697525514E+03  0.87697525516E+03  0.50400001928E-02 0.  1.
       -1   -1    0    0    0  501  0.00000000000E+00  0.00000000000E+00 -0.33261179574E+03  0.33261179577E+03  0.50400001928E-02 0. -1.
    10030    2    1    2    0    0  0.00000000000E+00  0.00000000000E+00  0.54436345941E+03  0.12095870509E+04  0.10801709392E+04 0.  0.
        4    1    3    3  502    0 -0.25496324090E+03  0.25384526571E+02 -0.26021742787E+03  0.36519221113E+03  0.12699999809E+01 0. -1.
       -4    1    3    3    0  502  0.25496324090E+03 -0.25384526571E+02  0.80458088728E+03  0.84439483980E+03  0.12699999809E+01 0.  1.
</event>
<event>
 5   0  0.3621403E-04  0.1095063E+04  0.7818609E-02  0.9210017E-01
        1   -1    0    0  501    0  0.00000000000E+00  0.00000000000E+00  0.29612502261E+03  0.29612502265E+03  0.50400001928E-02 0. -1.
       -1   -1    0    0    0  501  0.00000000000E+00  0.00000000000E+00 -0.10123792713E+04  0.10123792714E+04  0.50400001928E-02 0.  1.
    10030    2    1    2    0    0  0.00000000000E+00  0.00000000000E+00 -0.71625424873E+03  0.13085042940E+04  0.10950631665E+04 0.  0.
        3    1    3    3  502    0 -0.45619771171E+02 -0.42275024850E+03  0.54060225591E+02  0.42862740734E+03  0.10100000352E+00 0. -1.
       -3    1    3    3    0  502  0.45619771171E+02  0.42275024850E+03 -0.77031447432E+03  0.87987688667E+03  0.10100000352E+00 0.  1.
</event>
<event>
 5   0  0.3621403E-04  0.1105605E+04  0.7818609E-02  0.9199746E-01
       -1   -1    0    0    0  501  0.00000000000E+00  0.00000000000E+00  0.37282345738E+03  0.37282345741E+03  0.50400001928E-02 0.  1.
        1   -1    0    0  501    0  0.00000000000E+00  0.00000000000E+00 -0.81966585567E+03  0.81966585568E+03  0.50400001928E-02 0. -1.
    10030    2    1    2    0    0  0.00000000000E+00  0.00000000000E+00 -0.44684239829E+03  0.11924893131E+04  0.11056050981E+04 0.  0.
        3    1    3    3  502    0  0.81316318911E+02 -0.16443319130E+03 -0.78588041041E+03  0.80700597754E+03  0.10100000352E+00 0. -1.
       -3    1    3    3    0  502 -0.81316318911E+02  0.16443319130E+03  0.33903801212E+03  0.38548333555E+03  0.10100000352E+00 0.  1.
</event>
<event>
 5   0  0.6412712E-04  0.1099782E+04  0.7818609E-02  0.9205404E-01
       -2   -1    0    0    0  501  0.00000000000E+00  0.00000000000E+00  0.47791468635E+03  0.47791468636E+03  0.25500000920E-02 0. -1.
        2   -1    0    0  501    0  0.00000000000E+00  0.00000000000E+00 -0.63270724904E+03  0.63270724905E+03  0.25500000920E-02 0.  1.
    10030    2    1    2    0    0  0.00000000000E+00  0.00000000000E+00 -0.15479256269E+03  0.11106219354E+04  0.10997819538E+04 0.  0.
        2    1    3    3  502    0 -0.36630837509E+03 -0.34418365211E+03 -0.30260984187E+03  0.58670003276E+03  0.25500000920E-02 0.  1.
       -2    1    3    3    0  502  0.36630837509E+03  0.34418365211E+03  0.14781727918E+03  0.52392190264E+03  0.25500000920E-02 0. -1.
</event>
<event>
 5   0  0.3523525E-04  0.1100537E+04  0.7818609E-02  0.9204668E-01
       -1   -1    0    0    0  501  0.00000000000E+00  0.00000000000E+00  0.11532448965E+04  0.11532448965E+04  0.50400001928E-02 0. -1.
        1   -1    0    0  501    0  0.00000000000E+00  0.00000000000E+00 -0.26255969057E+03  0.26255969062E+03  0.50400001928E-02 0.  1.
    10030    2    1    2    0    0  0.00000000000E+00  0.00000000000E+00  0.89068520591E+03  0.14158045871E+04  0.11005373655E+04 0.  0.
        5    1    3    3  502    0  0.35215848871E+03  0.25432380776E+02  0.98827286279E+03  0.10494606941E+04  0.46999998093E+01 0. -1.
       -5    1    3    3    0  502 -0.35215848871E+03 -0.25432380776E+02 -0.97587656877E+02  0.36634389300E+03  0.46999998093E+01 0.  1.
</event>
<event>
 5   0  0.3642161E-04  0.1098674E+04  0.7818609E-02  0.9206485E-01
       -1   -1    0    0    0  501  0.00000000000E+00  0.00000000000E+00  0.87091440730E+03  0.87091440732E+03  0.50400001928E-02 0.  1.
        1   -1    0    0  501    0  0.00000000000E+00  0.00000000000E+00 -0.34649915698E+03  0.34649915702E+03  0.50400001928E-02 0. -1.
    10030    2    1    2    0    0  0.00000000000E+00  0.00000000000E+00  0.52441525032E+03  0.12174135643E+04  0.10986739425E+04 0.  0.
        2    1    3    3  502    0 -0.50914316171E+03 -0.57838733555E+02  0.42822604736E+02  0.51420409732E+03  0.25500000920E-02 0. -1.
       -2    1    3    3    0  502  0.50914316171E+03  0.57838733555E+02  0.48159264558E+03  0.70320946702E+03  0.25500000920E-02 0.  1.
</event>
<event>
 5   0  0.3621403E-04  0.1101331E+04  0.7818609E-02  0.9203896E-01
       -1   -1    0    0    0  501  0.00000000000E+00  0.00000000000E+00  0.34904627336E+03  0.34904627340E+03  0.50400001928E-02 0. -1.
        1   -1    0    0  501    0  0.00000000000E+00  0.00000000000E+00 -0.86874517673E+03  0.86874517674E+03  0.50400001928E-02 0.  1.
    10030    2    1    2    0    0  0.00000000000E+00  0.00000000000E+00 -0.51969890336E+03  0.12177914501E+04  0.11013305888E+04 0.  0.
        3    1    3    3  502    0 -0.16332111506E+03 -0.31712345732E+03  0.20402523456E+03  0.41093476410E+03  0.10100000352E+00 0. -1.
       -3    1    3    3    0  502  0.16332111506E+03  0.31712345732E+03 -0.72372413792E+03  0.80685668604E+03  0.10100000352E+00 0.  1.
</event>
<event>
 5   0  0.6109149E-04  0.1099086E+04  0.7818609E-02  0.9206083E-01
       -2   -1    0    0    0  501  0.00000000000E+00  0.00000000000E+00  0.74217793841E+03  0.74217793841E+03  0.25500000920E-02 0. -1.
        2   -1    0    0  501    0  0.00000000000E+00  0.00000000000E+00 -0.40690721067E+03  0.40690721067E+03  0.25500000920E-02 0.  1.
    10030    2    1    2    0    0  0.00000000000E+00  0.00000000000E+00  0.33527072774E+03  0.11490851491E+04  0.10990860835E+04 0.  0.
        1    1    3    3  502    0 -0.30853926631E+03  0.45475166746E+03  0.16615799768E+03  0.57411152064E+03  0.50400001928E-02 0.  1.
       -1    1    3    3    0  502  0.30853926631E+03 -0.45475166746E+03  0.16911273006E+03  0.57497362844E+03  0.50400001928E-02 0. -1.
</event>
<event>
 5   0  0.6412712E-04  0.1102433E+04  0.7818609E-02  0.9202824E-01
       -2   -1    0    0    0  501  0.00000000000E+00  0.00000000000E+00  0.42680809379E+03  0.42680809379E+03  0.25500000920E-02 0. -1.
        2   -1    0    0  501    0  0.00000000000E+00  0.00000000000E+00 -0.71188800715E+03  0.71188800715E+03  0.25500000920E-02 0.  1.
    10030    2    1    2    0    0  0.00000000000E+00  0.00000000000E+00 -0.28507991336E+03  0.11386961009E+04  0.11024328793E+04 0.  0.
        2    1    3    3  502    0 -0.25825863954E+02  0.48316737846E+03  0.13019461813E+03  0.50106719056E+03  0.25500000920E-02 0. -1.
       -2    1    3    3    0  502  0.25825863954E+02 -0.48316737846E+03 -0.41527453149E+03  0.63762891039E+03  0.25500000920E-02 0.  1.
</event>
<event>
 5   0  0.3621403E-04  0.1100481E+04  0.7818609E-02  0.9204723E-01
       -1   -1    0    0    0  501  0.00000000000E+00  0.00000000000E+00  0.36444339477E+03  0.36444339480E+03  0.50400001928E-02 0.  1.
        1   -1    0    0  501    0  0.00000000000E+00  0.00000000000E+00 -0.83075909229E+03  0.83075909231E+03  0.50400001928E-02 0. -1.
    10030    2    1    2    0    0  0.00000000000E+00  0.00000000000E+00 -0.46631569752E+03  0.11952024871E+04  0.11004811018E+04 0.  0.
        3    1    3    3  502    0 -0.20525562338E+03 -0.19990264186E+03  0.27703480848E+03  0.39854639938E+03  0.10100000352E+00 0.  1.
       -3    1    3    3    0  502  0.20525562338E+03  0.19990264186E+03 -0.74335050600E+03  0.79665608773E+03  0.10100000352E+00 0. -1.
</event>
<event>
 5   0  0.6109149E-04  0.1099168E+04  0.7818609E-02  0.9206003E-01
       -2   -1    0    0    0  501  0.00000000000E+00  0.00000000000E+00  0.19076626809E+03  0.19076626811E+03  0.25500000920E-02 0. -1.
        2   -1    0    0  501    0  0.00000000000E+00  0.00000000000E+00 -0.15833135655E+04  0.15833135655E+04  0.25500000920E-02 0.  1.
    10030    2    1    2    0    0  0.00000000000E+00  0.00000000000E+00 -0.13925472974E+04  0.17740798336E+04  0.10991684495E+04 0.  0.
        1    1    3    3  502    0 -0.14582602420E+03  0.52121910526E+03 -0.54223630510E+03  0.76612975117E+03  0.50400001928E-02 0. -1.
       -1    1    3    3    0  502  0.14582602420E+03 -0.52121910526E+03 -0.85031099231E+03  0.10079500824E+04  0.50400001928E-02 0.  1.
</event>
<event>
 5   0  0.3423758E-04  0.1100100E+04  0.7818609E-02  0.9205094E-01
        1   -1    0    0  501    0  0.00000000000E+00  0.00000000000E+00  0.10804526968E+04  0.10804526968E+04  0.50400001928E-02 0. -1.
       -1   -1    0    0    0  501  0.00000000000E+00  0.00000000000E+00 -0.28002623092E+03  0.28002623096E+03  0.50400001928E-02 0.  1.
    10030    2    1    2    0    0  0.00000000000E+00  0.00000000000E+00  0.80042646589E+03  0.13604789278E+04  0.11001001707E+04 0.  0.
        1    1    3    3  502    0  0.37383010034E+03 -0.37187571650E+03  0.20658350826E+03  0.56631902524E+03  0.50400001928E-02 0.  1.
       -1    1    3    3    0  502 -0.37383010034E+03  0.37187571650E+03  0.59384295763E+03  0.79415990254E+03  0.50400001928E-02 0. -1.
</event>
<event>
 5   0  0.3621403E-04  0.1100113E+04  0.7818609E-02  0.9205082E-01
        1   -1    0    0  501    0  0.00000000000E+00  0.00000000000E+00  0.81107809150E+03  0.81107809151E+03  0.50400001928E-02 0.  1.
       -1   -1    0    0    0  501  0.00000000000E+00  0.00000000000E+00 -0.37303691812E+03  0.37303691816E+03  0.50400001928E-02 0. -1.
    10030    2    1    2    0    0  0.00000000000E+00  0.00000000000E+00  0.43804117338E+03  0.11841150097E+04  0.11001128517E+04 0.  0.
        3    1    3    3  502    0  0.36701066771E+03 -0.19308572593E+03  0.60797633225E+03  0.73594439908E+03  0.10100000352E+00 0.  1.
       -3    1    3    3    0  502 -0.36701066771E+03  0.19308572593E+03 -0.16993515887E+03  0.44817061059E+03  0.10100000352E+00 0. -1.
</event>
<event>
 5   0  0.6264830E-04  0.1099139E+04  0.7818609E-02  0.9206032E-01
       -2   -1    0    0    0  501  0.00000000000E+00  0.00000000000E+00  0.28737322543E+03  0.28737322544E+03  0.25500000920E-02 0.  1.
        2   -1    0    0  501    0  0.00000000000E+00  0.00000000000E+00 -0.10509900260E+04  0.10509900260E+04  0.25500000920E-02 0. -1.
    10030    2    1    2    0    0  0.00000000000E+00  0.00000000000E+00 -0.76361680056E+03  0.13383632514E+04  0.10991385603E+04 0.  0.
        4    1    3    3  502    0  0.18562171357E+02 -0.43950107974E+03 -0.78292857491E+03  0.89804483162E+03  0.12699999809E+01 0. -1.
       -4    1    3    3    0  502 -0.18562171357E+02  0.43950107974E+03  0.19311774354E+02  0.44031841981E+03  0.12699999809E+01 0.  1.
</event>
<event>
 5   0  0.6245176E-04  0.1097904E+04  0.7818609E-02  0.9207237E-01
        2   -1    0    0  501    0  0.00000000000E+00  0.00000000000E+00  0.46997155808E+03  0.46997155809E+03  0.25500000920E-02 0.  1.
       -2   -1    0    0    0  501  0.00000000000E+00  0.00000000000E+00 -0.64120534059E+03  0.64120534060E+03  0.25500000920E-02 0. -1.
    10030    2    1    2    0    0  0.00000000000E+00  0.00000000000E+00 -0.17123378252E+03  0.11111768987E+04  0.10979039539E+04 0.  0.
        5    1    3    3  502    0 -0.36116291730E+02  0.27280579702E+03  0.39509762981E+03  0.48150972628E+03  0.46999998093E+01 0.  1.
       -5    1    3    3    0  502  0.36116291730E+02 -0.27280579702E+03 -0.56633141233E+03  0.62966717241E+03  0.46999998093E+01 0. -1.
</event>
<event>
 5   0  0.2403875E-04  0.1101190E+04  0.7818609E-02  0.9204033E-01
        3   -1    0    0  501    0  0.00000000000E+00  0.00000000000E+00  0.73120317016E+03  0.73120317713E+03  0.10100000352E+00 0. -1.
       -3   -1    0    0    0  501  0.00000000000E+00  0.00000000000E+00 -0.41459705971E+03  0.41459707201E+03  0.10100000352E+00 0.  1.
    10030    2    1    2    0    0  0.00000000000E+00  0.00000000000E+00  0.31660611045E+03  0.11458002491E+04  0.11011897120E+04 0.  0.
        4    1    3    3  502    0  0.68155074759E+02 -0.46451566166E+03 -0.14098307812E+03  0.49020174965E+03  0.12699999809E+01 0.  1.
       -4    1    3    3    0  502 -0.68155074759E+02  0.46451566166E+03  0.45758918857E+03  0.65559849949E+03  0.12699999809E+01 0. -1.
</event>
<event>
 5   0  0.6109149E-04  0.1099582E+04  0.7818609E-02  0.9205599E-01
       -2   -1    0    0    0  501  0.00000000000E+00  0.00000000000E+00  0.70176498639E+03  0.70176498640E+03  0.25500000920E-02 0.  1.
        2   -1    0    0  501    0  0.00000000000E+00  0.00000000000E+00 -0.43072875314E+03  0.43072875315E+03  0.25500000920E-02 0. -1.
    10030    2    1    2    0    0  0.00000000000E+00  0.00000000000E+00  0.27103623325E+03  0.11324937395E+04  0.10995823891E+04 0.  0.
        1    1    3    3  502    0  0.53078901274E+03  0.10758520413E+03  0.38034174012E+02  0.54291633850E+03  0.50400001928E-02 0. -1.
       -1    1    3    3    0  502 -0.53078901274E+03 -0.10758520413E+03  0.23300205924E+03  0.58957740105E+03  0.50400001928E-02 0.  1.
</event>
<event>
 5   0  0.6245176E-04  0.1100031E+04  0.7818609E-02  0.9205161E-01
        2   -1    0    0  501    0  0.00000000000E+00  0.00000000000E+00  0.19631219158E+04  0.19631219158E+04  0.25500000920E-02 0.  1.
       -2   -1    0    0    0  501  0.00000000000E+00  0.00000000000E+00 -0.15410005828E+03  0.15410005830E+03  0.25500000920E-02 0. -1.
    10030    2    1    2    0    0  0.00000000000E+00  0.00000000000E+00  0.18090218575E+04  0.21172219741E+04  0.11000312753E+04 0.  0.
        5    1    3    3  502    0 -0.29448656662E+03  0.38342503640E+03  0.39982287398E+03  0.62738944605E+03  0.46999998093E+01 0. -1.
       -5    1    3    3    0  502  0.29448656662E+03 -0.38342503640E+03  0.14091989836E+04  0.14898325281E+04  0.46999998093E+01 0.  1.
</event>
<event>
 5   0  0.6264830E-04  0.1097971E+04  0.7818609E-02  0.9207172E-01
        2   -1    0    0  501    0  0.00000000000E+00  0.00000000000E+00  0.15634220592E+04  0.15634220592E+04  0.25500000920E-02 0.  1.
       -2   -1    0    0    0  501  0.00000000000E+00  0.00000000000E+00 -0.19277255862E+03  0.19277255864E+03  0.25500000920E-02 0. -1.
    10030    2    1    2    0    0  0.00000000000E+00  0.00000000000E+00  0.13706495006E+04  0.17561946179E+04  0.10979706200E+04 0.  0.
        4    1    3    3  502    0  0.47372832535E+03  0.18214370029E+03  0.35062030512E+03  0.61687200055E+03  0.12699999809E+01 0. -1.
       -4    1    3    3    0  502 -0.47372832535E+03 -0.18214370029E+03  0.10200291955E+04  0.11393226173E+04  0.12699999809E+01 0.  1.
</event>
<event>
 5   0  0.3621403E-04  0.1100205E+04  0.7818609E-02  0.9204992E-01
        1   -1    0    0  501    0  0.00000000000E+00  0.00000000000E+00  0.86083496432E+03  0.86083496433E+03  0.50400001928E-02 0.  1.
       -1   -1    0    0    0  501  0.00000000000E+00  0.00000000000E+00 -0.35153422447E+03  0.35153422450E+03  0.50400001928E-02 0. -1.
    10030    2    1    2    0    0  0.00000000000E+00  0.00000000000E+00  0.50930073985E+03  0.12123691888E+04  0.11002053474E+04 0.  0.
        3    1    3    3  502    0  0.20414794911E+03 -0.15238257998E+03 -0.28261697208E+03  0.38048547793E+03  0.10100000352E+00 0. -1.
       -3    1    3    3    0  502 -0.20414794911E+03  0.15238257998E+03  0.79191771192E+03  0.83188371090E+03  0.10100000352E+00 0.  1.
</event>
<event>
 5   0  0.3621403E-04  0.1100129E+04  0.7818609E-02  0.9205067E-01
        1   -1    0    0  501    0  0.00000000000E+00  0.00000000000E+00  0.66242048866E+03  0.66242048868E+03  0.50400001928E-02 0.  1.
       -1   -1    0    0    0  501  0.00000000000E+00  0.00000000000E+00 -0.45676535457E+03  0.45676535460E+03  0.50400001928E-02 0. -1.
    10030    2    1    2    0    0  0.00000000000E+00  0.00000000000E+00  0.20565513409E+03  0.11191858433E+04  0.11001285914E+04 0.  0.
        3    1    3    3  502    0 -0.55585603545E+02 -0.46457514931E+03 -0.19140723563E+03  0.50552603171E+03  0.10100000352E+00 0.  1.
       -3    1    3    3    0  502  0.55585603545E+02  0.46457514931E+03  0.39706236973E+03  0.61365981157E+03  0.10100000352E+00 0. -1.
</event>
<event>
 5   0  0.5948818E-04  0.1094754E+04  0.7818609E-02  0.9210321E-01
       -2   -1    0    0    0  501  0.00000000000E+00  0.00000000000E+00  0.23900100899E+03  0.23900100900E+03  0.25500000920E-02 0. -1.
        2   -1    0    0  501    0  0.00000000000E+00  0.00000000000E+00 -0.12536404087E+04  0.12536404087E+04  0.25500000920E-02 0.  1.
    10030    2    1    2    0    0  0.00000000000E+00  0.00000000000E+00 -0.10146393997E+04  0.14926414177E+04  0.10947535295E+04 0.  0.
        3    1    3    3  502    0  0.39611885313E+03 -0.35526603259E+03 -0.68244319673E+03  0.86536282950E+03  0.10100000352E+00 0.  1.
       -3    1    3    3    0  502 -0.39611885313E+03  0.35526603259E+03 -0.33219620294E+03  0.62727858816E+03  0.10100000352E+00 0. -1.
</event>
<event>
 5   0  0.6264830E-04  0.1101417E+04  0.7818609E-02  0.9203812E-01
        2   -1    0    0  501    0  0.00000000000E+00  0.00000000000E+00  0.17427980787E+04  0.17427980787E+04  0.25500000920E-02 0.  1.
       -2   -1    0    0    0  501  0.00000000000E+00  0.00000000000E+00 -0.17401881149E+03  0.17401881151E+03  0.25500000920E-02 0. -1.
    10030    2    1    2    0    0  0.00000000000E+00  0.00000000000E+00  0.15687792672E+04  0.19168168902E+04  0.11014166339E+04 0.  0.
        4    1    3    3  502    0 -0.31842740933E+03  0.21519051364E+03  0.14708239590E+04  0.15202064674E+04  0.12699999809E+01 0.  1.
       -4    1    3    3    0  502  0.31842740933E+03 -0.21519051364E+03  0.97955308174E+02  0.39661042280E+03  0.12699999809E+01 0. -1.
</event>
<event>
 5   0  0.3642161E-04  0.1100417E+04  0.7818609E-02  0.9204785E-01
        1   -1    0    0  501    0  0.00000000000E+00  0.00000000000E+00  0.34332162565E+03  0.34332162568E+03  0.50400001928E-02 0. -1.
       -1   -1    0    0    0  501  0.00000000000E+00  0.00000000000E+00 -0.88176622287E+03  0.88176622288E+03  0.50400001928E-02 0.  1.
    10030    2    1    2    0    0  0.00000000000E+00  0.00000000000E+00 -0.53844459722E+03  0.12250878486E+04  0.11004170357E+04 0.  0.
        2    1    3    3  502    0 -0.29164047183E+03 -0.45639156025E+03 -0.16138786618E+03  0.56514906390E+03  0.25500000920E-02 0. -1.
       -2    1    3    3    0  502  0.29164047183E+03  0.45639156025E+03 -0.37705673104E+03  0.65993878466E+03  0.25500000920E-02 0.  1.
</event>
<event>
 5   0  0.3423758E-04  0.1099896E+04  0.7818609E-02  0.9205293E-01
        1   -1    0    0  501    0  0.00000000000E+00  0.00000000000E+00  0.80549630165E+03  0.80549630167E+03  0.50400001928E-02 0.  1.
       -1   -1    0    0    0  501  0.00000000000E+00  0.00000000000E+00 -0.37547399693E+03  0.37547399697E+03  0.50400001928E-02 0. -1.
    10030    2    1    2    0    0  0.00000000000E+00  0.00000000000E+00  0.43002230472E+03  0.11809702986E+04  0.10998962059E+04 0.  0.
        1    1    3    3  502    0  0.34061424775E+03 -0.10870057199E+03 -0.23365223238E+03  0.42711502648E+03  0.50400001928E-02 0. -1.
       -1    1    3    3    0  502 -0.34061424775E+03  0.10870057199E+03  0.66367453711E+03  0.75385527215E+03  0.50400001928E-02 0.  1.
</event>
<event>
 5   0  0.3642161E-04  0.1100383E+04  0.7818609E-02  0.9204819E-01
       -1   -1    0    0    0  501  0.00000000000E+00  0.00000000000E+00  0.15749538144E+03  0.15749538152E+03  0.50400001928E-02 0.  1.
        1   -1    0    0  501    0  0.00000000000E+00  0.00000000000E+00 -0.19220284934E+04  0.19220284934E+04  0.50400001928E-02 0. -1.
    10030    2    1    2    0    0  0.00000000000E+00  0.00000000000E+00 -0.17645331119E+04  0.20795238749E+04  0.11003828621E+04 0.  0.
        2    1    3    3  502    0 -0.36756996560E+03  0.16993276901E+03 -0.17838645316E+03  0.44250034155E+03  0.25500000920E-02 0.  1.
       -2    1    3    3    0  502  0.36756996560E+03 -0.16993276901E+03 -0.15861466588E+04  0.16370235334E+04  0.25500000920E-02 0. -1.
</event>
<event>
 5   0  0.2403875E-04  0.1084369E+04  0.7818609E-02  0.9220562E-01
       -3   -1    0    0    0  501  0.00000000000E+00  0.00000000000E+00  0.11166171400E+04  0.11166171446E+04  0.10100000352E+00 0. -1.
        3   -1    0    0  501    0  0.00000000000E+00  0.00000000000E+00 -0.26326322064E+03  0.26326324002E+03  0.10100000352E+00 0.  1.
    10030    2    1    2    0    0  0.00000000000E+00  0.00000000000E+00  0.85335391939E+03  0.13798803846E+04  0.10843693855E+04 0.  0.
        1    1    3    3  502    0 -0.91149417332E+02 -0.19808348458E+03  0.10583629593E+04  0.10805912441E+04  0.50400001928E-02 0. -1.
       -1    1    3    3    0  502  0.91149417332E+02  0.19808348458E+03 -0.20500903994E+03  0.29928914051E+03  0.50400001928E-02 0.  1.
</event>
<event>
 5   0  0.6264830E-04  0.1100545E+04  0.7818609E-02  0.9204661E-01
        2   -1    0    0  501    0  0.00000000000E+00  0.00000000000E+00  0.93822556742E+03  0.93822556743E+03  0.25500000920E-02 0.  1.
       -2   -1    0    0    0  501  0.00000000000E+00  0.00000000000E+00 -0.32273662104E+03  0.32273662105E+03  0.25500000920E-02 0. -1.
    10030    2    1    2    0    0  0.00000000000E+00  0.00000000000E+00  0.61548894638E+03  0.12609621885E+04  0.11005448640E+04 0.  0.
        4    1    3    3  502    0 -0.31409906100E+03  0.56188793124E+02  0.82140203913E+03  0.88120277087E+03  0.12699999809E+01 0.  1.
       -4    1    3    3    0  502  0.31409906100E+03 -0.56188793124E+02 -0.20591309275E+03  0.37975941761E+03  0.12699999809E+01 0. -1.
</event>
<event>
 5   0  0.6264830E-04  0.1099789E+04  0.7818609E-02  0.9205398E-01
        2   -1    0    0  501    0  0.00000000000E+00  0.00000000000E+00  0.89577770495E+03  0.89577770496E+03  0.25500000920E-02 0. -1.
       -2   -1    0    0    0  501  0.00000000000E+00  0.00000000000E+00 -0.33756576613E+03  0.33756576614E+03  0.25500000920E-02 0.  1.
    10030    2    1    2    0    0  0.00000000000E+00  0.00000000000E+00  0.55821193882E+03  0.12333434711E+04  0.10997888657E+04 0.  0.
        4    1    3    3  502    0 -0.23439814060E+03 -0.46932879645E+03  0.94255025436E+02  0.53300809582E+03  0.12699999809E+01 0.  1.
       -4    1    3    3    0  502  0.23439814060E+03  0.46932879645E+03  0.46395691339E+03  0.70033537528E+03  0.12699999809E+01 0. -1.
</event>
<event>
 5   0  0.6245176E-04  0.1101066E+04  0.7818609E-02  0.9204153E-01
        2   -1    0    0  501    0  0.00000000000E+00  0.00000000000E+00  0.89347003005E+03  0.89347003006E+03  0.25500000920E-02 0. -1.
       -2   -1    0    0    0  501  0.00000000000E+00  0.00000000000E+00 -0.33922422955E+03  0.33922422956E+03  0.25500000920E-02 0.  1.
    10030    2    1    2    0    0  0.00000000000E+00  0.00000000000E+00  0.55424580051E+03  0.12326942596E+04  0.11010661789E+04 0.  0.
        5    1    3    3  502    0  0.41822195426E+03  0.35738294110E+03  0.25384218478E+03  0.60587962038E+03  0.46999998093E+01 0. -1.
       -5    1    3    3    0  502 -0.41822195426E+03 -0.35738294110E+03  0.30040361573E+03  0.62681463923E+03  0.46999998093E+01 0.  1.
</event>
<event>
 5   0  0.2403875E-04  0.1100548E+04  0.7818609E-02  0.9204658E-01
       -3   -1    0    0    0  501  0.00000000000E+00  0.00000000000E+00  0.50093943917E+03  0.50093944935E+03  0.10100000352E+00 0. -1.
        3   -1    0    0  501    0  0.00000000000E+00  0.00000000000E+00 -0.60446744182E+03  0.60446745026E+03  0.10100000352E+00 0.  1.
    10030    2    1    2    0    0  0.00000000000E+00  0.00000000000E+00 -0.10352800266E+03  0.11054068996E+04  0.11005482117E+04 0.  0.
        5    1    3    3  502    0 -0.12594173252E+03 -0.14605624891E+03 -0.56938929062E+03  0.60118217048E+03  0.46999998093E+01 0.  1.
       -5    1    3    3    0  502  0.12594173252E+03  0.14605624891E+03  0.46586128797E+03  0.50422472912E+03  0.46999998093E+01 0. -1.
</event>
<event>
 5   0  0.3621403E-04  0.1101298E+04  0.7818609E-02  0.9203928E-01
        1   -1    0    0  501    0  0.00000000000E+00  0.00000000000E+00  0.12766136756E+04  0.12766136756E+04  0.50400001928E-02 0. -1.
       -1   -1    0    0    0  501  0.00000000000E+00  0.00000000000E+00 -0.23751457668E+03  0.23751457673E+03  0.50400001928E-02 0.  1.
    10030    2    1    2    0    0  0.00000000000E+00  0.00000000000E+00  0.10390990990E+04  0.15141282524E+04  0.11012980646E+04 0.  0.
        3    1    3    3  502    0  0.49624919367E+03  0.35181065189E+01  0.19148327365E+03  0.53192245072E+03  0.10100000352E+00 0.  1.
       -3    1    3    3    0  502 -0.49624919367E+03 -0.35181065189E+01  0.84761582531E+03  0.98220580166E+03  0.10100000352E+00 0. -1.
</event>
<event>
 5   0  0.3642161E-04  0.1100140E+04  0.7818609E-02  0.9205055E-01
        1   -1    0    0  501    0  0.00000000000E+00  0.00000000000E+00  0.66390247528E+03  0.66390247530E+03  0.50400001928E-02 0. -1.
       -1   -1    0    0    0  501  0.00000000000E+00  0.00000000000E+00 -0.45575528679E+03  0.45575528682E+03  0.50400001928E-02 0.  1.
    10030    2    1    2    0    0  0.00000000000E+00  0.00000000000E+00  0.20814718849E+03  0.11196577621E+04  0.11001401057E+04 0.  0.
        2    1    3    3  502    0  0.11673424789E+03 -0.39123664011E+03  0.47923795126E+03  0.62957287675E+03  0.25500000920E-02 0. -1.
       -2    1    3    3    0  502 -0.11673424789E+03  0.39123664011E+03 -0.27109076277E+03  0.49008488537E+03  0.25500000920E-02 0.  1.
</event>
<event>
 5   0  0.6109149E-04  0.1100665E+04  0.7818609E-02  0.9204544E-01
       -2   -1    0    0    0  501  0.00000000000E+00  0.00000000000E+00  0.17399844976E+03  0.17399844978E+03  0.25500000920E-02 0.  1.
        2   -1    0    0  501    0  0.00000000000E+00  0.00000000000E+00 -0.17406226249E+04  0.17406226249E+04  0.25500000920E-02 0. -1.
    10030    2    1    2    0    0  0.00000000000E+00  0.00000000000E+00 -0.15666241751E+04  0.19146210747E+04  0.11006645963E+04 0.  0.
        1    1    3    3  502    0 -0.46584205668E+03 -0.46080439926E+02 -0.12866703777E+04  0.13691796411E+04  0.50400001928E-02 0. -1.
       -1    1    3    3    0  502  0.46584205668E+03  0.46080439926E+02 -0.27995379738E+03  0.54544143353E+03  0.50400001928E-02 0.  1.
</event>
<event>
 5   0  0.3657529E-04  0.1087715E+04  0.7818609E-02  0.9217249E-01
        1   -1    0    0  501    0  0.00000000000E+00  0.00000000000E+00  0.66435326553E+03  0.66435326555E+03  0.50400001928E-02 0.  1.
       -1   -1    0    0    0  501  0.00000000000E+00  0.00000000000E+00 -0.44521611035E+03  0.44521611038E+03  0.50400001928E-02 0. -1.
    10030    2    1    2    0    0  0.00000000000E+00  0.00000000000E+00  0.21913715517E+03  0.11095693759E+04  0.10877146258E+04 0.  0.
        4    1    3    3  502    0 -0.46616577364E+03  0.27214189469E+03  0.17729091460E+03  0.56815967884E+03  0.12699999809E+01 0. -1.
       -4    1    3    3    0  502  0.46616577364E+03 -0.27214189469E+03  0.41846240572E+02  0.54140969709E+03  0.12699999809E+01 0.  1.
</event>
<event>
 5   0  0.6109149E-04  0.1100925E+04  0.7818609E-02  0.9204291E-01
        2   -1    0    0  501    0  0.00000000000E+00  0.00000000000E+00  0.84992433153E+03  0.84992433153E+03  0.25500000920E-02 0. -1.
       -2   -1    0    0    0  501  0.00000000000E+00  0.00000000000E+00 -0.35651279515E+03  0.35651279516E+03  0.25500000920E-02 0.  1.
    10030    2    1    2    0    0  0.00000000000E+00  0.00000000000E+00  0.49341153638E+03  0.12064371267E+04  0.11009248823E+04 0.  0.
        1    1    3    3  502    0 -0.27022099529E+03  0.30623362545E+03  0.65114405957E+03  0.76862670133E+03  0.50400001928E-02 0. -1.
       -1    1    3    3    0  502  0.27022099529E+03 -0.30623362545E+03 -0.15773252320E+03  0.43781042536E+03  0.50400001928E-02 0.  1.
</event>
<event>
 5   0  0.2403875E-04  0.1100249E+04  0.7818609E-02  0.9204949E-01
       -3   -1    0    0    0  501  0.00000000000E+00  0.00000000000E+00  0.14142883952E+04  0.14142883988E+04  0.10100000352E+00 0. -1.
        3   -1    0    0  501    0  0.00000000000E+00  0.00000000000E+00 -0.21398540506E+03  0.21398542889E+03  0.10100000352E+00 0.  1.
    10030    2    1    2    0    0  0.00000000000E+00  0.00000000000E+00  0.12003029901E+04  0.16282738277E+04  0.11002492399E+04 0.  0.
        2    1    3    3  502    0 -0.18848149961E+03 -0.29829643458E+02 -0.16343519106E+03  0.25124916917E+03  0.25500000920E-02 0.  1.
       -2    1    3    3    0  502  0.18848149961E+03  0.29829643458E+02  0.13637381812E+04  0.13770246585E+04  0.25500000920E-02 0. -1.
</event>
<event>
 5   0  0.6412712E-04  0.1100401E+04  0.7818609E-02  0.9204802E-01
        2   -1    0    0  501    0  0.00000000000E+00  0.00000000000E+00  0.47513147425E+03  0.47513147426E+03  0.25500000920E-02 0.  1.
       -2   -1    0    0    0  501  0.00000000000E+00  0.00000000000E+00 -0.63712959118E+03  0.63712959118E+03  0.25500000920E-02 0. -1.
    10030    2    1    2    0    0  0.00000000000E+00  0.00000000000E+00 -0.16199811693E+03  0.11122610654E+04  0.11004005124E+04 0.  0.
        2    1    3    3  502    0 -0.14461094863E+03 -0.22028683318E+03  0.40719927549E+03  0.48502563366E+03  0.25500000920E-02 0.  1.
       -2    1    3    3    0  502  0.14461094863E+03  0.22028683318E+03 -0.56919739242E+03  0.62723543178E+03  0.25500000920E-02 0. -1.
</event>
<event>
 5   0  0.3657529E-04  0.1098863E+04  0.7818609E-02  0.9206301E-01
       -1   -1    0    0    0  501  0.00000000000E+00  0.00000000000E+00  0.39890570598E+03  0.39890570601E+03  0.50400001928E-02 0.  1.
        1   -1    0    0  501    0  0.00000000000E+00  0.00000000000E+00 -0.75675790019E+03  0.75675790020E+03  0.50400001928E-02 0. -1.
    10030    2    1    2    0    0  0.00000000000E+00  0.00000000000E+00 -0.35785219421E+03  0.11556636062E+04  0.10988631297E+04 0.  0.
        4    1    3    3  502    0 -0.26866511351E+03 -0.15607581740E+03 -0.65548548469E+03  0.72539881275E+03  0.12699999809E+01 0. -1.
       -4    1    3    3    0  502  0.26866511351E+03  0.15607581740E+03  0.29763329048E+03  0.43026479347E+03  0.12699999809E+01 0.  1.
</event>
<event>
 5   0  0.6264830E-04  0.1098631E+04  0.7818609E-02  0.9206527E-01
       -2   -1    0    0    0  501  0.00000000000E+00  0.00000000000E+00  0.34770223493E+03  0.34770223494E+03  0.25500000920E-02 0.  1.
        2   -1    0    0  501    0  0.00000000000E+00  0.00000000000E+00 -0.86783345225E+03  0.86783345225E+03  0.25500000920E-02 0. -1.
    10030    2    1    2    0    0  0.00000000000E+00  0.00000000000E+00 -0.52013121732E+03  0.12155356872E+04  0.10986312046E+04 0.  0.
        4    1    3    3  502    0 -0.29802626489E+03 -0.28532981472E+03 -0.66130222182E+03  0.77945814462E+03  0.12699999809E+01 0. -1.
       -4    1    3    3    0  502  0.29802626489E+03  0.28532981472E+03  0.14117100450E+03  0.43607754258E+03  0.12699999809E+01 0.  1.
</event>
<event>
 5   0  0.3621403E-04  0.1100618E+04  0.7818609E-02  0.9204590E-01
        1   -1    0    0  501    0  0.00000000000E+00  0.00000000000E+00  0.58388743205E+03  0.58388743207E+03  0.50400001928E-02 0. -1.
       -1   -1    0    0    0  501  0.00000000000E+00  0.00000000000E+00 -0.51866142848E+03  0.51866142850E+03  0.50400001928E-02 0.  1.
    10030    2    1    2    0    0  0.00000000000E+00  0.00000000000E+00  0.65226003568E+02  0.11025488606E+04  0.11006178076E+04 0.  0.
        3    1    3    3  502    0 -0.51236391583E+01  0.54058202375E+03 -0.70449493802E+02  0.54517732661E+03  0.10100000352E+00 0. -1.
       -3    1    3    3    0  502  0.51236391583E+01 -0.54058202375E+03  0.13567549737E+03  0.55737153396E+03  0.10100000352E+00 0.  1.
</event>
<event>
 5   0  0.6245176E-04  0.1101947E+04  0.7818609E-02  0.9203296E-01
        2   -1    0    0  501    0  0.00000000000E+00  0.00000000000E+00  0.90432326179E+03  0.90432326180E+03  0.25500000920E-02 0.  1.
       -2   -1    0    0    0  501  0.00000000000E+00  0.00000000000E+00 -0.33568963189E+03  0.33568963190E+03  0.25500000920E-02 0. -1.
    10030    2    1    2    0    0  0.00000000000E+00  0.00000000000E+00  0.56863362990E+03  0.12400128937E+04  0.11019472635E+04 0.  0.
        5    1    3    3  502    0  0.38237441816E+03 -0.35498102312E+03  0.48349080765E+03  0.71134181201E+03  0.46999998093E+01 0.  1.
       -5    1    3    3    0  502 -0.38237441816E+03  0.35498102312E+03  0.85142822253E+02  0.52867108169E+03  0.46999998093E+01 0. -1.
</event>
<event>
 5   0  0.6245176E-04  0.1099588E+04  0.7818609E-02  0.9205594E-01
       -2   -1    0    0    0  501  0.00000000000E+00  0.00000000000E+00  0.76431843455E+03  0.76431843456E+03  0.25500000920E-02 0. -1.
        2   -1    0    0  501    0  0.00000000000E+00  0.00000000000E+00 -0.39548067609E+03  0.39548067609E+03  0.25500000920E-02 0.  1.
    10030    2    1    2    0    0  0.00000000000E+00  0.00000000000E+00  0.36883775847E+03  0.11597991107E+04  0.10995875067E+04 0.  0.
        5    1    3    3  502    0  0.17644825916E+03 -0.12134612820E+03  0.71849773884E+03  0.74974659833E+03  0.46999998093E+01 0. -1.
       -5    1    3    3    0  502 -0.17644825916E+03  0.12134612820E+03 -0.34965998038E+03  0.41005251232E+03  0.46999998093E+01 0.  1.
</event>
<event>
 5   0  0.6109149E-04  0.1100722E+04  0.7818609E-02  0.9204488E-01
       -2   -1    0    0    0  501  0.00000000000E+00  0.00000000000E+00  0.56393485446E+03  0.56393485446E+03  0.25500000920E-02 0. -1.
        2   -1    0    0  501    0  0.00000000000E+00  0.00000000000E+00 -0.53711381170E+03  0.53711381171E+03  0.25500000920E-02 0.  1.
    10030    2    1    2    0    0  0.00000000000E+00  0.00000000000E+00  0.26821042754E+02  0.11010486662E+04  0.11007219435E+04 0.  0.
        1    1    3    3  502    0  0.38929404846E+03 -0.14117367000E+03  0.37603341866E+03  0.55935766129E+03  0.50400001928E-02 0. -1.
       -1    1    3    3    0  502 -0.38929404846E+03  0.14117367000E+03 -0.34921237590E+03  0.54169100489E+03  0.50400001928E-02 0.  1.
</event>
<event>
 5   0  0.3642161E-04  0.1085832E+04  0.7818609E-02  0.9219112E-01
        1   -1    0    0  501    0  0.00000000000E+00  0.00000000000E+00  0.12968994237E+04  0.12968994237E+04  0.50400001928E-02 0. -1.
       -1   -1    0    0    0  501  0.00000000000E+00  0.00000000000E+00 -0.22727894453E+03  0.22727894459E+03  0.50400001928E-02 0.  1.
    10030    2    1    2    0    0  0.00000000000E+00  0.00000000000E+00  0.10696204792E+04  0.15241783683E+04  0.10858322748E+04 0.  0.
        2    1    3    3  502    0  0.10250879043E+03 -0.19078758032E+03 -0.16401324415E+03  0.27167682489E+03  0.25500000920E-02 0.  1.
       -2    1    3    3    0  502 -0.10250879043E+03  0.19078758032E+03  0.12336337233E+04  0.12525015434E+04  0.25500000920E-02 0. -1.
</event>
<event>
 5   0  0.3621403E-04  0.1100105E+04  0.7818609E-02  0.9205090E-01
       -1   -1    0    0    0  501  0.00000000000E+00  0.00000000000E+00  0.49899289415E+03  0.49899289417E+03  0.50400001928E-02 0. -1.
        1   -1    0    0  501    0  0.00000000000E+00  0.00000000000E+00 -0.60633632233E+03  0.60633632235E+03  0.50400001928E-02 0.  1.
    10030    2    1    2    0    0  0.00000000000E+00  0.00000000000E+00 -0.10734342818E+03  0.11053292165E+04  0.11001045702E+04 0.  0.
        3    1    3    3  502    0 -0.46748085918E+03  0.50563809527E+02  0.23310007387E+03  0.52481492659E+03  0.10100000352E+00 0.  1.
       -3    1    3    3    0  502  0.46748085918E+03 -0.50563809527E+02 -0.34044350204E+03  0.58051428993E+03  0.10100000352E+00 0. -1.
</event>
<event>
 5   0  0.3423758E-04  0.1100257E+04  0.7818609E-02  0.9204941E-01
       -1   -1    0    0    0  501  0.00000000000E+00  0.00000000000E+00  0.76824525458E+03  0.76824525460E+03  0.50400001928E-02 0. -1.
        1   -1    0    0  501    0  0.00000000000E+00  0.00000000000E+00 -0.39393847773E+03  0.39393847776E+03  0.50400001928E-02 0.  1.
    10030    2    1    2    0    0  0.00000000000E+00  0.00000000000E+00  0.37430677686E+03  0.11621837324E+04  0.11002569993E+04 0.  0.
        1    1    3    3  502    0 -0.11315429239E+03 -0.15317667907E+03 -0.35801024298E+03  0.40550995426E+03  0.50400001928E-02 0.  1.
       -1    1    3    3    0  502  0.11315429239E+03  0.15317667907E+03  0.73231701984E+03  0.75667377810E+03  0.50400001928E-02 0. -1.
</event>
<event>
 5   0  0.6264830E-04  0.1101540E+04  0.7818609E-02  0.9203692E-01
       -2   -1    0    0    0  501  0.00000000000E+00  0.00000000000E+00  0.44672514728E+03  0.44672514728E+03  0.25500000920E-02 0.  1.
        2   -1    0    0  501    0  0.00000000000E+00  0.00000000000E+00 -0.67904808930E+03  0.67904808931E+03  0.25500000920E-02 0. -1.
    10030    2    1    2    0    0  0.00000000000E+00  0.00000000000E+00 -0.23232294203E+03  0.11257732366E+04  0.11015404808E+04 0.  0.
        4    1    3    3  502    0 -0.10953038087E+03  0.43586787945E+03 -0.44154984891E+03  0.63003618519E+03  0.12699999809E+01 0. -1.
       -4    1    3    3    0  502  0.10953038087E+03 -0.43586787945E+03  0.20922690689E+03  0.49573705140E+03  0.12699999809E+01 0.  1.
</event>
<event>
 5   0  0.3523525E-04  0.1098933E+04  0.7818609E-02  0.9206232E-01
        1   -1    0    0  501    0  0.00000000000E+00  0.00000000000E+00  0.20756047075E+04  0.20756047075E+04  0.50400001928E-02 0.  1.
       -1   -1    0    0    0  501  0.00000000000E+00  0.00000000000E+00 -0.14545811053E+03  0.14545811062E+03  0.50400001928E-02 0. -1.
    10030    2    1    2    0    0  0.00000000000E+00  0.00000000000E+00  0.19301465969E+04  0.22210628181E+04  0.10989331901E+04 0.  0.
        5    1    3    3  502    0 -0.47311864235E+03  0.73643652348E+01  0.40062311213E+03  0.62001326726E+03  0.46999998093E+01 0.  1.
       -5    1    3    3    0  502  0.47311864235E+03 -0.73643652348E+01  0.15295234848E+04  0.16010495508E+04  0.46999998093E+01 0. -1.
</event>
<event>
 5   0  0.3657529E-04  0.1100218E+04  0.7818609E-02  0.9204980E-01
       -1   -1    0    0    0  501  0.00000000000E+00  0.00000000000E+00  0.26089015164E+03  0.26089015169E+03  0.50400001928E-02 0.  1.
        1   -1    0    0  501    0  0.00000000000E+00  0.00000000000E+00 -0.11599508858E+04  0.11599508858E+04  0.50400001928E-02 0. -1.
    10030    2    1    2    0    0  0.00000000000E+00  0.00000000000E+00 -0.89906073420E+03  0.14208410375E+04  0.11002177285E+04 0.  0.
        4    1    3    3  502    0 -0.30077125756E+03  0.14612219165E+03 -0.10136348782E+04  0.10673670050E+04  0.12699999809E+01 0. -1.
       -4    1    3    3    0  502  0.30077125756E+03 -0.14612219165E+03  0.11457414400E+03  0.35347403249E+03  0.12699999809E+01 0.  1.
</event>
<event>
 5   0  0.3642161E-04  0.1100699E+04  0.7818609E-02  0.9204511E-01
       -1   -1    0    0    0  501  0.00000000000E+00  0.00000000000E+00  0.64602838757E+03  0.64602838759E+03  0.50400001928E-02 0. -1.
        1   -1    0    0  501    0  0.00000000000E+00  0.00000000000E+00 -0.46884098359E+03  0.46884098362E+03  0.50400001928E-02 0.  1.
    10030    2    1    2    0    0  0.00000000000E+00  0.00000000000E+00  0.17718740398E+03  0.11148693712E+04  0.11006990228E+04 0.  0.
        2    1    3    3  502    0 -0.34979220513E+03 -0.24697166250E+03 -0.26159565172E+03  0.50177871004E+03  0.25500000920E-02 0.  1.
       -2    1    3    3    0  502  0.34979220513E+03  0.24697166250E+03  0.43878305570E+03  0.61309066117E+03  0.25500000920E-02 0. -1.
</event>
<event>
 5   0  0.5948818E-04  0.1096195E+04  0.7818609E-02  0.9208908E-01
        2   -1    0    0  501    0  0.00000000000E+00  0.00000000000E+00  0.10216633051E+04  0.10216633051E+04  0.25500000920E-02 0. -1.
       -2   -1    0    0    0  501  0.00000000000E+00  0.00000000000E+00 -0.29404119131E+03  0.29404119132E+03  0.25500000920E-02 0.  1.
    10030    2    1    2    0    0  0.00000000000E+00  0.00000000000E+00  0.72762211379E+03  0.13157044964E+04  0.10961954121E+04 0.  0.
        3    1    3    3  502    0 -0.13979723473E+03 -0.63065061888E+02  0.99538542726E+03  0.10071308891E+04  0.10100000352E+00 0. -1.
       -3    1    3    3    0  502  0.13979723473E+03  0.63065061888E+02 -0.26776331347E+03  0.30857360728E+03  0.10100000352E+00 0.  1.
</event>
<event>
 5   0  0.6264830E-04  0.1099883E+04  0.7818609E-02  0.9205306E-01
       -2   -1    0    0    0  501  0.00000000000E+00  0.00000000000E+00  0.97415080651E+03  0.97415080651E+03  0.25500000920E-02 0. -1.
        2   -1    0    0  501    0  0.00000000000E+00  0.00000000000E+00 -0.31046090903E+03  0.31046090904E+03  0.25500000920E-02 0.  1.
    10030    2    1    2    0    0  0.00000000000E+00  0.00000000000E+00  0.66368989748E+03  0.12846117156E+04  0.10998831664E+04 0.  0.
        4    1    3    3  502    0  0.78853268553E+02 -0.46014787826E+02 -0.30154628430E+03  0.31506661698E+03  0.12699999809E+01 0.  1.
       -4    1    3    3    0  502 -0.78853268553E+02  0.46014787826E+02  0.96523618177E+03  0.96954509857E+03  0.12699999809E+01 0. -1.
</event>
<event>
 5   0  0.6109149E-04  0.1098668E+04  0.7818609E-02  0.9206491E-01
        2   -1    0    0  501    0  0.00000000000E+00  0.00000000000E+00  0.12743731716E+04  0.12743731716E+04  0.25500000920E-02 0. -1.
       -2   -1    0    0    0  501  0.00000000000E+00  0.00000000000E+00 -0.23679714412E+03  0.23679714413E+03  0.25500000920E-02 0.  1.
    10030    2    1    2    0    0  0.00000000000E+00  0.00000000000E+00  0.10375760274E+04  0.15111703157E+04  0.10986681529E+04 0.  0.
        1    1    3    3  502    0 -0.71407010022E+02 -0.17968391336E+03  0.12260223870E+04  0.12411753153E+04  0.50400001928E-02 0. -1.
       -1    1    3    3    0  502  0.71407010022E+02  0.17968391336E+03 -0.18844635955E+03  0.26999500042E+03  0.50400001928E-02 0.  1.
</event>
<event>
 5   0  0.5948818E-04  0.1100977E+04  0.7818609E-02  0.9204241E-01
        2   -1    0    0  501    0  0.00000000000E+00  0.00000000000E+00  0.78188731921E+03  0.78188731921E+03  0.25500000920E-02 0. -1.
       -2   -1    0    0    0  501  0.00000000000E+00  0.00000000000E+00 -0.38757167226E+03  0.38757167227E+03  0.25500000920E-02 0.  1.
    10030    2    1    2    0    0  0.00000000000E+00  0.00000000000E+00  0.39431564694E+03  0.11694589915E+04  0.11009766134E+04 0.  0.
        3    1    3    3  502    0 -0.44734097474E+03 -0.19845181768E+03 -0.70593430477E+02  0.49444970852E+03  0.10100000352E+00 0.  1.
       -3    1    3    3    0  502  0.44734097474E+03  0.19845181768E+03  0.46490907742E+03  0.67500928297E+03  0.10100000352E+00 0. -1.
</event>
<event>
 5   0  0.3523525E-04  0.1098152E+04  0.7818609E-02  0.9206995E-01
        1   -1    0    0  501    0  0.00000000000E+00  0.00000000000E+00  0.84842516426E+03  0.84842516427E+03  0.50400001928E-02 0. -1.
       -1   -1    0    0    0  501  0.00000000000E+00  0.00000000000E+00 -0.35534612626E+03  0.35534612629E+03  0.50400001928E-02 0.  1.
    10030    2    1    2    0    0  0.00000000000E+00  0.00000000000E+00  0.49307903800E+03  0.12037712906E+04  0.10981522582E+04 0.  0.
        5    1    3    3  502    0 -0.42846189867E+03  0.23419764044E+03 -0.28674237459E+02  0.48915481731E+03  0.46999998093E+01 0.  1.
       -5    1    3    3    0  502  0.42846189867E+03 -0.23419764044E+03  0.52175327546E+03  0.71461647326E+03  0.46999998093E+01 0. -1.
</event>
<event>
 5   0  0.3657529E-04  0.1099974E+04  0.7818609E-02  0.9205217E-01
        1   -1    0    0  501    0  0.00000000000E+00  0.00000000000E+00  0.87610832865E+03  0.87610832867E+03  0.50400001928E-02 0.  1.
       -1   -1    0    0    0  501  0.00000000000E+00  0.00000000000E+00 -0.34526069330E+03  0.34526069334E+03  0.50400001928E-02 0. -1.
    10030    2    1    2    0    0  0.00000000000E+00  0.00000000000E+00  0.53084763535E+03  0.12213690220E+04  0.10999741251E+04 0.  0.
        4    1    3    3  502    0  0.22299013411E+03  0.17496026845E+03 -0.25791877962E+03  0.38322239656E+03  0.12699999809E+01 0. -1.
       -4    1    3    3    0  502 -0.22299013411E+03 -0.17496026845E+03  0.78876641498E+03  0.83814662544E+03  0.12699999809E+01 0.  1.
</event>
<event>
 5   0  0.3523525E-04  0.1099352E+04  0.7818609E-02  0.9205824E-01
        1   -1    0    0  501    0  0.00000000000E+00  0.00000000000E+00  0.22243232680E+03  0.22243232686E+03  0.50400001928E-02 0.  1.
       -1   -1    0    0    0  501  0.00000000000E+00  0.00000000000E+00 -0.13583625104E+04  0.13583625104E+04  0.50400001928E-02 0. -1.
    10030    2    1    2    0    0  0.00000000000E+00  0.00000000000E+00 -0.11359301836E+04  0.15807948373E+04  0.10993520526E+04 0.  0.
        5    1    3    3  502    0  0.31818125304E+03  0.44148048214E+02  0.73380986149E+02  0.32953788716E+03  0.46999998093E+01 0.  1.
       -5    1    3    3    0  502 -0.31818125304E+03 -0.44148048214E+02 -0.12093111697E+04  0.12512569501E+04  0.46999998093E+01 0. -1.
</event>
<event>
 5   0  0.3423758E-04  0.1094214E+04  0.7818609E-02  0.9210850E-01
       -1   -1    0    0    0  501  0.00000000000E+00  0.00000000000E+00  0.27423238706E+03  0.27423238711E+03  0.50400001928E-02 0. -1.
        1   -1    0    0  501    0  0.00000000000E+00  0.00000000000E+00 -0.10915054276E+04  0.10915054277E+04  0.50400001928E-02 0.  1.
    10030    2    1    2    0    0  0.00000000000E+00  0.00000000000E+00 -0.81727304058E+03  0.13657378148E+04  0.10942141270E+04 0.  0.
        1    1    3    3  502    0 -0.23378125636E+03 -0.14926894157E+03  0.17996836334E+03  0.33064105095E+03  0.50400001928E-02 0. -1.
       -1    1    3    3    0  502  0.23378125636E+03  0.14926894157E+03 -0.99724140392E+03  0.10350967638E+04  0.50400001928E-02 0.  1.
</event>
<event>
 5   0  0.6264830E-04  0.1090750E+04  0.7818609E-02  0.9214255E-01
       -2   -1    0    0    0  501  0.00000000000E+00  0.00000000000E+00  0.17069273418E+03  0.17069273420E+03  0.25500000920E-02 0.  1.
        2   -1    0    0  501    0  0.00000000000E+00  0.00000000000E+00 -0.17425111760E+04  0.17425111760E+04  0.25500000920E-02 0. -1.
    10030    2    1    2    0    0  0.00000000000E+00  0.00000000000E+00 -0.15718184418E+04  0.19132039102E+04  0.10907501950E+04 0.  0.
        4    1    3    3  502    0 -0.45735856793E+03  0.92035876224E+02 -0.12813552736E+04  0.13636423329E+04  0.12699999809E+01 0. -1.
       -4    1    3    3    0  502  0.45735856793E+03 -0.92035876224E+02 -0.29046316823E+03  0.54956157723E+03  0.12699999809E+01 0.  1.
</event>
<event>
 5   0  0.6109149E-04  0.1100805E+04  0.7818609E-02  0.9204407E-01
       -2   -1    0    0    0  501  0.00000000000E+00  0.00000000000E+00  0.40443281801E+03  0.40443281801E+03  0.25500000920E-02 0.  1.
        2   -1    0    0  501    0  0.00000000000E+00  0.00000000000E+00 -0.74905642557E+03  0.74905642557E+03  0.25500000920E-02 0. -1.
    10030    2    1    2    0    0  0.00000000000E+00  0.00000000000E+00 -0.34462360756E+03  0.11534892436E+04  0.11008051618E+04 0.  0.
        1    1    3    3  502    0 -0.81031502242E+02 -0.12837970503E+03  0.38205994097E+03  0.41111707765E+03  0.50400001928E-02 0.  1.
       -1    1    3    3    0  502  0.81031502242E+02  0.12837970503E+03 -0.72668354853E+03  0.74237216593E+03  0.50400001928E-02 0. -1.
</event>
<event>
 5   0  0.6412712E-04  0.1100208E+04  0.7818609E-02  0.9204989E-01
       -2   -1    0    0    0  501  0.00000000000E+00  0.00000000000E+00  0.67211311035E+03  0.67211311035E+03  0.25500000920E-02 0. -1.
        2   -1    0    0  501    0  0.00000000000E+00  0.00000000000E+00 -0.45024330879E+03  0.45024330880E+03  0.25500000920E-02 0.  1.
    10030    2    1    2    0    0  0.00000000000E+00  0.00000000000E+00  0.22186980155E+03  0.11223564192E+04  0.11002080361E+04 0.  0.
        2    1    3    3  502    0  0.25972382916E+03 -0.48492605583E+03  0.10872716368E+03  0.56074177942E+03  0.25500000920E-02 0. -1.
       -2    1    3    3    0  502 -0.25972382916E+03  0.48492605583E+03  0.11314263788E+03  0.56161463974E+03  0.25500000920E-02 0.  1.
</event>
<event>
 5   0  0.3621403E-04  0.1105065E+04  0.7818609E-02  0.9200269E-01
       -1   -1    0    0    0  501  0.00000000000E+00  0.00000000000E+00  0.85238780900E+03  0.85238780902E+03  0.50400001928E-02 0.  1.
        1   -1    0    0  501    0  0.00000000000E+00  0.00000000000E+00 -0.35816140018E+03  0.35816140022E+03  0.50400001928E-02 0. -1.
    10030    2    1    2    0    0  0.00000000000E+00  0.00000000000E+00  0.49422640882E+03  0.12105492092E+04  0.11050654482E+04 0.  0.
        3    1    3    3  502    0 -0.21410294900E+03 -0.23724149557E+03  0.74088122280E+03  0.80686343113E+03  0.10100000352E+00 0.  1.
       -3    1    3    3    0  502  0.21410294900E+03  0.23724149557E+03 -0.24665481398E+03  0.40368577811E+03  0.10100000352E+00 0. -1.
</event>
<event>
 5   0  0.5948818E-04  0.1099545E+04  0.7818609E-02  0.9205635E-01
       -2   -1    0    0    0  501  0.00000000000E+00  0.00000000000E+00  0.30601809320E+03  0.30601809321E+03  0.25500000920E-02 0.  1.
        2   -1    0    0  501    0  0.00000000000E+00  0.00000000000E+00 -0.98768665618E+03  0.98768665618E+03  0.25500000920E-02 0. -1.
    10030    2    1    2    0    0  0.00000000000E+00  0.00000000000E+00 -0.68166856298E+03  0.12937047494E+04  0.10995453373E+04 0.  0.
        3    1    3    3  502    0 -0.51030475630E+03 -0.64330428680E+01 -0.58138018034E+03  0.77359889648E+03  0.10100000352E+00 0. -1.
       -3    1    3    3    0  502  0.51030475630E+03  0.64330428680E+01 -0.10028838264E+03  0.52010585291E+03  0.10100000352E+00 0.  1.
</event>
<event>
 5   0  0.6245176E-04  0.1107104E+04  0.7818609E-02  0.9198295E-01
       -2   -1    0    0    0  501  0.00000000000E+00  0.00000000000E+00  0.17190869820E+03  0.17190869822E+03  0.25500000920E-02 0. -1.
        2   -1    0    0  501    0  0.00000000000E+00  0.00000000000E+00 -0.17824575118E+04  0.17824575118E+04  0.25500000920E-02 0.  1.
    10030    2    1    2    0    0  0.00000000000E+00  0.00000000000E+00 -0.16105488136E+04  0.19543662101E+04  0.11071042417E+04 0.  0.
        5    1    3    3  502    0  0.43660702587E+03 -0.26406449247E+03 -0.11840613812E+04  0.12893328490E+04  0.46999998093E+01 0.  1.
       -5    1    3    3    0  502 -0.43660702587E+03  0.26406449247E+03 -0.42648743247E+03  0.66503336103E+03  0.46999998093E+01 0. -1.
</event>
<event>
 5   0  0.6109149E-04  0.1099293E+04  0.7818609E-02  0.9205882E-01
       -2   -1    0    0    0  501  0.00000000000E+00  0.00000000000E+00  0.14943076336E+03  0.14943076338E+03  0.25500000920E-02 0.  1.
        2   -1    0    0  501    0  0.00000000000E+00  0.00000000000E+00 -0.20217463268E+04  0.20217463268E+04  0.25500000920E-02 0. -1.
    10030    2    1    2    0    0  0.00000000000E+00  0.00000000000E+00 -0.18723155634E+04  0.21711770902E+04  0.10992926761E+04 0.  0.
        1    1    3    3  502    0 -0.24198184101E+03  0.44973119900E+03 -0.53478767347E+03  0.73946684743E+03  0.50400001928E-02 0.  1.
       -1    1    3    3    0  502  0.24198184101E+03 -0.44973119900E+03 -0.13375278900E+04  0.14317102427E+04  0.50400001928E-02 0. -1.
</event>
<event>
 5   0  0.3621403E-04  0.1096305E+04  0.7818609E-02  0.9208801E-01
       -1   -1    0    0    0  501  0.00000000000E+00  0.00000000000E+00  0.14179432676E+03  0.14179432685E+03  0.50400001928E-02 0. -1.
        1   -1    0    0  501    0  0.00000000000E+00  0.00000000000E+00 -0.21190636700E+04  0.21190636700E+04  0.50400001928E-02 0.  1.
    10030    2    1    2    0    0  0.00000000000E+00  0.00000000000E+00 -0.19772693432E+04  0.22608579968E+04  0.10963050790E+04 0.  0.
        3    1    3    3  502    0  0.19814032643E+03  0.44718469086E+03 -0.47830544344E+03  0.68411244991E+03  0.10100000352E+00 0.  1.
       -3    1    3    3    0  502 -0.19814032643E+03 -0.44718469086E+03 -0.14989638998E+04  0.15767455469E+04  0.10100000352E+00 0. -1.
</event>
<event>
 5   0  0.3657529E-04  0.1100152E+04  0.7818609E-02  0.9205044E-01
        1   -1    0    0  501    0  0.00000000000E+00  0.00000000000E+00  0.17444355515E+04  0.17444355515E+04  0.50400001928E-02 0.  1.
       -1   -1    0    0    0  501  0.00000000000E+00  0.00000000000E+00 -0.17345650417E+03  0.17345650424E+03  0.50400001928E-02 0. -1.
    10030    2    1    2    0    0  0.00000000000E+00  0.00000000000E+00  0.15709790473E+04  0.19178920557E+04  0.11001521578E+04 0.  0.
        4    1    3    3  502    0  0.59529605074E+02  0.24730376630E+03  0.16357453117E+04  0.16554054683E+04  0.12699999809E+01 0.  1.
       -4    1    3    3    0  502 -0.59529605074E+02 -0.24730376630E+03 -0.64766264372E+02  0.26248658748E+03  0.12699999809E+01 0. -1.
</event>
<event>
 5   0  0.3621403E-04  0.1100396E+04  0.7818609E-02  0.9204806E-01
        1   -1    0    0  501    0  0.00000000000E+00  0.00000000000E+00  0.84699592694E+03  0.84699592695E+03  0.50400001928E-02 0. -1.
       -1   -1    0    0    0  501  0.00000000000E+00  0.00000000000E+00 -0.35740203007E+03  0.35740203011E+03  0.50400001928E-02 0.  1.
    10030    2    1    2    0    0  0.00000000000E+00  0.00000000000E+00  0.48959389686E+03  0.12043979571E+04  0.11003964082E+04 0.  0.
        3    1    3    3  502    0 -0.31947198833E+03  0.41493729775E+03  0.60077876519E+02  0.52710973605E+03  0.10100000352E+00 0.  1.
       -3    1    3    3    0  502  0.31947198833E+03 -0.41493729775E+03  0.42951602034E+03  0.67728822101E+03  0.10100000352E+00 0. -1.
</event>
<event>
 5   0  0.6109149E-04  0.1096731E+04  0.7818609E-02  0.9208384E-01
       -2   -1    0    0    0  501  0.00000000000E+00  0.00000000000E+00  0.46526183928E+03  0.46526183928E+03  0.25500000920E-02 0. -1.
        2   -1    0    0  501    0  0.00000000000E+00  0.00000000000E+00 -0.64631230487E+03  0.64631230488E+03  0.25500000920E-02 0.  1.
    10030    2    1    2    0    0  0.00000000000E+00  0.00000000000E+00 -0.18105046560E+03  0.11115741442E+04  0.10967305079E+04 0.  0.
        1    1    3    3  502    0  0.33833380453E+03  0.13344100053E+03  0.32542933683E+03  0.48803741373E+03  0.50400001928E-02 0. -1.
       -1    1    3    3    0  502 -0.33833380453E+03 -0.13344100053E+03 -0.50647980242E+03  0.62353673043E+03  0.50400001928E-02 0.  1.
</event>
<event>
 5   0  0.6245176E-04  0.1116882E+04  0.7818609E-02  0.9188892E-01
       -2   -1    0    0    0  501  0.00000000000E+00  0.00000000000E+00  0.89190031993E+03  0.89190031993E+03  0.25500000920E-02 0.  1.
        2   -1    0    0  501    0  0.00000000000E+00  0.00000000000E+00 -0.34965383275E+03  0.34965383276E+03  0.25500000920E-02 0. -1.
    10030    2    1    2    0    0  0.00000000000E+00  0.00000000000E+00  0.54224648717E+03  0.12415541527E+04  0.11168820265E+04 0.  0.
        5    1    3    3  502    0 -0.48351349876E+03 -0.11979409661E+03 -0.94346184318E+01  0.49824394737E+03  0.46999998093E+01 0. -1.
       -5    1    3    3    0  502  0.48351349876E+03  0.11979409661E+03  0.55168110560E+03  0.74331020533E+03  0.46999998093E+01 0.  1.
</event>
<event>
 5   0  0.6412712E-04  0.1096983E+04  0.7818609E-02  0.9208138E-01
       -2   -1    0    0    0  501  0.00000000000E+00  0.00000000000E+00  0.19702369001E+03  0.19702369002E+03  0.25500000920E-02 0. -1.
        2   -1    0    0  501    0  0.00000000000E+00  0.00000000000E+00 -0.15269369330E+04  0.15269369330E+04  0.25500000920E-02 0.  1.
    10030    2    1    2    0    0  0.00000000000E+00  0.00000000000E+00 -0.13299132430E+04  0.17239606230E+04  0.10969826780E+04 0.  0.
        2    1    3    3  502    0 -0.50701052369E+03 -0.67151573475E+02 -0.97639972936E+03  0.11022365610E+04  0.25500000920E-02 0.  1.
       -2    1    3    3    0  502  0.50701052369E+03  0.67151573475E+02 -0.35351351363E+03  0.62172406201E+03  0.25500000920E-02 0. -1.
</event>
<event>
 5   0  0.5948818E-04  0.1100350E+04  0.7818609E-02  0.9204851E-01
       -2   -1    0    0    0  501  0.00000000000E+00  0.00000000000E+00  0.27569955165E+03  0.27569955166E+03  0.25500000920E-02 0.  1.
        2   -1    0    0  501    0  0.00000000000E+00  0.00000000000E+00 -0.10979073307E+04  0.10979073307E+04  0.25500000920E-02 0. -1.
    10030    2    1    2    0    0  0.00000000000E+00  0.00000000000E+00 -0.82220777907E+03  0.13736068824E+04  0.11003500513E+04 0.  0.
        3    1    3    3  502    0  0.21052718608E+03 -0.30975673691E+03 -0.91420294781E+03  0.98794634071E+03  0.10100000352E+00 0. -1.
       -3    1    3    3    0  502 -0.21052718608E+03  0.30975673691E+03  0.91995168736E+02  0.38566054168E+03  0.10100000352E+00 0.  1.
</event>
<event>
 5   0  0.6412712E-04  0.1098969E+04  0.7818609E-02  0.9206197E-01
        2   -1    0    0  501    0  0.00000000000E+00  0.00000000000E+00  0.57629956422E+03  0.57629956423E+03  0.25500000920E-02 0.  1.
       -2   -1    0    0    0  501  0.00000000000E+00  0.00000000000E+00 -0.52391698802E+03  0.52391698803E+03  0.25500000920E-02 0. -1.
    10030    2    1    2    0    0  0.00000000000E+00  0.00000000000E+00  0.52382576200E+02  0.11002165523E+04  0.10989688474E+04 0.  0.
        2    1    3    3  502    0  0.12320728651E+03  0.35778275873E+02 -0.50871206584E+03  0.52464091187E+03  0.25500000920E-02 0. -1.
       -2    1    3    3    0  502 -0.12320728651E+03 -0.35778275873E+02  0.56109464204E+03  0.57557564038E+03  0.25500000920E-02 0.  1.
</event>
<event>
 5   0  0.5948818E-04  0.1099210E+04  0.7818609E-02  0.9205962E-01
        2   -1    0    0  501    0  0.00000000000E+00  0.00000000000E+00  0.18500298775E+04  0.18500298775E+04  0.25500000920E-02 0.  1.
       -2   -1    0    0    0  501  0.00000000000E+00  0.00000000000E+00 -0.16327600590E+03  0.16327600592E+03  0.25500000920E-02 0. -1.
    10030    2    1    2    0    0  0.00000000000E+00  0.00000000000E+00  0.16867538716E+04  0.20133058834E+04  0.10992096965E+04 0.  0.
        3    1    3    3  502    0  0.21002272391E+03 -0.43200723564E+02 -0.83506689605E+02  0.23010698487E+03  0.10100000352E+00 0. -1.
       -3    1    3    3    0  502 -0.21002272391E+03  0.43200723564E+02  0.17702605612E+04  0.17831988986E+04  0.10100000352E+00 0.  1.
</event>
<event>
 5   0  0.5948818E-04  0.1100375E+04  0.7818609E-02  0.9204827E-01
       -2   -1    0    0    0  501  0.00000000000E+00  0.00000000000E+00  0.33366468922E+03  0.33366468923E+03  0.25500000920E-02 0.  1.
        2   -1    0    0  501    0  0.00000000000E+00  0.00000000000E+00 -0.90721681326E+03  0.90721681327E+03  0.25500000920E-02 0. -1.
    10030    2    1    2    0    0  0.00000000000E+00  0.00000000000E+00 -0.57355212404E+03  0.12408815025E+04  0.11003748744E+04 0.  0.
        3    1    3    3  502    0 -0.42644199981E+03  0.22264849195E+03 -0.58785249902E+03  0.75960233081E+03  0.10100000352E+00 0. -1.
       -3    1    3    3    0  502  0.42644199981E+03 -0.22264849195E+03  0.14300374980E+02  0.48127917168E+03  0.10100000352E+00 0.  1.
</event>
<event>
 5   0  0.6264830E-04  0.1103612E+04  0.7818609E-02  0.9201679E-01
        2   -1    0    0  501    0  0.00000000000E+00  0.00000000000E+00  0.49956533982E+03  0.49956533983E+03  0.25500000920E-02 0. -1.
       -2   -1    0    0    0  501  0.00000000000E+00  0.00000000000E+00 -0.60950945718E+03  0.60950945719E+03  0.25500000920E-02 0.  1.
    10030    2    1    2    0    0  0.00000000000E+00  0.00000000000E+00 -0.10994411736E+03  0.11090747970E+04  0.11036118867E+04 0.  0.
        4    1    3    3  502    0  0.15124180029E+03  0.19109311970E+03  0.44255181884E+03  0.50521716896E+03  0.12699999809E+01 0. -1.
       -4    1    3    3    0  502 -0.15124180029E+03 -0.19109311970E+03 -0.55249593620E+03  0.60385762806E+03  0.12699999809E+01 0.  1.
</event>
<event>
 5   0  0.3621403E-04  0.1105303E+04  0.7818609E-02  0.9200039E-01
        1   -1    0    0  501    0  0.00000000000E+00  0.00000000000E+00  0.47340822246E+03  0.47340822249E+03  0.50400001928E-02 0. -1.
       -1   -1    0    0    0  501  0.00000000000E+00  0.00000000000E+00 -0.64515903422E+03  0.64515903424E+03  0.50400001928E-02 0.  1.
    10030    2    1    2    0    0  0.00000000000E+00  0.00000000000E+00 -0.17175081176E+03  0.11185672567E+04  0.11053028393E+04 0.  0.
        3    1    3    3  502    0 -0.23030376145E+03 -0.90149904046E+02 -0.58602982117E+03  0.63608001795E+03  0.10100000352E+00 0.  1.
       -3    1    3    3    0  502  0.23030376145E+03  0.90149904046E+02  0.41427900941E+03  0.48248723877E+03  0.10100000352E+00 0. -1.
</event>
<event>
 5   0  0.3642161E-04  0.1095696E+04  0.7818609E-02  0.9209397E-01
       -1   -1    0    0    0  501  0.00000000000E+00  0.00000000000E+00  0.50834504864E+03  0.50834504866E+03  0.50400001928E-02 0. -1.
        1   -1    0    0  501    0  0.00000000000E+00  0.00000000000E+00 -0.59042020592E+03  0.59042020594E+03  0.50400001928E-02 0.  1.
    10030    2    1    2    0    0  0.00000000000E+00  0.00000000000E+00 -0.82075157283E+02  0.10987652546E+04  0.10956955568E+04 0.  0.
        2    1    3    3  502    0  0.27548561324E+03 -0.16804208591E+03  0.40292922738E+03  0.51621936037E+03  0.25500000920E-02 0. -1.
       -2    1    3    3    0  502 -0.27548561324E+03  0.16804208591E+03 -0.48500438466E+03  0.58254589423E+03  0.25500000920E-02 0.  1.
</event>
<event>
 5   0  0.3642161E-04  0.1103433E+04  0.7818609E-02  0.9201852E-01
       -1   -1    0    0    0  501  0.00000000000E+00  0.00000000000E+00  0.72259113220E+03  0.72259113221E+03  0.50400001928E-02 0. -1.
        1   -1    0    0  501    0  0.00000000000E+00  0.00000000000E+00 -0.42124948375E+03  0.42124948378E+03  0.50400001928E-02 0.  1.
    10030    2    1    2    0    0  0.00000000000E+00  0.00000000000E+00  0.30134164845E+03  0.11438406160E+04  0.11034330817E+04 0.  0.
        2    1    3    3  502    0  0.24175889985E+03  0.12953699379E+03  0.64691183918E+03  0.70265363166E+03  0.25500000920E-02 0. -1.
       -2    1    3    3    0  502 -0.24175889985E+03 -0.12953699379E+03 -0.34557019073E+03  0.44118698433E+03  0.25500000920E-02 0.  1.
</event>
<event>
 5   0  0.3621403E-04  0.1099743E+04  0.7818609E-02  0.9205442E-01
       -1   -1    0    0    0  501  0.00000000000E+00  0.00000000000E+00  0.44013944335E+03  0.44013944338E+03  0.50400001928E-02 0.  1.
        1   -1    0    0  501    0  0.00000000000E+00  0.00000000000E+00 -0.68696158022E+03  0.68696158024E+03  0.50400001928E-02 0. -1.
    10030    2    1    2    0    0  0.00000000000E+00  0.00000000000E+00 -0.24682213687E+03  0.11271010236E+04  0.10997434020E+04 0.  0.
        3    1    3    3  502    0 -0.54890227162E+03 -0.23649367200E+02 -0.14646238077E+03  0.56859848359E+03  0.10100000352E+00 0. -1.
       -3    1    3    3    0  502  0.54890227162E+03  0.23649367200E+02 -0.10035975610E+03  0.55850254002E+03  0.10100000352E+00 0.  1.
</event>
<event>
 5   0  0.6109149E-04  0.1099873E+04  0.7818609E-02  0.9205316E-01
       -2   -1    0    0    0  501  0.00000000000E+00  0.00000000000E+00  0.37445080181E+03  0.37445080182E+03  0.25500000920E-02 0.  1.
        2   -1    0    0  501    0  0.00000000000E+00  0.00000000000E+00 -0.80766320942E+03  0.80766320942E+03  0.25500000920E-02 0. -1.
    10030    2    1    2    0    0  0.00000000000E+00  0.00000000000E+00 -0.43321240761E+03  0.11821140112E+04  0.10998729679E+04 0.  0.
        1    1    3    3  502    0  0.47431993026E+02  0.23454040716E+03 -0.74877757770E+03  0.78608323825E+03  0.50400001928E-02 0. -1.
       -1    1    3    3    0  502 -0.47431993026E+02 -0.23454040716E+03  0.31556517010E+03  0.39603077299E+03  0.50400001928E-02 0.  1.
</event>
<event>
 5   0  0.3621403E-04  0.1080126E+04  0.7818609E-02  0.9224781E-01
       -1   -1    0    0    0  501  0.00000000000E+00  0.00000000000E+00  0.66136572334E+03  0.66136572336E+03  0.50400001928E-02 0. -1.
        1   -1    0    0  501    0  0.00000000000E+00  0.00000000000E+00 -0.44100903724E+03  0.44100903727E+03  0.50400001928E-02 0.  1.
    10030    2    1    2    0    0  0.00000000000E+00  0.00000000000E+00  0.22035668610E+03  0.11023747606E+04  0.10801264018E+04 0.  0.
        3    1    3    3  502    0 -0.51358216816E+03 -0.66753012951E+02  0.26645199067E+03  0.58242534434E+03  0.10100000352E+00 0. -1.
       -3    1    3    3    0  502  0.51358216816E+03  0.66753012951E+02 -0.46095304577E+02  0.51994941629E+03  0.10100000352E+00 0.  1.
</event>
<event>
 5   0  0.5948818E-04  0.1100128E+04  0.7818609E-02  0.9205068E-01
       -2   -1    0    0    0  501  0.00000000000E+00  0.00000000000E+00  0.96643229681E+02  0.96643229714E+02  0.25500000920E-02 0. -1.
        2   -1    0    0  501    0  0.00000000000E+00  0.00000000000E+00 -0.31307950510E+04  0.31307950510E+04  0.25500000920E-02 0.  1.
    10030    2    1    2    0    0  0.00000000000E+00  0.00000000000E+00 -0.30341518214E+04  0.32274382807E+04  0.11001275294E+04 0.  0.
        3    1    3    3  502    0  0.21170626258E+03 -0.28572325346E+03 -0.27482242791E+04  0.27711358714E+04  0.10100000352E+00 0.  1.
       -3    1    3    3    0  502 -0.21170626258E+03  0.28572325346E+03 -0.28592754227E+03  0.45630240939E+03  0.10100000352E+00 0. -1.
</event>
<event>
 5   0  0.3423758E-04  0.1099717E+04  0.7818609E-02  0.9205467E-01
        1   -1    0    0  501    0  0.00000000000E+00  0.00000000000E+00  0.83664816185E+03  0.83664816186E+03  0.50400001928E-02 0. -1.
       -1   -1    0    0    0  501  0.00000000000E+00  0.00000000000E+00 -0.36137602194E+03  0.36137602197E+03  0.50400001928E-02 0.  1.
    10030    2    1    2    0    0  0.00000000000E+00  0.00000000000E+00  0.47527213991E+03  0.11980241838E+04  0.10997173901E+04 0.  0.
        1    1    3    3  502    0 -0.48773584713E+03  0.19256645625E+03  0.57386864956E+02  0.52750483310E+03  0.50400001928E-02 0. -1.
       -1    1    3    3    0  502  0.48773584713E+03 -0.19256645625E+03  0.41788527496E+03  0.67051935073E+03  0.50400001928E-02 0.  1.
</event>
<event>
 5   0  0.6264830E-04  0.1099459E+04  0.7818609E-02  0.9205720E-01
       -2   -1    0    0    0  501  0.00000000000E+00  0.00000000000E+00  0.25796017793E+03  0.25796017795E+03  0.25500000920E-02 0. -1.
        2   -1    0    0  501    0  0.00000000000E+00  0.00000000000E+00 -0.11715075227E+04  0.11715075227E+04  0.25500000920E-02 0.  1.
    10030    2    1    2    0    0  0.00000000000E+00  0.00000000000E+00 -0.91354734478E+03  0.14294677007E+04  0.10994585741E+04 0.  0.
        4    1    3    3  502    0  0.36766284823E+03 -0.10401172632E+03 -0.97063354293E+03  0.10431325403E+04  0.12699999809E+01 0.  1.
       -4    1    3    3    0  502 -0.36766284823E+03  0.10401172632E+03  0.57086198146E+02  0.38633516032E+03  0.12699999809E+01 0. -1.
</event>
<event>
 5   0  0.6264830E-04  0.1100393E+04  0.7818609E-02  0.9204809E-01
       -2   -1    0    0    0  501  0.00000000000E+00  0.00000000000E+00  0.24872488999E+03  0.24872489000E+03  0.25500000920E-02 0.  1.
        2   -1    0    0  501    0  0.00000000000E+00  0.00000000000E+00 -0.12170728913E+04  0.12170728913E+04  0.25500000920E-02 0. -1.
    10030    2    1    2    0    0  0.00000000000E+00  0.00000000000E+00 -0.96834800130E+03  0.14657977813E+04  0.11003932406E+04 0.  0.
        4    1    3    3  502    0 -0.12009596303E+03 -0.53691068173E+03 -0.47843101160E+03  0.72910490757E+03  0.12699999809E+01 0.  1.
       -4    1    3    3    0  502  0.12009596303E+03  0.53691068173E+03 -0.48991698971E+03  0.73669287372E+03  0.12699999809E+01 0. -1.
</event>
<event>
 5   0  0.3523525E-04  0.1101418E+04  0.7818609E-02  0.9203811E-01
       -1   -1    0    0    0  501  0.00000000000E+00  0.00000000000E+00  0.18864388910E+03  0.18864388916E+03  0.50400001928E-02 0.  1.
        1   -1    0    0  501    0  0.00000000000E+00  0.00000000000E+00 -0.16076881507E+04  0.16076881507E+04  0.50400001928E-02 0. -1.
    10030    2    1    2    0    0  0.00000000000E+00  0.00000000000E+00 -0.14190442616E+04  0.17963320399E+04  0.11014182589E+04 0.  0.
        5    1    3    3  502    0 -0.29310677493E+03  0.17827732065E+03 -0.69655762938E+01  0.34316904555E+03  0.46999998093E+01 0.  1.
       -5    1    3    3    0  502  0.29310677493E+03 -0.17827732065E+03 -0.14120786853E+04  0.14531629944E+04  0.46999998093E+01 0. -1.
</event>
<event>
 5   0  0.3621403E-04  0.1096626E+04  0.7818609E-02  0.9208486E-01
        1   -1    0    0  501    0  0.00000000000E+00  0.00000000000E+00  0.11849192308E+04  0.11849192308E+04  0.50400001928E-02 0. -1.
       -1   -1    0    0    0  501  0.00000000000E+00  0.00000000000E+00 -0.25372805837E+03  0.25372805842E+03  0.50400001928E-02 0.  1.
    10030    2    1    2    0    0  0.00000000000E+00  0.00000000000E+00  0.93119117245E+03  0.14386472892E+04  0.10966262003E+04 0.  0.
        3    1    3    3  502    0  0.15025676293E+03 -0.17509147168E+02 -0.22581076550E+03  0.27179804462E+03  0.10100000352E+00 0.  1.
       -3    1    3    3    0  502 -0.15025676293E+03  0.17509147168E+02  0.11570019380E+04  0.11668492446E+04  0.10100000352E+00 0. -1.
</event>
<event>
 5   0  0.3642161E-04  0.1108112E+04  0.7818609E-02  0.9197322E-01
       -1   -1    0    0    0  501  0.00000000000E+00  0.00000000000E+00  0.44536177345E+03  0.44536177348E+03  0.50400001928E-02 0.  1.
        1   -1    0    0  501    0  0.00000000000E+00  0.00000000000E+00 -0.68927751657E+03  0.68927751659E+03  0.50400001928E-02 0. -1.
    10030    2    1    2    0    0  0.00000000000E+00  0.00000000000E+00 -0.24391574312E+03  0.11346392901E+04  0.11081116500E+04 0.  0.
        2    1    3    3  502    0  0.54834447684E+03  0.59994569663E+02 -0.68783523795E+02  0.55588864607E+03  0.25500000920E-02 0.  1.
       -2    1    3    3    0  502 -0.54834447684E+03 -0.59994569663E+02 -0.17513221933E+03  0.57875064400E+03  0.25500000920E-02 0. -1.
</event>
<event>
 5   0  0.6264830E-04  0.1099339E+04  0.7818609E-02  0.9205836E-01
       -2   -1    0    0    0  501  0.00000000000E+00  0.00000000000E+00  0.46015652252E+03  0.46015652252E+03  0.25500000920E-02 0.  1.
        2   -1    0    0  501    0  0.00000000000E+00  0.00000000000E+00 -0.65659560296E+03  0.65659560296E+03  0.25500000920E-02 0. -1.
    10030    2    1    2    0    0  0.00000000000E+00  0.00000000000E+00 -0.19643908044E+03  0.11167521255E+04  0.10993393459E+04 0.  0.
        4    1    3    3  502    0  0.19532651719E+03 -0.39337942856E+03 -0.43396221439E+03  0.61743391513E+03  0.12699999809E+01 0. -1.
       -4    1    3    3    0  502 -0.19532651719E+03  0.39337942856E+03  0.23752313395E+03  0.49931821036E+03  0.12699999809E+01 0.  1.
</event>
<event>
 5   0  0.3621403E-04  0.1103712E+04  0.7818609E-02  0.9201581E-01
        1   -1    0    0  501    0  0.00000000000E+00  0.00000000000E+00  0.91809279448E+03  0.91809279449E+03  0.50400001928E-02 0.  1.
       -1   -1    0    0    0  501  0.00000000000E+00  0.00000000000E+00 -0.33171509060E+03  0.33171509063E+03  0.50400001928E-02 0. -1.
    10030    2    1    2    0    0  0.00000000000E+00  0.00000000000E+00  0.58637770388E+03  0.12498078851E+04  0.11037123439E+04 0.  0.
        3    1    3    3  502    0 -0.21069500756E+03  0.50694974764E+03  0.22958657101E+03  0.59506338875E+03  0.10100000352E+00 0. -1.
       -3    1    3    3    0  502  0.21069500756E+03 -0.50694974764E+03  0.35679113287E+03  0.65474449638E+03  0.10100000352E+00 0.  1.
</event>
<event>
 5   0  0.6412712E-04  0.1100142E+04  0.7818609E-02  0.9205053E-01
        2   -1    0    0  501    0  0.00000000000E+00  0.00000000000E+00  0.11346523570E+04  0.11346523570E+04  0.25500000920E-02 0. -1.
       -2   -1    0    0    0  501  0.00000000000E+00  0.00000000000E+00 -0.26667035401E+03  0.26667035402E+03  0.25500000920E-02 0.  1.
    10030    2    1    2    0    0  0.00000000000E+00  0.00000000000E+00  0.86798200301E+03  0.14013227110E+04  0.11001420740E+04 0.  0.
        2    1    3    3  502    0  0.34282762810E+03  0.32755570384E+03  0.78917426986E+03  0.92066256029E+03  0.25500000920E-02 0.  1.
       -2    1    3    3    0  502 -0.34282762810E+03 -0.32755570384E+03  0.78807733151E+02  0.48066015075E+03  0.25500000920E-02 0. -1.
</event>
<event>
 5   0  0.6264830E-04  0.1100009E+04  0.7818609E-02  0.9205183E-01
       -2   -1    0    0    0  501  0.00000000000E+00  0.00000000000E+00  0.13813422914E+04  0.13813422914E+04  0.25500000920E-02 0.  1.
        2   -1    0    0  501    0  0.00000000000E+00  0.00000000000E+00 -0.21899358026E+03  0.21899358028E+03  0.25500000920E-02 0. -1.
    10030    2    1    2    0    0  0.00000000000E+00  0.00000000000E+00  0.11623487112E+04  0.16003358717E+04  0.11000092617E+04 0.  0.
        4    1    3    3  502    0 -0.13166366001E+03 -0.52405151792E+03  0.73052165129E+03  0.90864118810E+03  0.12699999809E+01 0.  1.
       -4    1    3    3    0  502  0.13166366001E+03  0.52405151792E+03  0.43182705987E+03  0.69169468361E+03  0.12699999809E+01 0. -1.
</event>
<event>
 5   0  0.3523525E-04  0.1099537E+04  0.7818609E-02  0.9205643E-01
        1   -1    0    0  501    0  0.00000000000E+00  0.00000000000E+00  0.11453615778E+04  0.11453615778E+04  0.50400001928E-02 0. -1.
       -1   -1    0    0    0  501  0.00000000000E+00  0.00000000000E+00 -0.26388666117E+03  0.26388666121E+03  0.50400001928E-02 0.  1.
    10030    2    1    2    0    0  0.00000000000E+00  0.00000000000E+00  0.88147491663E+03  0.14092482390E+04  0.10995374348E+04 0.  0.
        5    1    3    3  502    0  0.49104095979E+03 -0.24465916306E+03  0.48594662305E+03  0.73290213584E+03  0.46999998093E+01 0.  1.
       -5    1    3    3    0  502 -0.49104095979E+03  0.24465916306E+03  0.39552829357E+03  0.67634610318E+03  0.46999998093E+01 0. -1.
</event>
<event>
 5   0  0.2403875E-04  0.1099065E+04  0.7818609E-02  0.9206103E-01
        4   -1    0    0  501    0  0.00000000000E+00  0.00000000000E+00  0.44605815376E+03  0.44605996170E+03  0.12699999809E+01 0.  1.
       -4   -1    0    0    0  501  0.00000000000E+00  0.00000000000E+00 -0.67700685449E+03  0.67700804569E+03  0.12699999809E+01 0. -1.
    10030    2    1    2    0    0  0.00000000000E+00  0.00000000000E+00 -0.23094870073E+03  0.11230680074E+04  0.10990652605E+04 0.  0.
        1    1    3    3  502    0 -0.16597965719E+03 -0.15642599181E+03 -0.62636103827E+03  0.66659319514E+03  0.50400001928E-02 0. -1.
       -1    1    3    3    0  502  0.16597965719E+03  0.15642599181E+03  0.39541233754E+03  0.45647481225E+03  0.50400001928E-02 0.  1.
</event>
<event>
 5   0  0.6412712E-04  0.1102350E+04  0.7818609E-02  0.9202904E-01
       -2   -1    0    0    0  501  0.00000000000E+00  0.00000000000E+00  0.59878405791E+03  0.59878405792E+03  0.25500000920E-02 0. -1.
        2   -1    0    0  501    0  0.00000000000E+00  0.00000000000E+00 -0.50735137593E+03  0.50735137593E+03  0.25500000920E-02 0.  1.
    10030    2    1    2    0    0  0.00000000000E+00  0.00000000000E+00  0.91432681986E+02  0.11061354339E+04  0.11023500636E+04 0.  0.
        2    1    3    3  502    0 -0.10216664074E+03  0.33447409856E+03  0.47318739585E+03  0.58840229154E+03  0.25500000920E-02 0. -1.
       -2    1    3    3    0  502  0.10216664074E+03 -0.33447409856E+03 -0.38175471386E+03  0.51773314232E+03  0.25500000920E-02 0.  1.
</event>
<event>
 5   0  0.5948818E-04  0.1098785E+04  0.7818609E-02  0.9206376E-01
       -2   -1    0    0    0  501  0.00000000000E+00  0.00000000000E+00  0.32449472037E+03  0.32449472038E+03  0.25500000920E-02 0. -1.
        2   -1    0    0  501    0  0.00000000000E+00  0.00000000000E+00 -0.93016114492E+03  0.93016114493E+03  0.25500000920E-02 0.  1.
    10030    2    1    2    0    0  0.00000000000E+00  0.00000000000E+00 -0.60566642455E+03  0.12546558653E+04  0.10987854761E+04 0.  0.
        3    1    3    3  502    0 -0.49180401799E+03  0.23155782840E+03 -0.39376798388E+03  0.67122533871E+03  0.10100000352E+00 0.  1.
       -3    1    3    3    0  502  0.49180401799E+03 -0.23155782840E+03 -0.21189844067E+03  0.58343052659E+03  0.10100000352E+00 0. -1.
</event>
<event>
 5   0  0.6245176E-04  0.1097511E+04  0.7818609E-02  0.9207621E-01
        2   -1    0    0  501    0  0.00000000000E+00  0.00000000000E+00  0.64687508756E+03  0.64687508757E+03  0.25500000920E-02 0.  1.
       -2   -1    0    0    0  501  0.00000000000E+00  0.00000000000E+00 -0.46551873548E+03  0.46551873549E+03  0.25500000920E-02 0. -1.
    10030    2    1    2    0    0  0.00000000000E+00  0.00000000000E+00  0.18135635208E+03  0.11123938231E+04  0.10975107704E+04 0.  0.
        5    1    3    3  502    0 -0.37626926004E+03  0.16881009885E+03 -0.27621817844E+03  0.49638087960E+03  0.46999998093E+01 0. -1.
       -5    1    3    3    0  502  0.37626926004E+03 -0.16881009885E+03  0.45757453052E+03  0.61601294346E+03  0.46999998093E+01 0.  1.
</event>
<event>
 5   0  0.3642161E-04  0.1100838E+04  0.7818609E-02  0.9204375E-01
       -1   -1    0    0    0  501  0.00000000000E+00  0.00000000000E+00  0.12824762818E+04  0.12824762818E+04  0.50400001928E-02 0.  1.
        1   -1    0    0  501    0  0.00000000000E+00  0.00000000000E+00 -0.23623150854E+03  0.23623150859E+03  0.50400001928E-02 0. -1.
    10030    2    1    2    0    0  0.00000000000E+00  0.00000000000E+00  0.10462447732E+04  0.15187077904E+04  0.11008384200E+04 0.  0.
        2    1    3    3  502    0  0.35097957318E+03  0.30574698478E+03  0.92838776271E+03  0.10385430744E+04  0.25500000920E-02 0.  1.
       -2    1    3    3    0  502 -0.35097957318E+03 -0.30574698478E+03  0.11785701052E+03  0.48016471594E+03  0.25500000920E-02 0. -1.
</event>
<event>
 5   0  0.6412712E-04  0.1099420E+04  0.7818609E-02  0.9205758E-01
        2   -1    0    0  501    0  0.00000000000E+00  0.00000000000E+00  0.14311214202E+04  0.14311214202E+04  0.25500000920E-02 0. -1.
       -2   -1    0    0    0  501  0.00000000000E+00  0.00000000000E+00 -0.21114976468E+03  0.21114976469E+03  0.25500000920E-02 0.  1.
    10030    2    1    2    0    0  0.00000000000E+00  0.00000000000E+00  0.12199716555E+04  0.16422711849E+04  0.10994197581E+04 0.  0.
        2    1    3    3  502    0  0.49701144108E+03  0.45062558224E+02  0.95429692148E+03  0.10769092910E+04  0.25500000920E-02 0. -1.
       -2    1    3    3    0  502 -0.49701144108E+03 -0.45062558224E+02  0.26567473400E+03  0.56536189384E+03  0.25500000920E-02 0.  1.
</event>
<event>
 5   0  0.3642161E-04  0.1101581E+04  0.7818609E-02  0.9203652E-01
       -1   -1    0    0    0  501  0.00000000000E+00  0.00000000000E+00  0.53705491792E+03  0.53705491794E+03  0.50400001928E-02 0.  1.
        1   -1    0    0  501    0  0.00000000000E+00  0.00000000000E+00 -0.56487782584E+03  0.56487782586E+03  0.50400001928E-02 0. -1.
    10030    2    1    2    0    0  0.00000000000E+00  0.00000000000E+00 -0.27822907921E+02  0.11019327438E+04  0.11015814349E+04 0.  0.
        2    1    3    3  502    0 -0.44080875772E+03 -0.70463489607E+02 -0.33664873720E+03  0.55911522651E+03  0.25500000920E-02 0. -1.
       -2    1    3    3    0  502  0.44080875772E+03  0.70463489607E+02  0.30882582928E+03  0.54281751730E+03  0.25500000920E-02 0.  1.
</event>
<event>
 5   0  0.6245176E-04  0.1090976E+04  0.7818609E-02  0.9214033E-01
        2   -1    0    0  501    0  0.00000000000E+00  0.00000000000E+00  0.15304039798E+04  0.15304039798E+04  0.25500000920E-02 0. -1.
       -2   -1    0    0    0  501  0.00000000000E+00  0.00000000000E+00 -0.19443029152E+03  0.19443029154E+03  0.25500000920E-02 0.  1.
    10030    2    1    2    0    0  0.00000000000E+00  0.00000000000E+00  0.13359736882E+04  0.17248342713E+04  0.10909755120E+04 0.  0.
        5    1    3    3  502    0  0.12742312592E+03 -0.35858339002E+03  0.12858250838E+04  0.13409649275E+04  0.46999998093E+01 0. -1.
       -5    1    3    3    0  502 -0.12742312592E+03  0.35858339002E+03  0.50148604471E+02  0.38386934385E+03  0.46999998093E+01 0.  1.
</event>
<event>
 5   0  0.3657529E-04  0.1096142E+04  0.7818609E-02  0.9208961E-01
        1   -1    0    0  501    0  0.00000000000E+00  0.00000000000E+00  0.26243724765E+03  0.26243724770E+03  0.50400001928E-02 0.  1.
       -1   -1    0    0    0  501  0.00000000000E+00  0.00000000000E+00 -0.11445844381E+04  0.11445844381E+04  0.50400001928E-02 0. -1.
    10030    2    1    2    0    0  0.00000000000E+00  0.00000000000E+00 -0.88214719043E+03  0.14070216858E+04  0.10961415779E+04 0.  0.
        4    1    3    3  502    0 -0.26602361199E+03  0.43331579957E+03 -0.70366216207E+03  0.86814353394E+03  0.12699999809E+01 0. -1.
       -4    1    3    3    0  502  0.26602361199E+03 -0.43331579957E+03 -0.17848502837E+03  0.53887815186E+03  0.12699999809E+01 0.  1.
</event>
<event>
 5   0  0.3642161E-04  0.1099269E+04  0.7818609E-02  0.9205905E-01
       -1   -1    0    0    0  501  0.00000000000E+00  0.00000000000E+00  0.13198274478E+04  0.13198274478E+04  0.50400001928E-02 0. -1.
        1   -1    0    0  501    0  0.00000000000E+00  0.00000000000E+00 -0.22889210029E+03  0.22889210035E+03  0.50400001928E-02 0.  1.
    10030    2    1    2    0    0  0.00000000000E+00  0.00000000000E+00  0.10909353475E+04  0.15487195481E+04  0.10992689873E+04 0.  0.
        2    1    3    3  502    0  0.14201090926E+03  0.40188948019E+03  0.10343570334E+04  0.11187388994E+04  0.25500000920E-02 0. -1.
       -2    1    3    3    0  502 -0.14201090926E+03 -0.40188948019E+03  0.56578314142E+02  0.42998064872E+03  0.25500000920E-02 0.  1.
</event>
<event>
 5   0  0.3423758E-04  0.1100532E+04  0.7818609E-02  0.9204673E-01
        1   -1    0    0  501    0  0.00000000000E+00  0.00000000000E+00  0.82536167257E+03  0.82536167259E+03  0.50400001928E-02 0.  1.
       -1   -1    0    0    0  501  0.00000000000E+00  0.00000000000E+00 -0.36686088110E+03  0.36686088114E+03  0.50400001928E-02 0. -1.
    10030    2    1    2    0    0  0.00000000000E+00  0.00000000000E+00  0.45850079147E+03  0.11922225537E+04  0.11005324356E+04 0.  0.
        1    1    3    3  502    0  0.44664447348E+03 -0.26119696688E+03  0.43214498696E+03  0.67413977110E+03  0.50400001928E-02 0.  1.
       -1    1    3    3    0  502 -0.44664447348E+03  0.26119696688E+03  0.26355804511E+02  0.51808278263E+03  0.50400001928E-02 0. -1.
</event>
<event>
 5   0  0.6245176E-04  0.1085143E+04  0.7818609E-02  0.9219795E-01
        2   -1    0    0  501    0  0.00000000000E+00  0.00000000000E+00  0.81273481909E+03  0.81273481910E+03  0.25500000920E-02 0. -1.
       -2   -1    0    0    0  501  0.00000000000E+00  0.00000000000E+00 -0.36221356452E+03  0.36221356453E+03  0.25500000920E-02 0.  1.
    10030    2    1    2    0    0  0.00000000000E+00  0.00000000000E+00  0.45052125457E+03  0.11749483836E+04  0.10851425268E+04 0.  0.
        5    1    3    3  502    0  0.19836974262E+03  0.50498506322E+03  0.22416871428E+03  0.58705550957E+03  0.46999998093E+01 0.  1.
       -5    1    3    3    0  502 -0.19836974262E+03 -0.50498506322E+03  0.22635254029E+03  0.58789287405E+03  0.46999998093E+01 0. -1.
</event>
<event>
 5   0  0.3523525E-04  0.1099889E+04  0.7818609E-02  0.9205300E-01
       -1   -1    0    0    0  501  0.00000000000E+00  0.00000000000E+00  0.45000348214E+03  0.45000348217E+03  0.50400001928E-02 0.  1.
        1   -1    0    0  501    0  0.00000000000E+00  0.00000000000E+00 -0.67208184618E+03  0.67208184620E+03  0.50400001928E-02 0. -1.
    10030    2    1    2    0    0  0.00000000000E+00  0.00000000000E+00 -0.22207836404E+03  0.11220853284E+04  0.10998893964E+04 0.  0.
        5    1    3    3  502    0  0.17731092047E+03 -0.79425182000E+02  0.41380316092E+03  0.45716809604E+03  0.46999998093E+01 0.  1.
       -5    1    3    3    0  502 -0.17731092047E+03  0.79425182000E+02 -0.63588152497E+03  0.66491723233E+03  0.46999998093E+01 0. -1.
</event>
<event>
 5   0  0.3621403E-04  0.1067893E+04  0.7818609E-02  0.9237063E-01
        1   -1    0    0  501    0  0.00000000000E+00  0.00000000000E+00  0.15428294508E+04  0.15428294508E+04  0.50400001928E-02 0. -1.
       -1   -1    0    0    0  501  0.00000000000E+00  0.00000000000E+00 -0.18478960956E+03  0.18478960963E+03  0.50400001928E-02 0.  1.
    10030    2    1    2    0    0  0.00000000000E+00  0.00000000000E+00  0.13580398412E+04  0.17276190604E+04  0.10678929757E+04 0.  0.
        3    1    3    3  502    0 -0.12741836993E+03 -0.20343152190E+02 -0.15918769572E+03  0.20491465908E+03  0.10100000352E+00 0.  1.
       -3    1    3    3    0  502  0.12741836993E+03  0.20343152190E+02  0.15172275369E+04  0.15227044014E+04  0.10100000352E+00 0. -1.
</event>
<event>
 5   0  0.6109149E-04  0.1098202E+04  0.7818609E-02  0.9206946E-01
       -2   -1    0    0    0  501  0.00000000000E+00  0.00000000000E+00  0.27125411123E+03  0.27125411124E+03  0.25500000920E-02 0.  1.
        2   -1    0    0  501    0  0.00000000000E+00  0.00000000000E+00 -0.11115481811E+04  0.11115481811E+04  0.25500000920E-02 0. -1.
    10030    2    1    2    0    0  0.00000000000E+00  0.00000000000E+00 -0.84029406989E+03  0.13828022924E+04  0.10982021926E+04 0.  0.
        1    1    3    3  502    0 -0.20460142182E+03  0.50874279594E+03 -0.45644553450E+03  0.71345882868E+03  0.50400001928E-02 0. -1.
       -1    1    3    3    0  502  0.20460142182E+03 -0.50874279594E+03 -0.38384853539E+03  0.66934346369E+03  0.50400001928E-02 0.  1.
</event>
<event>
 5   0  0.3423758E-04  0.1099110E+04  0.7818609E-02  0.9206060E-01
       -1   -1    0    0    0  501  0.00000000000E+00  0.00000000000E+00  0.68938556243E+03  0.68938556244E+03  0.50400001928E-02 0.  1.
        1   -1    0    0  501    0  0.00000000000E+00  0.00000000000E+00 -0.43808693113E+03  0.43808693116E+03  0.50400001928E-02 0. -1.
    10030    2    1    2    0    0  0.00000000000E+00  0.00000000000E+00  0.25129863130E+03  0.11274724936E+04  0.10991101955E+04 0.  0.
        1    1    3    3  502    0  0.40775158607E+03 -0.24704561430E+03 -0.15475008955E+03  0.50123894674E+03  0.50400001928E-02 0. -1.
       -1    1    3    3    0  502 -0.40775158607E+03  0.24704561430E+03  0.40604872085E+03  0.62623354686E+03  0.50400001928E-02 0.  1.
</event>
<event>
 5   0  0.5948818E-04  0.1099328E+04  0.7818609E-02  0.9205847E-01
        2   -1    0    0  501    0  0.00000000000E+00  0.00000000000E+00  0.28483110422E+03  0.28483110423E+03  0.25500000920E-02 0. -1.
       -2   -1    0    0    0  501  0.00000000000E+00  0.00000000000E+00 -0.10607352466E+04  0.10607352466E+04  0.25500000920E-02 0.  1.
    10030    2    1    2    0    0  0.00000000000E+00  0.00000000000E+00 -0.77590414235E+03  0.13455663508E+04  0.10993277793E+04 0.  0.
        3    1    3    3  502    0 -0.26846693909E+03  0.11921902636E+03 -0.95660411687E+03  0.10006893225E+04  0.10100000352E+00 0.  1.
       -3    1    3    3    0  502  0.26846693909E+03 -0.11921902636E+03  0.18069997452E+03  0.34487702826E+03  0.10100000352E+00 0. -1.
</event>
<event>
 5   0  0.3423758E-04  0.1105286E+04  0.7818609E-02  0.9200055E-01
        1   -1    0    0  501    0  0.00000000000E+00  0.00000000000E+00  0.11159924437E+04  0.11159924438E+04  0.50400001928E-02 0. -1.
       -1   -1    0    0    0  501  0.00000000000E+00  0.00000000000E+00 -0.27367076212E+03  0.27367076217E+03  0.50400001928E-02 0.  1.
    10030    2    1    2    0    0  0.00000000000E+00  0.00000000000E+00  0.84232168162E+03  0.13896632059E+04  0.11052863930E+04 0.  0.
        1    1    3    3  502    0  0.27906193767E+03  0.90752364429E+02  0.10099461538E+04  0.10517142151E+04  0.50400001928E-02 0. -1.
       -1    1    3    3    0  502 -0.27906193767E+03 -0.90752364429E+02 -0.16762447215E+03  0.33794899082E+03  0.50400001928E-02 0.  1.
</event>
<event>
 5   0  0.3657529E-04  0.1098879E+04  0.7818609E-02  0.9206286E-01
       -1   -1    0    0    0  501  0.00000000000E+00  0.00000000000E+00  0.48331801432E+03  0.48331801434E+03  0.50400001928E-02 0. -1.
        1   -1    0    0  501    0  0.00000000000E+00  0.00000000000E+00 -0.62460647519E+03  0.62460647521E+03  0.50400001928E-02 0.  1.
    10030    2    1    2    0    0  0.00000000000E+00  0.00000000000E+00 -0.14128846088E+03  0.11079244896E+04  0.10988786309E+04 0.  0.
        4    1    3    3  502    0  0.47329658954E+03 -0.11274501613E+03 -0.32801178631E+03  0.58678313302E+03  0.12699999809E+01 0.  1.
       -4    1    3    3    0  502 -0.47329658954E+03  0.11274501613E+03  0.18672332544E+03  0.52114135654E+03  0.12699999809E+01 0. -1.
</event>
<event>
 5   0  0.6109149E-04  0.1099565E+04  0.7818609E-02  0.9205616E-01
       -2   -1    0    0    0  501  0.00000000000E+00  0.00000000000E+00  0.42218360270E+03  0.42218360271E+03  0.25500000920E-02 0. -1.
        2   -1    0    0  501    0  0.00000000000E+00  0.00000000000E+00 -0.71594629610E+03  0.71594629610E+03  0.25500000920E-02 0.  1.
    10030    2    1    2    0    0  0.00000000000E+00  0.00000000000E+00 -0.29376269339E+03  0.11381298988E+04  0.10995649806E+04 0.  0.
        1    1    3    3  502    0 -0.43830032745E+01 -0.46330110410E+03  0.15946117027E+03  0.48999488633E+03  0.50400001928E-02 0. -1.
       -1    1    3    3    0  502  0.43830032745E+01  0.46330110410E+03 -0.45322386367E+03  0.64813501248E+03  0.50400001928E-02 0.  1.
</event>
<event>
 5   0  0.3423758E-04  0.1100028E+04  0.7818609E-02  0.9205165E-01
        1   -1    0    0  501    0  0.00000000000E+00  0.00000000000E+00  0.50395260833E+03  0.50395260836E+03  0.50400001928E-02 0. -1.
       -1   -1    0    0    0  501  0.00000000000E+00  0.00000000000E+00 -0.60028520735E+03  0.60028520737E+03  0.50400001928E-02 0.  1.
    10030    2    1    2    0    0  0.00000000000E+00  0.00000000000E+00 -0.96332599018E+02  0.11042378157E+04  0.11000278106E+04 0.  0.
        1    1    3    3  502    0  0.53636066194E+03 -0.10560884082E+03  0.12723155235E+02  0.54680697293E+03  0.50400001928E-02 0.  1.
       -1    1    3    3    0  502 -0.53636066194E+03  0.10560884082E+03 -0.10905575425E+03  0.55743084280E+03  0.50400001928E-02 0. -1.
</event>
<event>
 5   0  0.3423758E-04  0.1100518E+04  0.7818609E-02  0.9204687E-01
        1   -1    0    0  501    0  0.00000000000E+00  0.00000000000E+00  0.84167889785E+03  0.84167889786E+03  0.50400001928E-02 0. -1.
       -1   -1    0    0    0  501  0.00000000000E+00  0.00000000000E+00 -0.35973955629E+03  0.35973955633E+03  0.50400001928E-02 0.  1.
    10030    2    1    2    0    0  0.00000000000E+00  0.00000000000E+00  0.48193934155E+03  0.12014184542E+04  0.11005184111E+04 0.  0.
        1    1    3    3  502    0 -0.41245940909E+03  0.45945534661E+02 -0.15347656353E+03  0.44248029547E+03  0.50400001928E-02 0.  1.
       -1    1    3    3    0  502  0.41245940909E+03 -0.45945534661E+02  0.63541590508E+03  0.75893815872E+03  0.50400001928E-02 0. -1.
</event>
<event>
 5   0  0.5948818E-04  0.1099322E+04  0.7818609E-02  0.9205853E-01
        2   -1    0    0  501    0  0.00000000000E+00  0.00000000000E+00  0.94188625646E+03  0.94188625647E+03  0.25500000920E-02 0. -1.
       -2   -1    0    0    0  501  0.00000000000E+00  0.00000000000E+00 -0.32076838339E+03  0.32076838340E+03  0.25500000920E-02 0.  1.
    10030    2    1    2    0    0  0.00000000000E+00  0.00000000000E+00  0.62111787308E+03  0.12626546399E+04  0.10993222127E+04 0.  0.
        3    1    3    3  502    0  0.80971560516E+02 -0.38711034522E+03  0.74900275776E+03  0.84700410526E+03  0.10100000352E+00 0. -1.
       -3    1    3    3    0  502 -0.80971560516E+02  0.38711034522E+03 -0.12788488468E+03  0.41565053461E+03  0.10100000352E+00 0.  1.
</event>
<event>
 5   0  0.6245176E-04  0.1099586E+04  0.7818609E-02  0.9205595E-01
        2   -1    0    0  501    0  0.00000000000E+00  0.00000000000E+00  0.93258502604E+03  0.93258502605E+03  0.25500000920E-02 0. -1.
       -2   -1    0    0    0  501  0.00000000000E+00  0.00000000000E+00 -0.32412309404E+03  0.32412309405E+03  0.25500000920E-02 0.  1.
    10030    2    1    2    0    0  0.00000000000E+00  0.00000000000E+00  0.60846193200E+03  0.12567081201E+04  0.10995860023E+04 0.  0.
        5    1    3    3  502    0  0.18419589156E+03 -0.49315720379E+02  0.89355790252E+03  0.91368921516E+03  0.46999998093E+01 0. -1.
       -5    1    3    3    0  502 -0.18419589156E+03  0.49315720379E+02 -0.28509597051E+03  0.34301890494E+03  0.46999998093E+01 0.  1.
</event>
<event>
 5   0  0.6412712E-04  0.1093777E+04  0.7818609E-02  0.9211279E-01
       -2   -1    0    0    0  501  0.00000000000E+00  0.00000000000E+00  0.40876157647E+03  0.40876157648E+03  0.25500000920E-02 0. -1.
        2   -1    0    0  501    0  0.00000000000E+00  0.00000000000E+00 -0.73169065940E+03  0.73169065940E+03  0.25500000920E-02 0.  1.
    10030    2    1    2    0    0  0.00000000000E+00  0.00000000000E+00 -0.32292908292E+03  0.11404522359E+04  0.10937769927E+04 0.  0.
        2    1    3    3  502    0  0.36713693754E+03 -0.12950134714E+02 -0.58388216090E+03  0.68983738281E+03  0.25500000920E-02 0.  1.
       -2    1    3    3    0  502 -0.36713693754E+03  0.12950134714E+02  0.26095307798E+03  0.45061485307E+03  0.25500000920E-02 0. -1.
</event>
<event>
 5   0  0.6412712E-04  0.1097709E+04  0.7818609E-02  0.9207428E-01
       -2   -1    0    0    0  501  0.00000000000E+00  0.00000000000E+00  0.29142347330E+03  0.29142347331E+03  0.25500000920E-02 0.  1.
        2   -1    0    0  501    0  0.00000000000E+00  0.00000000000E+00 -0.10336889784E+04  0.10336889784E+04  0.25500000920E-02 0. -1.
    10030    2    1    2    0    0  0.00000000000E+00  0.00000000000E+00 -0.74226550514E+03  0.13251124518E+04  0.10977089458E+04 0.  0.
        2    1    3    3  502    0  0.15938496396E+03 -0.44940523053E+03 -0.69923351290E+03  0.84634279907E+03  0.25500000920E-02 0. -1.
       -2    1    3    3    0  502 -0.15938496396E+03  0.44940523053E+03 -0.43031992236E+02  0.47876965268E+03  0.25500000920E-02 0.  1.
</event>
<event>
 5   0  0.5948818E-04  0.1099253E+04  0.7818609E-02  0.9205921E-01
       -2   -1    0    0    0  501  0.00000000000E+00  0.00000000000E+00  0.16067567954E+04  0.16067567954E+04  0.25500000920E-02 0.  1.
        2   -1    0    0  501    0  0.00000000000E+00  0.00000000000E+00 -0.18801171131E+03  0.18801171133E+03  0.25500000920E-02 0. -1.
    10030    2    1    2    0    0  0.00000000000E+00  0.00000000000E+00  0.14187450841E+04  0.17947685068E+04  0.10992526457E+04 0.  0.
        3    1    3    3  502    0 -0.33793224443E+03  0.34746754568E+03  0.28625876128E+03  0.56291738802E+03  0.10100000352E+00 0. -1.
       -3    1    3    3    0  502  0.33793224443E+03 -0.34746754568E+03  0.11324863229E+04  0.12318511188E+04  0.10100000352E+00 0.  1.
</event>
<event>
 5   0  0.3642161E-04  0.1100124E+04  0.7818609E-02  0.9205071E-01
       -1   -1    0    0    0  501  0.00000000000E+00  0.00000000000E+00  0.44029636568E+03  0.44029636571E+03  0.50400001928E-02 0.  1.
        1   -1    0    0  501    0  0.00000000000E+00  0.00000000000E+00 -0.68719208817E+03  0.68719208819E+03  0.50400001928E-02 0. -1.
    10030    2    1    2    0    0  0.00000000000E+00  0.00000000000E+00 -0.24689572249E+03  0.11274884539E+04  0.11001239548E+04 0.  0.
        2    1    3    3  502    0  0.24304301410E+03  0.12414545165E+02  0.38212172274E+03  0.45303536135E+03  0.25500000920E-02 0.  1.
       -2    1    3    3    0  502 -0.24304301410E+03 -0.12414545165E+02 -0.62901744524E+03  0.67445309255E+03  0.25500000920E-02 0. -1.
</event>
<event>
 5   0  0.6109149E-04  0.1099737E+04  0.7818609E-02  0.9205448E-01
        2   -1    0    0  501    0  0.00000000000E+00  0.00000000000E+00  0.15121792769E+04  0.15121792769E+04  0.25500000920E-02 0. -1.
       -2   -1    0    0    0  501  0.00000000000E+00  0.00000000000E+00 -0.19994674539E+03  0.19994674541E+03  0.25500000920E-02 0.  1.
    10030    2    1    2    0    0  0.00000000000E+00  0.00000000000E+00  0.13122325315E+04  0.17121260223E+04  0.10997369229E+04 0.  0.
        1    1    3    3  502    0 -0.40905081802E+03 -0.20398131721E+03  0.18025865130E+03  0.49134929621E+03  0.50400001928E-02 0.  1.
       -1    1    3    3    0  502  0.40905081802E+03  0.20398131721E+03  0.11319738802E+04  0.12207767261E+04  0.50400001928E-02 0. -1.
</event>
<event>
 5   0  0.3423758E-04  0.1100963E+04  0.7818609E-02  0.9204254E-01
       -1   -1    0    0    0  501  0.00000000000E+00  0.00000000000E+00  0.49914263924E+03  0.49914263926E+03  0.50400001928E-02 0.  1.
        1   -1    0    0  501    0  0.00000000000E+00  0.00000000000E+00 -0.60710061992E+03  0.60710061994E+03  0.50400001928E-02 0. -1.
    10030    2    1    2    0    0  0.00000000000E+00  0.00000000000E+00 -0.10795798068E+03  0.11062432592E+04  0.11009628617E+04 0.  0.
        1    1    3    3  502    0 -0.44708248961E+03 -0.92537606540E+02  0.25504091095E+03  0.52296446095E+03  0.50400001928E-02 0. -1.
       -1    1    3    3    0  502  0.44708248961E+03  0.92537606540E+02 -0.36299889163E+03  0.58327879825E+03  0.50400001928E-02 0.  1.
</event>
<event>
 5   0  0.3621403E-04  0.1099939E+04  0.7818609E-02  0.9205252E-01
        1   -1    0    0  501    0  0.00000000000E+00  0.00000000000E+00  0.22955337696E+04  0.22955337696E+04  0.50400001928E-02 0. -1.
       -1   -1    0    0    0  501  0.00000000000E+00  0.00000000000E+00 -0.13176296112E+03  0.13176296122E+03  0.50400001928E-02 0.  1.
    10030    2    1    2    0    0  0.00000000000E+00  0.00000000000E+00  0.21637708085E+04  0.24272967308E+04  0.10999387746E+04 0.  0.
        3    1    3    3  502    0  0.24143049731E+03 -0.55815425148E+02 -0.15898081683E+01  0.24780351977E+03  0.10100000352E+00 0.  1.
       -3    1    3    3    0  502 -0.24143049731E+03  0.55815425148E+02  0.21653606167E+04  0.21794932111E+04  0.10100000352E+00 0. -1.
</event>
<event>
 5   0  0.3657529E-04  0.1099465E+04  0.7818609E-02  0.9205714E-01
       -1   -1    0    0    0  501  0.00000000000E+00  0.00000000000E+00  0.29879011800E+03  0.29879011804E+03  0.50400001928E-02 0. -1.
        1   -1    0    0  501    0  0.00000000000E+00  0.00000000000E+00 -0.10114311119E+04  0.10114311119E+04  0.50400001928E-02 0.  1.
    10030    2    1    2    0    0  0.00000000000E+00  0.00000000000E+00 -0.71264099386E+03  0.13102212299E+04  0.10994646357E+04 0.  0.
        4    1    3    3  502    0  0.54548761315E+03 -0.66443952071E+02 -0.37449029590E+03  0.66499333041E+03  0.12699999809E+01 0. -1.
       -4    1    3    3    0  502 -0.54548761315E+03  0.66443952071E+02 -0.33815069795E+03  0.64522789950E+03  0.12699999809E+01 0.  1.
</event>
<event>
 5   0  0.6264830E-04  0.1110445E+04  0.7818609E-02  0.9195071E-01
       -2   -1    0    0    0  501  0.00000000000E+00  0.00000000000E+00  0.24780204086E+03  0.24780204087E+03  0.25500000920E-02 0.  1.
        2   -1    0    0  501    0  0.00000000000E+00  0.00000000000E+00 -0.12440247156E+04  0.12440247156E+04  0.25500000920E-02 0. -1.
    10030    2    1    2    0    0  0.00000000000E+00  0.00000000000E+00 -0.99622267471E+03  0.14918267564E+04  0.11104447099E+04 0.  0.
        4    1    3    3  502    0 -0.10555966704E+03 -0.54495597034E+03 -0.48163571239E+03  0.73491116828E+03  0.12699999809E+01 0.  1.
       -4    1    3    3    0  502  0.10555966704E+03  0.54495597034E+03 -0.51458696232E+03  0.75691558817E+03  0.12699999809E+01 0. -1.
</event>
<event>
 5   0  0.3621403E-04  0.1099734E+04  0.7818609E-02  0.9205451E-01
        1   -1    0    0  501    0  0.00000000000E+00  0.00000000000E+00  0.17066466039E+04  0.17066466039E+04  0.50400001928E-02 0. -1.
       -1   -1    0    0    0  501  0.00000000000E+00  0.00000000000E+00 -0.17716249804E+03  0.17716249812E+03  0.50400001928E-02 0.  1.
    10030    2    1    2    0    0  0.00000000000E+00  0.00000000000E+00  0.15294841059E+04  0.18838091021E+04  0.10997341055E+04 0.  0.
        3    1    3    3  502    0  0.14786676475E+02 -0.79099536441E+02  0.16965058139E+04  0.16984131916E+04  0.10100000352E+00 0. -1.
       -3    1    3    3    0  502 -0.14786676475E+02  0.79099536441E+02 -0.16702170803E+03  0.18539591048E+03  0.10100000352E+00 0.  1.
</event>
<event>
 5   0  0.6245176E-04  0.1100847E+04  0.7818609E-02  0.9204367E-01
        2   -1    0    0  501    0  0.00000000000E+00  0.00000000000E+00  0.78064667797E+03  0.78064667797E+03  0.25500000920E-02 0.  1.
       -2   -1    0    0    0  501  0.00000000000E+00  0.00000000000E+00 -0.38809595130E+03  0.38809595131E+03  0.25500000920E-02 0. -1.
    10030    2    1    2    0    0  0.00000000000E+00  0.00000000000E+00  0.39255072667E+03  0.11687426293E+04  0.11008466108E+04 0.  0.
        5    1    3    3  502    0  0.20288673170E+03 -0.10697311399E+03 -0.33492087288E+03  0.40595609874E+03  0.46999998093E+01 0. -1.
       -5    1    3    3    0  502 -0.20288673170E+03  0.10697311399E+03  0.72747159955E+03  0.76278653053E+03  0.46999998093E+01 0.  1.
</event>
<event>
 5   0  0.3621403E-04  0.1101580E+04  0.7818609E-02  0.9203653E-01
       -1   -1    0    0    0  501  0.00000000000E+00  0.00000000000E+00  0.21611466025E+03  0.21611466031E+03  0.50400001928E-02 0.  1.
        1   -1    0    0  501    0  0.00000000000E+00  0.00000000000E+00 -0.14037433799E+04  0.14037433799E+04  0.50400001928E-02 0. -1.
    10030    2    1    2    0    0  0.00000000000E+00  0.00000000000E+00 -0.11876287196E+04  0.16198580402E+04  0.11015798177E+04 0.  0.
        3    1    3    3  502    0  0.32354618154E+03  0.43074159528E+03 -0.42519464960E+03  0.68630237777E+03  0.10100000352E+00 0.  1.
       -3    1    3    3    0  502 -0.32354618154E+03 -0.43074159528E+03 -0.76243407001E+03  0.93355566240E+03  0.10100000352E+00 0. -1.
</event>
<event>
 5   0  0.6109149E-04  0.1109151E+04  0.7818609E-02  0.9196319E-01
       -2   -1    0    0    0  501  0.00000000000E+00  0.00000000000E+00  0.23981414767E+03  0.23981414768E+03  0.25500000920E-02 0. -1.
        2   -1    0    0  501    0  0.00000000000E+00  0.00000000000E+00 -0.12824672374E+04  0.12824672374E+04  0.25500000920E-02 0.  1.
    10030    2    1    2    0    0  0.00000000000E+00  0.00000000000E+00 -0.10426530897E+04  0.15222813851E+04  0.11091506434E+04 0.  0.
        1    1    3    3  502    0 -0.51612780202E+03 -0.20288901296E+03 -0.51942090796E+03  0.75983546854E+03  0.50400001928E-02 0.  1.
       -1    1    3    3    0  502  0.51612780202E+03  0.20288901296E+03 -0.52323218178E+03  0.76244591655E+03  0.50400001928E-02 0. -1.
</event>
<event>
 5   0  0.3621403E-04  0.1100228E+04  0.7818609E-02  0.9204970E-01
       -1   -1    0    0    0  501  0.00000000000E+00  0.00000000000E+00  0.46889998011E+03  0.46889998014E+03  0.50400001928E-02 0. -1.
        1   -1    0    0  501    0  0.00000000000E+00  0.00000000000E+00 -0.64539447123E+03  0.64539447125E+03  0.50400001928E-02 0.  1.
    10030    2    1    2    0    0  0.00000000000E+00  0.00000000000E+00 -0.17649449112E+03  0.11142944514E+04  0.11002280759E+04 0.  0.
        3    1    3    3  502    0  0.85564147202E+02  0.32628582983E+02  0.46112637658E+03  0.47013125092E+03  0.10100000352E+00 0. -1.
       -3    1    3    3    0  502 -0.85564147202E+02 -0.32628582983E+02 -0.63762086770E+03  0.64416320047E+03  0.10100000352E+00 0.  1.
</event>
<event>
 5   0  0.6245176E-04  0.1099965E+04  0.7818609E-02  0.9205226E-01
       -2   -1    0    0    0  501  0.00000000000E+00  0.00000000000E+00  0.28194134580E+03  0.28194134581E+03  0.25500000920E-02 0. -1.
        2   -1    0    0  501    0  0.00000000000E+00  0.00000000000E+00 -0.10728491461E+04  0.10728491461E+04  0.25500000920E-02 0.  1.
    10030    2    1    2    0    0  0.00000000000E+00  0.00000000000E+00 -0.79090780031E+03  0.13547904919E+04  0.10999646033E+04 0.  0.
        5    1    3    3  502    0  0.16289449400E+03  0.49416723544E+02 -0.10395603613E+04  0.10534156177E+04  0.46999998093E+01 0.  1.
       -5    1    3    3    0  502 -0.16289449400E+03 -0.49416723544E+02  0.24865256100E+03  0.30137487426E+03  0.46999998093E+01 0. -1.
</event>
<event>
 5   0  0.5948818E-04  0.1098383E+04  0.7818609E-02  0.9206770E-01
       -2   -1    0    0    0  501  0.00000000000E+00  0.00000000000E+00  0.75631434402E+03  0.75631434402E+03  0.25500000920E-02 0.  1.
        2   -1    0    0  501    0  0.00000000000E+00  0.00000000000E+00 -0.39879061293E+03  0.39879061293E+03  0.25500000920E-02 0. -1.
    10030    2    1    2    0    0  0.00000000000E+00  0.00000000000E+00  0.35752373109E+03  0.11551049570E+04  0.10983825578E+04 0.  0.
        3    1    3    3  502    0  0.29667986164E+03  0.43991902494E+03  0.32772186857E+03  0.62365801698E+03  0.10100000352E+00 0.  1.
       -3    1    3    3    0  502 -0.29667986164E+03 -0.43991902494E+03  0.29801862528E+02  0.53144693998E+03  0.10100000352E+00 0. -1.
</event>
<event>
 5   0  0.2403875E-04  0.1100703E+04  0.7818609E-02  0.9204507E-01
        3   -1    0    0  501    0  0.00000000000E+00  0.00000000000E+00  0.25314227826E+03  0.25314229841E+03  0.10100000352E+00 0.  1.
       -3   -1    0    0    0  501  0.00000000000E+00  0.00000000000E+00 -0.11965075890E+04  0.11965075932E+04  0.10100000352E+00 0. -1.
    10030    2    1    2    0    0  0.00000000000E+00  0.00000000000E+00 -0.94336531073E+03  0.14496498917E+04  0.11007028204E+04 0.  0.
        5    1    3    3  502    0  0.45423309392E+03  0.72434276347E+02 -0.73754174030E+02  0.46587143740E+03  0.46999998093E+01 0. -1.
       -5    1    3    3    0  502 -0.45423309392E+03 -0.72434276347E+02 -0.86961113670E+03  0.98377845426E+03  0.46999998093E+01 0.  1.
</event>
<event>
 5   0  0.5948818E-04  0.1082354E+04  0.7818609E-02  0.9222563E-01
       -2   -1    0    0    0  501  0.00000000000E+00  0.00000000000E+00  0.62421100789E+03  0.62421100789E+03  0.25500000920E-02 0. -1.
        2   -1    0    0  501    0  0.00000000000E+00  0.00000000000E+00 -0.46918863519E+03  0.46918863520E+03  0.25500000920E-02 0.  1.
    10030    2    1    2    0    0  0.00000000000E+00  0.00000000000E+00  0.15502237270E+03  0.10933996431E+04  0.10823543059E+04 0.  0.
        3    1    3    3  502    0  0.18929689644E+03 -0.26647515988E+03  0.51322508058E+03  0.60847540573E+03  0.10100000352E+00 0. -1.
       -3    1    3    3    0  502 -0.18929689644E+03  0.26647515988E+03 -0.35820270789E+03  0.48492423736E+03  0.10100000352E+00 0.  1.
</event>
<event>
 5   0  0.3657529E-04  0.1109116E+04  0.7818609E-02  0.9196352E-01
       -1   -1    0    0    0  501  0.00000000000E+00  0.00000000000E+00  0.60296972290E+03  0.60296972292E+03  0.50400001928E-02 0. -1.
        1   -1    0    0  501    0  0.00000000000E+00  0.00000000000E+00 -0.51003292331E+03  0.51003292334E+03  0.50400001928E-02 0.  1.
    10030    2    1    2    0    0  0.00000000000E+00  0.00000000000E+00  0.92936799587E+02  0.11130026463E+04  0.11091157026E+04 0.  0.
        4    1    3    3  502    0 -0.51260791745E+03  0.62225605770E+02 -0.15646268602E+03  0.53955638080E+03  0.12699999809E+01 0.  1.
       -4    1    3    3    0  502  0.51260791745E+03 -0.62225605770E+02  0.24939948561E+03  0.57344626546E+03  0.12699999809E+01 0. -1.
</event>
<event>
 5   0  0.3657529E-04  0.1101063E+04  0.7818609E-02  0.9204156E-01
        1   -1    0    0  501    0  0.00000000000E+00  0.00000000000E+00  0.12190296775E+04  0.12190296775E+04  0.50400001928E-02 0.  1.
       -1   -1    0    0    0  501  0.00000000000E+00  0.00000000000E+00 -0.24862816661E+03  0.24862816666E+03  0.50400001928E-02 0. -1.
    10030    2    1    2    0    0  0.00000000000E+00  0.00000000000E+00  0.97040151088E+03  0.14676578442E+04  0.11010633293E+04 0.  0.
        4    1    3    3  502    0 -0.11971771873E+03  0.40366111971E+03  0.12410898672E+02  0.42122473224E+03  0.12699999809E+01 0. -1.
       -4    1    3    3    0  502  0.11971771873E+03 -0.40366111971E+03  0.95799061221E+03  0.10464331119E+04  0.12699999809E+01 0.  1.
</event>
<event>
 5   0  0.3423758E-04  0.1096927E+04  0.7818609E-02  0.9208193E-01
       -1   -1    0    0    0  501  0.00000000000E+00  0.00000000000E+00  0.74695127055E+03  0.74695127057E+03  0.50400001928E-02 0. -1.
        1   -1    0    0  501    0  0.00000000000E+00  0.00000000000E+00 -0.40271973965E+03  0.40271973968E+03  0.50400001928E-02 0.  1.
    10030    2    1    2    0    0  0.00000000000E+00  0.00000000000E+00  0.34423153091E+03  0.11496710103E+04  0.10969266543E+04 0.  0.
        1    1    3    3  502    0 -0.36935798677E+03 -0.63380330809E+02 -0.24760171570E+03  0.44916477863E+03  0.50400001928E-02 0.  1.
       -1    1    3    3    0  502  0.36935798677E+03  0.63380330809E+02  0.59183324661E+03  0.70050623162E+03  0.50400001928E-02 0. -1.
</event>
<event>
 5   0  0.3523525E-04  0.1100936E+04  0.7818609E-02  0.9204280E-01
        1   -1    0    0  501    0  0.00000000000E+00  0.00000000000E+00  0.45474478927E+03  0.45474478930E+03  0.50400001928E-02 0. -1.
       -1   -1    0    0    0  501  0.00000000000E+00  0.00000000000E+00 -0.66634090383E+03  0.66634090385E+03  0.50400001928E-02 0.  1.
    10030    2    1    2    0    0  0.00000000000E+00  0.00000000000E+00 -0.21159611456E+03  0.11210856932E+04  0.11009360634E+04 0.  0.
        5    1    3    3  502    0 -0.54417974835E+02 -0.36514429291E+03  0.30996528659E+03  0.48207078269E+03  0.46999998093E+01 0. -1.
       -5    1    3    3    0  502  0.54417974835E+02  0.36514429291E+03 -0.52156140115E+03  0.63901491047E+03  0.46999998093E+01 0.  1.
</event>
<event>
 5   0  0.3621403E-04  0.1097799E+04  0.7818609E-02  0.9207340E-01
        1   -1    0    0  501    0  0.00000000000E+00  0.00000000000E+00  0.89796777725E+03  0.89796777727E+03  0.50400001928E-02 0.  1.
       -1   -1    0    0    0  501  0.00000000000E+00  0.00000000000E+00 -0.33552485443E+03  0.33552485447E+03  0.50400001928E-02 0. -1.
    10030    2    1    2    0    0  0.00000000000E+00  0.00000000000E+00  0.56244292282E+03  0.12334926317E+04  0.10977987207E+04 0.  0.
        3    1    3    3  502    0 -0.19015678426E+03  0.50573893941E+03  0.17252159003E+03  0.56718179331E+03  0.10100000352E+00 0.  1.
       -3    1    3    3    0  502  0.19015678426E+03 -0.50573893941E+03  0.38992133279E+03  0.66631083842E+03  0.10100000352E+00 0. -1.
</event>
<event>
 5   0  0.3657529E-04  0.1101531E+04  0.7818609E-02  0.9203701E-01
       -1   -1    0    0    0  501  0.00000000000E+00  0.00000000000E+00  0.72959178877E+03  0.72959178879E+03  0.50400001928E-02 0. -1.
        1   -1    0    0  501    0  0.00000000000E+00  0.00000000000E+00 -0.41577058207E+03  0.41577058210E+03  0.50400001928E-02 0.  1.
    10030    2    1    2    0    0  0.00000000000E+00  0.00000000000E+00  0.31382120670E+03  0.11453623709E+04  0.11015313027E+04 0.  0.
        4    1    3    3  502    0  0.97822176462E+02 -0.14171166889E+03 -0.38705994324E+03  0.42363709453E+03  0.12699999809E+01 0.  1.
       -4    1    3    3    0  502 -0.97822176462E+02  0.14171166889E+03  0.70088114993E+03  0.72172527636E+03  0.12699999809E+01 0. -1.
</event>
<event>
 5   0  0.3642161E-04  0.1101400E+04  0.7818609E-02  0.9203828E-01
       -1   -1    0    0    0  501  0.00000000000E+00  0.00000000000E+00  0.10024951752E+04  0.10024951753E+04  0.50400001928E-02 0. -1.
        1   -1    0    0  501    0  0.00000000000E+00  0.00000000000E+00 -0.30251571244E+03  0.30251571248E+03  0.50400001928E-02 0.  1.
    10030    2    1    2    0    0  0.00000000000E+00  0.00000000000E+00  0.69997946281E+03  0.13050108877E+04  0.11014000948E+04 0.  0.
        2    1    3    3  502    0  0.35573876537E+03  0.41681188851E+03  0.41476105392E+03  0.68724737282E+03  0.25500000920E-02 0. -1.
       -2    1    3    3    0  502 -0.35573876537E+03 -0.41681188851E+03  0.28521840889E+03  0.61776351492E+03  0.25500000920E-02 0.  1.
</event>
<event>
 5   0  0.6412712E-04  0.1101685E+04  0.7818609E-02  0.9203551E-01
       -2   -1    0    0    0  501  0.00000000000E+00  0.00000000000E+00  0.42703551431E+03  0.42703551432E+03  0.25500000920E-02 0.  1.
        2   -1    0    0  501    0  0.00000000000E+00  0.00000000000E+00 -0.71054383687E+03  0.71054383688E+03  0.25500000920E-02 0. -1.
    10030    2    1    2    0    0  0.00000000000E+00  0.00000000000E+00 -0.28350832257E+03  0.11375793512E+04  0.11016849873E+04 0.  0.
        2    1    3    3  502    0  0.36560949248E+03  0.39082314382E+03 -0.70649312690E+01  0.53522233137E+03  0.25500000920E-02 0.  1.
       -2    1    3    3    0  502 -0.36560949248E+03 -0.39082314382E+03 -0.27644339130E+03  0.60235701983E+03  0.25500000920E-02 0. -1.
</event>
<event>
 5   0  0.3621403E-04  0.1099506E+04  0.7818609E-02  0.9205674E-01
       -1   -1    0    0    0  501  0.00000000000E+00  0.00000000000E+00  0.36931354264E+03  0.36931354268E+03  0.50400001928E-02 0. -1.
        1   -1    0    0  501    0  0.00000000000E+00  0.00000000000E+00 -0.81835103879E+03  0.81835103881E+03  0.50400001928E-02 0.  1.
    10030    2    1    2    0    0  0.00000000000E+00  0.00000000000E+00 -0.44903749615E+03  0.11876645815E+04  0.10995055640E+04 0.  0.
        3    1    3    3  502    0  0.62296357511E+01 -0.14751230455E+03 -0.79653472964E+03  0.81010263181E+03  0.10100000352E+00 0.  1.
       -3    1    3    3    0  502 -0.62296357511E+01  0.14751230455E+03  0.34749723349E+03  0.37756194967E+03  0.10100000352E+00 0. -1.
</event>
<event>
 5   0  0.3423758E-04  0.1099277E+04  0.7818609E-02  0.9205897E-01
        1   -1    0    0  501    0  0.00000000000E+00  0.00000000000E+00  0.93646005493E+03  0.93646005495E+03  0.50400001928E-02 0. -1.
       -1   -1    0    0    0  501  0.00000000000E+00  0.00000000000E+00 -0.32260046377E+03  0.32260046381E+03  0.50400001928E-02 0.  1.
    10030    2    1    2    0    0  0.00000000000E+00  0.00000000000E+00  0.61385959117E+03  0.12590605188E+04  0.10992769406E+04 0.  0.
        1    1    3    3  502    0  0.18279173189E+03 -0.41177123009E+03 -0.53691183900E+02  0.45370817320E+03  0.50400001928E-02 0.  1.
       -1    1    3    3    0  502 -0.18279173189E+03  0.41177123009E+03  0.66755077507E+03  0.80535234555E+03  0.50400001928E-02 0. -1.
</event>
<event>
 5   0  0.6412712E-04  0.1100731E+04  0.7818609E-02  0.9204479E-01
        2   -1    0    0  501    0  0.00000000000E+00  0.00000000000E+00  0.60455301433E+03  0.60455301433E+03  0.25500000920E-02 0. -1.
       -2   -1    0    0    0  501  0.00000000000E+00  0.00000000000E+00 -0.50103528711E+03  0.50103528712E+03  0.25500000920E-02 0.  1.
    10030    2    1    2    0    0  0.00000000000E+00  0.00000000000E+00  0.10351772721E+03  0.11055883015E+04  0.11007313807E+04 0.  0.
        2    1    3    3  502    0 -0.37736494173E+02  0.53541260873E+03  0.17399915378E+03  0.56423967434E+03  0.25500000920E-02 0. -1.
       -2    1    3    3    0  502  0.37736494173E+02 -0.53541260873E+03 -0.70481426570E+02  0.54134862711E+03  0.25500000920E-02 0.  1.
</event>
<event>
 5   0  0.3642161E-04  0.1101698E+04  0.7818609E-02  0.9203538E-01
       -1   -1    0    0    0  501  0.00000000000E+00  0.00000000000E+00  0.43872770649E+03  0.43872770652E+03  0.50400001928E-02 0. -1.
        1   -1    0    0  501    0  0.00000000000E+00  0.00000000000E+00 -0.69162423653E+03  0.69162423654E+03  0.50400001928E-02 0.  1.
    10030    2    1    2    0    0  0.00000000000E+00  0.00000000000E+00 -0.25289653003E+03  0.11303519431E+04  0.11016981711E+04 0.  0.
        2    1    3    3  502    0  0.33236775296E+03  0.30834205336E+03 -0.44746206575E+03  0.63699720986E+03  0.25500000920E-02 0.  1.
       -2    1    3    3    0  502 -0.33236775296E+03 -0.30834205336E+03  0.19456553572E+03  0.49335473320E+03  0.25500000920E-02 0. -1.
</event>
<event>
 5   0  0.3621403E-04  0.1100369E+04  0.7818609E-02  0.9204832E-01
        1   -1    0    0  501    0  0.00000000000E+00  0.00000000000E+00  0.42611967401E+03  0.42611967404E+03  0.50400001928E-02 0. -1.
       -1   -1    0    0    0  501  0.00000000000E+00  0.00000000000E+00 -0.71037101709E+03  0.71037101711E+03  0.50400001928E-02 0.  1.
    10030    2    1    2    0    0  0.00000000000E+00  0.00000000000E+00 -0.28425134308E+03  0.11364906911E+04  0.11003691494E+04 0.  0.
        3    1    3    3  502    0  0.79792379771E+02 -0.40855904223E+03 -0.51367889126E+03  0.66117571672E+03  0.10100000352E+00 0.  1.
       -3    1    3    3    0  502 -0.79792379771E+02  0.40855904223E+03  0.22942754817E+03  0.47531497443E+03  0.10100000352E+00 0. -1.
</event>
<event>
 5   0  0.6109149E-04  0.1102709E+04  0.7818609E-02  0.9202555E-01
        2   -1    0    0  501    0  0.00000000000E+00  0.00000000000E+00  0.32025437573E+04  0.32025437573E+04  0.25500000920E-02 0. -1.
       -2   -1    0    0    0  501  0.00000000000E+00  0.00000000000E+00 -0.94922016812E+02  0.94922016846E+02  0.25500000920E-02 0.  1.
    10030    2    1    2    0    0  0.00000000000E+00  0.00000000000E+00  0.31076217405E+04  0.32974657741E+04  0.11027092317E+04 0.  0.
        1    1    3    3  502    0 -0.22700678481E+03  0.11727892718E+02  0.30559048089E+04  0.30643472102E+04  0.50400001928E-02 0. -1.
       -1    1    3    3    0  502  0.22700678481E+03 -0.11727892718E+02  0.51716931639E+02  0.23311856396E+03  0.50400001928E-02 0.  1.
</event>
<event>
 5   0  0.6412712E-04  0.1092021E+04  0.7818609E-02  0.9213004E-01
        2   -1    0    0  501    0  0.00000000000E+00  0.00000000000E+00  0.11027214813E+04  0.11027214813E+04  0.25500000920E-02 0. -1.
       -2   -1    0    0    0  501  0.00000000000E+00  0.00000000000E+00 -0.27035588157E+03  0.27035588159E+03  0.25500000920E-02 0.  1.
    10030    2    1    2    0    0  0.00000000000E+00  0.00000000000E+00  0.83236559974E+03  0.13730773629E+04  0.10920205826E+04 0.  0.
        2    1    3    3  502    0  0.30226766183E+03 -0.44257227759E+03  0.28496172115E+03  0.60699188035E+03  0.25500000920E-02 0.  1.
       -2    1    3    3    0  502 -0.30226766183E+03  0.44257227759E+03  0.54740387859E+03  0.76608548256E+03  0.25500000920E-02 0. -1.
</event>
<event>
 5   0  0.6264830E-04  0.1101484E+04  0.7818609E-02  0.9203747E-01
        2   -1    0    0  501    0  0.00000000000E+00  0.00000000000E+00  0.10130608892E+04  0.10130608892E+04  0.25500000920E-02 0.  1.
       -2   -1    0    0    0  501  0.00000000000E+00  0.00000000000E+00 -0.29940632039E+03  0.29940632040E+03  0.25500000920E-02 0. -1.
    10030    2    1    2    0    0  0.00000000000E+00  0.00000000000E+00  0.71365456877E+03  0.13124672096E+04  0.11014841500E+04 0.  0.
        4    1    3    3  502    0 -0.23754505208E+03  0.42855068593E+03  0.65645242464E+03  0.81915489432E+03  0.12699999809E+01 0.  1.
       -4    1    3    3    0  502  0.23754505208E+03 -0.42855068593E+03  0.57202144134E+02  0.49331231524E+03  0.12699999809E+01 0. -1.
</event>
<event>
 5   0  0.6245176E-04  0.1098606E+04  0.7818609E-02  0.9206551E-01
       -2   -1    0    0    0  501  0.00000000000E+00  0.00000000000E+00  0.42172687090E+03  0.42172687091E+03  0.25500000920E-02 0.  1.
        2   -1    0    0  501    0  0.00000000000E+00  0.00000000000E+00 -0.71547261301E+03  0.71547261301E+03  0.25500000920E-02 0. -1.
    10030    2    1    2    0    0  0.00000000000E+00  0.00000000000E+00 -0.29374574211E+03  0.11371994839E+04  0.10986064378E+04 0.  0.
        5    1    3    3  502    0  0.12697602212E+03 -0.47774686575E+03  0.10101182122E+03  0.50456957494E+03  0.46999998093E+01 0.  1.
       -5    1    3    3    0  502 -0.12697602212E+03  0.47774686575E+03 -0.39475756333E+03  0.63262990898E+03  0.46999998093E+01 0. -1.
</event>
<event>
 5   0  0.6264830E-04  0.1098548E+04  0.7818609E-02  0.9206608E-01
       -2   -1    0    0    0  501  0.00000000000E+00  0.00000000000E+00  0.31108247329E+03  0.31108247330E+03  0.25500000920E-02 0.  1.
        2   -1    0    0  501    0  0.00000000000E+00  0.00000000000E+00 -0.96984504210E+03  0.96984504210E+03  0.25500000920E-02 0. -1.
    10030    2    1    2    0    0  0.00000000000E+00  0.00000000000E+00 -0.65876256881E+03  0.12809275154E+04  0.10985477585E+04 0.  0.
        4    1    3    3  502    0 -0.81395834987E+00 -0.38197563726E+03  0.13085532312E+03  0.40377070037E+03  0.12699999809E+01 0.  1.
       -4    1    3    3    0  502  0.81395834987E+00  0.38197563726E+03 -0.78961789193E+03  0.87715681503E+03  0.12699999809E+01 0. -1.
</event>
<event>
 5   0  0.6109149E-04  0.1100515E+04  0.7818609E-02  0.9204690E-01
        2   -1    0    0  501    0  0.00000000000E+00  0.00000000000E+00  0.15251219193E+04  0.15251219193E+04  0.25500000920E-02 0. -1.
       -2   -1    0    0    0  501  0.00000000000E+00  0.00000000000E+00 -0.19853058277E+03  0.19853058279E+03  0.25500000920E-02 0.  1.
    10030    2    1    2    0    0  0.00000000000E+00  0.00000000000E+00  0.13265913365E+04  0.17236525020E+04  0.11005150493E+04 0.  0.
        1    1    3    3  502    0  0.21186634353E+03 -0.12675693576E+02  0.14584303555E+04  0.14737934464E+04  0.50400001928E-02 0. -1.
       -1    1    3    3    0  502 -0.21186634353E+03  0.12675693576E+02 -0.13183901902E+03  0.24985905565E+03  0.50400001928E-02 0.  1.
</event>
<event>
 5   0  0.3642161E-04  0.1090913E+04  0.7818609E-02  0.9214094E-01
        1   -1    0    0  501    0  0.00000000000E+00  0.00000000000E+00  0.11004352365E+04  0.11004352365E+04  0.50400001928E-02 0. -1.
       -1   -1    0    0    0  501  0.00000000000E+00  0.00000000000E+00 -0.27036827614E+03  0.27036827619E+03  0.50400001928E-02 0.  1.
    10030    2    1    2    0    0  0.00000000000E+00  0.00000000000E+00  0.83006696035E+03  0.13708035127E+04  0.10909129717E+04 0.  0.
        2    1    3    3  502    0 -0.38317425100E+03  0.29148837689E+03  0.92865208473E+02  0.49031819000E+03  0.25500000920E-02 0. -1.
       -2    1    3    3    0  502  0.38317425100E+03 -0.29148837689E+03  0.73720175188E+03  0.88048532269E+03  0.25500000920E-02 0.  1.
</event>
<event>
 5   0  0.6412712E-04  0.1101131E+04  0.7818609E-02  0.9204090E-01
        2   -1    0    0  501    0  0.00000000000E+00  0.00000000000E+00  0.14266920155E+04  0.14266920155E+04  0.25500000920E-02 0. -1.
       -2   -1    0    0    0  501  0.00000000000E+00  0.00000000000E+00 -0.21246535912E+03  0.21246535914E+03  0.25500000920E-02 0.  1.
    10030    2    1    2    0    0  0.00000000000E+00  0.00000000000E+00  0.12142266564E+04  0.16391573746E+04  0.11011314753E+04 0.  0.
        2    1    3    3  502    0  0.13235769174E+03 -0.21379498291E+03  0.13362228628E+04  0.13596758410E+04  0.25500000920E-02 0. -1.
       -2    1    3    3    0  502 -0.13235769174E+03  0.21379498291E+03 -0.12199620646E+03  0.27948153369E+03  0.25500000920E-02 0.  1.
</event>
<event>
 5   0  0.5948818E-04  0.1097554E+04  0.7818609E-02  0.9207579E-01
       -2   -1    0    0    0  501  0.00000000000E+00  0.00000000000E+00  0.24508909892E+03  0.24508909894E+03  0.25500000920E-02 0. -1.
        2   -1    0    0  501    0  0.00000000000E+00  0.00000000000E+00 -0.12287616315E+04  0.12287616315E+04  0.25500000920E-02 0.  1.
    10030    2    1    2    0    0  0.00000000000E+00  0.00000000000E+00 -0.98367253255E+03  0.14738507304E+04  0.10975537910E+04 0.  0.
        3    1    3    3  502    0 -0.49316305397E+03  0.22143327900E+03 -0.61861712029E+03  0.82154101941E+03  0.10100000352E+00 0. -1.
       -3    1    3    3    0  502  0.49316305397E+03 -0.22143327900E+03 -0.36505541226E+03  0.65230971100E+03  0.10100000352E+00 0.  1.
</event>
<event>
 5   0  0.6245176E-04  0.1103580E+04  0.7818609E-02  0.9201710E-01
        2   -1    0    0  501    0  0.00000000000E+00  0.00000000000E+00  0.24068526919E+03  0.24068526921E+03  0.25500000920E-02 0.  1.
       -2   -1    0    0    0  501  0.00000000000E+00  0.00000000000E+00 -0.12650215012E+04  0.12650215012E+04  0.25500000920E-02 0. -1.
    10030    2    1    2    0    0  0.00000000000E+00  0.00000000000E+00 -0.10243362320E+04  0.15057067704E+04  0.11035797036E+04 0.  0.
        5    1    3    3  502    0 -0.14657420398E+02 -0.55149977850E+03 -0.49973013100E+03  0.74439179166E+03  0.46999998093E+01 0. -1.
       -5    1    3    3    0  502  0.14657420398E+02  0.55149977850E+03 -0.52460610100E+03  0.76131497875E+03  0.46999998093E+01 0.  1.
</event>
<event>
 5   0  0.6109149E-04  0.1100905E+04  0.7818609E-02  0.9204311E-01
        2   -1    0    0  501    0  0.00000000000E+00  0.00000000000E+00  0.44390854068E+03  0.44390854069E+03  0.25500000920E-02 0. -1.
       -2   -1    0    0    0  501  0.00000000000E+00  0.00000000000E+00 -0.68256800475E+03  0.68256800475E+03  0.25500000920E-02 0.  1.
    10030    2    1    2    0    0  0.00000000000E+00  0.00000000000E+00 -0.23865946406E+03  0.11264765454E+04  0.11009046587E+04 0.  0.
        1    1    3    3  502    0 -0.12378469460E+03 -0.50790375316E+03  0.57036600784E+02  0.52587265278E+03  0.50400001928E-02 0. -1.
       -1    1    3    3    0  502  0.12378469460E+03  0.50790375316E+03 -0.29569606485E+03  0.60060389266E+03  0.50400001928E-02 0.  1.
</event>
<event>
 5   0  0.3423758E-04  0.1103734E+04  0.7818609E-02  0.9201560E-01
        1   -1    0    0  501    0  0.00000000000E+00  0.00000000000E+00  0.10523925375E+04  0.10523925375E+04  0.50400001928E-02 0.  1.
       -1   -1    0    0    0  501  0.00000000000E+00  0.00000000000E+00 -0.28939483882E+03  0.28939483887E+03  0.50400001928E-02 0. -1.
    10030    2    1    2    0    0  0.00000000000E+00  0.00000000000E+00  0.76299769867E+03  0.13417873764E+04  0.11037336070E+04 0.  0.
        1    1    3    3  502    0  0.42491335508E+03 -0.34081503341E+03  0.27378433005E+03  0.60964260491E+03  0.50400001928E-02 0. -1.
       -1    1    3    3    0  502 -0.42491335508E+03  0.34081503341E+03  0.48921336862E+03  0.73214477147E+03  0.50400001928E-02 0.  1.
</event>
<event>
 5   0  0.6412712E-04  0.1099026E+04  0.7818609E-02  0.9206142E-01
        2   -1    0    0  501    0  0.00000000000E+00  0.00000000000E+00  0.78637190492E+03  0.78637190493E+03  0.25500000920E-02 0. -1.
       -2   -1    0    0    0  501  0.00000000000E+00  0.00000000000E+00 -0.38399700667E+03  0.38399700668E+03  0.25500000920E-02 0.  1.
    10030    2    1    2    0    0  0.00000000000E+00  0.00000000000E+00  0.40237489825E+03  0.11703689116E+04  0.10990258553E+04 0.  0.
        2    1    3    3  502    0  0.12995683396E+03 -0.38853071039E+02 -0.36588955499E+03  0.39022238054E+03  0.25500000920E-02 0.  1.
       -2    1    3    3    0  502 -0.12995683396E+03  0.38853071039E+02  0.76826445323E+03  0.78014653106E+03  0.25500000920E-02 0. -1.
</event>
<event>
 5   0  0.3621403E-04  0.1100436E+04  0.7818609E-02  0.9204767E-01
       -1   -1    0    0    0  501  0.00000000000E+00  0.00000000000E+00  0.47806580296E+03  0.47806580299E+03  0.50400001928E-02 0. -1.
        1   -1    0    0  501    0  0.00000000000E+00  0.00000000000E+00 -0.63326004289E+03  0.63326004291E+03  0.50400001928E-02 0.  1.
    10030    2    1    2    0    0  0.00000000000E+00  0.00000000000E+00 -0.15519423993E+03  0.11113258459E+04  0.11004362243E+04 0.  0.
        3    1    3    3  502    0  0.10267507691E+03  0.53218011655E+03  0.18114747514E+02  0.54229696860E+03  0.10100000352E+00 0. -1.
       -3    1    3    3    0  502 -0.10267507691E+03 -0.53218011655E+03 -0.17330898744E+03  0.56902887730E+03  0.10100000352E+00 0.  1.
</event>
<event>
 5   0  0.6245176E-04  0.1099888E+04  0.7818609E-02  0.9205301E-01
        2   -1    0    0  501    0  0.00000000000E+00  0.00000000000E+00  0.18532765881E+04  0.18532765881E+04  0.25500000920E-02 0.  1.
       -2   -1    0    0    0  501  0.00000000000E+00  0.00000000000E+00 -0.16319112432E+03  0.16319112434E+03  0.25500000920E-02 0. -1.
    10030    2    1    2    0    0  0.00000000000E+00  0.00000000000E+00  0.16900854638E+04  0.20164677124E+04  0.10998877945E+04 0.  0.
        5    1    3    3  502    0  0.71146956904E+02  0.11848864478E+03 -0.13079472418E+03  0.19034389481E+03  0.46999998093E+01 0. -1.
       -5    1    3    3    0  502 -0.71146956904E+02 -0.11848864478E+03  0.18208801880E+04  0.18261238176E+04  0.46999998093E+01 0.  1.
</event>
<event>
 5   0  0.3642161E-04  0.1095777E+04  0.7818609E-02  0.9209318E-01
        1   -1    0    0  501    0  0.00000000000E+00  0.00000000000E+00  0.14609723932E+04  0.14609723932E+04  0.50400001928E-02 0.  1.
       -1   -1    0    0    0  501  0.00000000000E+00  0.00000000000E+00 -0.20546696650E+03  0.20546696656E+03  0.50400001928E-02 0. -1.
    10030    2    1    2    0    0  0.00000000000E+00  0.00000000000E+00  0.12555054267E+04  0.16664393597E+04  0.10957765572E+04 0.  0.
        2    1    3    3  502    0  0.54399026243E+03  0.20251720281E+02  0.53343924164E+03  0.76216334360E+03  0.25500000920E-02 0.  1.
       -2    1    3    3    0  502 -0.54399026243E+03 -0.20251720281E+02  0.72206618502E+03  0.90427601614E+03  0.25500000920E-02 0. -1.
</event>
<event>
 5   0  0.6264830E-04  0.1100294E+04  0.7818609E-02  0.9204906E-01
       -2   -1    0    0    0  501  0.00000000000E+00  0.00000000000E+00  0.35147490152E+03  0.35147490153E+03  0.25500000920E-02 0. -1.
        2   -1    0    0  501    0  0.00000000000E+00  0.00000000000E+00 -0.86111876271E+03  0.86111876272E+03  0.25500000920E-02 0.  1.
    10030    2    1    2    0    0  0.00000000000E+00  0.00000000000E+00 -0.50964386119E+03  0.12125936642E+04  0.11002938377E+04 0.  0.
        4    1    3    3  502    0 -0.12830093250E+03 -0.11852427958E+03 -0.82974732229E+03  0.84793358577E+03  0.12699999809E+01 0.  1.
       -4    1    3    3    0  502  0.12830093250E+03  0.11852427958E+03  0.32010346110E+03  0.36466007848E+03  0.12699999809E+01 0. -1.
</event>
<event>
 5   0  0.3423758E-04  0.1101285E+04  0.7818609E-02  0.9203940E-01
       -1   -1    0    0    0  501  0.00000000000E+00  0.00000000000E+00  0.57851041739E+03  0.57851041741E+03  0.50400001928E-02 0. -1.
        1   -1    0    0  501    0  0.00000000000E+00  0.00000000000E+00 -0.52411725451E+03  0.52411725454E+03  0.50400001928E-02 0.  1.
    10030    2    1    2    0    0  0.00000000000E+00  0.00000000000E+00  0.54393162875E+02  0.11026276720E+04  0.11012852341E+04 0.  0.
        1    1    3    3  502    0  0.26026903644E+03 -0.31799248858E+03 -0.33978547644E+03  0.53321043140E+03  0.50400001928E-02 0.  1.
       -1    1    3    3    0  502 -0.26026903644E+03  0.31799248858E+03  0.39417863931E+03  0.56941724055E+03  0.50400001928E-02 0. -1.
</event>
<event>
 5   0  0.6109149E-04  0.1103978E+04  0.7818609E-02  0.9201323E-01
       -2   -1    0    0    0  501  0.00000000000E+00  0.00000000000E+00  0.11411270758E+04  0.11411270758E+04  0.25500000920E-02 0.  1.
        2   -1    0    0  501    0  0.00000000000E+00  0.00000000000E+00 -0.26700978476E+03  0.26700978477E+03  0.25500000920E-02 0. -1.
    10030    2    1    2    0    0  0.00000000000E+00  0.00000000000E+00  0.87411729107E+03  0.14081368606E+04  0.11039784326E+04 0.  0.
        1    1    3    3  502    0 -0.51014541866E+03  0.21024471397E+03  0.41726120947E+03  0.69177894221E+03  0.50400001928E-02 0.  1.
       -1    1    3    3    0  502  0.51014541866E+03 -0.21024471397E+03  0.45685608161E+03  0.71635791840E+03  0.50400001928E-02 0. -1.
</event>
<event>
 5   0  0.3657529E-04  0.1100425E+04  0.7818609E-02  0.9204778E-01
        1   -1    0    0  501    0  0.00000000000E+00  0.00000000000E+00  0.11496343047E+04  0.11496343047E+04  0.50400001928E-02 0. -1.
       -1   -1    0    0    0  501  0.00000000000E+00  0.00000000000E+00 -0.26333050982E+03  0.26333050987E+03  0.50400001928E-02 0.  1.
    10030    2    1    2    0    0  0.00000000000E+00  0.00000000000E+00  0.88630379484E+03  0.14129648145E+04  0.11004249863E+04 0.  0.
        4    1    3    3  502    0 -0.31623095704E+03  0.89123115989E+02  0.10098491948E+04  0.10619519562E+04  0.12699999809E+01 0. -1.
       -4    1    3    3    0  502  0.31623095704E+03 -0.89123115989E+02 -0.12354539999E+03  0.35101285838E+03  0.12699999809E+01 0.  1.
</event>
<event>
 5   0  0.2403875E-04  0.1093977E+04  0.7818609E-02  0.9211083E-01
        3   -1    0    0  501    0  0.00000000000E+00  0.00000000000E+00  0.15806565835E+04  0.15806565868E+04  0.10100000352E+00 0.  1.
       -3   -1    0    0    0  501  0.00000000000E+00  0.00000000000E+00 -0.18928597934E+03  0.18928600629E+03  0.10100000352E+00 0. -1.
    10030    2    1    2    0    0  0.00000000000E+00  0.00000000000E+00  0.13913706042E+04  0.17699425930E+04  0.10939765192E+04 0.  0.
        4    1    3    3  502    0  0.29362738312E+03  0.20555494763E+03  0.13641820774E+04  0.14104836865E+04  0.12699999809E+01 0.  1.
       -4    1    3    3    0  502 -0.29362738312E+03 -0.20555494763E+03  0.27188526783E+02  0.35945890656E+03  0.12699999809E+01 0. -1.
</event>
<event>
 5   0  0.5948818E-04  0.1102736E+04  0.7818609E-02  0.9202529E-01
       -2   -1    0    0    0  501  0.00000000000E+00  0.00000000000E+00  0.41449409448E+03  0.41449409449E+03  0.25500000920E-02 0.  1.
        2   -1    0    0  501    0  0.00000000000E+00  0.00000000000E+00 -0.73344058520E+03  0.73344058520E+03  0.25500000920E-02 0. -1.
    10030    2    1    2    0    0  0.00000000000E+00  0.00000000000E+00 -0.31894649071E+03  0.11479346797E+04  0.11027362173E+04 0.  0.
        3    1    3    3  502    0 -0.31675264048E+03  0.79341814837E+01 -0.62920161489E+03  0.70447843747E+03  0.10100000352E+00 0. -1.
       -3    1    3    3    0  502  0.31675264048E+03 -0.79341814837E+01  0.31025512417E+03  0.44345624222E+03  0.10100000352E+00 0.  1.
</event>
<event>
 5   0  0.3621403E-04  0.1102333E+04  0.7818609E-02  0.9202921E-01
       -1   -1    0    0    0  501  0.00000000000E+00  0.00000000000E+00  0.18493813839E+03  0.18493813846E+03  0.50400001928E-02 0.  1.
        1   -1    0    0  501    0  0.00000000000E+00  0.00000000000E+00 -0.16426269840E+04  0.16426269840E+04  0.50400001928E-02 0. -1.
    10030    2    1    2    0    0  0.00000000000E+00  0.00000000000E+00 -0.14576888456E+04  0.18275651224E+04  0.11023327566E+04 0.  0.
        3    1    3    3  502    0  0.11598202074E+03  0.13846334025E+03 -0.15921674280E+04  0.16023798097E+04  0.10100000352E+00 0. -1.
       -3    1    3    3    0  502 -0.11598202074E+03 -0.13846334025E+03  0.13447858240E+03  0.22518531270E+03  0.10100000352E+00 0.  1.
</event>
<event>
 5   0  0.6109149E-04  0.1091427E+04  0.7818609E-02  0.9213588E-01
        2   -1    0    0  501    0  0.00000000000E+00  0.00000000000E+00  0.13189735510E+04  0.13189735510E+04  0.25500000920E-02 0.  1.
       -2   -1    0    0    0  501  0.00000000000E+00  0.00000000000E+00 -0.22578403506E+03  0.22578403508E+03  0.25500000920E-02 0. -1.
    10030    2    1    2    0    0  0.00000000000E+00  0.00000000000E+00  0.10931895160E+04  0.15447575861E+04  0.10914269018E+04 0.  0.
        1    1    3    3  502    0  0.20433155570E+03  0.70391264385E+02 -0.16263397144E+03  0.27047388681E+03  0.50400001928E-02 0. -1.
       -1    1    3    3    0  502 -0.20433155570E+03 -0.70391264385E+02  0.12558234874E+04  0.12742836993E+04  0.50400001928E-02 0.  1.
</event>
<event>
 5   0  0.3657529E-04  0.1096514E+04  0.7818609E-02  0.9208597E-01
       -1   -1    0    0    0  501  0.00000000000E+00  0.00000000000E+00  0.35086364457E+03  0.35086364461E+03  0.50400001928E-02 0. -1.
        1   -1    0    0  501    0  0.00000000000E+00  0.00000000000E+00 -0.85670166856E+03  0.85670166857E+03  0.50400001928E-02 0.  1.
    10030    2    1    2    0    0  0.00000000000E+00  0.00000000000E+00 -0.50583802398E+03  0.12075653132E+04  0.10965135107E+04 0.  0.
        4    1    3    3  502    0 -0.51688903681E+03 -0.29574877351E+02 -0.54276852429E+02  0.52057327953E+03  0.12699999809E+01 0. -1.
       -4    1    3    3    0  502  0.51688903681E+03  0.29574877351E+02 -0.45156117155E+03  0.68699203365E+03  0.12699999809E+01 0.  1.
</event>
<event>
 5   0  0.5948818E-04  0.1100996E+04  0.7818609E-02  0.9204222E-01
        2   -1    0    0  501    0  0.00000000000E+00  0.00000000000E+00  0.15157695209E+04  0.15157695209E+04  0.25500000920E-02 0. -1.
       -2   -1    0    0    0  501  0.00000000000E+00  0.00000000000E+00 -0.19993002505E+03  0.19993002507E+03  0.25500000920E-02 0.  1.
    10030    2    1    2    0    0  0.00000000000E+00  0.00000000000E+00  0.13158394959E+04  0.17156995460E+04  0.11009956191E+04 0.  0.
        3    1    3    3  502    0  0.38245531777E+03 -0.91022878536E+02  0.57430663726E+02  0.39731036464E+03  0.10100000352E+00 0.  1.
       -3    1    3    3    0  502 -0.38245531777E+03  0.91022878536E+02  0.12584088321E+04  0.13183891814E+04  0.10100000352E+00 0. -1.
</event>
<event>
 5   0  0.3657529E-04  0.1098811E+04  0.7818609E-02  0.9206351E-01
        1   -1    0    0  501    0  0.00000000000E+00  0.00000000000E+00  0.10454540924E+04  0.10454540924E+04  0.50400001928E-02 0. -1.
       -1   -1    0    0    0  501  0.00000000000E+00  0.00000000000E+00 -0.28872280203E+03  0.28872280208E+03  0.50400001928E-02 0.  1.
    10030    2    1    2    0    0  0.00000000000E+00  0.00000000000E+00  0.75673129036E+03  0.13341768945E+04  0.10988110574E+04 0.  0.
        4    1    3    3  502    0  0.16456896542E+03 -0.90161715011E+02  0.10053361844E+04  0.10226996313E+04  0.12699999809E+01 0. -1.
       -4    1    3    3    0  502 -0.16456896542E+03  0.90161715011E+02 -0.24860489406E+03  0.31147726319E+03  0.12699999809E+01 0.  1.
</event>
<event>
 5   0  0.3523525E-04  0.1097194E+04  0.7818609E-02  0.9207931E-01
       -1   -1    0    0    0  501  0.00000000000E+00  0.00000000000E+00  0.27863084186E+03  0.27863084191E+03  0.50400001928E-02 0.  1.
        1   -1    0    0  501    0  0.00000000000E+00  0.00000000000E+00 -0.10801344932E+04  0.10801344932E+04  0.50400001928E-02 0. -1.
    10030    2    1    2    0    0  0.00000000000E+00  0.00000000000E+00 -0.80150365131E+03  0.13587653351E+04  0.10971942092E+04 0.  0.
        5    1    3    3  502    0  0.52428755769E+03  0.85454737117E+02 -0.57035719901E+03  0.77942888047E+03  0.46999998093E+01 0.  1.
       -5    1    3    3    0  502 -0.52428755769E+03 -0.85454737117E+02 -0.23114645230E+03  0.57933645462E+03  0.46999998093E+01 0. -1.
</event>
<event>
 5   0  0.3657529E-04  0.1097427E+04  0.7818609E-02  0.9207703E-01
        1   -1    0    0  501    0  0.00000000000E+00  0.00000000000E+00  0.10742884044E+04  0.10742884044E+04  0.50400001928E-02 0.  1.
       -1   -1    0    0    0  501  0.00000000000E+00  0.00000000000E+00 -0.28026594386E+03  0.28026594391E+03  0.50400001928E-02 0. -1.
    10030    2    1    2    0    0  0.00000000000E+00  0.00000000000E+00  0.79402246056E+03  0.13545543483E+04  0.10974269063E+04 0.  0.
        4    1    3    3  502    0 -0.26758322179E+03  0.47542471342E+03  0.32445576602E+03  0.63474608759E+03  0.12699999809E+01 0. -1.
       -4    1    3    3    0  502  0.26758322179E+03 -0.47542471342E+03  0.46956669455E+03  0.71980826075E+03  0.12699999809E+01 0.  1.
</event>
<event>
 5   0  0.3621403E-04  0.1097512E+04  0.7818609E-02  0.9207620E-01
       -1   -1    0    0    0  501  0.00000000000E+00  0.00000000000E+00  0.28974572132E+03  0.28974572137E+03  0.50400001928E-02 0. -1.
        1   -1    0    0  501    0  0.00000000000E+00  0.00000000000E+00 -0.10393019660E+04  0.10393019660E+04  0.50400001928E-02 0.  1.
    10030    2    1    2    0    0  0.00000000000E+00  0.00000000000E+00 -0.74955624471E+03  0.13290476874E+04  0.10975122739E+04 0.  0.
        3    1    3    3  502    0  0.42970966218E+03 -0.29571734707E+03 -0.16843704422E+03  0.54815161333E+03  0.10100000352E+00 0.  1.
       -3    1    3    3    0  502 -0.42970966218E+03  0.29571734707E+03 -0.58111920050E+03  0.78089607408E+03  0.10100000352E+00 0. -1.
</event>
<event>
 5   0  0.6412712E-04  0.1097868E+04  0.7818609E-02  0.9207273E-01
        2   -1    0    0  501    0  0.00000000000E+00  0.00000000000E+00  0.16934088342E+04  0.16934088342E+04  0.25500000920E-02 0. -1.
       -2   -1    0    0    0  501  0.00000000000E+00  0.00000000000E+00 -0.17794185596E+03  0.17794185598E+03  0.25500000920E-02 0.  1.
    10030    2    1    2    0    0  0.00000000000E+00  0.00000000000E+00  0.15154669782E+04  0.18713506902E+04  0.10978675893E+04 0.  0.
        2    1    3    3  502    0 -0.32337680248E+03 -0.53742319253E+02  0.72213136022E+01  0.32789165991E+03  0.25500000920E-02 0.  1.
       -2    1    3    3    0  502  0.32337680248E+03  0.53742319253E+02  0.15082456646E+04  0.15434590303E+04  0.25500000920E-02 0. -1.
</event>
<event>
 5   0  0.6264830E-04  0.1100898E+04  0.7818609E-02  0.9204317E-01
        2   -1    0    0  501    0  0.00000000000E+00  0.00000000000E+00  0.25980491861E+04  0.25980491861E+04  0.25500000920E-02 0. -1.
       -2   -1    0    0    0  501  0.00000000000E+00  0.00000000000E+00 -0.11662376968E+03  0.11662376971E+03  0.25500000920E-02 0.  1.
    10030    2    1    2    0    0  0.00000000000E+00  0.00000000000E+00  0.24814254165E+04  0.27146729559E+04  0.11008983422E+04 0.  0.
        4    1    3    3  502    0 -0.83153809333E+02  0.53763764078E+03  0.10340514373E+04  0.11684317595E+04  0.12699999809E+01 0. -1.
       -4    1    3    3    0  502  0.83153809333E+02 -0.53763764078E+03  0.14473739792E+04  0.15462411963E+04  0.12699999809E+01 0.  1.
</event>
<event>
 5   0  0.6245176E-04  0.1095602E+04  0.7818609E-02  0.9209489E-01
        2   -1    0    0  501    0  0.00000000000E+00  0.00000000000E+00  0.92980563826E+03  0.92980563826E+03  0.25500000920E-02 0. -1.
       -2   -1    0    0    0  501  0.00000000000E+00  0.00000000000E+00 -0.32274049852E+03  0.32274049853E+03  0.25500000920E-02 0.  1.
    10030    2    1    2    0    0  0.00000000000E+00  0.00000000000E+00  0.60706513974E+03  0.12525461368E+04  0.10956019993E+04 0.  0.
        5    1    3    3  502    0 -0.24864403477E+03  0.41810263559E+02  0.85949960620E+03  0.89573077274E+03  0.46999998093E+01 0. -1.
       -5    1    3    3    0  502  0.24864403477E+03 -0.41810263559E+02 -0.25243446647E+03  0.35681536405E+03  0.46999998093E+01 0.  1.
</event>
<event>
 5   0  0.6245176E-04  0.1096524E+04  0.7818609E-02  0.9208586E-01
        2   -1    0    0  501    0  0.00000000000E+00  0.00000000000E+00  0.57746386442E+03  0.57746386443E+03  0.25500000920E-02 0. -1.
       -2   -1    0    0    0  501  0.00000000000E+00  0.00000000000E+00 -0.52053720084E+03  0.52053720084E+03  0.25500000920E-02 0.  1.
    10030    2    1    2    0    0  0.00000000000E+00  0.00000000000E+00  0.56926663585E+02  0.10980010653E+04  0.10965243701E+04 0.  0.
        5    1    3    3  502    0  0.12301245588E+01 -0.54739351478E+03  0.58970084370E+02  0.55058217740E+03  0.46999998093E+01 0.  1.
       -5    1    3    3    0  502 -0.12301245588E+01  0.54739351478E+03 -0.20434207849E+01  0.54741888786E+03  0.46999998093E+01 0. -1.
</event>
<event>
 5   0  0.3642161E-04  0.1078880E+04  0.7818609E-02  0.9226025E-01
        1   -1    0    0  501    0  0.00000000000E+00  0.00000000000E+00  0.61989538904E+03  0.61989538906E+03  0.50400001928E-02 0.  1.
       -1   -1    0    0    0  501  0.00000000000E+00  0.00000000000E+00 -0.46942654771E+03  0.46942654774E+03  0.50400001928E-02 0. -1.
    10030    2    1    2    0    0  0.00000000000E+00  0.00000000000E+00  0.15046884133E+03  0.10893219368E+04  0.10788797012E+04 0.  0.
        2    1    3    3  502    0 -0.44265944495E+03  0.13406715629E+03 -0.20507460418E+03  0.50594167637E+03  0.25500000920E-02 0. -1.
       -2    1    3    3    0  502  0.44265944495E+03 -0.13406715629E+03  0.35554344551E+03  0.58338026042E+03  0.25500000920E-02 0.  1.
</event>
<event>
 5   0  0.3423758E-04  0.1100598E+04  0.7818609E-02  0.9204609E-01
       -1   -1    0    0    0  501  0.00000000000E+00  0.00000000000E+00  0.35502119967E+03  0.35502119970E+03  0.50400001928E-02 0.  1.
        1   -1    0    0  501    0  0.00000000000E+00  0.00000000000E+00 -0.85298858214E+03  0.85298858216E+03  0.50400001928E-02 0. -1.
    10030    2    1    2    0    0  0.00000000000E+00  0.00000000000E+00 -0.49796738248E+03  0.12080097819E+04  0.11005980734E+04 0.  0.
        1    1    3    3  502    0 -0.44815961669E+03  0.27123250242E+03 -0.63965299624E+02  0.52773636599E+03  0.50400001928E-02 0.  1.
       -1    1    3    3    0  502  0.44815961669E+03 -0.27123250242E+03 -0.43400208285E+03  0.68027341588E+03  0.50400001928E-02 0. -1.
</event>
<event>
 5   0  0.5948818E-04  0.1100022E+04  0.7818609E-02  0.9205170E-01
       -2   -1    0    0    0  501  0.00000000000E+00  0.00000000000E+00  0.72222646402E+03  0.72222646403E+03  0.25500000920E-02 0.  1.
        2   -1    0    0  501    0  0.00000000000E+00  0.00000000000E+00 -0.41886052527E+03  0.41886052528E+03  0.25500000920E-02 0. -1.
    10030    2    1    2    0    0  0.00000000000E+00  0.00000000000E+00  0.30336593876E+03  0.11410869893E+04  0.11000221018E+04 0.  0.
        3    1    3    3  502    0 -0.21803243628E+03 -0.35100556466E+03 -0.22486830868E+03  0.47043470976E+03  0.10100000352E+00 0. -1.
       -3    1    3    3    0  502  0.21803243628E+03  0.35100556466E+03  0.52823424743E+03  0.67065227955E+03  0.10100000352E+00 0.  1.
</event>
<event>
 5   0  0.6109149E-04  0.1101386E+04  0.7818609E-02  0.9203842E-01
       -2   -1    0    0    0  501  0.00000000000E+00  0.00000000000E+00  0.18361543288E+03  0.18361543290E+03  0.25500000920E-02 0.  1.
        2   -1    0    0  501    0  0.00000000000E+00  0.00000000000E+00 -0.16516200999E+04  0.16516200999E+04  0.25500000920E-02 0. -1.
    10030    2    1    2    0    0  0.00000000000E+00  0.00000000000E+00 -0.14680046670E+04  0.18352355328E+04  0.11013862894E+04 0.  0.
        1    1    3    3  502    0 -0.20875586182E+03 -0.10986682533E+03  0.95159014403E+02  0.25437171069E+03  0.50400001928E-02 0.  1.
       -1    1    3    3    0  502  0.20875586182E+03  0.10986682533E+03 -0.15631636814E+04  0.15808638221E+04  0.50400001928E-02 0. -1.
</event>
<event>
 5   0  0.2403875E-04  0.1124089E+04  0.7818609E-02  0.9182026E-01
        3   -1    0    0  501    0  0.00000000000E+00  0.00000000000E+00  0.96967819981E+03  0.96967820507E+03  0.10100000352E+00 0. -1.
       -3   -1    0    0    0  501  0.00000000000E+00  0.00000000000E+00 -0.32577174629E+03  0.32577176195E+03  0.10100000352E+00 0.  1.
    10030    2    1    2    0    0  0.00000000000E+00  0.00000000000E+00  0.64390645351E+03  0.12954499670E+04  0.11240885624E+04 0.  0.
        4    1    3    3  502    0 -0.29377903296E+03  0.38381357166E+02 -0.22846784295E+03  0.37413689600E+03  0.12699999809E+01 0.  1.
       -4    1    3    3    0  502  0.29377903296E+03 -0.38381357166E+02  0.87237429647E+03  0.92131307101E+03  0.12699999809E+01 0. -1.
</event>
<event>
 5   0  0.6245176E-04  0.1100871E+04  0.7818609E-02  0.9204343E-01
       -2   -1    0    0    0  501  0.00000000000E+00  0.00000000000E+00  0.42794877968E+03  0.42794877968E+03  0.25500000920E-02 0. -1.
        2   -1    0    0  501    0  0.00000000000E+00  0.00000000000E+00 -0.70798043157E+03  0.70798043157E+03  0.25500000920E-02 0.  1.
    10030    2    1    2    0    0  0.00000000000E+00  0.00000000000E+00 -0.28003165189E+03  0.11359292113E+04  0.11008712218E+04 0.  0.
        5    1    3    3  502    0  0.89314914659E+02  0.51504360245E+03 -0.31787143890E+03  0.61180994440E+03  0.46999998093E+01 0.  1.
       -5    1    3    3    0  502 -0.89314914659E+02 -0.51504360245E+03  0.37839787005E+02  0.52411926685E+03  0.46999998093E+01 0. -1.
</event>
<event>
 5   0  0.3621403E-04  0.1099909E+04  0.7818609E-02  0.9205280E-01
       -1   -1    0    0    0  501  0.00000000000E+00  0.00000000000E+00  0.35446249177E+03  0.35446249180E+03  0.50400001928E-02 0.  1.
        1   -1    0    0  501    0  0.00000000000E+00  0.00000000000E+00 -0.85326403577E+03  0.85326403578E+03  0.50400001928E-02 0. -1.
    10030    2    1    2    0    0  0.00000000000E+00  0.00000000000E+00 -0.49880154400E+03  0.12077265276E+04  0.10999092622E+04 0.  0.
        3    1    3    3  502    0  0.22624715166E+02 -0.26973507738E+02  0.35322388816E+03  0.35497404585E+03  0.10100000352E+00 0.  1.
       -3    1    3    3    0  502 -0.22624715166E+02  0.26973507738E+02 -0.85202543216E+03  0.85275248174E+03  0.10100000352E+00 0. -1.
</event>
<event>
 5   0  0.2403875E-04  0.1106187E+04  0.7818609E-02  0.9199183E-01
       -3   -1    0    0    0  501  0.00000000000E+00  0.00000000000E+00  0.40284872392E+03  0.40284873658E+03  0.10100000352E+00 0.  1.
        3   -1    0    0  501    0  0.00000000000E+00  0.00000000000E+00 -0.75937259749E+03  0.75937260420E+03  0.10100000352E+00 0. -1.
    10030    2    1    2    0    0  0.00000000000E+00  0.00000000000E+00 -0.35652387357E+03  0.11622213408E+04  0.11061867711E+04 0.  0.
        1    1    3    3  502    0  0.14083005518E+03 -0.41261053223E+03  0.17931884577E+03  0.47141892645E+03  0.50400001928E-02 0.  1.
       -1    1    3    3    0  502 -0.14083005518E+03  0.41261053223E+03 -0.53584271934E+03  0.69080241433E+03  0.50400001928E-02 0. -1.
</event>
<event>
 5   0  0.6412712E-04  0.1078281E+04  0.7818609E-02  0.9226623E-01
        2   -1    0    0  501    0  0.00000000000E+00  0.00000000000E+00  0.85303351770E+03  0.85303351770E+03  0.25500000920E-02 0. -1.
       -2   -1    0    0    0  501  0.00000000000E+00  0.00000000000E+00 -0.34075183066E+03  0.34075183066E+03  0.25500000920E-02 0.  1.
    10030    2    1    2    0    0  0.00000000000E+00  0.00000000000E+00  0.51228168704E+03  0.11937853484E+04  0.10782814712E+04 0.  0.
        2    1    3    3  502    0 -0.12375460479E+03 -0.45510153062E+03  0.54535131691E+03  0.72099976715E+03  0.25500000920E-02 0.  1.
       -2    1    3    3    0  502  0.12375460479E+03  0.45510153062E+03 -0.33069629862E+02  0.47278558121E+03  0.25500000920E-02 0. -1.
</event>
<event>
 5   0  0.3423758E-04  0.1100118E+04  0.7818609E-02  0.9205077E-01
       -1   -1    0    0    0  501  0.00000000000E+00  0.00000000000E+00  0.49738392298E+03  0.49738392301E+03  0.50400001928E-02 0. -1.
        1   -1    0    0  501    0  0.00000000000E+00  0.00000000000E+00 -0.60831220164E+03  0.60831220166E+03  0.50400001928E-02 0.  1.
    10030    2    1    2    0    0  0.00000000000E+00  0.00000000000E+00 -0.11092827866E+03  0.11056961247E+04  0.11001176469E+04 0.  0.
        1    1    3    3  502    0  0.49180321018E+03 -0.23594458164E+03 -0.12670704375E+03  0.55999546258E+03  0.50400001928E-02 0. -1.
       -1    1    3    3    0  502 -0.49180321018E+03  0.23594458164E+03  0.15778765091E+02  0.54570066209E+03  0.50400001928E-02 0.  1.
</event>
<event>
 5   0  0.5948818E-04  0.1093521E+04  0.7818609E-02  0.9211530E-01
       -2   -1    0    0    0  501  0.00000000000E+00  0.00000000000E+00  0.66879208721E+03  0.66879208721E+03  0.25500000920E-02 0. -1.
        2   -1    0    0  501    0  0.00000000000E+00  0.00000000000E+00 -0.44699513483E+03  0.44699513484E+03  0.25500000920E-02 0.  1.
    10030    2    1    2    0    0  0.00000000000E+00  0.00000000000E+00  0.22179695238E+03  0.11157872221E+04  0.10935205699E+04 0.  0.
        3    1    3    3  502    0 -0.44387537479E+03 -0.21785319782E+03 -0.12722321939E+03  0.51055961640E+03  0.10100000352E+00 0.  1.
       -3    1    3    3    0  502  0.44387537479E+03  0.21785319782E+03  0.34902017177E+03  0.60522760565E+03  0.10100000352E+00 0. -1.
</event>
<event>
 5   0  0.6412712E-04  0.1103969E+04  0.7818609E-02  0.9201332E-01
       -2   -1    0    0    0  501  0.00000000000E+00  0.00000000000E+00  0.22558105224E+03  0.22558105226E+03  0.25500000920E-02 0. -1.
        2   -1    0    0  501    0  0.00000000000E+00  0.00000000000E+00 -0.13506747090E+04  0.13506747090E+04  0.25500000920E-02 0.  1.
    10030    2    1    2    0    0  0.00000000000E+00  0.00000000000E+00 -0.11250936568E+04  0.15762557613E+04  0.11039685179E+04 0.  0.
        2    1    3    3  502    0 -0.30685717912E+02 -0.73439899477E+02 -0.13424383097E+04  0.13447957642E+04  0.25500000920E-02 0.  1.
       -2    1    3    3    0  502  0.30685717912E+02  0.73439899477E+02  0.21734465288E+03  0.23145999710E+03  0.25500000920E-02 0. -1.
</event>
<event>
 5   0  0.3423758E-04  0.1098965E+04  0.7818609E-02  0.9206201E-01
       -1   -1    0    0    0  501  0.00000000000E+00  0.00000000000E+00  0.49584312601E+03  0.49584312604E+03  0.50400001928E-02 0. -1.
        1   -1    0    0  501    0  0.00000000000E+00  0.00000000000E+00 -0.60892458231E+03  0.60892458233E+03  0.50400001928E-02 0.  1.
    10030    2    1    2    0    0  0.00000000000E+00  0.00000000000E+00 -0.11308145630E+03  0.11047677084E+04  0.10989650921E+04 0.  0.
        1    1    3    3  502    0 -0.28325097609E+03  0.13046140379E+02 -0.52969536871E+03  0.60081486408E+03  0.50400001928E-02 0.  1.
       -1    1    3    3    0  502  0.28325097609E+03 -0.13046140379E+02  0.41661391241E+03  0.50395284430E+03  0.50400001928E-02 0. -1.
</event>
<event>
 5   0  0.6245176E-04  0.1100642E+04  0.7818609E-02  0.9204566E-01
        2   -1    0    0  501    0  0.00000000000E+00  0.00000000000E+00  0.88548383449E+03  0.88548383449E+03  0.25500000920E-02 0. -1.
       -2   -1    0    0    0  501  0.00000000000E+00  0.00000000000E+00 -0.34202013928E+03  0.34202013929E+03  0.25500000920E-02 0.  1.
    10030    2    1    2    0    0  0.00000000000E+00  0.00000000000E+00  0.54346369521E+03  0.12275039738E+04  0.11006421842E+04 0.  0.
        5    1    3    3  502    0  0.50969939431E+02  0.29636447751E+03  0.78572273084E+03  0.84131571839E+03  0.46999998093E+01 0. -1.
       -5    1    3    3    0  502 -0.50969939431E+02 -0.29636447751E+03 -0.24225903563E+03  0.38618825539E+03  0.46999998093E+01 0.  1.
</event>
<event>
 5   0  0.6412712E-04  0.1107525E+04  0.7818609E-02  0.9197888E-01
        2   -1    0    0  501    0  0.00000000000E+00  0.00000000000E+00  0.19626476447E+04  0.19626476447E+04  0.25500000920E-02 0. -1.
       -2   -1    0    0    0  501  0.00000000000E+00  0.00000000000E+00 -0.15624463618E+03  0.15624463620E+03  0.25500000920E-02 0.  1.
    10030    2    1    2    0    0  0.00000000000E+00  0.00000000000E+00  0.18064030085E+04  0.21188922809E+04  0.11075254710E+04 0.  0.
        2    1    3    3  502    0  0.46844045439E+03  0.11933922456E+03  0.38637856294E+03  0.61884303643E+03  0.25500000920E-02 0.  1.
       -2    1    3    3    0  502 -0.46844045439E+03 -0.11933922456E+03  0.14200244456E+04  0.15000492445E+04  0.25500000920E-02 0. -1.
</event>
<event>
 5   0  0.6245176E-04  0.1099810E+04  0.7818609E-02  0.9205377E-01
       -2   -1    0    0    0  501  0.00000000000E+00  0.00000000000E+00  0.59188022888E+03  0.59188022889E+03  0.25500000920E-02 0. -1.
        2   -1    0    0  501    0  0.00000000000E+00  0.00000000000E+00 -0.51090622015E+03  0.51090622016E+03  0.25500000920E-02 0.  1.
    10030    2    1    2    0    0  0.00000000000E+00  0.00000000000E+00  0.80974008734E+02  0.11027864490E+04  0.10998096027E+04 0.  0.
        5    1    3    3  502    0  0.35140965793E+03 -0.18803588252E+03  0.42036195473E+03  0.57928620197E+03  0.46999998093E+01 0. -1.
       -5    1    3    3    0  502 -0.35140965793E+03  0.18803588252E+03 -0.33938794600E+03  0.52350024708E+03  0.46999998093E+01 0.  1.
</event>
<event>
 5   0  0.3423758E-04  0.1098188E+04  0.7818609E-02  0.9206960E-01
       -1   -1    0    0    0  501  0.00000000000E+00  0.00000000000E+00  0.10847995004E+04  0.10847995004E+04  0.50400001928E-02 0.  1.
        1   -1    0    0  501    0  0.00000000000E+00  0.00000000000E+00 -0.27793541174E+03  0.27793541179E+03  0.50400001928E-02 0. -1.
    10030    2    1    2    0    0  0.00000000000E+00  0.00000000000E+00  0.80686408862E+03  0.13627349122E+04  0.10981879545E+04 0.  0.
        1    1    3    3  502    0  0.40229941984E+03 -0.19946622599E+03  0.11276934147E+02  0.44917565360E+03  0.50400001928E-02 0. -1.
       -1    1    3    3    0  502 -0.40229941984E+03  0.19946622599E+03  0.79558715447E+03  0.91355925856E+03  0.50400001928E-02 0.  1.
</event>
<event>
 5   0  0.6264830E-04  0.1100314E+04  0.7818609E-02  0.9204886E-01
       -2   -1    0    0    0  501  0.00000000000E+00  0.00000000000E+00  0.71458008013E+03  0.71458008014E+03  0.25500000920E-02 0. -1.
        2   -1    0    0  501    0  0.00000000000E+00  0.00000000000E+00 -0.42356736075E+03  0.42356736076E+03  0.25500000920E-02 0.  1.
    10030    2    1    2    0    0  0.00000000000E+00  0.00000000000E+00  0.29101271938E+03  0.11381474409E+04  0.11003141344E+04 0.  0.
        4    1    3    3  502    0 -0.35875765297E+03 -0.41617521470E+03  0.17406590494E+03  0.57637610556E+03  0.12699999809E+01 0.  1.
       -4    1    3    3    0  502  0.35875765297E+03  0.41617521470E+03  0.11694681445E+03  0.56177133534E+03  0.12699999809E+01 0. -1.
</event>
<event>
 5   0  0.5948818E-04  0.1101413E+04  0.7818609E-02  0.9203816E-01
       -2   -1    0    0    0  501  0.00000000000E+00  0.00000000000E+00  0.19757721924E+03  0.19757721925E+03  0.25500000920E-02 0. -1.
        2   -1    0    0  501    0  0.00000000000E+00  0.00000000000E+00 -0.15349825679E+04  0.15349825679E+04  0.25500000920E-02 0.  1.
    10030    2    1    2    0    0  0.00000000000E+00  0.00000000000E+00 -0.13374053487E+04  0.17325597872E+04  0.11014128878E+04 0.  0.
        3    1    3    3  502    0 -0.95196613860E+02  0.15792403877E+03  0.14757184256E+03  0.23617759468E+03  0.10100000352E+00 0. -1.
       -3    1    3    3    0  502  0.95196613860E+02 -0.15792403877E+03 -0.14849771912E+04  0.14963821925E+04  0.10100000352E+00 0.  1.
</event>
<event>
 5   0  0.6245176E-04  0.1109748E+04  0.7818609E-02  0.9195743E-01
        2   -1    0    0  501    0  0.00000000000E+00  0.00000000000E+00  0.19802284479E+04  0.19802284479E+04  0.25500000920E-02 0.  1.
       -2   -1    0    0    0  501  0.00000000000E+00  0.00000000000E+00 -0.15547954930E+03  0.15547954932E+03  0.25500000920E-02 0. -1.
    10030    2    1    2    0    0  0.00000000000E+00  0.00000000000E+00  0.18247488986E+04  0.21357079972E+04  0.11097477670E+04 0.  0.
        5    1    3    3  502    0 -0.18128190228E+02 -0.13377069847E+03 -0.12335575797E+03  0.18292611643E+03  0.46999998093E+01 0. -1.
       -5    1    3    3    0  502  0.18128190228E+02  0.13377069847E+03  0.19481046565E+04  0.19527818808E+04  0.46999998093E+01 0.  1.
</event>
<event>
 5   0  0.5948818E-04  0.1099283E+04  0.7818609E-02  0.9205891E-01
       -2   -1    0    0    0  501  0.00000000000E+00  0.00000000000E+00  0.18818267076E+03  0.18818267078E+03  0.25500000920E-02 0.  1.
        2   -1    0    0  501    0  0.00000000000E+00  0.00000000000E+00 -0.16053856894E+04  0.16053856894E+04  0.25500000920E-02 0. -1.
    10030    2    1    2    0    0  0.00000000000E+00  0.00000000000E+00 -0.14172030186E+04  0.17935683601E+04  0.10992829784E+04 0.  0.
        3    1    3    3  502    0 -0.26798122239E+03 -0.18940505187E+03 -0.14280109963E+04  0.14652315943E+04  0.10100000352E+00 0. -1.
       -3    1    3    3    0  502  0.26798122239E+03  0.18940505187E+03  0.10807977674E+02  0.32833676585E+03  0.10100000352E+00 0.  1.
</event>
<event>
 5   0  0.3621403E-04  0.1099239E+04  0.7818609E-02  0.9205934E-01
       -1   -1    0    0    0  501  0.00000000000E+00  0.00000000000E+00  0.13399336303E+04  0.13399336303E+04  0.50400001928E-02 0.  1.
        1   -1    0    0  501    0  0.00000000000E+00  0.00000000000E+00 -0.22544528010E+03  0.22544528016E+03  0.50400001928E-02 0. -1.
    10030    2    1    2    0    0  0.00000000000E+00  0.00000000000E+00  0.11144883502E+04  0.15653789104E+04  0.10992392145E+04 0.  0.
        3    1    3    3  502    0 -0.53499183592E+02  0.50714641452E+03  0.26532279477E+03  0.57485288903E+03  0.10100000352E+00 0. -1.
       -3    1    3    3    0  502  0.53499183592E+02 -0.50714641452E+03  0.84916555540E+03  0.99052602141E+03  0.10100000352E+00 0.  1.
</event>
<event>
 5   0  0.3621403E-04  0.1097342E+04  0.7818609E-02  0.9207786E-01
        1   -1    0    0  501    0  0.00000000000E+00  0.00000000000E+00  0.90977479666E+03  0.90977479668E+03  0.50400001928E-02 0.  1.
       -1   -1    0    0    0  501  0.00000000000E+00  0.00000000000E+00 -0.33089494820E+03  0.33089494824E+03  0.50400001928E-02 0. -1.
    10030    2    1    2    0    0  0.00000000000E+00  0.00000000000E+00  0.57887984846E+03  0.12406697449E+04  0.10973420328E+04 0.  0.
        3    1    3    3  502    0  0.33304344319E+03 -0.38334607251E+03  0.54534107453E+02  0.51073097168E+03  0.10100000352E+00 0.  1.
       -3    1    3    3    0  502 -0.33304344319E+03  0.38334607251E+03  0.52434574101E+03  0.72993877324E+03  0.10100000352E+00 0. -1.
</event>
<event>
 5   0  0.6264830E-04  0.1100163E+04  0.7818609E-02  0.9205033E-01
        2   -1    0    0  501    0  0.00000000000E+00  0.00000000000E+00  0.13155537630E+04  0.13155537630E+04  0.25500000920E-02 0. -1.
       -2   -1    0    0    0  501  0.00000000000E+00  0.00000000000E+00 -0.23000929466E+03  0.23000929467E+03  0.25500000920E-02 0.  1.
    10030    2    1    2    0    0  0.00000000000E+00  0.00000000000E+00  0.10855444683E+04  0.15455630576E+04  0.11001628845E+04 0.  0.
        4    1    3    3  502    0  0.29371820175E+03  0.18552127574E+03  0.11419358562E+04  0.11936111755E+04  0.12699999809E+01 0. -1.
       -4    1    3    3    0  502 -0.29371820175E+03 -0.18552127574E+03 -0.56391387885E+02  0.35195188211E+03  0.12699999809E+01 0.  1.
</event>
<event>
 5   0  0.3523525E-04  0.1100353E+04  0.7818609E-02  0.9204848E-01
       -1   -1    0    0    0  501  0.00000000000E+00  0.00000000000E+00  0.63823505042E+03  0.63823505044E+03  0.50400001928E-02 0.  1.
        1   -1    0    0  501    0  0.00000000000E+00  0.00000000000E+00 -0.47426719239E+03  0.47426719241E+03  0.50400001928E-02 0. -1.
    10030    2    1    2    0    0  0.00000000000E+00  0.00000000000E+00  0.16396785803E+03  0.11125022429E+04  0.11003525716E+04 0.  0.
        5    1    3    3  502    0  0.17801784003E+03  0.41477059864E+03 -0.23604749145E+03  0.50937757026E+03  0.46999998093E+01 0. -1.
       -5    1    3    3    0  502 -0.17801784003E+03 -0.41477059864E+03  0.40001534948E+03  0.60312467259E+03  0.46999998093E+01 0.  1.
</event>
<event>
 5   0  0.2403875E-04  0.1100261E+04  0.7818609E-02  0.9204937E-01
       -3   -1    0    0    0  501  0.00000000000E+00  0.00000000000E+00  0.13691642770E+04  0.13691642807E+04  0.10100000352E+00 0.  1.
        3   -1    0    0  501    0  0.00000000000E+00  0.00000000000E+00 -0.22104257626E+03  0.22104259933E+03  0.10100000352E+00 0. -1.
    10030    2    1    2    0    0  0.00000000000E+00  0.00000000000E+00  0.11481217007E+04  0.15902068801E+04  0.11002610970E+04 0.  0.
        2    1    3    3  502    0 -0.77376565551E+02  0.20259637545E+03  0.13047754876E+04  0.13226758852E+04  0.25500000920E-02 0.  1.
       -2    1    3    3    0  502  0.77376565551E+02 -0.20259637545E+03 -0.15665378688E+03  0.26753099483E+03  0.25500000920E-02 0. -1.
</event>
<event>
 5   0  0.3621403E-04  0.1100029E+04  0.7818609E-02  0.9205164E-01
       -1   -1    0    0    0  501  0.00000000000E+00  0.00000000000E+00  0.57546726769E+03  0.57546726771E+03  0.50400001928E-02 0.  1.
        1   -1    0    0  501    0  0.00000000000E+00  0.00000000000E+00 -0.52568754894E+03  0.52568754897E+03  0.50400001928E-02 0. -1.
    10030    2    1    2    0    0  0.00000000000E+00  0.00000000000E+00  0.49779718749E+02  0.11011548167E+04  0.11000290496E+04 0.  0.
        3    1    3    3  502    0  0.48888104172E+02 -0.25647621667E+03  0.50947811169E+03  0.57248410715E+03  0.10100000352E+00 0.  1.
       -3    1    3    3    0  502 -0.48888104172E+02  0.25647621667E+03 -0.45969839294E+03  0.52867070953E+03  0.10100000352E+00 0. -1.
</event>
<event>
 5   0  0.3523525E-04  0.1096373E+04  0.7818609E-02  0.9208734E-01
       -1   -1    0    0    0  501  0.00000000000E+00  0.00000000000E+00  0.30767744655E+03  0.30767744659E+03  0.50400001928E-02 0. -1.
        1   -1    0    0  501    0  0.00000000000E+00  0.00000000000E+00 -0.97669989263E+03  0.97669989264E+03  0.50400001928E-02 0.  1.
    10030    2    1    2    0    0  0.00000000000E+00  0.00000000000E+00 -0.66902244608E+03  0.12843773392E+04  0.10963731647E+04 0.  0.
        5    1    3    3  502    0 -0.24978153605E+03  0.11858796456E+03 -0.88899617900E+03  0.93101569126E+03  0.46999998093E+01 0.  1.
       -5    1    3    3    0  502  0.24978153605E+03 -0.11858796456E+03  0.21997373292E+03  0.35336164798E+03  0.46999998093E+01 0. -1.
</event>
<event>
 5   0  0.3621403E-04  0.1099789E+04  0.7818609E-02  0.9205397E-01
       -1   -1    0    0    0  501  0.00000000000E+00  0.00000000000E+00  0.19150563552E+03  0.19150563558E+03  0.50400001928E-02 0.  1.
        1   -1    0    0  501    0  0.00000000000E+00  0.00000000000E+00 -0.15789833172E+04  0.15789833173E+04  0.50400001928E-02 0. -1.
    10030    2    1    2    0    0  0.00000000000E+00  0.00000000000E+00 -0.13874776817E+04  0.17704889528E+04  0.10997894411E+04 0.  0.
        3    1    3    3  502    0 -0.17734771838E+03  0.48940807316E+03 -0.97905707135E+03  0.11088395891E+04  0.10100000352E+00 0. -1.
       -3    1    3    3    0  502  0.17734771838E+03 -0.48940807316E+03 -0.40842061038E+03  0.66164936369E+03  0.10100000352E+00 0.  1.
</event>
<event>
 5   0  0.6109149E-04  0.1101362E+04  0.7818609E-02  0.9203866E-01
        2   -1    0    0  501    0  0.00000000000E+00  0.00000000000E+00  0.53999514158E+03  0.53999514159E+03  0.25500000920E-02 0.  1.
       -2   -1    0    0    0  501  0.00000000000E+00  0.00000000000E+00 -0.56157811046E+03  0.56157811046E+03  0.25500000920E-02 0. -1.
    10030    2    1    2    0    0  0.00000000000E+00  0.00000000000E+00 -0.21582968878E+02  0.11015732521E+04  0.11013617957E+04 0.  0.
        1    1    3    3  502    0  0.13255694091E+03  0.59516889258E+02 -0.54205808088E+03  0.56119565729E+03  0.50400001928E-02 0. -1.
       -1    1    3    3    0  502 -0.13255694091E+03 -0.59516889258E+02  0.52047511200E+03  0.54037759477E+03  0.50400001928E-02 0.  1.
</event>
<event>
 5   0  0.3642161E-04  0.1099838E+04  0.7818609E-02  0.9205349E-01
        1   -1    0    0  501    0  0.00000000000E+00  0.00000000000E+00  0.89596264308E+03  0.89596264309E+03  0.50400001928E-02 0. -1.
       -1   -1    0    0    0  501  0.00000000000E+00  0.00000000000E+00 -0.33752650631E+03  0.33752650634E+03  0.50400001928E-02 0.  1.
    10030    2    1    2    0    0  0.00000000000E+00  0.00000000000E+00  0.55843613677E+03  0.12334891494E+04  0.10998384258E+04 0.  0.
        2    1    3    3  502    0 -0.26253044143E+03  0.19444470428E+03 -0.21689406379E+03  0.39214029455E+03  0.25500000920E-02 0.  1.
       -2    1    3    3    0  502  0.26253044143E+03 -0.19444470428E+03  0.77533020056E+03  0.84134885488E+03  0.25500000920E-02 0. -1.
</event>
<event>
 5   0  0.3621403E-04  0.1098437E+04  0.7818609E-02  0.9206717E-01
       -1   -1    0    0    0  501  0.00000000000E+00  0.00000000000E+00  0.72428345883E+03  0.72428345885E+03  0.50400001928E-02 0. -1.
        1   -1    0    0  501    0  0.00000000000E+00  0.00000000000E+00 -0.41646807040E+03  0.41646807043E+03  0.50400001928E-02 0.  1.
    10030    2    1    2    0    0  0.00000000000E+00  0.00000000000E+00  0.30781538844E+03  0.11407515293E+04  0.10984369523E+04 0.  0.
        3    1    3    3  502    0  0.16244987116E+03  0.41390550715E+03 -0.18089817597E+03  0.48003321735E+03  0.10100000352E+00 0.  1.
       -3    1    3    3    0  502 -0.16244987116E+03 -0.41390550715E+03  0.48871356441E+03  0.66071831193E+03  0.10100000352E+00 0. -1.
</event>
<event>
 5   0  0.3642161E-04  0.1103130E+04  0.7818609E-02  0.9202147E-01
       -1   -1    0    0    0  501  0.00000000000E+00  0.00000000000E+00  0.88662018186E+03  0.88662018188E+03  0.50400001928E-02 0.  1.
        1   -1    0    0  501    0  0.00000000000E+00  0.00000000000E+00 -0.34312766028E+03  0.34312766032E+03  0.50400001928E-02 0. -1.
    10030    2    1    2    0    0  0.00000000000E+00  0.00000000000E+00  0.54349252158E+03  0.12297478422E+04  0.11031299263E+04 0.  0.
        2    1    3    3  502    0 -0.45648964745E+03 -0.30563891556E+03  0.21683877634E+03  0.59060731444E+03  0.25500000920E-02 0.  1.
       -2    1    3    3    0  502  0.45648964745E+03  0.30563891556E+03  0.32665374525E+03  0.63914052776E+03  0.25500000920E-02 0. -1.
</event>
<event>
 5   0  0.3621403E-04  0.1105400E+04  0.7818609E-02  0.9199944E-01
       -1   -1    0    0    0  501  0.00000000000E+00  0.00000000000E+00  0.39211219127E+03  0.39211219131E+03  0.50400001928E-02 0. -1.
        1   -1    0    0  501    0  0.00000000000E+00  0.00000000000E+00 -0.77905648857E+03  0.77905648859E+03  0.50400001928E-02 0.  1.
    10030    2    1    2    0    0  0.00000000000E+00  0.00000000000E+00 -0.38694429730E+03  0.11711686799E+04  0.11054004648E+04 0.  0.
        3    1    3    3  502    0  0.52254501020E+03 -0.95148019210E+02 -0.35544395130E+03  0.63909846344E+03  0.10100000352E+00 0.  1.
       -3    1    3    3    0  502 -0.52254501020E+03  0.95148019210E+02 -0.31500345995E+02  0.53207021646E+03  0.10100000352E+00 0. -1.
</event>
<event>
 5   0  0.6245176E-04  0.1098376E+04  0.7818609E-02  0.9206776E-01
        2   -1    0    0  501    0  0.00000000000E+00  0.00000000000E+00  0.31103996476E+03  0.31103996477E+03  0.25500000920E-02 0.  1.
       -2   -1    0    0    0  501  0.00000000000E+00  0.00000000000E+00 -0.96967374619E+03  0.96967374620E+03  0.25500000920E-02 0. -1.
    10030    2    1    2    0    0  0.00000000000E+00  0.00000000000E+00 -0.65863378144E+03  0.12807137110E+04  0.10983756877E+04 0.  0.
        5    1    3    3  502    0  0.43513219718E+03  0.35584321860E+02 -0.71775461782E+03  0.84011907155E+03  0.46999998093E+01 0. -1.
       -5    1    3    3    0  502 -0.43513219718E+03 -0.35584321860E+02  0.59120836384E+02  0.44059463941E+03  0.46999998093E+01 0.  1.
</event>
<event>
 5   0  0.6109149E-04  0.1099478E+04  0.7818609E-02  0.9205701E-01
        2   -1    0    0  501    0  0.00000000000E+00  0.00000000000E+00  0.29719519297E+03  0.29719519299E+03  0.25500000920E-02 0. -1.
       -2   -1    0    0    0  501  0.00000000000E+00  0.00000000000E+00 -0.10168839503E+04  0.10168839503E+04  0.25500000920E-02 0.  1.
    10030    2    1    2    0    0  0.00000000000E+00  0.00000000000E+00 -0.71968875734E+03  0.13140791433E+04  0.10994780977E+04 0.  0.
        1    1    3    3  502    0 -0.47431599257E+03 -0.69392014936E+02 -0.68148472769E+03  0.83319406301E+03  0.50400001928E-02 0.  1.
       -1    1    3    3    0  502  0.47431599257E+03  0.69392014936E+02 -0.38204029654E+02  0.48088508029E+03  0.50400001928E-02 0. -1.
</event>
<event>
 5   0  0.3423758E-04  0.1106259E+04  0.7818609E-02  0.9199113E-01
       -1   -1    0    0    0  501  0.00000000000E+00  0.00000000000E+00  0.29036554900E+03  0.29036554904E+03  0.50400001928E-02 0. -1.
        1   -1    0    0  501    0  0.00000000000E+00  0.00000000000E+00 -0.10536787823E+04  0.10536787823E+04  0.50400001928E-02 0.  1.
    10030    2    1    2    0    0  0.00000000000E+00  0.00000000000E+00 -0.76331323328E+03  0.13440443313E+04  0.11062585921E+04 0.  0.
        1    1    3    3  502    0 -0.38215928662E+03  0.84801520486E+02  0.93129252573E+02  0.40238051137E+03  0.50400001928E-02 0. -1.
       -1    1    3    3    0  502  0.38215928662E+03 -0.84801520486E+02 -0.85644248585E+03  0.94166381996E+03  0.50400001928E-02 0.  1.
</event>
<event>
 5   0  0.6412712E-04  0.1100425E+04  0.7818609E-02  0.9204778E-01
        2   -1    0    0  501    0  0.00000000000E+00  0.00000000000E+00  0.90295256382E+03  0.90295256383E+03  0.25500000920E-02 0.  1.
       -2   -1    0    0    0  501  0.00000000000E+00  0.00000000000E+00 -0.33527088494E+03  0.33527088495E+03  0.25500000920E-02 0. -1.
    10030    2    1    2    0    0  0.00000000000E+00  0.00000000000E+00  0.56768167888E+03  0.12382234488E+04  0.11004248364E+04 0.  0.
        2    1    3    3  502    0 -0.41395343391E+03 -0.21320056807E+03  0.61367092449E+03  0.77032715858E+03  0.25500000920E-02 0.  1.
       -2    1    3    3    0  502  0.41395343391E+03  0.21320056807E+03 -0.45989245608E+02  0.46789629021E+03  0.25500000920E-02 0. -1.
</event>
<event>
 5   0  0.6245176E-04  0.1088903E+04  0.7818609E-02  0.9216075E-01
       -2   -1    0    0    0  501  0.00000000000E+00  0.00000000000E+00  0.60011452169E+03  0.60011452169E+03  0.25500000920E-02 0. -1.
        2   -1    0    0  501    0  0.00000000000E+00  0.00000000000E+00 -0.49395180627E+03  0.49395180627E+03  0.25500000920E-02 0.  1.
    10030    2    1    2    0    0  0.00000000000E+00  0.00000000000E+00  0.10616271542E+03  0.10940663280E+04  0.10889033969E+04 0.  0.
        5    1    3    3  502    0 -0.21869736986E+03 -0.43308329637E+03 -0.19510376346E+03  0.52295052318E+03  0.46999998093E+01 0.  1.
       -5    1    3    3    0  502  0.21869736986E+03  0.43308329637E+03  0.30126647888E+03  0.57111580478E+03  0.46999998093E+01 0. -1.
</event>
<event>
 5   0  0.3642161E-04  0.1100300E+04  0.7818609E-02  0.9204899E-01
        1   -1    0    0  501    0  0.00000000000E+00  0.00000000000E+00  0.41172569958E+03  0.41172569961E+03  0.50400001928E-02 0. -1.
       -1   -1    0    0    0  501  0.00000000000E+00  0.00000000000E+00 -0.73511333670E+03  0.73511333672E+03  0.50400001928E-02 0.  1.
    10030    2    1    2    0    0  0.00000000000E+00  0.00000000000E+00 -0.32338763712E+03  0.11468390363E+04  0.11003000552E+04 0.  0.
        2    1    3    3  502    0  0.49518094211E+03  0.82782234442E+02 -0.39617115540E+03  0.63953783949E+03  0.25500000920E-02 0.  1.
       -2    1    3    3    0  502 -0.49518094211E+03 -0.82782234442E+02  0.72783518275E+02  0.50730119683E+03  0.25500000920E-02 0. -1.
</event>
<event>
 5   0  0.6412712E-04  0.1101574E+04  0.7818609E-02  0.9203659E-01
       -2   -1    0    0    0  501  0.00000000000E+00  0.00000000000E+00  0.21536482088E+03  0.21536482090E+03  0.25500000920E-02 0.  1.
        2   -1    0    0  501    0  0.00000000000E+00  0.00000000000E+00 -0.14086152958E+04  0.14086152958E+04  0.25500000920E-02 0. -1.
    10030    2    1    2    0    0  0.00000000000E+00  0.00000000000E+00 -0.11932504749E+04  0.16239801167E+04  0.11015737486E+04 0.  0.
        2    1    3    3  502    0  0.26812446827E+03  0.44239312064E+03 -0.87542270220E+03  0.10168418320E+04  0.25500000920E-02 0. -1.
       -2    1    3    3    0  502 -0.26812446827E+03 -0.44239312064E+03 -0.31782777270E+03  0.60713828473E+03  0.25500000920E-02 0.  1.
</event>
<event>
 5   0  0.5948818E-04  0.1097478E+04  0.7818609E-02  0.9207654E-01
        2   -1    0    0  501    0  0.00000000000E+00  0.00000000000E+00  0.38743314647E+03  0.38743314648E+03  0.25500000920E-02 0.  1.
       -2   -1    0    0    0  501  0.00000000000E+00  0.00000000000E+00 -0.77720345087E+03  0.77720345087E+03  0.25500000920E-02 0. -1.
    10030    2    1    2    0    0  0.00000000000E+00  0.00000000000E+00 -0.38977030440E+03  0.11646365974E+04  0.10974777965E+04 0.  0.
        3    1    3    3  502    0  0.11041964591E+03 -0.49669373273E+03 -0.41292678915E+03  0.65529055062E+03  0.10100000352E+00 0.  1.
       -3    1    3    3    0  502 -0.11041964591E+03  0.49669373273E+03  0.23156484754E+02  0.50934604673E+03  0.10100000352E+00 0. -1.
</event>
<event>
 5   0  0.3523525E-04  0.1101111E+04  0.7818609E-02  0.9204110E-01
       -1   -1    0    0    0  501  0.00000000000E+00  0.00000000000E+00  0.14718752806E+03  0.14718752815E+03  0.50400001928E-02 0.  1.
        1   -1    0    0  501    0  0.00000000000E+00  0.00000000000E+00 -0.20593533185E+04  0.20593533186E+04  0.50400001928E-02 0. -1.
    10030    2    1    2    0    0  0.00000000000E+00  0.00000000000E+00 -0.19121657905E+04  0.22065408467E+04  0.11011105748E+04 0.  0.
        5    1    3    3  502    0  0.30415243304E+03 -0.40954014880E+03 -0.54123114478E+03  0.74376412799E+03  0.46999998093E+01 0.  1.
       -5    1    3    3    0  502 -0.30415243304E+03  0.40954014880E+03 -0.13709346457E+04  0.14627767187E+04  0.46999998093E+01 0. -1.
</event>
<event>
 5   0  0.3523525E-04  0.1101359E+04  0.7818609E-02  0.9203869E-01
       -1   -1    0    0    0  501  0.00000000000E+00  0.00000000000E+00  0.37624238852E+03  0.37624238856E+03  0.50400001928E-02 0. -1.
        1   -1    0    0  501    0  0.00000000000E+00  0.00000000000E+00 -0.80599023006E+03  0.80599023007E+03  0.50400001928E-02 0.  1.
    10030    2    1    2    0    0  0.00000000000E+00  0.00000000000E+00 -0.42974784153E+03  0.11822326186E+04  0.11013585961E+04 0.  0.
        5    1    3    3  502    0  0.82322808209E+02  0.60533548728E+02  0.36595474592E+03  0.37998200133E+03  0.46999998093E+01 0. -1.
       -5    1    3    3    0  502 -0.82322808209E+02 -0.60533548728E+02 -0.79570258746E+03  0.80225061730E+03  0.46999998093E+01 0.  1.
</event>
<event>
 5   0  0.6109149E-04  0.1100296E+04  0.7818609E-02  0.9204904E-01
        2   -1    0    0  501    0  0.00000000000E+00  0.00000000000E+00  0.11021098650E+04  0.11021098650E+04  0.25500000920E-02 0. -1.
       -2   -1    0    0    0  501  0.00000000000E+00  0.00000000000E+00 -0.27462117298E+03  0.27462117299E+03  0.25500000920E-02 0.  1.
    10030    2    1    2    0    0  0.00000000000E+00  0.00000000000E+00  0.82748869205E+03  0.13767310380E+04  0.11002957855E+04 0.  0.
        1    1    3    3  502    0  0.21086291419E+03 -0.47288470955E+02 -0.21929183805E+03  0.30787705067E+03  0.50400001928E-02 0.  1.
       -1    1    3    3    0  502 -0.21086291419E+03  0.47288470955E+02  0.10467805301E+04  0.10688539874E+04  0.50400001928E-02 0. -1.
</event>
<event>
 5   0  0.3657529E-04  0.1098344E+04  0.7818609E-02  0.9206807E-01
       -1   -1    0    0    0  501  0.00000000000E+00  0.00000000000E+00  0.56750705074E+03  0.56750705076E+03  0.50400001928E-02 0. -1.
        1   -1    0    0  501    0  0.00000000000E+00  0.00000000000E+00 -0.53142977225E+03  0.53142977227E+03  0.50400001928E-02 0.  1.
    10030    2    1    2    0    0  0.00000000000E+00  0.00000000000E+00  0.36077278492E+02  0.10989368230E+04  0.10983444683E+04 0.  0.
        4    1    3    3  502    0 -0.43781736522E+03 -0.94742218022E+02 -0.29982499605E+03  0.53903318480E+03  0.12699999809E+01 0.  1.
       -4    1    3    3    0  502  0.43781736522E+03  0.94742218022E+02  0.33590227455E+03  0.55990363823E+03  0.12699999809E+01 0. -1.
</event>
<event>
 5   0  0.3642161E-04  0.1101383E+04  0.7818609E-02  0.9203845E-01
        1   -1    0    0  501    0  0.00000000000E+00  0.00000000000E+00  0.72277071391E+03  0.72277071393E+03  0.50400001928E-02 0. -1.
       -1   -1    0    0    0  501  0.00000000000E+00  0.00000000000E+00 -0.41958117411E+03  0.41958117414E+03  0.50400001928E-02 0.  1.
    10030    2    1    2    0    0  0.00000000000E+00  0.00000000000E+00  0.30318953981E+03  0.11423518881E+04  0.11013827396E+04 0.  0.
        2    1    3    3  502    0 -0.27738712020E+03 -0.46488743649E+03  0.46858106191E+02  0.54337797635E+03  0.25500000920E-02 0. -1.
       -2    1    3    3    0  502  0.27738712020E+03  0.46488743649E+03  0.25633143362E+03  0.59897391172E+03  0.25500000920E-02 0.  1.
</event>
<event>
 5   0  0.6264830E-04  0.1095206E+04  0.7818609E-02  0.9209877E-01
       -2   -1    0    0    0  501  0.00000000000E+00  0.00000000000E+00  0.94324427054E+03  0.94324427054E+03  0.25500000920E-02 0.  1.
        2   -1    0    0  501    0  0.00000000000E+00  0.00000000000E+00 -0.31791215331E+03  0.31791215332E+03  0.25500000920E-02 0. -1.
    10030    2    1    2    0    0  0.00000000000E+00  0.00000000000E+00  0.62533211723E+03  0.12611564239E+04  0.10952055828E+04 0.  0.
        4    1    3    3  502    0  0.25067016448E+00 -0.51945832863E+03  0.11311578841E+03  0.53163315595E+03  0.12699999809E+01 0.  1.
       -4    1    3    3    0  502 -0.25067016448E+00  0.51945832863E+03  0.51221632882E+03  0.72952326791E+03  0.12699999809E+01 0. -1.
</event>
<event>
 5   0  0.6412712E-04  0.1095637E+04  0.7818609E-02  0.9209455E-01
       -2   -1    0    0    0  501  0.00000000000E+00  0.00000000000E+00  0.16653641933E+04  0.16653641933E+04  0.25500000920E-02 0.  1.
        2   -1    0    0  501    0  0.00000000000E+00  0.00000000000E+00 -0.18020391157E+03  0.18020391158E+03  0.25500000920E-02 0. -1.
    10030    2    1    2    0    0  0.00000000000E+00  0.00000000000E+00  0.14851602817E+04  0.18455681049E+04  0.10956370600E+04 0.  0.
        2    1    3    3  502    0 -0.37126773739E+03 -0.33855731566E+01  0.14210975533E+04  0.14687986421E+04  0.25500000920E-02 0.  1.
       -2    1    3    3    0  502  0.37126773739E+03  0.33855731566E+01  0.64062728428E+02  0.37676946281E+03  0.25500000920E-02 0. -1.
</event>
<event>
 5   0  0.5948818E-04  0.1095275E+04  0.7818609E-02  0.9209809E-01
        2   -1    0    0  501    0  0.00000000000E+00  0.00000000000E+00  0.11856487441E+04  0.11856487441E+04  0.25500000920E-02 0.  1.
       -2   -1    0    0    0  501  0.00000000000E+00  0.00000000000E+00 -0.25294760936E+03  0.25294760937E+03  0.25500000920E-02 0. -1.
    10030    2    1    2    0    0  0.00000000000E+00  0.00000000000E+00  0.93270113476E+03  0.14385963535E+04  0.10952753359E+04 0.  0.
        3    1    3    3  502    0 -0.50960316439E+03 -0.20008674818E+03  0.48382068373E+03  0.73062477111E+03  0.10100000352E+00 0.  1.
       -3    1    3    3    0  502  0.50960316439E+03  0.20008674818E+03  0.44888045103E+03  0.70797158239E+03  0.10100000352E+00 0. -1.
</event>
<event>
 5   0  0.2403875E-04  0.1099830E+04  0.7818609E-02  0.9205357E-01
        4   -1    0    0  501    0  0.00000000000E+00  0.00000000000E+00  0.45170059959E+03  0.45170238495E+03  0.12699999809E+01 0. -1.
       -4   -1    0    0    0  501  0.00000000000E+00  0.00000000000E+00 -0.66948084353E+03  0.66948204812E+03  0.12699999809E+01 0.  1.
    10030    2    1    2    0    0  0.00000000000E+00  0.00000000000E+00 -0.21778024394E+03  0.11211844331E+04  0.10998301225E+04 0.  0.
        4    1    3    3  502    0  0.41640533188E+03  0.30986829793E+03 -0.29405715324E+03  0.59655928854E+03  0.12699999809E+01 0.  1.
       -4    1    3    3    0  502 -0.41640533188E+03 -0.30986829793E+03  0.76276909305E+02  0.52462514452E+03  0.12699999809E+01 0. -1.
</event>
<event>
 5   0  0.6264830E-04  0.1101867E+04  0.7818609E-02  0.9203374E-01
        2   -1    0    0  501    0  0.00000000000E+00  0.00000000000E+00  0.69286706602E+03  0.69286706603E+03  0.25500000920E-02 0.  1.
       -2   -1    0    0    0  501  0.00000000000E+00  0.00000000000E+00 -0.43807492689E+03  0.43807492690E+03  0.25500000920E-02 0. -1.
    10030    2    1    2    0    0  0.00000000000E+00  0.00000000000E+00  0.25479213913E+03  0.11309419929E+04  0.11018669417E+04 0.  0.
        4    1    3    3  502    0 -0.26015759530E+03 -0.46950795264E+03 -0.16169925975E-02  0.53676932185E+03  0.12699999809E+01 0. -1.
       -4    1    3    3    0  502  0.26015759530E+03  0.46950795264E+03  0.25479375613E+03  0.59417267107E+03  0.12699999809E+01 0.  1.
</event>
<event>
 5   0  0.5948818E-04  0.1101511E+04  0.7818609E-02  0.9203721E-01
        2   -1    0    0  501    0  0.00000000000E+00  0.00000000000E+00  0.14453413811E+04  0.14453413811E+04  0.25500000920E-02 0.  1.
       -2   -1    0    0    0  501  0.00000000000E+00  0.00000000000E+00 -0.20986839635E+03  0.20986839636E+03  0.25500000920E-02 0. -1.
    10030    2    1    2    0    0  0.00000000000E+00  0.00000000000E+00  0.12354729848E+04  0.16552097775E+04  0.11015107405E+04 0.  0.
        3    1    3    3  502    0 -0.28986858961E+03 -0.30933632366E+03  0.89405112902E+02  0.43325055659E+03  0.10100000352E+00 0. -1.
       -3    1    3    3    0  502  0.28986858961E+03  0.30933632366E+03  0.11460678719E+04  0.12219592209E+04  0.10100000352E+00 0.  1.
</event>
<event>
 5   0  0.3621403E-04  0.1100344E+04  0.7818609E-02  0.9204856E-01
        1   -1    0    0  501    0  0.00000000000E+00  0.00000000000E+00  0.63500406941E+03  0.63500406943E+03  0.50400001928E-02 0.  1.
       -1   -1    0    0    0  501  0.00000000000E+00  0.00000000000E+00 -0.47667310708E+03  0.47667310710E+03  0.50400001928E-02 0. -1.
    10030    2    1    2    0    0  0.00000000000E+00  0.00000000000E+00  0.15833096233E+03  0.11116771765E+04  0.11003442421E+04 0.  0.
        3    1    3    3  502    0  0.27403273883E+03 -0.21726725335E+03  0.50826375385E+03  0.61695304117E+03  0.10100000352E+00 0.  1.
       -3    1    3    3    0  502 -0.27403273883E+03  0.21726725335E+03 -0.34993279152E+03  0.49472413536E+03  0.10100000352E+00 0. -1.
</event>
<event>
 5   0  0.5948818E-04  0.1098961E+04  0.7818609E-02  0.9206205E-01
       -2   -1    0    0    0  501  0.00000000000E+00  0.00000000000E+00  0.38374385643E+03  0.38374385643E+03  0.25500000920E-02 0.  1.
        2   -1    0    0  501    0  0.00000000000E+00  0.00000000000E+00 -0.78679827635E+03  0.78679827636E+03  0.25500000920E-02 0. -1.
    10030    2    1    2    0    0  0.00000000000E+00  0.00000000000E+00 -0.40305441993E+03  0.11705421328E+04  0.10989613365E+04 0.  0.
        3    1    3    3  502    0  0.39016630308E+03 -0.38345989637E+03 -0.14661582614E+03  0.56636335233E+03  0.10100000352E+00 0.  1.
       -3    1    3    3    0  502 -0.39016630308E+03  0.38345989637E+03 -0.25643859378E+03  0.60417878047E+03  0.10100000352E+00 0. -1.
</event>
<event>
 5   0  0.3642161E-04  0.1102149E+04  0.7818609E-02  0.9203100E-01
       -1   -1    0    0    0  501  0.00000000000E+00  0.00000000000E+00  0.54438434036E+03  0.54438434039E+03  0.50400001928E-02 0. -1.
        1   -1    0    0  501    0  0.00000000000E+00  0.00000000000E+00 -0.55784681539E+03  0.55784681541E+03  0.50400001928E-02 0.  1.
    10030    2    1    2    0    0  0.00000000000E+00  0.00000000000E+00 -0.13462475026E+02  0.11022311558E+04  0.11021489385E+04 0.  0.
        2    1    3    3  502    0 -0.29729310474E+03  0.46301946254E+03  0.23484553500E+02  0.55074652706E+03  0.25500000920E-02 0. -1.
       -2    1    3    3    0  502  0.29729310474E+03 -0.46301946254E+03 -0.36947028526E+02  0.55148462874E+03  0.25500000920E-02 0.  1.
</event>
<event>
 5   0  0.3423758E-04  0.1098494E+04  0.7818609E-02  0.9206661E-01
        1   -1    0    0  501    0  0.00000000000E+00  0.00000000000E+00  0.48625590651E+03  0.48625590654E+03  0.50400001928E-02 0.  1.
       -1   -1    0    0    0  501  0.00000000000E+00  0.00000000000E+00 -0.62039773087E+03  0.62039773089E+03  0.50400001928E-02 0. -1.
    10030    2    1    2    0    0  0.00000000000E+00  0.00000000000E+00 -0.13414182435E+03  0.11066536374E+04  0.10984936250E+04 0.  0.
        1    1    3    3  502    0 -0.26025606203E+03  0.40801416351E+03  0.19459546350E+03  0.52160921185E+03  0.50400001928E-02 0. -1.
       -1    1    3    3    0  502  0.26025606203E+03 -0.40801416351E+03 -0.32873728785E+03  0.58504442558E+03  0.50400001928E-02 0.  1.
</event>
<event>
 5   0  0.6264830E-04  0.1102536E+04  0.7818609E-02  0.9202723E-01
        2   -1    0    0  501    0  0.00000000000E+00  0.00000000000E+00  0.67650670032E+03  0.67650670033E+03  0.25500000920E-02 0. -1.
       -2   -1    0    0    0  501  0.00000000000E+00  0.00000000000E+00 -0.44921439851E+03  0.44921439852E+03  0.25500000920E-02 0.  1.
    10030    2    1    2    0    0  0.00000000000E+00  0.00000000000E+00  0.22729230182E+03  0.11257210988E+04  0.11025362588E+04 0.  0.
        4    1    3    3  502    0  0.42966315324E+03  0.17732839503E+03 -0.18896295604E+03  0.50176129443E+03  0.12699999809E+01 0.  1.
       -4    1    3    3    0  502 -0.42966315324E+03 -0.17732839503E+03  0.41625525786E+03  0.62395980442E+03  0.12699999809E+01 0. -1.
</event>
<event>
 5   0  0.6264830E-04  0.1100884E+04  0.7818609E-02  0.9204331E-01
       -2   -1    0    0    0  501  0.00000000000E+00  0.00000000000E+00  0.10244111699E+04  0.10244111699E+04  0.25500000920E-02 0. -1.
        2   -1    0    0  501    0  0.00000000000E+00  0.00000000000E+00 -0.29576635919E+03  0.29576635920E+03  0.25500000920E-02 0.  1.
    10030    2    1    2    0    0  0.00000000000E+00  0.00000000000E+00  0.72864481066E+03  0.13201775291E+04  0.11008839395E+04 0.  0.
        4    1    3    3  502    0 -0.19922501797E+03  0.49001887576E+03  0.18176195677E+03  0.55932828305E+03  0.12699999809E+01 0.  1.
       -4    1    3    3    0  502  0.19922501797E+03 -0.49001887576E+03  0.54688285389E+03  0.76084924602E+03  0.12699999809E+01 0. -1.
</event>
<event>
 5   0  0.6264830E-04  0.1096943E+04  0.7818609E-02  0.9208176E-01
        2   -1    0    0  501    0  0.00000000000E+00  0.00000000000E+00  0.76227879316E+03  0.76227879317E+03  0.25500000920E-02 0.  1.
       -2   -1    0    0    0  501  0.00000000000E+00  0.00000000000E+00 -0.39463410256E+03  0.39463410256E+03  0.25500000920E-02 0. -1.
    10030    2    1    2    0    0  0.00000000000E+00  0.00000000000E+00  0.36764469061E+03  0.11569128957E+04  0.10969434032E+04 0.  0.
        4    1    3    3  502    0 -0.92420718655E+01  0.10366777423E+03 -0.38412207089E+03  0.39797462426E+03  0.12699999809E+01 0. -1.
       -4    1    3    3    0  502  0.92420718655E+01 -0.10366777423E+03  0.75176676150E+03  0.75893827147E+03  0.12699999809E+01 0.  1.
</event>
<event>
 5   0  0.2403875E-04  0.1098551E+04  0.7818609E-02  0.9206605E-01
        3   -1    0    0  501    0  0.00000000000E+00  0.00000000000E+00  0.22533361161E+03  0.22533363424E+03  0.10100000352E+00 0.  1.
       -3   -1    0    0    0  501  0.00000000000E+00  0.00000000000E+00 -0.13389199688E+04  0.13389199726E+04  0.10100000352E+00 0. -1.
    10030    2    1    2    0    0  0.00000000000E+00  0.00000000000E+00 -0.11135863572E+04  0.15642536068E+04  0.10985512148E+04 0.  0.
        4    1    3    3  502    0  0.34060354930E+03 -0.39695618436E+03 -0.31802742201E+03  0.61215034440E+03  0.12699999809E+01 0.  1.
       -4    1    3    3    0  502 -0.34060354930E+03  0.39695618436E+03 -0.79555893516E+03  0.95210326242E+03  0.12699999809E+01 0. -1.
</event>
<event>
 5   0  0.3423758E-04  0.1100010E+04  0.7818609E-02  0.9205182E-01
        1   -1    0    0  501    0  0.00000000000E+00  0.00000000000E+00  0.84088870540E+03  0.84088870542E+03  0.50400001928E-02 0. -1.
       -1   -1    0    0    0  501  0.00000000000E+00  0.00000000000E+00 -0.35974503654E+03  0.35974503657E+03  0.50400001928E-02 0.  1.
    10030    2    1    2    0    0  0.00000000000E+00  0.00000000000E+00  0.48114366887E+03  0.12006337420E+04  0.11000100692E+04 0.  0.
        1    1    3    3  502    0 -0.71660719790E+02 -0.15016701905E+03  0.81275907167E+03  0.82961599609E+03  0.50400001928E-02 0. -1.
       -1    1    3    3    0  502  0.71660719790E+02  0.15016701905E+03 -0.33161540280E+03  0.37101774590E+03  0.50400001928E-02 0.  1.
</event>
<event>
 5   0  0.2403875E-04  0.1100147E+04  0.7818609E-02  0.9205049E-01
       -3   -1    0    0    0  501  0.00000000000E+00  0.00000000000E+00  0.40040934348E+03  0.40040935622E+03  0.10100000352E+00 0. -1.
        3   -1    0    0  501    0  0.00000000000E+00  0.00000000000E+00 -0.75567830192E+03  0.75567830867E+03  0.10100000352E+00 0.  1.
    10030    2    1    2    0    0  0.00000000000E+00  0.00000000000E+00 -0.35526895844E+03  0.11560876649E+04  0.11001466521E+04 0.  0.
        4    1    3    3  502    0  0.30915705785E+03 -0.34704304303E+03  0.13154029712E+03  0.48303356281E+03  0.12699999809E+01 0. -1.
       -4    1    3    3    0  502 -0.30915705785E+03  0.34704304303E+03 -0.48680925555E+03  0.67305410208E+03  0.12699999809E+01 0.  1.
</event>
<event>
 5   0  0.5948818E-04  0.1100714E+04  0.7818609E-02  0.9204496E-01
        2   -1    0    0  501    0  0.00000000000E+00  0.00000000000E+00  0.12469811619E+04  0.12469811619E+04  0.25500000920E-02 0. -1.
       -2   -1    0    0    0  501  0.00000000000E+00  0.00000000000E+00 -0.24290088922E+03  0.24290088923E+03  0.25500000920E-02 0.  1.
    10030    2    1    2    0    0  0.00000000000E+00  0.00000000000E+00  0.10040802727E+04  0.14898820512E+04  0.11007140102E+04 0.  0.
        3    1    3    3  502    0  0.49398315828E+03 -0.22384508345E+03  0.62877583247E+03  0.83035235879E+03  0.10100000352E+00 0. -1.
       -3    1    3    3    0  502 -0.49398315828E+03  0.22384508345E+03  0.37530444024E+03  0.65952969237E+03  0.10100000352E+00 0.  1.
</event>
<event>
 5   0  0.2403875E-04  0.1101634E+04  0.7818609E-02  0.9203601E-01
        3   -1    0    0  501    0  0.00000000000E+00  0.00000000000E+00  0.71056109638E+03  0.71056110356E+03  0.10100000352E+00 0. -1.
       -3   -1    0    0    0  501  0.00000000000E+00  0.00000000000E+00 -0.42698539889E+03  0.42698541084E+03  0.10100000352E+00 0.  1.
    10030    2    1    2    0    0  0.00000000000E+00  0.00000000000E+00  0.28357569749E+03  0.11375465144E+04  0.11016337396E+04 0.  0.
        3    1    3    3  502    0 -0.62891714718E+02  0.30820174075E+02  0.70594449837E+03  0.70941024512E+03  0.10100000352E+00 0. -1.
       -3    1    3    3    0  502  0.62891714718E+02 -0.30820174075E+02 -0.42236880088E+03  0.42813626927E+03  0.10100000352E+00 0.  1.
</event>
<event>
 5   0  0.6109149E-04  0.1109623E+04  0.7818609E-02  0.9195863E-01
       -2   -1    0    0    0  501  0.00000000000E+00  0.00000000000E+00  0.51323031702E+03  0.51323031703E+03  0.25500000920E-02 0. -1.
        2   -1    0    0  501    0  0.00000000000E+00  0.00000000000E+00 -0.59976193102E+03  0.59976193102E+03  0.25500000920E-02 0.  1.
    10030    2    1    2    0    0  0.00000000000E+00  0.00000000000E+00 -0.86531613995E+02  0.11129922481E+04  0.11096233703E+04 0.  0.
        1    1    3    3  502    0 -0.32899648980E+03  0.11918150842E+03  0.38859111170E+03  0.52292061956E+03  0.50400001928E-02 0. -1.
       -1    1    3    3    0  502  0.32899648980E+03 -0.11918150842E+03 -0.47512272569E+03  0.59007162849E+03  0.50400001928E-02 0.  1.
</event>
<event>
 5   0  0.2403875E-04  0.1100835E+04  0.7818609E-02  0.9204378E-01
       -4   -1    0    0    0  501  0.00000000000E+00  0.00000000000E+00  0.47149444991E+03  0.47149616032E+03  0.12699999809E+01 0.  1.
        4   -1    0    0  501    0  0.00000000000E+00  0.00000000000E+00 -0.64254821658E+03  0.64254947166E+03  0.12699999809E+01 0. -1.
    10030    2    1    2    0    0  0.00000000000E+00  0.00000000000E+00 -0.17105376667E+03  0.11140456320E+04  0.11008352643E+04 0.  0.
        1    1    3    3  502    0  0.40579034186E+02  0.49633587558E+03 -0.32278346716E+03  0.59345187344E+03  0.50400001928E-02 0. -1.
       -1    1    3    3    0  502 -0.40579034186E+02 -0.49633587558E+03  0.15172970048E+03  0.52059375854E+03  0.50400001928E-02 0.  1.
</event>
<event>
 5   0  0.3423758E-04  0.1098986E+04  0.7818609E-02  0.9206181E-01
       -1   -1    0    0    0  501  0.00000000000E+00  0.00000000000E+00  0.68257088962E+03  0.68257088964E+03  0.50400001928E-02 0. -1.
        1   -1    0    0  501    0  0.00000000000E+00  0.00000000000E+00 -0.44236060654E+03  0.44236060657E+03  0.50400001928E-02 0.  1.
    10030    2    1    2    0    0  0.00000000000E+00  0.00000000000E+00  0.24021028308E+03  0.11249314962E+04  0.10989858466E+04 0.  0.
        1    1    3    3  502    0 -0.20654911261E+03  0.50774509756E+03  0.15941561765E+03  0.57085984199E+03  0.50400001928E-02 0.  1.
       -1    1    3    3    0  502  0.20654911261E+03 -0.50774509756E+03  0.80794665433E+02  0.55407165422E+03  0.50400001928E-02 0. -1.
</event>
<event>
 5   0  0.3642161E-04  0.1097072E+04  0.7818609E-02  0.9208050E-01
        1   -1    0    0  501    0  0.00000000000E+00  0.00000000000E+00  0.84913902052E+03  0.84913902053E+03  0.50400001928E-02 0. -1.
       -1   -1    0    0    0  501  0.00000000000E+00  0.00000000000E+00 -0.35434930727E+03  0.35434930731E+03  0.50400001928E-02 0.  1.
    10030    2    1    2    0    0  0.00000000000E+00  0.00000000000E+00  0.49478971325E+03  0.12034883278E+04  0.10970721466E+04 0.  0.
        2    1    3    3  502    0 -0.66170314193E+02 -0.84648242670E+02  0.83748305265E+03  0.84434690675E+03  0.25500000920E-02 0. -1.
       -2    1    3    3    0  502  0.66170314193E+02  0.84648242670E+02 -0.34269333940E+03  0.35914142109E+03  0.25500000920E-02 0.  1.
</event>
<event>
 5   0  0.5948818E-04  0.1100125E+04  0.7818609E-02  0.9205071E-01
        2   -1    0    0  501    0  0.00000000000E+00  0.00000000000E+00  0.10361864615E+04  0.10361864615E+04  0.25500000920E-02 0. -1.
       -2   -1    0    0    0  501  0.00000000000E+00  0.00000000000E+00 -0.29200197418E+03  0.29200197420E+03  0.25500000920E-02 0.  1.
    10030    2    1    2    0    0  0.00000000000E+00  0.00000000000E+00  0.74418448734E+03  0.13281884357E+04  0.11001245246E+04 0.  0.
        3    1    3    3  502    0 -0.18362378320E+03 -0.38239605850E+03 -0.50679218125E+02  0.42721520650E+03  0.10100000352E+00 0.  1.
       -3    1    3    3    0  502  0.18362378320E+03  0.38239605850E+03  0.79486370547E+03  0.90097322923E+03  0.10100000352E+00 0. -1.
</event>
<event>
 5   0  0.3642161E-04  0.1101267E+04  0.7818609E-02  0.9203958E-01
        1   -1    0    0  501    0  0.00000000000E+00  0.00000000000E+00  0.68187807750E+03  0.68187807752E+03  0.50400001928E-02 0.  1.
       -1   -1    0    0    0  501  0.00000000000E+00  0.00000000000E+00 -0.44465006422E+03  0.44465006425E+03  0.50400001928E-02 0. -1.
    10030    2    1    2    0    0  0.00000000000E+00  0.00000000000E+00  0.23722801328E+03  0.11265281418E+04  0.11012667814E+04 0.  0.
        2    1    3    3  502    0 -0.64782788902E+02 -0.16151704186E+03 -0.41577962332E+03  0.45072969696E+03  0.25500000920E-02 0. -1.
       -2    1    3    3    0  502  0.64782788902E+02  0.16151704186E+03  0.65300763660E+03  0.67579844481E+03  0.25500000920E-02 0.  1.
</event>
<event>
 5   0  0.6264830E-04  0.1099642E+04  0.7818609E-02  0.9205541E-01
        2   -1    0    0  501    0  0.00000000000E+00  0.00000000000E+00  0.82370272891E+03  0.82370272892E+03  0.25500000920E-02 0. -1.
       -2   -1    0    0    0  501  0.00000000000E+00  0.00000000000E+00 -0.36700490233E+03  0.36700490234E+03  0.25500000920E-02 0.  1.
    10030    2    1    2    0    0  0.00000000000E+00  0.00000000000E+00  0.45669782658E+03  0.11907076313E+04  0.10996416500E+04 0.  0.
        4    1    3    3  502    0 -0.11872047820E+02  0.31678164530E+03 -0.25808634945E+03  0.40878078843E+03  0.12699999809E+01 0.  1.
       -4    1    3    3    0  502  0.11872047820E+02 -0.31678164530E+03  0.71478417603E+03  0.78192684282E+03  0.12699999809E+01 0. -1.
</event>
<event>
 5   0  0.3621403E-04  0.1099818E+04  0.7818609E-02  0.9205369E-01
       -1   -1    0    0    0  501  0.00000000000E+00  0.00000000000E+00  0.45523136096E+03  0.45523136099E+03  0.50400001928E-02 0. -1.
        1   -1    0    0  501    0  0.00000000000E+00  0.00000000000E+00 -0.66427743215E+03  0.66427743217E+03  0.50400001928E-02 0.  1.
    10030    2    1    2    0    0  0.00000000000E+00  0.00000000000E+00 -0.20904607119E+03  0.11195087932E+04  0.10998180204E+04 0.  0.
        3    1    3    3  502    0 -0.49389696352E+03  0.45080743897E+01 -0.35060611700E+03  0.60570553307E+03  0.10100000352E+00 0.  1.
       -3    1    3    3    0  502  0.49389696352E+03 -0.45080743897E+01  0.14156004581E+03  0.51380326009E+03  0.10100000352E+00 0. -1.
</event>
<event>
 5   0  0.3423758E-04  0.1099423E+04  0.7818609E-02  0.9205755E-01
       -1   -1    0    0    0  501  0.00000000000E+00  0.00000000000E+00  0.23903109984E+03  0.23903109989E+03  0.50400001928E-02 0. -1.
        1   -1    0    0  501    0  0.00000000000E+00  0.00000000000E+00 -0.12641979870E+04  0.12641979871E+04  0.50400001928E-02 0.  1.
    10030    2    1    2    0    0  0.00000000000E+00  0.00000000000E+00 -0.10251668872E+04  0.15032290869E+04  0.10994228219E+04 0.  0.
        1    1    3    3  502    0  0.34411819396E+03  0.21163477757E+03 -0.28649800176E+01  0.40399853790E+03  0.50400001928E-02 0.  1.
       -1    1    3    3    0  502 -0.34411819396E+03 -0.21163477757E+03 -0.10223019072E+04  0.10992305490E+04  0.50400001928E-02 0. -1.
</event>
<event>
 5   0  0.6264830E-04  0.1099673E+04  0.7818609E-02  0.9205511E-01
       -2   -1    0    0    0  501  0.00000000000E+00  0.00000000000E+00  0.63458646586E+03  0.63458646586E+03  0.25500000920E-02 0. -1.
        2   -1    0    0  501    0  0.00000000000E+00  0.00000000000E+00 -0.47640463992E+03  0.47640463993E+03  0.25500000920E-02 0.  1.
    10030    2    1    2    0    0  0.00000000000E+00  0.00000000000E+00  0.15818182593E+03  0.11109911058E+04  0.10996725636E+04 0.  0.
        4    1    3    3  502    0 -0.15126085127E+03  0.44139652102E+03  0.37295861348E+03  0.59733614838E+03  0.12699999809E+01 0.  1.
       -4    1    3    3    0  502  0.15126085127E+03 -0.44139652102E+03 -0.21477678755E+03  0.51365495740E+03  0.12699999809E+01 0. -1.
</event>
<event>
 5   0  0.6245176E-04  0.1118705E+04  0.7818609E-02  0.9187150E-01
        2   -1    0    0  501    0  0.00000000000E+00  0.00000000000E+00  0.42200578920E+03  0.42200578921E+03  0.25500000920E-02 0.  1.
       -2   -1    0    0    0  501  0.00000000000E+00  0.00000000000E+00 -0.74140021003E+03  0.74140021003E+03  0.25500000920E-02 0. -1.
    10030    2    1    2    0    0  0.00000000000E+00  0.00000000000E+00 -0.31939442082E+03  0.11634059992E+04  0.11187049312E+04 0.  0.
        5    1    3    3  502    0  0.13195578193E+03  0.38283270745E+03 -0.56096449428E+03  0.69186448393E+03  0.46999998093E+01 0. -1.
       -5    1    3    3    0  502 -0.13195578193E+03 -0.38283270745E+03  0.24157007345E+03  0.47154151532E+03  0.46999998093E+01 0.  1.
</event>
<event>
 5   0  0.3642161E-04  0.1099727E+04  0.7818609E-02  0.9205458E-01
        1   -1    0    0  501    0  0.00000000000E+00  0.00000000000E+00  0.12014066466E+04  0.12014066466E+04  0.50400001928E-02 0.  1.
       -1   -1    0    0    0  501  0.00000000000E+00  0.00000000000E+00 -0.25166337014E+03  0.25166337019E+03  0.50400001928E-02 0. -1.
    10030    2    1    2    0    0  0.00000000000E+00  0.00000000000E+00  0.94974327645E+03  0.14530700168E+04  0.10997273219E+04 0.  0.
        2    1    3    3  502    0 -0.54941464650E+03  0.19495199544E+02  0.46079318328E+03  0.71733316831E+03  0.25500000920E-02 0.  1.
       -2    1    3    3    0  502  0.54941464650E+03 -0.19495199544E+02  0.48895009317E+03  0.73573684848E+03  0.25500000920E-02 0. -1.
</event>
<event>
 5   0  0.3642161E-04  0.1101717E+04  0.7818609E-02  0.9203520E-01
        1   -1    0    0  501    0  0.00000000000E+00  0.00000000000E+00  0.13790651712E+04  0.13790651713E+04  0.50400001928E-02 0.  1.
       -1   -1    0    0    0  501  0.00000000000E+00  0.00000000000E+00 -0.22003690174E+03  0.22003690179E+03  0.50400001928E-02 0. -1.
    10030    2    1    2    0    0  0.00000000000E+00  0.00000000000E+00  0.11590282695E+04  0.15991020730E+04  0.11017172552E+04 0.  0.
        2    1    3    3  502    0 -0.44373592567E+03 -0.22465404310E+03  0.92322055379E+03  0.10486692528E+04  0.25500000920E-02 0.  1.
       -2    1    3    3    0  502  0.44373592567E+03  0.22465404310E+03  0.23580771572E+03  0.55043282025E+03  0.25500000920E-02 0. -1.
</event>
<event>
 5   0  0.3423758E-04  0.1101081E+04  0.7818609E-02  0.9204139E-01
       -1   -1    0    0    0  501  0.00000000000E+00  0.00000000000E+00  0.26813574712E+03  0.26813574717E+03  0.50400001928E-02 0.  1.
        1   -1    0    0  501    0  0.00000000000E+00  0.00000000000E+00 -0.11303773389E+04  0.11303773389E+04  0.50400001928E-02 0. -1.
    10030    2    1    2    0    0  0.00000000000E+00  0.00000000000E+00 -0.86224159175E+03  0.13985130860E+04  0.11010805099E+04 0.  0.
        1    1    3    3  502    0 -0.16214128228E+03  0.56372495646E+02 -0.10955165816E+04  0.11088842294E+04  0.50400001928E-02 0. -1.
       -1    1    3    3    0  502  0.16214128228E+03 -0.56372495646E+02  0.23327498984E+03  0.28962885663E+03  0.50400001928E-02 0.  1.
</event>
<event>
 5   0  0.3523525E-04  0.1098723E+04  0.7818609E-02  0.9206437E-01
        1   -1    0    0  501    0  0.00000000000E+00  0.00000000000E+00  0.11134702487E+04  0.11134702487E+04  0.50400001928E-02 0.  1.
       -1   -1    0    0    0  501  0.00000000000E+00  0.00000000000E+00 -0.27104298989E+03  0.27104298994E+03  0.50400001928E-02 0. -1.
    10030    2    1    2    0    0  0.00000000000E+00  0.00000000000E+00  0.84242725883E+03  0.13845132387E+04  0.10987234509E+04 0.  0.
        5    1    3    3  502    0  0.71268773542E+02  0.54405188998E+03  0.45466045235E+03  0.71260782622E+03  0.46999998093E+01 0.  1.
       -5    1    3    3    0  502 -0.71268773542E+02 -0.54405188998E+03  0.38776680649E+03  0.67190541245E+03  0.46999998093E+01 0. -1.
</event>
<event>
 5   0  0.3621403E-04  0.1100061E+04  0.7818609E-02  0.9205133E-01
        1   -1    0    0  501    0  0.00000000000E+00  0.00000000000E+00  0.23616779628E+03  0.23616779633E+03  0.50400001928E-02 0.  1.
       -1   -1    0    0    0  501  0.00000000000E+00  0.00000000000E+00 -0.12810105130E+04  0.12810105130E+04  0.50400001928E-02 0. -1.
    10030    2    1    2    0    0  0.00000000000E+00  0.00000000000E+00 -0.10448427167E+04  0.15171783093E+04  0.11000607800E+04 0.  0.
        3    1    3    3  502    0  0.45039833824E+03  0.30746634479E+03 -0.42355060377E+03  0.69049934136E+03  0.10100000352E+00 0.  1.
       -3    1    3    3    0  502 -0.45039833824E+03 -0.30746634479E+03 -0.62129211292E+03  0.82667896794E+03  0.10100000352E+00 0. -1.
</event>
<event>
 5   0  0.6109149E-04  0.1101989E+04  0.7818609E-02  0.9203256E-01
        2   -1    0    0  501    0  0.00000000000E+00  0.00000000000E+00  0.58197103856E+03  0.58197103857E+03  0.25500000920E-02 0. -1.
       -2   -1    0    0    0  501  0.00000000000E+00  0.00000000000E+00 -0.52166664709E+03  0.52166664709E+03  0.25500000920E-02 0.  1.
    10030    2    1    2    0    0  0.00000000000E+00  0.00000000000E+00  0.60304391476E+02  0.11036376857E+04  0.11019888936E+04 0.  0.
        1    1    3    3  502    0  0.46650345224E+03 -0.16806117454E+03 -0.21046724592E+03  0.53867104152E+03  0.50400001928E-02 0.  1.
       -1    1    3    3    0  502 -0.46650345224E+03  0.16806117454E+03  0.27077163740E+03  0.56496664414E+03  0.50400001928E-02 0. -1.
</event>
<event>
 5   0  0.3621403E-04  0.1101085E+04  0.7818609E-02  0.9204135E-01
       -1   -1    0    0    0  501  0.00000000000E+00  0.00000000000E+00  0.22818795384E+03  0.22818795390E+03  0.50400001928E-02 0.  1.
        1   -1    0    0  501    0  0.00000000000E+00  0.00000000000E+00 -0.13282769626E+04  0.13282769626E+04  0.50400001928E-02 0. -1.
    10030    2    1    2    0    0  0.00000000000E+00  0.00000000000E+00 -0.11000890087E+04  0.15564649165E+04  0.11010845604E+04 0.  0.
        3    1    3    3  502    0 -0.37394904006E+03 -0.10267906979E+03  0.23645825041E+01  0.38779695381E+03  0.10100000352E+00 0.  1.
       -3    1    3    3    0  502  0.37394904006E+03  0.10267906979E+03 -0.11024535913E+04  0.11686679627E+04  0.10100000352E+00 0. -1.
</event>
<event>
 5   0  0.3423758E-04  0.1100521E+04  0.7818609E-02  0.9204684E-01
       -1   -1    0    0    0  501  0.00000000000E+00  0.00000000000E+00  0.17994324514E+03  0.17994324522E+03  0.50400001928E-02 0.  1.
        1   -1    0    0  501    0  0.00000000000E+00  0.00000000000E+00 -0.16826791356E+04  0.16826791356E+04  0.50400001928E-02 0. -1.
    10030    2    1    2    0    0  0.00000000000E+00  0.00000000000E+00 -0.15027358904E+04  0.18626223808E+04  0.11005212297E+04 0.  0.
        1    1    3    3  502    0 -0.25459817315E+03 -0.26484983827E+03 -0.14447133555E+04  0.14906919018E+04  0.50400001928E-02 0. -1.
       -1    1    3    3    0  502  0.25459817315E+03  0.26484983827E+03 -0.58022534940E+02  0.37193047897E+03  0.50400001928E-02 0.  1.
</event>
<event>
 5   0  0.3423758E-04  0.1100696E+04  0.7818609E-02  0.9204514E-01
        1   -1    0    0  501    0  0.00000000000E+00  0.00000000000E+00  0.38688415647E+03  0.38688415651E+03  0.50400001928E-02 0. -1.
       -1   -1    0    0    0  501  0.00000000000E+00  0.00000000000E+00 -0.78287758207E+03  0.78287758208E+03  0.50400001928E-02 0.  1.
    10030    2    1    2    0    0  0.00000000000E+00  0.00000000000E+00 -0.39599342559E+03  0.11697617386E+04  0.11006960216E+04 0.  0.
        1    1    3    3  502    0  0.87206151926E+02  0.50962915806E+03  0.23984927933E+01  0.51704211093E+03  0.50400001928E-02 0. -1.
       -1    1    3    3    0  502 -0.87206151926E+02 -0.50962915806E+03 -0.39839191839E+03  0.65271962767E+03  0.50400001928E-02 0.  1.
</event>
<event>
 5   0  0.3642161E-04  0.1099219E+04  0.7818609E-02  0.9205953E-01
       -1   -1    0    0    0  501  0.00000000000E+00  0.00000000000E+00  0.68031928550E+03  0.68031928552E+03  0.50400001928E-02 0. -1.
        1   -1    0    0  501    0  0.00000000000E+00  0.00000000000E+00 -0.44401325039E+03  0.44401325042E+03  0.50400001928E-02 0.  1.
    10030    2    1    2    0    0  0.00000000000E+00  0.00000000000E+00  0.23630603511E+03  0.11243325359E+04  0.10992193180E+04 0.  0.
        2    1    3    3  502    0  0.10207572462E+02  0.24096636298E+03  0.62330018747E+03  0.66833532477E+03  0.25500000920E-02 0. -1.
       -2    1    3    3    0  502 -0.10207572462E+02 -0.24096636298E+03 -0.38699415236E+03  0.45599721117E+03  0.25500000920E-02 0.  1.
</event>
<event>
 5   0  0.3621403E-04  0.1091751E+04  0.7818609E-02  0.9213270E-01
        1   -1    0    0  501    0  0.00000000000E+00  0.00000000000E+00  0.22780950692E+03  0.22780950698E+03  0.50400001928E-02 0.  1.
       -1   -1    0    0    0  501  0.00000000000E+00  0.00000000000E+00 -0.13080220141E+04  0.13080220141E+04  0.50400001928E-02 0. -1.
    10030    2    1    2    0    0  0.00000000000E+00  0.00000000000E+00 -0.10802125071E+04  0.15358315210E+04  0.10917506128E+04 0.  0.
        3    1    3    3  502    0 -0.16038881068E+03 -0.50159927153E+03 -0.33793642990E+03  0.62572153602E+03  0.10100000352E+00 0. -1.
       -3    1    3    3    0  502  0.16038881068E+03  0.50159927153E+03 -0.74227607724E+03  0.91010998502E+03  0.10100000352E+00 0.  1.
</event>
<event>
 5   0  0.6109149E-04  0.1098847E+04  0.7818609E-02  0.9206316E-01
       -2   -1    0    0    0  501  0.00000000000E+00  0.00000000000E+00  0.21633750311E+03  0.21633750312E+03  0.25500000920E-02 0. -1.
        2   -1    0    0  501    0  0.00000000000E+00  0.00000000000E+00 -0.13953490872E+04  0.13953490872E+04  0.25500000920E-02 0.  1.
    10030    2    1    2    0    0  0.00000000000E+00  0.00000000000E+00 -0.11790115840E+04  0.16116865903E+04  0.10988472824E+04 0.  0.
        1    1    3    3  502    0 -0.10902506568E+03 -0.32735071139E+02  0.19885179969E+03  0.22912897698E+03  0.50400001928E-02 0. -1.
       -1    1    3    3    0  502  0.10902506568E+03  0.32735071139E+02 -0.13778633837E+04  0.13825576133E+04  0.50400001928E-02 0.  1.
</event>
<event>
 5   0  0.5948818E-04  0.1099401E+04  0.7818609E-02  0.9205776E-01
       -2   -1    0    0    0  501  0.00000000000E+00  0.00000000000E+00  0.30209997016E+03  0.30209997017E+03  0.25500000920E-02 0.  1.
        2   -1    0    0  501    0  0.00000000000E+00  0.00000000000E+00 -0.10002343998E+04  0.10002343998E+04  0.25500000920E-02 0. -1.
    10030    2    1    2    0    0  0.00000000000E+00  0.00000000000E+00 -0.69813442961E+03  0.13023343700E+04  0.10994012595E+04 0.  0.
        3    1    3    3  502    0 -0.53451411827E+03 -0.12812086861E+03 -0.34065144525E+03  0.64665579480E+03  0.10100000352E+00 0.  1.
       -3    1    3    3    0  502  0.53451411827E+03  0.12812086861E+03 -0.35748298437E+03  0.65567857515E+03  0.10100000352E+00 0. -1.
</event>
<event>
 5   0  0.3621403E-04  0.1100941E+04  0.7818609E-02  0.9204275E-01
       -1   -1    0    0    0  501  0.00000000000E+00  0.00000000000E+00  0.38743885330E+03  0.38743885333E+03  0.50400001928E-02 0. -1.
        1   -1    0    0  501    0  0.00000000000E+00  0.00000000000E+00 -0.78210489662E+03  0.78210489663E+03  0.50400001928E-02 0.  1.
    10030    2    1    2    0    0  0.00000000000E+00  0.00000000000E+00 -0.39466604332E+03  0.11695437500E+04  0.11009410962E+04 0.  0.
        3    1    3    3  502    0 -0.11644281627E+03 -0.36824503109E+03 -0.61401763591E+03  0.72538334678E+03  0.10100000352E+00 0.  1.
       -3    1    3    3    0  502  0.11644281627E+03  0.36824503109E+03  0.21935159259E+03  0.44416040318E+03  0.10100000352E+00 0. -1.
</event>
<event>
 5   0  0.6245176E-04  0.1099543E+04  0.7818609E-02  0.9205637E-01
        2   -1    0    0  501    0  0.00000000000E+00  0.00000000000E+00  0.12339827206E+04  0.12339827206E+04  0.25500000920E-02 0.  1.
       -2   -1    0    0    0  501  0.00000000000E+00  0.00000000000E+00 -0.24493758899E+03  0.24493758900E+03  0.25500000920E-02 0. -1.
    10030    2    1    2    0    0  0.00000000000E+00  0.00000000000E+00  0.98904513162E+03  0.14789203096E+04  0.10995430914E+04 0.  0.
        5    1    3    3  502    0  0.55532919981E+02 -0.51691370521E+03  0.73491468400E+03  0.90022517550E+03  0.46999998093E+01 0. -1.
       -5    1    3    3    0  502 -0.55532919981E+02  0.51691370521E+03  0.25413044762E+03  0.57869513411E+03  0.46999998093E+01 0.  1.
</event>
<event>
 5   0  0.3657529E-04  0.1102185E+04  0.7818609E-02  0.9203064E-01
       -1   -1    0    0    0  501  0.00000000000E+00  0.00000000000E+00  0.32971733688E+03  0.32971733692E+03  0.50400001928E-02 0.  1.
        1   -1    0    0  501    0  0.00000000000E+00  0.00000000000E+00 -0.92110157660E+03  0.92110157661E+03  0.50400001928E-02 0. -1.
    10030    2    1    2    0    0  0.00000000000E+00  0.00000000000E+00 -0.59138423971E+03  0.12508189135E+04  0.11021853907E+04 0.  0.
        4    1    3    3  502    0 -0.29958488247E+03 -0.28963684513E+03 -0.70496525385E+03  0.81891283169E+03  0.12699999809E+01 0. -1.
       -4    1    3    3    0  502  0.29958488247E+03  0.28963684513E+03  0.11358101414E+03  0.43190608185E+03  0.12699999809E+01 0.  1.
</event>
<event>
 5   0  0.3642161E-04  0.1105558E+04  0.7818609E-02  0.9199792E-01
        1   -1    0    0  501    0  0.00000000000E+00  0.00000000000E+00  0.79318188821E+03  0.79318188823E+03  0.50400001928E-02 0. -1.
       -1   -1    0    0    0  501  0.00000000000E+00  0.00000000000E+00 -0.38523884796E+03  0.38523884799E+03  0.50400001928E-02 0.  1.
    10030    2    1    2    0    0  0.00000000000E+00  0.00000000000E+00  0.40794304025E+03  0.11784207362E+04  0.11055577359E+04 0.  0.
        2    1    3    3  502    0 -0.29782028510E+03 -0.18538212247E+02 -0.29201726645E+03  0.41751008543E+03  0.25500000920E-02 0.  1.
       -2    1    3    3    0  502  0.29782028510E+03  0.18538212247E+02  0.69996030670E+03  0.76091065079E+03  0.25500000920E-02 0. -1.
</event>
<event>
 5   0  0.3423758E-04  0.1100563E+04  0.7818609E-02  0.9204643E-01
        1   -1    0    0  501    0  0.00000000000E+00  0.00000000000E+00  0.33009594163E+03  0.33009594167E+03  0.50400001928E-02 0. -1.
       -1   -1    0    0    0  501  0.00000000000E+00  0.00000000000E+00 -0.91733898351E+03  0.91733898353E+03  0.50400001928E-02 0.  1.
    10030    2    1    2    0    0  0.00000000000E+00  0.00000000000E+00 -0.58724304189E+03  0.12474349252E+04  0.11005632659E+04 0.  0.
        1    1    3    3  502    0 -0.17860552518E+03 -0.43240906477E+03  0.34751568137E+02  0.46913239542E+03  0.50400001928E-02 0. -1.
       -1    1    3    3    0  502  0.17860552518E+03  0.43240906477E+03 -0.62199461002E+03  0.77830252977E+03  0.50400001928E-02 0.  1.
</event>
<event>
 5   0  0.3523525E-04  0.1099489E+04  0.7818609E-02  0.9205690E-01
       -1   -1    0    0    0  501  0.00000000000E+00  0.00000000000E+00  0.36151997144E+03  0.36151997148E+03  0.50400001928E-02 0. -1.
        1   -1    0    0  501    0  0.00000000000E+00  0.00000000000E+00 -0.83596723520E+03  0.83596723521E+03  0.50400001928E-02 0.  1.
    10030    2    1    2    0    0  0.00000000000E+00  0.00000000000E+00 -0.47444726375E+03  0.11974872067E+04  0.10994887012E+04 0.  0.
        5    1    3    3  502    0  0.47021886516E+03 -0.22420516403E+03 -0.46010490742E+02  0.52298450454E+03  0.46999998093E+01 0. -1.
       -5    1    3    3    0  502 -0.47021886516E+03  0.22420516403E+03 -0.42843677301E+03  0.67450270215E+03  0.46999998093E+01 0.  1.
</event>
<event>
 5   0  0.6245176E-04  0.1100778E+04  0.7818609E-02  0.9204434E-01
        2   -1    0    0  501    0  0.00000000000E+00  0.00000000000E+00  0.22230112126E+04  0.22230112126E+04  0.25500000920E-02 0.  1.
       -2   -1    0    0    0  501  0.00000000000E+00  0.00000000000E+00 -0.13626933238E+03  0.13626933240E+03  0.25500000920E-02 0. -1.
    10030    2    1    2    0    0  0.00000000000E+00  0.00000000000E+00  0.20867418802E+04  0.23592805450E+04  0.11007783680E+04 0.  0.
        5    1    3    3  502    0  0.23022534705E+02 -0.28880049175E+03  0.20463050653E+04  0.20667177532E+04  0.46999998093E+01 0.  1.
       -5    1    3    3    0  502 -0.23022534705E+02  0.28880049175E+03  0.40436814899E+02  0.29256279178E+03  0.46999998093E+01 0. -1.
</event>
<event>
 5   0  0.6264830E-04  0.1099225E+04  0.7818609E-02  0.9205948E-01
        2   -1    0    0  501    0  0.00000000000E+00  0.00000000000E+00  0.12399501435E+04  0.12399501435E+04  0.25500000920E-02 0. -1.
       -2   -1    0    0    0  501  0.00000000000E+00  0.00000000000E+00 -0.24361764730E+03  0.24361764731E+03  0.25500000920E-02 0.  1.
    10030    2    1    2    0    0  0.00000000000E+00  0.00000000000E+00  0.99633249617E+03  0.14835677908E+04  0.10992247027E+04 0.  0.
        4    1    3    3  502    0 -0.36902082756E+03  0.27716452696E+03  0.95356251435E+02  0.47126529022E+03  0.12699999809E+01 0.  1.
       -4    1    3    3    0  502  0.36902082756E+03 -0.27716452696E+03  0.90097624473E+03  0.10123025006E+04  0.12699999809E+01 0. -1.
</event>
<event>
 5   0  0.3523525E-04  0.1098372E+04  0.7818609E-02  0.9206780E-01
        1   -1    0    0  501    0  0.00000000000E+00  0.00000000000E+00  0.85849007900E+03  0.85849007901E+03  0.50400001928E-02 0.  1.
       -1   -1    0    0    0  501  0.00000000000E+00  0.00000000000E+00 -0.35132045300E+03  0.35132045304E+03  0.50400001928E-02 0. -1.
    10030    2    1    2    0    0  0.00000000000E+00  0.00000000000E+00  0.50716962600E+03  0.12098105320E+04  0.10983717467E+04 0.  0.
        5    1    3    3  502    0 -0.30550235324E+03  0.44966363601E+03  0.16788343898E+03  0.56897804217E+03  0.46999998093E+01 0. -1.
       -5    1    3    3    0  502  0.30550235324E+03 -0.44966363601E+03  0.33928618702E+03  0.64083248988E+03  0.46999998093E+01 0.  1.
</event>
<event>
 5   0  0.3523525E-04  0.1100467E+04  0.7818609E-02  0.9204737E-01
       -1   -1    0    0    0  501  0.00000000000E+00  0.00000000000E+00  0.18487333848E+03  0.18487333855E+03  0.50400001928E-02 0.  1.
        1   -1    0    0  501    0  0.00000000000E+00  0.00000000000E+00 -0.16376440915E+04  0.16376440916E+04  0.50400001928E-02 0. -1.
    10030    2    1    2    0    0  0.00000000000E+00  0.00000000000E+00 -0.14527707531E+04  0.18225174301E+04  0.11004666838E+04 0.  0.
        5    1    3    3  502    0 -0.10542572020E+03 -0.52989557104E+03 -0.89874037916E+03  0.10486468699E+04  0.46999998093E+01 0.  1.
       -5    1    3    3    0  502  0.10542572020E+03  0.52989557104E+03 -0.55403037390E+03  0.77387056017E+03  0.46999998093E+01 0. -1.
</event>
<event>
 5   0  0.6109149E-04  0.1099825E+04  0.7818609E-02  0.9205362E-01
       -2   -1    0    0    0  501  0.00000000000E+00  0.00000000000E+00  0.47126548870E+03  0.47126548871E+03  0.25500000920E-02 0.  1.
        2   -1    0    0  501    0  0.00000000000E+00  0.00000000000E+00 -0.64168447509E+03  0.64168447510E+03  0.25500000920E-02 0. -1.
    10030    2    1    2    0    0  0.00000000000E+00  0.00000000000E+00 -0.17041898639E+03  0.11129499638E+04  0.10998249820E+04 0.  0.
        1    1    3    3  502    0 -0.52698809961E+03 -0.15051811003E+03 -0.13082053603E+03  0.56345911232E+03  0.50400001928E-02 0.  1.
       -1    1    3    3    0  502  0.52698809961E+03  0.15051811003E+03 -0.39598450365E+02  0.54949085149E+03  0.50400001928E-02 0. -1.
</event>
<event>
 5   0  0.6264830E-04  0.1096264E+04  0.7818609E-02  0.9208841E-01
        2   -1    0    0  501    0  0.00000000000E+00  0.00000000000E+00  0.37493391679E+03  0.37493391680E+03  0.25500000920E-02 0. -1.
       -2   -1    0    0    0  501  0.00000000000E+00  0.00000000000E+00 -0.80133736673E+03  0.80133736673E+03  0.25500000920E-02 0.  1.
    10030    2    1    2    0    0  0.00000000000E+00  0.00000000000E+00 -0.42640344994E+03  0.11762712835E+04  0.10962637595E+04 0.  0.
        4    1    3    3  502    0  0.33048111323E+03  0.41291758158E+03 -0.58721195592E+02  0.53213577881E+03  0.12699999809E+01 0. -1.
       -4    1    3    3    0  502 -0.33048111323E+03 -0.41291758158E+03 -0.36768225434E+03  0.64413550472E+03  0.12699999809E+01 0.  1.
</event>
<event>
 5   0  0.6264830E-04  0.1104082E+04  0.7818609E-02  0.9201222E-01
        2   -1    0    0  501    0  0.00000000000E+00  0.00000000000E+00  0.90734293074E+03  0.90734293074E+03  0.25500000920E-02 0.  1.
       -2   -1    0    0    0  501  0.00000000000E+00  0.00000000000E+00 -0.33586999489E+03  0.33586999490E+03  0.25500000920E-02 0. -1.
    10030    2    1    2    0    0  0.00000000000E+00  0.00000000000E+00  0.57147293585E+03  0.12432129256E+04  0.11040819997E+04 0.  0.
        4    1    3    3  502    0 -0.38827898276E+03 -0.31782089168E+03  0.54490825565E+03  0.74074105301E+03  0.12699999809E+01 0. -1.
       -4    1    3    3    0  502  0.38827898276E+03  0.31782089168E+03  0.26564680199E+02  0.50247187262E+03  0.12699999809E+01 0.  1.
</event>
<event>
 5   0  0.3657529E-04  0.1091127E+04  0.7818609E-02  0.9213884E-01
        1   -1    0    0  501    0  0.00000000000E+00  0.00000000000E+00  0.54874204511E+03  0.54874204513E+03  0.50400001928E-02 0. -1.
       -1   -1    0    0    0  501  0.00000000000E+00  0.00000000000E+00 -0.54240296401E+03  0.54240296403E+03  0.50400001928E-02 0.  1.
    10030    2    1    2    0    0  0.00000000000E+00  0.00000000000E+00  0.63390810990E+01  0.10911450092E+04  0.10911265953E+04 0.  0.
        4    1    3    3  502    0  0.16156160888E+03  0.52104951090E+03 -0.33843932912E+01  0.54553442906E+03  0.12699999809E+01 0.  1.
       -4    1    3    3    0  502 -0.16156160888E+03 -0.52104951090E+03  0.97234743901E+01  0.54561058010E+03  0.12699999809E+01 0. -1.
</event>
<event>
 5   0  0.3621403E-04  0.1099085E+04  0.7818609E-02  0.9206084E-01
       -1   -1    0    0    0  501  0.00000000000E+00  0.00000000000E+00  0.17447975734E+03  0.17447975741E+03  0.50400001928E-02 0.  1.
        1   -1    0    0  501    0  0.00000000000E+00  0.00000000000E+00 -0.17308429519E+04  0.17308429519E+04  0.50400001928E-02 0. -1.
    10030    2    1    2    0    0  0.00000000000E+00  0.00000000000E+00 -0.15563631946E+04  0.19053227093E+04  0.10990851802E+04 0.  0.
        3    1    3    3  502    0 -0.47139772395E+03  0.10972426359E+03 -0.12293779932E+04  0.13212212111E+04  0.10100000352E+00 0. -1.
       -3    1    3    3    0  502  0.47139772395E+03 -0.10972426359E+03 -0.32698520135E+03  0.58410149826E+03  0.10100000352E+00 0.  1.
</event>
<event>
 5   0  0.3621403E-04  0.1085454E+04  0.7818609E-02  0.9219487E-01
       -1   -1    0    0    0  501  0.00000000000E+00  0.00000000000E+00  0.29849279143E+03  0.29849279148E+03  0.50400001928E-02 0.  1.
        1   -1    0    0  501    0  0.00000000000E+00  0.00000000000E+00 -0.98679919376E+03  0.98679919377E+03  0.50400001928E-02 0. -1.
    10030    2    1    2    0    0  0.00000000000E+00  0.00000000000E+00 -0.68830640233E+03  0.12852919852E+04  0.10854537226E+04 0.  0.
        3    1    3    3  502    0  0.22434426766E+03  0.45644363818E+03 -0.11985565924E+03  0.52252897960E+03  0.10100000352E+00 0.  1.
       -3    1    3    3    0  502 -0.22434426766E+03 -0.45644363818E+03 -0.56845074308E+03  0.76276300565E+03  0.10100000352E+00 0. -1.
</event>
<event>
 5   0  0.6109149E-04  0.1099697E+04  0.7818609E-02  0.9205487E-01
       -2   -1    0    0    0  501  0.00000000000E+00  0.00000000000E+00  0.46985283967E+03  0.46985283967E+03  0.25500000920E-02 0.  1.
        2   -1    0    0  501    0  0.00000000000E+00  0.00000000000E+00 -0.64346400335E+03  0.64346400336E+03  0.25500000920E-02 0. -1.
    10030    2    1    2    0    0  0.00000000000E+00  0.00000000000E+00 -0.17361116368E+03  0.11133168430E+04  0.10996970296E+04 0.  0.
        1    1    3    3  502    0  0.19860190550E+03 -0.37888524501E+03 -0.43653537949E+03  0.61119545428E+03  0.50400001928E-02 0. -1.
       -1    1    3    3    0  502 -0.19860190550E+03  0.37888524501E+03  0.26292421581E+03  0.50212138875E+03  0.50400001928E-02 0.  1.
</event>
<event>
 5   0  0.3657529E-04  0.1114703E+04  0.7818609E-02  0.9190978E-01
        1   -1    0    0  501    0  0.00000000000E+00  0.00000000000E+00  0.11719270798E+04  0.11719270798E+04  0.50400001928E-02 0.  1.
       -1   -1    0    0    0  501  0.00000000000E+00  0.00000000000E+00 -0.26506845269E+03  0.26506845274E+03  0.50400001928E-02 0. -1.
    10030    2    1    2    0    0  0.00000000000E+00  0.00000000000E+00  0.90685862707E+03  0.14369955325E+04  0.11147033646E+04 0.  0.
        4    1    3    3  502    0 -0.16056633085E+03 -0.42810961318E+03  0.42563515263E+02  0.45920872512E+03  0.12699999809E+01 0.  1.
       -4    1    3    3    0  502  0.16056633085E+03  0.42810961318E+03  0.86429511181E+03  0.97778680738E+03  0.12699999809E+01 0. -1.
</event>
<event>
 5   0  0.5948818E-04  0.1101281E+04  0.7818609E-02  0.9203945E-01
        2   -1    0    0  501    0  0.00000000000E+00  0.00000000000E+00  0.14477157617E+04  0.14477157617E+04  0.25500000920E-02 0. -1.
       -2   -1    0    0    0  501  0.00000000000E+00  0.00000000000E+00 -0.20943667589E+03  0.20943667591E+03  0.25500000920E-02 0.  1.
    10030    2    1    2    0    0  0.00000000000E+00  0.00000000000E+00  0.12382790858E+04  0.16571524376E+04  0.11012806668E+04 0.  0.
        3    1    3    3  502    0 -0.28171732076E+03  0.23723524543E+03  0.31844571863E+01  0.36831421566E+03  0.10100000352E+00 0.  1.
       -3    1    3    3    0  502  0.28171732076E+03 -0.23723524543E+03  0.12350946286E+04  0.12888382219E+04  0.10100000352E+00 0. -1.
</event>
<event>
 5   0  0.3523525E-04  0.1093963E+04  0.7818609E-02  0.9211096E-01
        1   -1    0    0  501    0  0.00000000000E+00  0.00000000000E+00  0.70225150831E+03  0.70225150832E+03  0.50400001928E-02 0.  1.
       -1   -1    0    0    0  501  0.00000000000E+00  0.00000000000E+00 -0.42604180888E+03  0.42604180891E+03  0.50400001928E-02 0. -1.
    10030    2    1    2    0    0  0.00000000000E+00  0.00000000000E+00  0.27620969942E+03  0.11282933172E+04  0.10939625275E+04 0.  0.
        5    1    3    3  502    0 -0.89738771550E+01 -0.47781409430E+03 -0.13628847462E+03  0.49697432277E+03  0.46999998093E+01 0. -1.
       -5    1    3    3    0  502  0.89738771550E+01  0.47781409430E+03  0.41249817404E+03  0.63131899446E+03  0.46999998093E+01 0.  1.
</event>
<event>
 5   0  0.5948818E-04  0.1107230E+04  0.7818609E-02  0.9198174E-01
       -2   -1    0    0    0  501  0.00000000000E+00  0.00000000000E+00  0.31191695383E+03  0.31191695384E+03  0.25500000920E-02 0. -1.
        2   -1    0    0  501    0  0.00000000000E+00  0.00000000000E+00 -0.98259991109E+03  0.98259991109E+03  0.25500000920E-02 0.  1.
    10030    2    1    2    0    0  0.00000000000E+00  0.00000000000E+00 -0.67068295726E+03  0.12945168649E+04  0.11072300052E+04 0.  0.
        3    1    3    3  502    0 -0.28538593485E+03 -0.47431661116E+03 -0.34499538470E+03  0.65226007474E+03  0.10100000352E+00 0.  1.
       -3    1    3    3    0  502  0.28538593485E+03  0.47431661116E+03 -0.32568757256E+03  0.64225679019E+03  0.10100000352E+00 0. -1.
</event>
<event>
 5   0  0.6109149E-04  0.1098226E+04  0.7818609E-02  0.9206923E-01
       -2   -1    0    0    0  501  0.00000000000E+00  0.00000000000E+00  0.39875967234E+03  0.39875967235E+03  0.25500000920E-02 0.  1.
        2   -1    0    0  501    0  0.00000000000E+00  0.00000000000E+00 -0.75615749132E+03  0.75615749132E+03  0.25500000920E-02 0. -1.
    10030    2    1    2    0    0  0.00000000000E+00  0.00000000000E+00 -0.35739781898E+03  0.11549171637E+04  0.10982260487E+04 0.  0.
        1    1    3    3  502    0 -0.32325027850E+03  0.22712788468E+03 -0.57976128274E+03  0.70157035538E+03  0.50400001928E-02 0. -1.
       -1    1    3    3    0  502  0.32325027850E+03 -0.22712788468E+03  0.22236346377E+03  0.45334680830E+03  0.50400001928E-02 0.  1.
</event>
<event>
 5   0  0.3523525E-04  0.1098306E+04  0.7818609E-02  0.9206844E-01
       -1   -1    0    0    0  501  0.00000000000E+00  0.00000000000E+00  0.62971053291E+03  0.62971053293E+03  0.50400001928E-02 0.  1.
        1   -1    0    0  501    0  0.00000000000E+00  0.00000000000E+00 -0.47890133616E+03  0.47890133618E+03  0.50400001928E-02 0. -1.
    10030    2    1    2    0    0  0.00000000000E+00  0.00000000000E+00  0.15080919675E+03  0.11086118691E+04  0.10983063610E+04 0.  0.
        5    1    3    3  502    0 -0.27917634840E+03  0.32372613213E+03 -0.27251656588E+03  0.50697673596E+03  0.46999998093E+01 0. -1.
       -5    1    3    3    0  502  0.27917634840E+03 -0.32372613213E+03  0.42332576263E+03  0.60163513315E+03  0.46999998093E+01 0.  1.
</event>
<event>
 5   0  0.3642161E-04  0.1098306E+04  0.7818609E-02  0.9206844E-01
       -1   -1    0    0    0  501  0.00000000000E+00  0.00000000000E+00  0.44624368465E+03  0.44624368468E+03  0.50400001928E-02 0. -1.
        1   -1    0    0  501    0  0.00000000000E+00  0.00000000000E+00 -0.67579459334E+03  0.67579459336E+03  0.50400001928E-02 0.  1.
    10030    2    1    2    0    0  0.00000000000E+00  0.00000000000E+00 -0.22955090870E+03  0.11220382780E+04  0.10983060947E+04 0.  0.
        2    1    3    3  502    0  0.48817299117E+03 -0.24709927586E+03 -0.66877965754E+02  0.55122008649E+03  0.25500000920E-02 0.  1.
       -2    1    3    3    0  502 -0.48817299117E+03  0.24709927586E+03 -0.16267294294E+03  0.57081819155E+03  0.25500000920E-02 0. -1.
</event>
<event>
 5   0  0.6412712E-04  0.1104278E+04  0.7818609E-02  0.9201032E-01
       -2   -1    0    0    0  501  0.00000000000E+00  0.00000000000E+00  0.24501342998E+03  0.24501342999E+03  0.25500000920E-02 0.  1.
        2   -1    0    0  501    0  0.00000000000E+00  0.00000000000E+00 -0.12442490144E+04  0.12442490144E+04  0.25500000920E-02 0. -1.
    10030    2    1    2    0    0  0.00000000000E+00  0.00000000000E+00 -0.99923558438E+03  0.14892624444E+04  0.11042784409E+04 0.  0.
        2    1    3    3  502    0  0.45550482177E+03  0.86598204564E+02 -0.95312652663E+02  0.47335863091E+03  0.25500000920E-02 0.  1.
       -2    1    3    3    0  502 -0.45550482177E+03 -0.86598204564E+02 -0.90392293171E+03  0.10159038134E+04  0.25500000920E-02 0. -1.
</event>
<event>
 5   0  0.6412712E-04  0.1102306E+04  0.7818609E-02  0.9202948E-01
       -2   -1    0    0    0  501  0.00000000000E+00  0.00000000000E+00  0.35769248085E+03  0.35769248086E+03  0.25500000920E-02 0.  1.
        2   -1    0    0  501    0  0.00000000000E+00  0.00000000000E+00 -0.84924741299E+03  0.84924741299E+03  0.25500000920E-02 0. -1.
    10030    2    1    2    0    0  0.00000000000E+00  0.00000000000E+00 -0.49155493214E+03  0.12069398939E+04  0.11023056092E+04 0.  0.
        2    1    3    3  502    0 -0.34154465674E+03 -0.39778128420E+03 -0.43187159701E+03  0.67926120080E+03  0.25500000920E-02 0. -1.
       -2    1    3    3    0  502  0.34154465674E+03  0.39778128420E+03 -0.59683335126E+02  0.52767869305E+03  0.25500000920E-02 0.  1.
</event>
<event>
 5   0  0.3423758E-04  0.1099700E+04  0.7818609E-02  0.9205485E-01
       -1   -1    0    0    0  501  0.00000000000E+00  0.00000000000E+00  0.21723993040E+03  0.21723993046E+03  0.50400001928E-02 0.  1.
        1   -1    0    0  501    0  0.00000000000E+00  0.00000000000E+00 -0.13917091218E+04  0.13917091218E+04  0.50400001928E-02 0. -1.
    10030    2    1    2    0    0  0.00000000000E+00  0.00000000000E+00 -0.11744691914E+04  0.16089490522E+04  0.10996995823E+04 0.  0.
        1    1    3    3  502    0  0.33376227324E+03 -0.39709749602E+03 -0.85402570193E+03  0.99922148494E+03  0.50400001928E-02 0. -1.
       -1    1    3    3    0  502 -0.33376227324E+03  0.39709749602E+03 -0.32044348945E+03  0.60972756731E+03  0.50400001928E-02 0.  1.
</event>
<event>
 5   0  0.3642161E-04  0.1099818E+04  0.7818609E-02  0.9205369E-01
       -1   -1    0    0    0  501  0.00000000000E+00  0.00000000000E+00  0.60257230020E+03  0.60257230022E+03  0.50400001928E-02 0.  1.
        1   -1    0    0  501    0  0.00000000000E+00  0.00000000000E+00 -0.50184835768E+03  0.50184835771E+03  0.50400001928E-02 0. -1.
    10030    2    1    2    0    0  0.00000000000E+00  0.00000000000E+00  0.10072394252E+03  0.11044206579E+04  0.10998180200E+04 0.  0.
        2    1    3    3  502    0 -0.28898415849E+03  0.30691371725E+03  0.40495734488E+03  0.58454967699E+03  0.25500000920E-02 0.  1.
       -2    1    3    3    0  502  0.28898415849E+03 -0.30691371725E+03 -0.30423340236E+03  0.51987098093E+03  0.25500000920E-02 0. -1.
</event>
<event>
 5   0  0.6109149E-04  0.1100086E+04  0.7818609E-02  0.9205109E-01
        2   -1    0    0  501    0  0.00000000000E+00  0.00000000000E+00  0.12021610845E+04  0.12021610845E+04  0.25500000920E-02 0. -1.
       -2   -1    0    0    0  501  0.00000000000E+00  0.00000000000E+00 -0.25166930005E+03  0.25166930006E+03  0.25500000920E-02 0.  1.
    10030    2    1    2    0    0  0.00000000000E+00  0.00000000000E+00  0.95049178441E+03  0.14538303845E+04  0.11000855215E+04 0.  0.
        1    1    3    3  502    0  0.14909509600E+03 -0.22025725003E+03  0.11115257313E+04  0.11429050946E+04  0.50400001928E-02 0. -1.
       -1    1    3    3    0  502 -0.14909509600E+03  0.22025725003E+03 -0.16103394690E+03  0.31092528994E+03  0.50400001928E-02 0.  1.
</event>
<event>
 5   0  0.3657529E-04  0.1098952E+04  0.7818609E-02  0.9206214E-01
        1   -1    0    0  501    0  0.00000000000E+00  0.00000000000E+00  0.51938428685E+03  0.51938428688E+03  0.50400001928E-02 0.  1.
       -1   -1    0    0    0  501  0.00000000000E+00  0.00000000000E+00 -0.58131143106E+03  0.58131143109E+03  0.50400001928E-02 0. -1.
    10030    2    1    2    0    0  0.00000000000E+00  0.00000000000E+00 -0.61927144209E+02  0.11006957180E+04  0.10989522703E+04 0.  0.
        4    1    3    3  502    0  0.90786650687E+02 -0.20641210662E+03 -0.53283159125E+03  0.57858386707E+03  0.12699999809E+01 0. -1.
       -4    1    3    3    0  502 -0.90786650687E+02  0.20641210662E+03  0.47090444704E+03  0.52211185089E+03  0.12699999809E+01 0.  1.
</event>
<event>
 5   0  0.6109149E-04  0.1101641E+04  0.7818609E-02  0.9203594E-01
       -2   -1    0    0    0  501  0.00000000000E+00  0.00000000000E+00  0.24881397392E+03  0.24881397394E+03  0.25500000920E-02 0. -1.
        2   -1    0    0  501    0  0.00000000000E+00  0.00000000000E+00 -0.12193976037E+04  0.12193976037E+04  0.25500000920E-02 0.  1.
    10030    2    1    2    0    0  0.00000000000E+00  0.00000000000E+00 -0.97058362981E+03  0.14682115777E+04  0.11016408917E+04 0.  0.
        1    1    3    3  502    0  0.28191645778E+03 -0.20547115542E+03 -0.10534057937E+04  0.11096661890E+04  0.50400001928E-02 0.  1.
       -1    1    3    3    0  502 -0.28191645778E+03  0.20547115542E+03  0.82822163863E+02  0.35854538866E+03  0.50400001928E-02 0. -1.
</event>
<event>
 5   0  0.3423758E-04  0.1100030E+04  0.7818609E-02  0.9205163E-01
       -1   -1    0    0    0  501  0.00000000000E+00  0.00000000000E+00  0.34974817280E+03  0.34974817283E+03  0.50400001928E-02 0.  1.
        1   -1    0    0  501    0  0.00000000000E+00  0.00000000000E+00 -0.86495457441E+03  0.86495457443E+03  0.50400001928E-02 0. -1.
    10030    2    1    2    0    0  0.00000000000E+00  0.00000000000E+00 -0.51520640162E+03  0.12147027473E+04  0.11000296032E+04 0.  0.
        1    1    3    3  502    0 -0.43018797476E+03 -0.15833911543E+03  0.78028061999E+02  0.46499607265E+03  0.50400001928E-02 0.  1.
       -1    1    3    3    0  502  0.43018797476E+03  0.15833911543E+03 -0.59323446362E+03  0.74970667461E+03  0.50400001928E-02 0. -1.
</event>
<event>
 5   0  0.6264830E-04  0.1103287E+04  0.7818609E-02  0.9201994E-01
        2   -1    0    0  501    0  0.00000000000E+00  0.00000000000E+00  0.13953027905E+04  0.13953027905E+04  0.25500000920E-02 0. -1.
       -2   -1    0    0    0  501  0.00000000000E+00  0.00000000000E+00 -0.21809650549E+03  0.21809650550E+03  0.25500000920E-02 0.  1.
    10030    2    1    2    0    0  0.00000000000E+00  0.00000000000E+00  0.11772062851E+04  0.16133992960E+04  0.11032872024E+04 0.  0.
        4    1    3    3  502    0  0.63965671018E+02  0.50837578880E+03  0.88748070909E+03  0.10247737173E+04  0.12699999809E+01 0. -1.
       -4    1    3    3    0  502 -0.63965671018E+02 -0.50837578880E+03  0.28972557597E+03  0.58862557877E+03  0.12699999809E+01 0.  1.
</event>
<event>
 5   0  0.3523525E-04  0.1102081E+04  0.7818609E-02  0.9203166E-01
        1   -1    0    0  501    0  0.00000000000E+00  0.00000000000E+00  0.41923084974E+03  0.41923084977E+03  0.50400001928E-02 0.  1.
       -1   -1    0    0    0  501  0.00000000000E+00  0.00000000000E+00 -0.72429278421E+03  0.72429278423E+03  0.50400001928E-02 0. -1.
    10030    2    1    2    0    0  0.00000000000E+00  0.00000000000E+00 -0.30506193447E+03  0.11435236340E+04  0.11020814478E+04 0.  0.
        5    1    3    3  502    0  0.26553252510E+03  0.24043954548E+02  0.34782440278E+03  0.43828020581E+03  0.46999998093E+01 0.  1.
       -5    1    3    3    0  502 -0.26553252510E+03 -0.24043954548E+02 -0.65288633725E+03  0.70524342819E+03  0.46999998093E+01 0. -1.
</event>
<event>
 5   0  0.5948818E-04  0.1100785E+04  0.7818609E-02  0.9204427E-01
       -2   -1    0    0    0  501  0.00000000000E+00  0.00000000000E+00  0.27839455927E+03  0.27839455928E+03  0.25500000920E-02 0. -1.
        2   -1    0    0  501    0  0.00000000000E+00  0.00000000000E+00 -0.10881387664E+04  0.10881387664E+04  0.25500000920E-02 0.  1.
    10030    2    1    2    0    0  0.00000000000E+00  0.00000000000E+00 -0.80974420714E+03  0.13665333257E+04  0.11007850150E+04 0.  0.
        3    1    3    3  502    0  0.24292920983E+03 -0.34040242144E+03 -0.84909043275E+03  0.94648982177E+03  0.10100000352E+00 0.  1.
       -3    1    3    3    0  502 -0.24292920983E+03  0.34040242144E+03  0.39346225613E+02  0.42004350392E+03  0.10100000352E+00 0. -1.
</event>
<event>
 5   0  0.6412712E-04  0.1101145E+04  0.7818609E-02  0.9204077E-01
        2   -1    0    0  501    0  0.00000000000E+00  0.00000000000E+00  0.15559357453E+04  0.15559357453E+04  0.25500000920E-02 0.  1.
       -2   -1    0    0    0  501  0.00000000000E+00  0.00000000000E+00 -0.19482172320E+03  0.19482172322E+03  0.25500000920E-02 0. -1.
    10030    2    1    2    0    0  0.00000000000E+00  0.00000000000E+00  0.13611140221E+04  0.17507574685E+04  0.11011450097E+04 0.  0.
        2    1    3    3  502    0 -0.29761748876E+03 -0.31614447583E+03  0.12188097600E+04  0.12938395304E+04  0.25500000920E-02 0.  1.
       -2    1    3    3    0  502  0.29761748876E+03  0.31614447583E+03  0.14230426211E+03  0.45691793819E+03  0.25500000920E-02 0. -1.
</event>
<event>
 5   0  0.6109149E-04  0.1101360E+04  0.7818609E-02  0.9203867E-01
       -2   -1    0    0    0  501  0.00000000000E+00  0.00000000000E+00  0.26403001861E+03  0.26403001862E+03  0.25500000920E-02 0. -1.
        2   -1    0    0  501    0  0.00000000000E+00  0.00000000000E+00 -0.11485375421E+04  0.11485375421E+04  0.25500000920E-02 0.  1.
    10030    2    1    2    0    0  0.00000000000E+00  0.00000000000E+00 -0.88450752345E+03  0.14125675607E+04  0.11013598660E+04 0.  0.
        1    1    3    3  502    0  0.40529706092E+03 -0.17871389139E+03 -0.22628911314E+02  0.44352725984E+03  0.50400001928E-02 0. -1.
       -1    1    3    3    0  502 -0.40529706092E+03  0.17871389139E+03 -0.86187861213E+03  0.96904030084E+03  0.50400001928E-02 0.  1.
</event>
<event>
 5   0  0.3642161E-04  0.1099943E+04  0.7818609E-02  0.9205247E-01
       -1   -1    0    0    0  501  0.00000000000E+00  0.00000000000E+00  0.37296979345E+03  0.37296979349E+03  0.50400001928E-02 0. -1.
        1   -1    0    0  501    0  0.00000000000E+00  0.00000000000E+00 -0.81097357366E+03  0.81097357368E+03  0.50400001928E-02 0.  1.
    10030    2    1    2    0    0  0.00000000000E+00  0.00000000000E+00 -0.43800378021E+03  0.11839433672E+04  0.10999429918E+04 0.  0.
        2    1    3    3  502    0 -0.25138279566E+03 -0.43312393305E+03  0.25688989032E+02  0.50144748030E+03  0.25500000920E-02 0. -1.
       -2    1    3    3    0  502  0.25138279566E+03  0.43312393305E+03 -0.46369276924E+03  0.68249588686E+03  0.25500000920E-02 0.  1.
</event>
<event>
 5   0  0.6412712E-04  0.1101930E+04  0.7818609E-02  0.9203313E-01
        2   -1    0    0  501    0  0.00000000000E+00  0.00000000000E+00  0.22525485307E+04  0.22525485307E+04  0.25500000920E-02 0.  1.
       -2   -1    0    0    0  501  0.00000000000E+00  0.00000000000E+00 -0.13476388090E+03  0.13476388092E+03  0.25500000920E-02 0. -1.
    10030    2    1    2    0    0  0.00000000000E+00  0.00000000000E+00  0.21177846498E+04  0.23873124116E+04  0.11019295476E+04 0.  0.
        2    1    3    3  502    0 -0.29155997500E+03  0.26397386588E+03  0.22297553402E+03  0.45211448735E+03  0.25500000920E-02 0. -1.
       -2    1    3    3    0  502  0.29155997500E+03 -0.26397386588E+03  0.18948091158E+04  0.19351979243E+04  0.25500000920E-02 0.  1.
</event>
<event>
 5   0  0.3621403E-04  0.1099395E+04  0.7818609E-02  0.9205781E-01
        1   -1    0    0  501    0  0.00000000000E+00  0.00000000000E+00  0.79496237891E+03  0.79496237892E+03  0.50400001928E-02 0.  1.
       -1   -1    0    0    0  501  0.00000000000E+00  0.00000000000E+00 -0.38010297341E+03  0.38010297344E+03  0.50400001928E-02 0. -1.
    10030    2    1    2    0    0  0.00000000000E+00  0.00000000000E+00  0.41485940550E+03  0.11750653524E+04  0.10993954048E+04 0.  0.
        3    1    3    3  502    0  0.21889296944E+03 -0.40547015539E+02  0.74462576922E+03  0.77719092823E+03  0.10100000352E+00 0.  1.
       -3    1    3    3    0  502 -0.21889296944E+03  0.40547015539E+02 -0.32976636372E+03  0.39787442414E+03  0.10100000352E+00 0. -1.
</event>
<event>
 5   0  0.3657529E-04  0.1100910E+04  0.7818609E-02  0.9204305E-01
        1   -1    0    0  501    0  0.00000000000E+00  0.00000000000E+00  0.37626114560E+03  0.37626114563E+03  0.50400001928E-02 0.  1.
       -1   -1    0    0    0  501  0.00000000000E+00  0.00000000000E+00 -0.80529401188E+03  0.80529401190E+03  0.50400001928E-02 0. -1.
    10030    2    1    2    0    0  0.00000000000E+00  0.00000000000E+00 -0.42903286628E+03  0.11815551575E+04  0.11009102552E+04 0.  0.
        4    1    3    3  502    0 -0.18925283048E+03 -0.23441861481E+03  0.27991491204E+03  0.41124529384E+03  0.12699999809E+01 0.  1.
       -4    1    3    3    0  502  0.18925283048E+03  0.23441861481E+03 -0.70894777833E+03  0.77030986370E+03  0.12699999809E+01 0. -1.
</event>
<event>
 5   0  0.3642161E-04  0.1099814E+04  0.7818609E-02  0.9205373E-01
        1   -1    0    0  501    0  0.00000000000E+00  0.00000000000E+00  0.64048779896E+03  0.64048779898E+03  0.50400001928E-02 0. -1.
       -1   -1    0    0    0  501  0.00000000000E+00  0.00000000000E+00 -0.47213665227E+03  0.47213665229E+03  0.50400001928E-02 0.  1.
    10030    2    1    2    0    0  0.00000000000E+00  0.00000000000E+00  0.16835114669E+03  0.11126244513E+04  0.10998141029E+04 0.  0.
        2    1    3    3  502    0 -0.12230316545E+03 -0.33517603601E+03  0.50749512563E+03  0.62036468463E+03  0.25500000920E-02 0. -1.
       -2    1    3    3    0  502  0.12230316545E+03  0.33517603601E+03 -0.33914397894E+03  0.49225976664E+03  0.25500000920E-02 0.  1.
</event>
<event>
 5   0  0.3523525E-04  0.1100420E+04  0.7818609E-02  0.9204783E-01
       -1   -1    0    0    0  501  0.00000000000E+00  0.00000000000E+00  0.57702420822E+03  0.57702420824E+03  0.50400001928E-02 0. -1.
        1   -1    0    0  501    0  0.00000000000E+00  0.00000000000E+00 -0.52464153463E+03  0.52464153466E+03  0.50400001928E-02 0.  1.
    10030    2    1    2    0    0  0.00000000000E+00  0.00000000000E+00  0.52382673585E+02  0.11016657429E+04  0.11004196766E+04 0.  0.
        5    1    3    3  502    0 -0.52522056566E+03 -0.11816501928E+03 -0.87467664308E+02  0.54542854405E+03  0.46999998093E+01 0.  1.
       -5    1    3    3    0  502  0.52522056566E+03  0.11816501928E+03  0.13985033789E+03  0.55623719884E+03  0.46999998093E+01 0. -1.
</event>
<event>
 5   0  0.5948818E-04  0.1102236E+04  0.7818609E-02  0.9203015E-01
        2   -1    0    0  501    0  0.00000000000E+00  0.00000000000E+00  0.10549963524E+04  0.10549963524E+04  0.25500000920E-02 0.  1.
       -2   -1    0    0    0  501  0.00000000000E+00  0.00000000000E+00 -0.28789769390E+03  0.28789769391E+03  0.25500000920E-02 0. -1.
    10030    2    1    2    0    0  0.00000000000E+00  0.00000000000E+00  0.76709865846E+03  0.13428940463E+04  0.11022359401E+04 0.  0.
        3    1    3    3  502    0  0.41050443124E+03 -0.24559338443E+03  0.50114461740E+02  0.48097969606E+03  0.10100000352E+00 0. -1.
       -3    1    3    3    0  502 -0.41050443124E+03  0.24559338443E+03  0.71698419672E+03  0.86191435020E+03  0.10100000352E+00 0.  1.
</event>
<event>
 5   0  0.6264830E-04  0.1099812E+04  0.7818609E-02  0.9205375E-01
       -2   -1    0    0    0  501  0.00000000000E+00  0.00000000000E+00  0.20303152720E+03  0.20303152722E+03  0.25500000920E-02 0. -1.
        2   -1    0    0  501    0  0.00000000000E+00  0.00000000000E+00 -0.14894082650E+04  0.14894082650E+04  0.25500000920E-02 0.  1.
    10030    2    1    2    0    0  0.00000000000E+00  0.00000000000E+00 -0.12863767378E+04  0.16924397922E+04  0.10998124107E+04 0.  0.
        4    1    3    3  502    0 -0.52019407125E+03  0.64518680346E+02 -0.89898244125E+03  0.10406419050E+04  0.12699999809E+01 0.  1.
       -4    1    3    3    0  502  0.52019407125E+03 -0.64518680346E+02 -0.38739429654E+03  0.65179788721E+03  0.12699999809E+01 0. -1.
</event>
<event>
 5   0  0.5948818E-04  0.1103356E+04  0.7818609E-02  0.9201927E-01
       -2   -1    0    0    0  501  0.00000000000E+00  0.00000000000E+00  0.34830395819E+03  0.34830395820E+03  0.25500000920E-02 0.  1.
        2   -1    0    0  501    0  0.00000000000E+00  0.00000000000E+00 -0.87380236496E+03  0.87380236496E+03  0.25500000920E-02 0. -1.
    10030    2    1    2    0    0  0.00000000000E+00  0.00000000000E+00 -0.52549840676E+03  0.12221063232E+04  0.11033563747E+04 0.  0.
        3    1    3    3  502    0 -0.33779845310E+03 -0.12828826499E+03 -0.72448867386E+03  0.80959837118E+03  0.10100000352E+00 0. -1.
       -3    1    3    3    0  502  0.33779845310E+03  0.12828826499E+03  0.19899026710E+03  0.41250795199E+03  0.10100000352E+00 0.  1.
</event>
<event>
 5   0  0.3642161E-04  0.1077450E+04  0.7818609E-02  0.9227454E-01
        1   -1    0    0  501    0  0.00000000000E+00  0.00000000000E+00  0.44534885846E+03  0.44534885849E+03  0.50400001928E-02 0. -1.
       -1   -1    0    0    0  501  0.00000000000E+00  0.00000000000E+00 -0.65167895528E+03  0.65167895530E+03  0.50400001928E-02 0.  1.
    10030    2    1    2    0    0  0.00000000000E+00  0.00000000000E+00 -0.20633009682E+03  0.10970278138E+04  0.10774497275E+04 0.  0.
        2    1    3    3  502    0  0.79181567669E+02  0.53250473175E+03 -0.12336153354E+03  0.55231248217E+03  0.25500000920E-02 0.  1.
       -2    1    3    3    0  502 -0.79181567669E+02 -0.53250473175E+03 -0.82968563278E+02  0.54471533161E+03  0.25500000920E-02 0. -1.
</event>
<event>
 5   0  0.2403875E-04  0.1073493E+04  0.7818609E-02  0.9231420E-01
       -4   -1    0    0    0  501  0.00000000000E+00  0.00000000000E+00  0.10075997570E+04  0.10076005573E+04  0.12699999809E+01 0.  1.
        4   -1    0    0  501    0  0.00000000000E+00  0.00000000000E+00 -0.28592152429E+03  0.28592434480E+03  0.12699999809E+01 0. -1.
    10030    2    1    2    0    0  0.00000000000E+00  0.00000000000E+00  0.72167823269E+03  0.12935249021E+04  0.10734929906E+04 0.  0.
        4    1    3    3  502    0  0.52655779371E+03  0.10123167032E+03  0.33171410688E+03  0.63051314244E+03  0.12699999809E+01 0. -1.
       -4    1    3    3    0  502 -0.52655779371E+03 -0.10123167032E+03  0.38996412581E+03  0.66301175971E+03  0.12699999809E+01 0.  1.
</event>
<event>
 5   0  0.3523525E-04  0.1098277E+04  0.7818609E-02  0.9206873E-01
        1   -1    0    0  501    0  0.00000000000E+00  0.00000000000E+00  0.59790244177E+03  0.59790244179E+03  0.50400001928E-02 0. -1.
       -1   -1    0    0    0  501  0.00000000000E+00  0.00000000000E+00 -0.50435169430E+03  0.50435169432E+03  0.50400001928E-02 0.  1.
    10030    2    1    2    0    0  0.00000000000E+00  0.00000000000E+00  0.93550747473E+02  0.11022541361E+04  0.10982770316E+04 0.  0.
        5    1    3    3  502    0  0.51464118679E+03 -0.14877995522E+03 -0.74243174782E+02  0.54085595607E+03  0.46999998093E+01 0. -1.
       -5    1    3    3    0  502 -0.51464118679E+03  0.14877995522E+03  0.16779392226E+03  0.56139818005E+03  0.46999998093E+01 0.  1.
</event>
<event>
 5   0  0.3523525E-04  0.1100474E+04  0.7818609E-02  0.9204730E-01
       -1   -1    0    0    0  501  0.00000000000E+00  0.00000000000E+00  0.35742826735E+03  0.35742826739E+03  0.50400001928E-02 0.  1.
        1   -1    0    0  501    0  0.00000000000E+00  0.00000000000E+00 -0.84705357849E+03  0.84705357850E+03  0.50400001928E-02 0. -1.
    10030    2    1    2    0    0  0.00000000000E+00  0.00000000000E+00 -0.48962531114E+03  0.12044818459E+04  0.11004742486E+04 0.  0.
        5    1    3    3  502    0  0.54388916243E+02 -0.35125976642E+03 -0.70450391791E+03  0.78910673426E+03  0.46999998093E+01 0. -1.
       -5    1    3    3    0  502 -0.54388916243E+02  0.35125976642E+03  0.21487860677E+03  0.41537511163E+03  0.46999998093E+01 0.  1.
</event>
<event>
 5   0  0.3657529E-04  0.1096795E+04  0.7818609E-02  0.9208321E-01
        1   -1    0    0  501    0  0.00000000000E+00  0.00000000000E+00  0.79673300038E+03  0.79673300040E+03  0.50400001928E-02 0. -1.
       -1   -1    0    0    0  501  0.00000000000E+00  0.00000000000E+00 -0.37746641815E+03  0.37746641818E+03  0.50400001928E-02 0.  1.
    10030    2    1    2    0    0  0.00000000000E+00  0.00000000000E+00  0.41926658223E+03  0.11741994186E+04  0.10967952442E+04 0.  0.
        4    1    3    3  502    0 -0.51545043646E+03 -0.11734440709E+03  0.36580299041E+03  0.64286258486E+03  0.12699999809E+01 0. -1.
       -4    1    3    3    0  502  0.51545043646E+03  0.11734440709E+03  0.53463591825E+02  0.53133683372E+03  0.12699999809E+01 0.  1.
</event>
<event>
 5   0  0.3423758E-04  0.1108913E+04  0.7818609E-02  0.9196548E-01
        1   -1    0    0  501    0  0.00000000000E+00  0.00000000000E+00  0.32523592204E+03  0.32523592208E+03  0.50400001928E-02 0.  1.
       -1   -1    0    0    0  501  0.00000000000E+00  0.00000000000E+00 -0.94522740401E+03  0.94522740403E+03  0.50400001928E-02 0. -1.
    10030    2    1    2    0    0  0.00000000000E+00  0.00000000000E+00 -0.61999148197E+03  0.12704633261E+04  0.11089128123E+04 0.  0.
        1    1    3    3  502    0  0.72751933147E+02 -0.26983324274E+03 -0.85863240935E+03  0.90296868001E+03  0.50400001928E-02 0. -1.
       -1    1    3    3    0  502 -0.72751933147E+02  0.26983324274E+03  0.23864092738E+03  0.36749464610E+03  0.50400001928E-02 0.  1.
</event>
<event>
 5   0  0.6264830E-04  0.1100851E+04  0.7818609E-02  0.9204363E-01
        2   -1    0    0  501    0  0.00000000000E+00  0.00000000000E+00  0.11839486117E+04  0.11839486117E+04  0.25500000920E-02 0. -1.
       -2   -1    0    0    0  501  0.00000000000E+00  0.00000000000E+00 -0.25589620524E+03  0.25589620526E+03  0.25500000920E-02 0.  1.
    10030    2    1    2    0    0  0.00000000000E+00  0.00000000000E+00  0.92805240646E+03  0.14398448170E+04  0.11008505020E+04 0.  0.
        4    1    3    3  502    0 -0.33235458291E+03 -0.32559008591E+03  0.84869773978E+03  0.96786256216E+03  0.12699999809E+01 0. -1.
       -4    1    3    3    0  502  0.33235458291E+03  0.32559008591E+03  0.79354666671E+02  0.47198225480E+03  0.12699999809E+01 0.  1.
</event>
<event>
 5   0  0.6245176E-04  0.1099378E+04  0.7818609E-02  0.9205799E-01
       -2   -1    0    0    0  501  0.00000000000E+00  0.00000000000E+00  0.22804984557E+03  0.22804984559E+03  0.25500000920E-02 0. -1.
        2   -1    0    0  501    0  0.00000000000E+00  0.00000000000E+00 -0.13249637340E+04  0.13249637340E+04  0.25500000920E-02 0.  1.
    10030    2    1    2    0    0  0.00000000000E+00  0.00000000000E+00 -0.10969138884E+04  0.15530135795E+04  0.10993775965E+04 0.  0.
        5    1    3    3  502    0  0.37954047997E+03 -0.35774792997E+03 -0.79354364915E+03  0.94961474843E+03  0.46999998093E+01 0.  1.
       -5    1    3    3    0  502 -0.37954047997E+03  0.35774792997E+03 -0.30337023923E+03  0.60339883111E+03  0.46999998093E+01 0. -1.
</event>
<event>
 5   0  0.3523525E-04  0.1096454E+04  0.7818609E-02  0.9208655E-01
        1   -1    0    0  501    0  0.00000000000E+00  0.00000000000E+00  0.16641624605E+04  0.16641624606E+04  0.50400001928E-02 0.  1.
       -1   -1    0    0    0  501  0.00000000000E+00  0.00000000000E+00 -0.18060310577E+03  0.18060310584E+03  0.50400001928E-02 0. -1.
    10030    2    1    2    0    0  0.00000000000E+00  0.00000000000E+00  0.14835593548E+04  0.18447655664E+04  0.10964541193E+04 0.  0.
        5    1    3    3  502    0  0.16671831297E+03 -0.51602487409E+03  0.87694656944E+03  0.10310839162E+04  0.46999998093E+01 0.  1.
       -5    1    3    3    0  502 -0.16671831297E+03  0.51602487409E+03  0.60661278534E+03  0.81368165021E+03  0.46999998093E+01 0. -1.
</event>
<event>
 5   0  0.6109149E-04  0.1100978E+04  0.7818609E-02  0.9204240E-01
        2   -1    0    0  501    0  0.00000000000E+00  0.00000000000E+00  0.58606165676E+03  0.58606165676E+03  0.25500000920E-02 0. -1.
       -2   -1    0    0    0  501  0.00000000000E+00  0.00000000000E+00 -0.51707510671E+03  0.51707510672E+03  0.25500000920E-02 0.  1.
    10030    2    1    2    0    0  0.00000000000E+00  0.00000000000E+00  0.68986550043E+02  0.11031367635E+04  0.11009775542E+04 0.  0.
        1    1    3    3  502    0 -0.64165705179E+02 -0.34692231226E+03 -0.38890564862E+03  0.52509040367E+03  0.50400001928E-02 0.  1.
       -1    1    3    3    0  502  0.64165705179E+02  0.34692231226E+03  0.45789219867E+03  0.57804635981E+03  0.50400001928E-02 0. -1.
</event>
<event>
 5   0  0.6412712E-04  0.1100447E+04  0.7818609E-02  0.9204756E-01
        2   -1    0    0  501    0  0.00000000000E+00  0.00000000000E+00  0.29661867246E+04  0.29661867246E+04  0.25500000920E-02 0. -1.
       -2   -1    0    0    0  501  0.00000000000E+00  0.00000000000E+00 -0.10206578147E+03  0.10206578150E+03  0.25500000920E-02 0.  1.
    10030    2    1    2    0    0  0.00000000000E+00  0.00000000000E+00  0.28641209431E+04  0.30682525061E+04  0.11004474837E+04 0.  0.
        2    1    3    3  502    0  0.26814645614E+03 -0.48056753831E+02  0.27649598623E+04  0.27783475329E+04  0.25500000920E-02 0. -1.
       -2    1    3    3    0  502 -0.26814645614E+03  0.48056753831E+02  0.99161080862E+02  0.28990497321E+03  0.25500000920E-02 0.  1.
</event>
<event>
 5   0  0.6412712E-04  0.1102283E+04  0.7818609E-02  0.9202970E-01
       -2   -1    0    0    0  501  0.00000000000E+00  0.00000000000E+00  0.16723252714E+03  0.16723252716E+03  0.25500000920E-02 0. -1.
        2   -1    0    0  501    0  0.00000000000E+00  0.00000000000E+00 -0.18163749169E+04  0.18163749169E+04  0.25500000920E-02 0.  1.
    10030    2    1    2    0    0  0.00000000000E+00  0.00000000000E+00 -0.16491423898E+04  0.19836074441E+04  0.11022830264E+04 0.  0.
        2    1    3    3  502    0  0.23447368131E+03 -0.40170386144E+03 -0.29252322393E+03  0.54946677431E+03  0.25500000920E-02 0. -1.
       -2    1    3    3    0  502 -0.23447368131E+03  0.40170386144E+03 -0.13566191658E+04  0.14341406697E+04  0.25500000920E-02 0.  1.
</event>
<event>
 5   0  0.3657529E-04  0.1098578E+04  0.7818609E-02  0.9206579E-01
       -1   -1    0    0    0  501  0.00000000000E+00  0.00000000000E+00  0.15763227085E+03  0.15763227093E+03  0.50400001928E-02 0.  1.
        1   -1    0    0  501    0  0.00000000000E+00  0.00000000000E+00 -0.19140640148E+04  0.19140640148E+04  0.50400001928E-02 0. -1.
    10030    2    1    2    0    0  0.00000000000E+00  0.00000000000E+00 -0.17564317440E+04  0.20716962858E+04  0.10985777302E+04 0.  0.
        4    1    3    3  502    0  0.34136216136E+03 -0.42945588282E+03 -0.93007238025E+03  0.10798132829E+04  0.12699999809E+01 0. -1.
       -4    1    3    3    0  502 -0.34136216136E+03  0.42945588282E+03 -0.82635936372E+03  0.99188300288E+03  0.12699999809E+01 0.  1.
</event>
<event>
 5   0  0.3423758E-04  0.1100355E+04  0.7818609E-02  0.9204845E-01
       -1   -1    0    0    0  501  0.00000000000E+00  0.00000000000E+00  0.15583960860E+03  0.15583960868E+03  0.50400001928E-02 0.  1.
        1   -1    0    0  501    0  0.00000000000E+00  0.00000000000E+00 -0.19423530352E+04  0.19423530353E+04  0.50400001928E-02 0. -1.
    10030    2    1    2    0    0  0.00000000000E+00  0.00000000000E+00 -0.17865134266E+04  0.20981926439E+04  0.11003554642E+04 0.  0.
        1    1    3    3  502    0 -0.30287988052E+03  0.21480372186E+03 -0.16673896866E+04  0.17082345354E+04  0.50400001928E-02 0. -1.
       -1    1    3    3    0  502  0.30287988052E+03 -0.21480372186E+03 -0.11912374006E+03  0.38995810854E+03  0.50400001928E-02 0.  1.
</event>
<event>
 5   0  0.6245176E-04  0.1089092E+04  0.7818609E-02  0.9215889E-01
        2   -1    0    0  501    0  0.00000000000E+00  0.00000000000E+00  0.12793168208E+04  0.12793168208E+04  0.25500000920E-02 0.  1.
       -2   -1    0    0    0  501  0.00000000000E+00  0.00000000000E+00 -0.23178801054E+03  0.23178801056E+03  0.25500000920E-02 0. -1.
    10030    2    1    2    0    0  0.00000000000E+00  0.00000000000E+00  0.10475288102E+04  0.15111048313E+04  0.10890919167E+04 0.  0.
        5    1    3    3  502    0  0.20880253202E+02  0.51549365439E+03  0.76543690861E+03  0.92308474353E+03  0.46999998093E+01 0.  1.
       -5    1    3    3    0  502 -0.20880253202E+02 -0.51549365439E+03  0.28209190163E+03  0.58802008780E+03  0.46999998093E+01 0. -1.
</event>
<event>
 5   0  0.3523525E-04  0.1101253E+04  0.7818609E-02  0.9203972E-01
        1   -1    0    0  501    0  0.00000000000E+00  0.00000000000E+00  0.11350017930E+04  0.11350017930E+04  0.50400001928E-02 0.  1.
       -1   -1    0    0    0  501  0.00000000000E+00  0.00000000000E+00 -0.26712672577E+03  0.26712672582E+03  0.50400001928E-02 0. -1.
    10030    2    1    2    0    0  0.00000000000E+00  0.00000000000E+00  0.86787506724E+03  0.14021285188E+04  0.11012525828E+04 0.  0.
        5    1    3    3  502    0 -0.24739108456E+03  0.44206516768E+03  0.70861895727E+03  0.87108373754E+03  0.46999998093E+01 0. -1.
       -5    1    3    3    0  502  0.24739108456E+03 -0.44206516768E+03  0.15925610997E+03  0.53104478131E+03  0.46999998093E+01 0.  1.
</event>
<event>
 5   0  0.6412712E-04  0.1123662E+04  0.7818609E-02  0.9182431E-01
       -2   -1    0    0    0  501  0.00000000000E+00  0.00000000000E+00  0.31539254490E+03  0.31539254491E+03  0.25500000920E-02 0. -1.
        2   -1    0    0  501    0  0.00000000000E+00  0.00000000000E+00 -0.10008295746E+04  0.10008295746E+04  0.25500000920E-02 0.  1.
    10030    2    1    2    0    0  0.00000000000E+00  0.00000000000E+00 -0.68543702966E+03  0.13162221195E+04  0.11236622029E+04 0.  0.
        2    1    3    3  502    0 -0.37765769612E+02 -0.35718477937E+03  0.16334366335E+03  0.39457365895E+03  0.25500000920E-02 0. -1.
       -2    1    3    3    0  502  0.37765769612E+02  0.35718477937E+03 -0.84878069302E+03  0.92164846054E+03  0.25500000920E-02 0.  1.
</event>
<event>
 5   0  0.6264830E-04  0.1099502E+04  0.7818609E-02  0.9205677E-01
       -2   -1    0    0    0  501  0.00000000000E+00  0.00000000000E+00  0.22259066025E+03  0.22259066027E+03  0.25500000920E-02 0. -1.
        2   -1    0    0  501    0  0.00000000000E+00  0.00000000000E+00 -0.13577663231E+04  0.13577663231E+04  0.25500000920E-02 0.  1.
    10030    2    1    2    0    0  0.00000000000E+00  0.00000000000E+00 -0.11351756629E+04  0.15803569834E+04  0.10995018915E+04 0.  0.
        4    1    3    3  502    0  0.99272999720E+02  0.19240251876E+03 -0.12939073034E+04  0.13118961775E+04  0.12699999809E+01 0. -1.
       -4    1    3    3    0  502 -0.99272999720E+02 -0.19240251876E+03  0.15873164056E+03  0.26846080592E+03  0.12699999809E+01 0.  1.
</event>
<event>
 5   0  0.3657529E-04  0.1101296E+04  0.7818609E-02  0.9203930E-01
        1   -1    0    0  501    0  0.00000000000E+00  0.00000000000E+00  0.93761535391E+03  0.93761535393E+03  0.50400001928E-02 0.  1.
       -1   -1    0    0    0  501  0.00000000000E+00  0.00000000000E+00 -0.32338767797E+03  0.32338767801E+03  0.50400001928E-02 0. -1.
    10030    2    1    2    0    0  0.00000000000E+00  0.00000000000E+00  0.61422767594E+03  0.12610030319E+04  0.11012960586E+04 0.  0.
        4    1    3    3  502    0 -0.38505470607E+03 -0.34986009332E+03  0.10055821593E+03  0.52988940286E+03  0.12699999809E+01 0.  1.
       -4    1    3    3    0  502  0.38505470607E+03  0.34986009332E+03  0.51366946001E+03  0.73111362908E+03  0.12699999809E+01 0. -1.
</event>
<event>
 5   0  0.6245176E-04  0.1098481E+04  0.7818609E-02  0.9206674E-01
        2   -1    0    0  501    0  0.00000000000E+00  0.00000000000E+00  0.17494960116E+03  0.17494960118E+03  0.25500000920E-02 0. -1.
       -2   -1    0    0    0  501  0.00000000000E+00  0.00000000000E+00 -0.17242977136E+04  0.17242977136E+04  0.25500000920E-02 0.  1.
    10030    2    1    2    0    0  0.00000000000E+00  0.00000000000E+00 -0.15493481125E+04  0.18992473148E+04  0.10984811283E+04 0.  0.
        5    1    3    3  502    0  0.45655465514E+02  0.27115998510E+03  0.47327944003E+02  0.27905946200E+03  0.46999998093E+01 0. -1.
       -5    1    3    3    0  502 -0.45655465514E+02 -0.27115998510E+03 -0.15966760565E+04  0.16201878528E+04  0.46999998093E+01 0.  1.
</event>
<event>
 5   0  0.5948818E-04  0.1103459E+04  0.7818609E-02  0.9201827E-01
        2   -1    0    0  501    0  0.00000000000E+00  0.00000000000E+00  0.78416754200E+03  0.78416754200E+03  0.25500000920E-02 0.  1.
       -2   -1    0    0    0  501  0.00000000000E+00  0.00000000000E+00 -0.38818949461E+03  0.38818949461E+03  0.25500000920E-02 0. -1.
    10030    2    1    2    0    0  0.00000000000E+00  0.00000000000E+00  0.39597804739E+03  0.11723570366E+04  0.11034592912E+04 0.  0.
        3    1    3    3  502    0  0.11790857446E+03 -0.45199863488E+03  0.50991978378E+03  0.69153697946E+03  0.10100000352E+00 0.  1.
       -3    1    3    3    0  502 -0.11790857446E+03  0.45199863488E+03 -0.11394173639E+03  0.48082005715E+03  0.10100000352E+00 0. -1.
</event>
<event>
 5   0  0.6264830E-04  0.1097212E+04  0.7818609E-02  0.9207914E-01
       -2   -1    0    0    0  501  0.00000000000E+00  0.00000000000E+00  0.14918096373E+04  0.14918096373E+04  0.25500000920E-02 0.  1.
        2   -1    0    0  501    0  0.00000000000E+00  0.00000000000E+00 -0.20174712580E+03  0.20174712582E+03  0.25500000920E-02 0. -1.
    10030    2    1    2    0    0  0.00000000000E+00  0.00000000000E+00  0.12900625115E+04  0.16935567631E+04  0.10972115686E+04 0.  0.
        4    1    3    3  502    0  0.62657883188E+02 -0.25894145037E+03  0.13852564528E+04  0.14106430229E+04  0.12699999809E+01 0.  1.
       -4    1    3    3    0  502 -0.62657883188E+02  0.25894145037E+03 -0.95193941332E+02  0.28291374023E+03  0.12699999809E+01 0. -1.
</event>
<event>
 5   0  0.3642161E-04  0.1097288E+04  0.7818609E-02  0.9207839E-01
       -1   -1    0    0    0  501  0.00000000000E+00  0.00000000000E+00  0.14692493809E+03  0.14692493818E+03  0.50400001928E-02 0. -1.
        1   -1    0    0  501    0  0.00000000000E+00  0.00000000000E+00 -0.20487342087E+04  0.20487342087E+04  0.50400001928E-02 0.  1.
    10030    2    1    2    0    0  0.00000000000E+00  0.00000000000E+00 -0.19018092706E+04  0.21956591469E+04  0.10972878326E+04 0.  0.
        2    1    3    3  502    0  0.46683635887E+03 -0.25526345719E+03 -0.12187271275E+04  0.13298087945E+04  0.25500000920E-02 0.  1.
       -2    1    3    3    0  502 -0.46683635887E+03  0.25526345719E+03 -0.68308214311E+03  0.86585035242E+03  0.25500000920E-02 0. -1.
</event>
<event>
 5   0  0.5948818E-04  0.1113816E+04  0.7818609E-02  0.9191830E-01
       -2   -1    0    0    0  501  0.00000000000E+00  0.00000000000E+00  0.24845933924E+03  0.24845933925E+03  0.25500000920E-02 0.  1.
        2   -1    0    0  501    0  0.00000000000E+00  0.00000000000E+00 -0.12482783884E+04  0.12482783884E+04  0.25500000920E-02 0. -1.
    10030    2    1    2    0    0  0.00000000000E+00  0.00000000000E+00 -0.99981904912E+03  0.14967377276E+04  0.11138158260E+04 0.  0.
        3    1    3    3  502    0 -0.45250458085E+03  0.11318035789E+03 -0.91042530410E+02  0.47524619057E+03  0.10100000352E+00 0.  1.
       -3    1    3    3    0  502  0.45250458085E+03 -0.11318035789E+03 -0.90877651871E+03  0.10214915370E+04  0.10100000352E+00 0. -1.
</event>
<event>
 5   0  0.3621403E-04  0.1100880E+04  0.7818609E-02  0.9204334E-01
        1   -1    0    0  501    0  0.00000000000E+00  0.00000000000E+00  0.81506754966E+03  0.81506754968E+03  0.50400001928E-02 0.  1.
       -1   -1    0    0    0  501  0.00000000000E+00  0.00000000000E+00 -0.37172911982E+03  0.37172911985E+03  0.50400001928E-02 0. -1.
    10030    2    1    2    0    0  0.00000000000E+00  0.00000000000E+00  0.44333842985E+03  0.11867966695E+04  0.11008802712E+04 0.  0.
        3    1    3    3  502    0 -0.16462942374E+03  0.12496925509E+03 -0.32830638568E+03  0.38795006761E+03  0.10100000352E+00 0. -1.
       -3    1    3    3    0  502  0.16462942374E+03 -0.12496925509E+03  0.77164481552E+03  0.79884660192E+03  0.10100000352E+00 0.  1.
</event>
<event>
 5   0  0.6264830E-04  0.1100567E+04  0.7818609E-02  0.9204639E-01
        2   -1    0    0  501    0  0.00000000000E+00  0.00000000000E+00  0.32557039910E+03  0.32557039911E+03  0.25500000920E-02 0.  1.
       -2   -1    0    0    0  501  0.00000000000E+00  0.00000000000E+00 -0.93009652771E+03  0.93009652772E+03  0.25500000920E-02 0. -1.
    10030    2    1    2    0    0  0.00000000000E+00  0.00000000000E+00 -0.60452612861E+03  0.12556669268E+04  0.11005669407E+04 0.  0.
        4    1    3    3  502    0 -0.18661047267E+03 -0.51762675807E+03 -0.29424764102E+03  0.62397453179E+03  0.12699999809E+01 0.  1.
       -4    1    3    3    0  502  0.18661047267E+03  0.51762675807E+03 -0.31027848759E+03  0.63169239503E+03  0.12699999809E+01 0. -1.
</event>
<event>
 5   0  0.3423758E-04  0.1107866E+04  0.7818609E-02  0.9197559E-01
       -1   -1    0    0    0  501  0.00000000000E+00  0.00000000000E+00  0.26075702459E+03  0.26075702464E+03  0.50400001928E-02 0. -1.
        1   -1    0    0  501    0  0.00000000000E+00  0.00000000000E+00 -0.11767349188E+04  0.11767349188E+04  0.50400001928E-02 0.  1.
    10030    2    1    2    0    0  0.00000000000E+00  0.00000000000E+00 -0.91597789424E+03  0.14374919435E+04  0.11078662306E+04 0.  0.
        1    1    3    3  502    0 -0.37103456125E+03  0.40656683055E+03 -0.37718006303E+03  0.66725409951E+03  0.50400001928E-02 0. -1.
       -1    1    3    3    0  502  0.37103456125E+03 -0.40656683055E+03 -0.53879783121E+03  0.77023784397E+03  0.50400001928E-02 0.  1.
</event>
<event>
 5   0  0.6245176E-04  0.1096482E+04  0.7818609E-02  0.9208627E-01
       -2   -1    0    0    0  501  0.00000000000E+00  0.00000000000E+00  0.26509671695E+03  0.26509671696E+03  0.25500000920E-02 0. -1.
        2   -1    0    0  501    0  0.00000000000E+00  0.00000000000E+00 -0.11338064285E+04  0.11338064286E+04  0.25500000920E-02 0.  1.
    10030    2    1    2    0    0  0.00000000000E+00  0.00000000000E+00 -0.86870971160E+03  0.13989031455E+04  0.10964823061E+04 0.  0.
        5    1    3    3  502    0  0.31222837702E+02  0.35817298021E+03 -0.96236687894E+03  0.10273435886E+04  0.46999998093E+01 0.  1.
       -5    1    3    3    0  502 -0.31222837702E+02 -0.35817298021E+03  0.93657167337E+02  0.37155955692E+03  0.46999998093E+01 0. -1.
</event>
<event>
 5   0  0.3523525E-04  0.1107759E+04  0.7818609E-02  0.9197662E-01
        1   -1    0    0  501    0  0.00000000000E+00  0.00000000000E+00  0.19781538269E+04  0.19781538269E+04  0.50400001928E-02 0.  1.
       -1   -1    0    0    0  501  0.00000000000E+00  0.00000000000E+00 -0.15508524296E+03  0.15508524304E+03  0.50400001928E-02 0. -1.
    10030    2    1    2    0    0  0.00000000000E+00  0.00000000000E+00  0.18230685840E+04  0.21332390700E+04  0.11077589394E+04 0.  0.
        5    1    3    3  502    0 -0.24851723604E+03 -0.85931446592E+02  0.18502444321E+04  0.18688423097E+04  0.46999998093E+01 0.  1.
       -5    1    3    3    0  502  0.24851723604E+03  0.85931446592E+02 -0.27175848103E+02  0.26439676027E+03  0.46999998093E+01 0. -1.
</event>
<event>
 5   0  0.3523525E-04  0.1101621E+04  0.7818609E-02  0.9203614E-01
       -1   -1    0    0    0  501  0.00000000000E+00  0.00000000000E+00  0.32389744621E+03  0.32389744625E+03  0.50400001928E-02 0.  1.
        1   -1    0    0  501    0  0.00000000000E+00  0.00000000000E+00 -0.93669173631E+03  0.93669173633E+03  0.50400001928E-02 0. -1.
    10030    2    1    2    0    0  0.00000000000E+00  0.00000000000E+00 -0.61279429010E+03  0.12605891826E+04  0.11016207357E+04 0.  0.
        5    1    3    3  502    0 -0.31925171588E+03  0.25337884694E+03 -0.73032665856E+03  0.83637408878E+03  0.46999998093E+01 0. -1.
       -5    1    3    3    0  502  0.31925171588E+03 -0.25337884694E+03  0.11753236846E+03  0.42421509380E+03  0.46999998093E+01 0.  1.
</event>
<event>
 5   0  0.6245176E-04  0.1097973E+04  0.7818609E-02  0.9207170E-01
        2   -1    0    0  501    0  0.00000000000E+00  0.00000000000E+00  0.11752908558E+04  0.11752908558E+04  0.25500000920E-02 0.  1.
       -2   -1    0    0    0  501  0.00000000000E+00  0.00000000000E+00 -0.25643520175E+03  0.25643520177E+03  0.25500000920E-02 0. -1.
    10030    2    1    2    0    0  0.00000000000E+00  0.00000000000E+00  0.91885565404E+03  0.14317260576E+04  0.10979725821E+04 0.  0.
        5    1    3    3  502    0  0.42903061942E+03  0.54158339659E+02  0.18454748772E+02  0.43285455514E+03  0.46999998093E+01 0. -1.
       -5    1    3    3    0  502 -0.42903061942E+03 -0.54158339659E+02  0.90040090527E+03  0.99887150243E+03  0.46999998093E+01 0.  1.
</event>
<event>
 5   0  0.3657529E-04  0.1098292E+04  0.7818609E-02  0.9206858E-01
        1   -1    0    0  501    0  0.00000000000E+00  0.00000000000E+00  0.71426211785E+03  0.71426211787E+03  0.50400001928E-02 0.  1.
       -1   -1    0    0    0  501  0.00000000000E+00  0.00000000000E+00 -0.42219997142E+03  0.42219997145E+03  0.50400001928E-02 0. -1.
    10030    2    1    2    0    0  0.00000000000E+00  0.00000000000E+00  0.29206214643E+03  0.11364620893E+04  0.10982922121E+04 0.  0.
        4    1    3    3  502    0  0.11257496966E+03  0.35271728245E+03  0.56568369190E+03  0.67607858812E+03  0.12699999809E+01 0.  1.
       -4    1    3    3    0  502 -0.11257496966E+03 -0.35271728245E+03 -0.27362154548E+03  0.46038350120E+03  0.12699999809E+01 0. -1.
</event>
<event>
 5   0  0.3657529E-04  0.1089142E+04  0.7818609E-02  0.9215840E-01
       -1   -1    0    0    0  501  0.00000000000E+00  0.00000000000E+00  0.95749300201E+03  0.95749300202E+03  0.50400001928E-02 0. -1.
        1   -1    0    0  501    0  0.00000000000E+00  0.00000000000E+00 -0.30972300179E+03  0.30972300183E+03  0.50400001928E-02 0.  1.
    10030    2    1    2    0    0  0.00000000000E+00  0.00000000000E+00  0.64777000022E+03  0.12672160038E+04  0.10891420602E+04 0.  0.
        4    1    3    3  502    0 -0.31834421644E+03  0.59639204068E+02  0.83324808147E+03  0.89398202050E+03  0.12699999809E+01 0. -1.
       -4    1    3    3    0  502  0.31834421644E+03 -0.59639204068E+02 -0.18547808125E+03  0.37323398335E+03  0.12699999809E+01 0.  1.
</event>
<event>
 5   0  0.3523525E-04  0.1098734E+04  0.7818609E-02  0.9206427E-01
       -1   -1    0    0    0  501  0.00000000000E+00  0.00000000000E+00  0.23365544458E+03  0.23365544464E+03  0.50400001928E-02 0. -1.
        1   -1    0    0  501    0  0.00000000000E+00  0.00000000000E+00 -0.12916632881E+04  0.12916632881E+04  0.50400001928E-02 0.  1.
    10030    2    1    2    0    0  0.00000000000E+00  0.00000000000E+00 -0.10580078435E+04  0.15253187327E+04  0.10987341078E+04 0.  0.
        5    1    3    3  502    0 -0.14091167846E+03 -0.53073729733E+03 -0.55068420628E+03  0.77769747649E+03  0.46999998093E+01 0. -1.
       -5    1    3    3    0  502  0.14091167846E+03  0.53073729733E+03 -0.50732363724E+03  0.74762125626E+03  0.46999998093E+01 0.  1.
</event>
<event>
 5   0  0.3642161E-04  0.1094514E+04  0.7818609E-02  0.9210555E-01
        1   -1    0    0  501    0  0.00000000000E+00  0.00000000000E+00  0.84714297924E+03  0.84714297925E+03  0.50400001928E-02 0. -1.
       -1   -1    0    0    0  501  0.00000000000E+00  0.00000000000E+00 -0.35352978448E+03  0.35352978452E+03  0.50400001928E-02 0.  1.
    10030    2    1    2    0    0  0.00000000000E+00  0.00000000000E+00  0.49361319476E+03  0.12006727638E+04  0.10945140929E+04 0.  0.
        2    1    3    3  502    0  0.38506272682E+03  0.58213709686E+02 -0.17496938988E+03  0.42693843465E+03  0.25500000920E-02 0.  1.
       -2    1    3    3    0  502 -0.38506272682E+03 -0.58213709686E+02  0.66858258463E+03  0.77373432912E+03  0.25500000920E-02 0. -1.
</event>
<event>
 5   0  0.3657529E-04  0.1086103E+04  0.7818609E-02  0.9218844E-01
        1   -1    0    0  501    0  0.00000000000E+00  0.00000000000E+00  0.13331167058E+04  0.13331167058E+04  0.50400001928E-02 0.  1.
       -1   -1    0    0    0  501  0.00000000000E+00  0.00000000000E+00 -0.22121453603E+03  0.22121453608E+03  0.50400001928E-02 0. -1.
    10030    2    1    2    0    0  0.00000000000E+00  0.00000000000E+00  0.11119021698E+04  0.15543312419E+04  0.10861027458E+04 0.  0.
        4    1    3    3  502    0  0.38771318368E+03  0.15429930338E+03  0.58605464093E+02  0.42138581032E+03  0.12699999809E+01 0. -1.
       -4    1    3    3    0  502 -0.38771318368E+03 -0.15429930338E+03  0.10532967057E+04  0.11329454316E+04  0.12699999809E+01 0.  1.
</event>
<event>
 5   0  0.3657529E-04  0.1093282E+04  0.7818609E-02  0.9211765E-01
        1   -1    0    0  501    0  0.00000000000E+00  0.00000000000E+00  0.59456542475E+03  0.59456542478E+03  0.50400001928E-02 0.  1.
       -1   -1    0    0    0  501  0.00000000000E+00  0.00000000000E+00 -0.50257930576E+03  0.50257930578E+03  0.50400001928E-02 0. -1.
    10030    2    1    2    0    0  0.00000000000E+00  0.00000000000E+00  0.91986118998E+02  0.10971447306E+04  0.10932818089E+04 0.  0.
        4    1    3    3  502    0  0.32669707813E+03  0.23386312187E+03  0.41796663357E+03  0.57975913991E+03  0.12699999809E+01 0.  1.
       -4    1    3    3    0  502 -0.32669707813E+03 -0.23386312187E+03 -0.32598051458E+03  0.51738559065E+03  0.12699999809E+01 0. -1.
</event>
<event>
 5   0  0.3423758E-04  0.1098841E+04  0.7818609E-02  0.9206323E-01
        1   -1    0    0  501    0  0.00000000000E+00  0.00000000000E+00  0.13173416866E+04  0.13173416866E+04  0.50400001928E-02 0. -1.
       -1   -1    0    0    0  501  0.00000000000E+00  0.00000000000E+00 -0.22914530117E+03  0.22914530123E+03  0.50400001928E-02 0.  1.
    10030    2    1    2    0    0  0.00000000000E+00  0.00000000000E+00  0.10881963854E+04  0.15464869878E+04  0.10988405845E+04 0.  0.
        1    1    3    3  502    0 -0.34893388547E+03 -0.41639246568E+03  0.42868340503E+03  0.69203107133E+03  0.50400001928E-02 0. -1.
       -1    1    3    3    0  502  0.34893388547E+03  0.41639246568E+03  0.65951298037E+03  0.85445591648E+03  0.50400001928E-02 0.  1.
</event>
<event>
 5   0  0.6412712E-04  0.1099303E+04  0.7818609E-02  0.9205871E-01
       -2   -1    0    0    0  501  0.00000000000E+00  0.00000000000E+00  0.39627924424E+03  0.39627924425E+03  0.25500000920E-02 0. -1.
        2   -1    0    0  501    0  0.00000000000E+00  0.00000000000E+00 -0.76238379821E+03  0.76238379821E+03  0.25500000920E-02 0.  1.
    10030    2    1    2    0    0  0.00000000000E+00  0.00000000000E+00 -0.36610455397E+03  0.11586630425E+04  0.10993031891E+04 0.  0.
        2    1    3    3  502    0 -0.48568433401E+03  0.10948793687E+03 -0.42852287813E+03  0.65689324681E+03  0.25500000920E-02 0.  1.
       -2    1    3    3    0  502  0.48568433401E+03 -0.10948793687E+03  0.62418324159E+02  0.50176979565E+03  0.25500000920E-02 0. -1.
</event>
<event>
 5   0  0.3423758E-04  0.1101634E+04  0.7818609E-02  0.9203601E-01
       -1   -1    0    0    0  501  0.00000000000E+00  0.00000000000E+00  0.52484197611E+03  0.52484197613E+03  0.50400001928E-02 0. -1.
        1   -1    0    0  501    0  0.00000000000E+00  0.00000000000E+00 -0.57807727284E+03  0.57807727286E+03  0.50400001928E-02 0.  1.
    10030    2    1    2    0    0  0.00000000000E+00  0.00000000000E+00 -0.53235296736E+02  0.11029192490E+04  0.11016337291E+04 0.  0.
        1    1    3    3  502    0 -0.14775891905E+03 -0.36309312435E+03 -0.41401867192E+03  0.57015855324E+03  0.50400001928E-02 0.  1.
       -1    1    3    3    0  502  0.14775891905E+03  0.36309312435E+03  0.36078337519E+03  0.53276069575E+03  0.50400001928E-02 0. -1.
</event>
<event>
 5   0  0.3657529E-04  0.1094789E+04  0.7818609E-02  0.9210286E-01
       -1   -1    0    0    0  501  0.00000000000E+00  0.00000000000E+00  0.99890736617E+03  0.99890736618E+03  0.50400001928E-02 0.  1.
        1   -1    0    0  501    0  0.00000000000E+00  0.00000000000E+00 -0.29996829097E+03  0.29996829101E+03  0.50400001928E-02 0. -1.
    10030    2    1    2    0    0  0.00000000000E+00  0.00000000000E+00  0.69893907520E+03  0.12988756572E+04  0.10947886289E+04 0.  0.
        4    1    3    3  502    0 -0.15445452343E+03 -0.52175700233E+03  0.42018190480E+03  0.68748892014E+03  0.12699999809E+01 0.  1.
       -4    1    3    3    0  502  0.15445452343E+03  0.52175700233E+03  0.27875717040E+03  0.61138673705E+03  0.12699999809E+01 0. -1.
</event>
<event>
 5   0  0.6245176E-04  0.1100748E+04  0.7818609E-02  0.9204463E-01
        2   -1    0    0  501    0  0.00000000000E+00  0.00000000000E+00  0.95508734936E+03  0.95508734937E+03  0.25500000920E-02 0. -1.
       -2   -1    0    0    0  501  0.00000000000E+00  0.00000000000E+00 -0.31715590202E+03  0.31715590203E+03  0.25500000920E-02 0.  1.
    10030    2    1    2    0    0  0.00000000000E+00  0.00000000000E+00  0.63793144734E+03  0.12722432514E+04  0.11007480907E+04 0.  0.
        5    1    3    3  502    0 -0.22040699280E+03  0.35397330337E+03 -0.96178708632E+02  0.42795884845E+03  0.46999998093E+01 0.  1.
       -5    1    3    3    0  502  0.22040699280E+03 -0.35397330337E+03  0.73411015597E+03  0.84428440295E+03  0.46999998093E+01 0. -1.
</event>
<event>
 5   0  0.2403875E-04  0.1096010E+04  0.7818609E-02  0.9209089E-01
        4   -1    0    0  501    0  0.00000000000E+00  0.00000000000E+00  0.56827847181E+03  0.56827989092E+03  0.12699999809E+01 0. -1.
       -4   -1    0    0    0  501  0.00000000000E+00  0.00000000000E+00 -0.52845238022E+03  0.52845390627E+03  0.12699999809E+01 0.  1.
    10030    2    1    2    0    0  0.00000000000E+00  0.00000000000E+00  0.39826091590E+02  0.10967337972E+04  0.10960104490E+04 0.  0.
        2    1    3    3  502    0  0.28195901304E+03  0.44771484517E+03  0.16269659586E+03  0.55355184936E+03  0.25500000920E-02 0.  1.
       -2    1    3    3    0  502 -0.28195901304E+03 -0.44771484517E+03 -0.12287050427E+03  0.54318194783E+03  0.25500000920E-02 0. -1.
</event>
<event>
 5   0  0.3621403E-04  0.1101277E+04  0.7818609E-02  0.9203948E-01
        1   -1    0    0  501    0  0.00000000000E+00  0.00000000000E+00  0.64449095495E+03  0.64449095497E+03  0.50400001928E-02 0.  1.
       -1   -1    0    0    0  501  0.00000000000E+00  0.00000000000E+00 -0.47045348598E+03  0.47045348600E+03  0.50400001928E-02 0. -1.
    10030    2    1    2    0    0  0.00000000000E+00  0.00000000000E+00  0.17403746897E+03  0.11149444410E+04  0.11012774700E+04 0.  0.
        3    1    3    3  502    0 -0.44582393516E+02 -0.44743875848E+03 -0.23475248782E+03  0.50724527907E+03  0.10100000352E+00 0. -1.
       -3    1    3    3    0  502  0.44582393516E+02  0.44743875848E+03  0.40878995679E+03  0.60769916190E+03  0.10100000352E+00 0.  1.
</event>
<event>
 5   0  0.3657529E-04  0.1070060E+04  0.7818609E-02  0.9234875E-01
        1   -1    0    0  501    0  0.00000000000E+00  0.00000000000E+00  0.81432431033E+03  0.81432431034E+03  0.50400001928E-02 0.  1.
       -1   -1    0    0    0  501  0.00000000000E+00  0.00000000000E+00 -0.35152695494E+03  0.35152695497E+03  0.50400001928E-02 0. -1.
    10030    2    1    2    0    0  0.00000000000E+00  0.00000000000E+00  0.46279735539E+03  0.11658512653E+04  0.10700597089E+04 0.  0.
        4    1    3    3  502    0 -0.37962323178E+03 -0.91039452548E+02 -0.16721276599E+03  0.42469247938E+03  0.12699999809E+01 0. -1.
       -4    1    3    3    0  502  0.37962323178E+03  0.91039452548E+02  0.63001012138E+03  0.74115878594E+03  0.12699999809E+01 0.  1.
</event>
<event>
 5   0  0.3657529E-04  0.1099654E+04  0.7818609E-02  0.9205529E-01
       -1   -1    0    0    0  501  0.00000000000E+00  0.00000000000E+00  0.93774520393E+03  0.93774520394E+03  0.50400001928E-02 0.  1.
        1   -1    0    0  501    0  0.00000000000E+00  0.00000000000E+00 -0.32237957295E+03  0.32237957299E+03  0.50400001928E-02 0. -1.
    10030    2    1    2    0    0  0.00000000000E+00  0.00000000000E+00  0.61536563098E+03  0.12601247769E+04  0.10996543064E+04 0.  0.
        4    1    3    3  502    0  0.37663408808E+03 -0.35704125960E+03  0.51577713814E+03  0.73168255855E+03  0.12699999809E+01 0.  1.
       -4    1    3    3    0  502 -0.37663408808E+03  0.35704125960E+03  0.99588492836E+02  0.52844221838E+03  0.12699999809E+01 0. -1.
</event>
<event>
 5   0  0.6264830E-04  0.1096696E+04  0.7818609E-02  0.9208418E-01
        2   -1    0    0  501    0  0.00000000000E+00  0.00000000000E+00  0.33503460796E+03  0.33503460797E+03  0.25500000920E-02 0.  1.
       -2   -1    0    0    0  501  0.00000000000E+00  0.00000000000E+00 -0.89747648234E+03  0.89747648234E+03  0.25500000920E-02 0. -1.
    10030    2    1    2    0    0  0.00000000000E+00  0.00000000000E+00 -0.56244187438E+03  0.12325110903E+04  0.10966962778E+04 0.  0.
        4    1    3    3  502    0 -0.22573261224E+03  0.89786426759E+02 -0.83369687768E+03  0.86837141329E+03  0.12699999809E+01 0. -1.
       -4    1    3    3    0  502  0.22573261224E+03 -0.89786426759E+02  0.27125500331E+03  0.36413967702E+03  0.12699999809E+01 0.  1.
</event>
<event>
 5   0  0.3523525E-04  0.1096913E+04  0.7818609E-02  0.9208206E-01
       -1   -1    0    0    0  501  0.00000000000E+00  0.00000000000E+00  0.39347972436E+03  0.39347972439E+03  0.50400001928E-02 0. -1.
        1   -1    0    0  501    0  0.00000000000E+00  0.00000000000E+00 -0.76447270011E+03  0.76447270012E+03  0.50400001928E-02 0.  1.
    10030    2    1    2    0    0  0.00000000000E+00  0.00000000000E+00 -0.37099297575E+03  0.11579524245E+04  0.10969129543E+04 0.  0.
        5    1    3    3  502    0  0.84022727035E+02 -0.52890458403E+03 -0.31032436398E+03  0.61896944880E+03  0.46999998093E+01 0.  1.
       -5    1    3    3    0  502 -0.84022727035E+02  0.52890458403E+03 -0.60668611762E+02  0.53898297572E+03  0.46999998093E+01 0. -1.
</event>
<event>
 5   0  0.3621403E-04  0.1099574E+04  0.7818609E-02  0.9205608E-01
       -1   -1    0    0    0  501  0.00000000000E+00  0.00000000000E+00  0.42336298088E+03  0.42336298091E+03  0.50400001928E-02 0. -1.
        1   -1    0    0  501    0  0.00000000000E+00  0.00000000000E+00 -0.71396293822E+03  0.71396293824E+03  0.50400001928E-02 0.  1.
    10030    2    1    2    0    0  0.00000000000E+00  0.00000000000E+00 -0.29059995733E+03  0.11373259191E+04  0.10995735133E+04 0.  0.
        3    1    3    3  502    0 -0.15162082270E+03  0.38832362169E+03 -0.51604960908E+03  0.66339378824E+03  0.10100000352E+00 0. -1.
       -3    1    3    3    0  502  0.15162082270E+03 -0.38832362169E+03  0.22544965175E+03  0.47393213091E+03  0.10100000352E+00 0.  1.
</event>
<event>
 5   0  0.6412712E-04  0.1103114E+04  0.7818609E-02  0.9202162E-01
        2   -1    0    0  501    0  0.00000000000E+00  0.00000000000E+00  0.40949429709E+03  0.40949429710E+03  0.25500000920E-02 0. -1.
       -2   -1    0    0    0  501  0.00000000000E+00  0.00000000000E+00 -0.74290422507E+03  0.74290422508E+03  0.25500000920E-02 0.  1.
    10030    2    1    2    0    0  0.00000000000E+00  0.00000000000E+00 -0.33340992798E+03  0.11523985222E+04  0.11031138535E+04 0.  0.
        2    1    3    3  502    0  0.54474395482E+03  0.55486048255E+02 -0.97484788387E+02  0.55617260076E+03  0.25500000920E-02 0. -1.
       -2    1    3    3    0  502 -0.54474395482E+03 -0.55486048255E+02 -0.23592513960E+03  0.59622592141E+03  0.25500000920E-02 0.  1.
</event>
<event>
 5   0  0.6245176E-04  0.1099593E+04  0.7818609E-02  0.9205588E-01
       -2   -1    0    0    0  501  0.00000000000E+00  0.00000000000E+00  0.76591388657E+03  0.76591388657E+03  0.25500000920E-02 0. -1.
        2   -1    0    0  501    0  0.00000000000E+00  0.00000000000E+00 -0.39466094010E+03  0.39466094010E+03  0.25500000920E-02 0.  1.
    10030    2    1    2    0    0  0.00000000000E+00  0.00000000000E+00  0.37125294647E+03  0.11605748267E+04  0.10995931875E+04 0.  0.
        5    1    3    3  502    0 -0.29428207601E+03 -0.10033697909E+03  0.66418665320E+03  0.73337265420E+03  0.46999998093E+01 0. -1.
       -5    1    3    3    0  502  0.29428207601E+03  0.10033697909E+03 -0.29293370673E+03  0.42720217248E+03  0.46999998093E+01 0.  1.
</event>
<event>
 5   0  0.5948818E-04  0.1103948E+04  0.7818609E-02  0.9201353E-01
        2   -1    0    0  501    0  0.00000000000E+00  0.00000000000E+00  0.15245472964E+04  0.15245472964E+04  0.25500000920E-02 0.  1.
       -2   -1    0    0    0  501  0.00000000000E+00  0.00000000000E+00 -0.19984625129E+03  0.19984625131E+03  0.25500000920E-02 0. -1.
    10030    2    1    2    0    0  0.00000000000E+00  0.00000000000E+00  0.13247010451E+04  0.17243935477E+04  0.11039475750E+04 0.  0.
        3    1    3    3  502    0  0.52129788781E+03 -0.15207817420E+03  0.81694989938E+03  0.98096198050E+03  0.10100000352E+00 0.  1.
       -3    1    3    3    0  502 -0.52129788781E+03  0.15207817420E+03  0.50775114568E+03  0.74343156716E+03  0.10100000352E+00 0. -1.
</event>
<event>
 5   0  0.3642161E-04  0.1100021E+04  0.7818609E-02  0.9205172E-01
       -1   -1    0    0    0  501  0.00000000000E+00  0.00000000000E+00  0.52902803615E+03  0.52902803618E+03  0.50400001928E-02 0. -1.
        1   -1    0    0  501    0  0.00000000000E+00  0.00000000000E+00 -0.57182501627E+03  0.57182501630E+03  0.50400001928E-02 0.  1.
    10030    2    1    2    0    0  0.00000000000E+00  0.00000000000E+00 -0.42796980122E+02  0.11008530525E+04  0.11000208460E+04 0.  0.
        2    1    3    3  502    0  0.90988051235E+01 -0.57198941382E+02 -0.56876470759E+03  0.57170604313E+03  0.25500000920E-02 0.  1.
       -2    1    3    3    0  502 -0.90988051235E+01  0.57198941382E+02  0.52596772747E+03  0.52914700934E+03  0.25500000920E-02 0. -1.
</event>
<event>
 5   0  0.5948818E-04  0.1091890E+04  0.7818609E-02  0.9213132E-01
        2   -1    0    0  501    0  0.00000000000E+00  0.00000000000E+00  0.63940820438E+03  0.63940820438E+03  0.25500000920E-02 0.  1.
       -2   -1    0    0    0  501  0.00000000000E+00  0.00000000000E+00 -0.46614358050E+03  0.46614358051E+03  0.25500000920E-02 0. -1.
    10030    2    1    2    0    0  0.00000000000E+00  0.00000000000E+00  0.17326462388E+03  0.11055517849E+04  0.10918901589E+04 0.  0.
        3    1    3    3  502    0 -0.14242957429E+03 -0.50052278446E+03  0.25376358318E+03  0.57896909049E+03  0.10100000352E+00 0.  1.
       -3    1    3    3    0  502  0.14242957429E+03  0.50052278446E+03 -0.80498959302E+02  0.52658269440E+03  0.10100000352E+00 0. -1.
</event>
<event>
 5   0  0.3523525E-04  0.1098284E+04  0.7818609E-02  0.9206866E-01
        1   -1    0    0  501    0  0.00000000000E+00  0.00000000000E+00  0.87376837670E+03  0.87376837672E+03  0.50400001928E-02 0.  1.
       -1   -1    0    0    0  501  0.00000000000E+00  0.00000000000E+00 -0.34512255491E+03  0.34512255494E+03  0.50400001928E-02 0. -1.
    10030    2    1    2    0    0  0.00000000000E+00  0.00000000000E+00  0.52864582179E+03  0.12188909317E+04  0.10982844342E+04 0.  0.
        5    1    3    3  502    0 -0.52085738897E+03  0.13890398955E+03  0.38044752593E+03  0.65980993319E+03  0.46999998093E+01 0.  1.
       -5    1    3    3    0  502  0.52085738897E+03 -0.13890398955E+03  0.14819829586E+03  0.55908099847E+03  0.46999998093E+01 0. -1.
</event>
<event>
 5   0  0.3621403E-04  0.1100133E+04  0.7818609E-02  0.9205063E-01
       -1   -1    0    0    0  501  0.00000000000E+00  0.00000000000E+00  0.56241963581E+03  0.56241963584E+03  0.50400001928E-02 0.  1.
        1   -1    0    0  501    0  0.00000000000E+00  0.00000000000E+00 -0.53798430708E+03  0.53798430710E+03  0.50400001928E-02 0. -1.
    10030    2    1    2    0    0  0.00000000000E+00  0.00000000000E+00  0.24435328733E+02  0.11004039429E+04  0.11001326067E+04 0.  0.
        3    1    3    3  502    0 -0.14471012796E+03  0.27966571987E+03 -0.43891352121E+03  0.54018425126E+03  0.10100000352E+00 0. -1.
       -3    1    3    3    0  502  0.14471012796E+03 -0.27966571987E+03  0.46334884994E+03  0.56021969168E+03  0.10100000352E+00 0.  1.
</event>
<event>
 5   0  0.2403875E-04  0.1099756E+04  0.7818609E-02  0.9205430E-01
        3   -1    0    0  501    0  0.00000000000E+00  0.00000000000E+00  0.19316778207E+03  0.19316780848E+03  0.10100000352E+00 0.  1.
       -3   -1    0    0    0  501  0.00000000000E+00  0.00000000000E+00 -0.15653008101E+04  0.15653008134E+04  0.10100000352E+00 0. -1.
    10030    2    1    2    0    0  0.00000000000E+00  0.00000000000E+00 -0.13721330281E+04  0.17584686219E+04  0.10997558126E+04 0.  0.
        3    1    3    3  502    0 -0.17767552551E+03 -0.51830726854E+03 -0.61184493022E+03  0.82131921068E+03  0.10100000352E+00 0.  1.
       -3    1    3    3    0  502  0.17767552551E+03  0.51830726854E+03 -0.76028809784E+03  0.93714941120E+03  0.10100000352E+00 0. -1.
</event>
<event>
 5   0  0.3657529E-04  0.1095841E+04  0.7818609E-02  0.9209255E-01
        1   -1    0    0  501    0  0.00000000000E+00  0.00000000000E+00  0.34525491998E+03  0.34525492002E+03  0.50400001928E-02 0. -1.
       -1   -1    0    0    0  501  0.00000000000E+00  0.00000000000E+00 -0.86955157211E+03  0.86955157212E+03  0.50400001928E-02 0.  1.
    10030    2    1    2    0    0  0.00000000000E+00  0.00000000000E+00 -0.52429665212E+03  0.12148064921E+04  0.10958411536E+04 0.  0.
        4    1    3    3  502    0 -0.34797799411E+03 -0.68405040049E+02 -0.72515981041E+03  0.80723373159E+03  0.12699999809E+01 0.  1.
       -4    1    3    3    0  502  0.34797799411E+03  0.68405040049E+02  0.20086315828E+03  0.40757276055E+03  0.12699999809E+01 0. -1.
</event>
<event>
 5   0  0.6264830E-04  0.1099689E+04  0.7818609E-02  0.9205495E-01
        2   -1    0    0  501    0  0.00000000000E+00  0.00000000000E+00  0.16158751794E+04  0.16158751794E+04  0.25500000920E-02 0. -1.
       -2   -1    0    0    0  501  0.00000000000E+00  0.00000000000E+00 -0.18709906653E+03  0.18709906654E+03  0.25500000920E-02 0.  1.
    10030    2    1    2    0    0  0.00000000000E+00  0.00000000000E+00  0.14287761129E+04  0.18029742459E+04  0.10996885699E+04 0.  0.
        4    1    3    3  502    0 -0.66769016559E+02 -0.41204266474E+03  0.12760549679E+03  0.43648829864E+03  0.12699999809E+01 0.  1.
       -4    1    3    3    0  502  0.66769016559E+02  0.41204266474E+03  0.13011706161E+04  0.13664859473E+04  0.12699999809E+01 0. -1.
</event>
<event>
 5   0  0.3657529E-04  0.1100479E+04  0.7818609E-02  0.9204725E-01
        1   -1    0    0  501    0  0.00000000000E+00  0.00000000000E+00  0.95959238455E+03  0.95959238457E+03  0.50400001928E-02 0. -1.
       -1   -1    0    0    0  501  0.00000000000E+00  0.00000000000E+00 -0.31551249639E+03  0.31551249643E+03  0.50400001928E-02 0.  1.
    10030    2    1    2    0    0  0.00000000000E+00  0.00000000000E+00  0.64407988817E+03  0.12751048810E+04  0.11004787845E+04 0.  0.
        4    1    3    3  502    0  0.54266889892E+03  0.87033234998E+02  0.35264007446E+03  0.65300915221E+03  0.12699999809E+01 0.  1.
       -4    1    3    3    0  502 -0.54266889892E+03 -0.87033234998E+02  0.29143981371E+03  0.62209572878E+03  0.12699999809E+01 0. -1.
</event>
<event>
 5   0  0.6245176E-04  0.1091001E+04  0.7818609E-02  0.9214008E-01
        2   -1    0    0  501    0  0.00000000000E+00  0.00000000000E+00  0.12579265145E+04  0.12579265145E+04  0.25500000920E-02 0. -1.
       -2   -1    0    0    0  501  0.00000000000E+00  0.00000000000E+00 -0.23655641142E+03  0.23655641143E+03  0.25500000920E-02 0.  1.
    10030    2    1    2    0    0  0.00000000000E+00  0.00000000000E+00  0.10213701031E+04  0.14944829259E+04  0.10910006088E+04 0.  0.
        5    1    3    3  502    0 -0.37248353628E+02 -0.98890919240E+02 -0.22237330591E+03  0.24624952982E+03  0.46999998093E+01 0.  1.
       -5    1    3    3    0  502  0.37248353628E+02  0.98890919240E+02  0.12437434090E+04  0.12482333961E+04  0.46999998093E+01 0. -1.
</event>
<event>
 5   0  0.3621403E-04  0.1101848E+04  0.7818609E-02  0.9203393E-01
        1   -1    0    0  501    0  0.00000000000E+00  0.00000000000E+00  0.99942237824E+03  0.99942237825E+03  0.50400001928E-02 0.  1.
       -1   -1    0    0    0  501  0.00000000000E+00  0.00000000000E+00 -0.30369254040E+03  0.30369254044E+03  0.50400001928E-02 0. -1.
    10030    2    1    2    0    0  0.00000000000E+00  0.00000000000E+00  0.69572983784E+03  0.13031149187E+04  0.11018477590E+04 0.  0.
        3    1    3    3  502    0 -0.43941282144E+03 -0.26349896475E+03  0.10838865561E+03  0.52370167360E+03  0.10100000352E+00 0. -1.
       -3    1    3    3    0  502  0.43941282144E+03  0.26349896475E+03  0.58734118223E+03  0.77941324509E+03  0.10100000352E+00 0.  1.
</event>
<event>
 5   0  0.6412712E-04  0.1099664E+04  0.7818609E-02  0.9205519E-01
        2   -1    0    0  501    0  0.00000000000E+00  0.00000000000E+00  0.48502037362E+03  0.48502037362E+03  0.25500000920E-02 0. -1.
       -2   -1    0    0    0  501  0.00000000000E+00  0.00000000000E+00 -0.62330453083E+03  0.62330453083E+03  0.25500000920E-02 0.  1.
    10030    2    1    2    0    0  0.00000000000E+00  0.00000000000E+00 -0.13828415721E+03  0.11083249045E+04  0.10996643059E+04 0.  0.
        2    1    3    3  502    0  0.14166299720E+03 -0.10984459102E+03 -0.59302530385E+03  0.61952663379E+03  0.25500000920E-02 0.  1.
       -2    1    3    3    0  502 -0.14166299720E+03  0.10984459102E+03  0.45474114664E+03  0.48879827067E+03  0.25500000920E-02 0. -1.
</event>
<event>
 5   0  0.6264830E-04  0.1099847E+04  0.7818609E-02  0.9205341E-01
       -2   -1    0    0    0  501  0.00000000000E+00  0.00000000000E+00  0.45210935776E+03  0.45210935776E+03  0.25500000920E-02 0.  1.
        2   -1    0    0  501    0  0.00000000000E+00  0.00000000000E+00 -0.66889963712E+03  0.66889963713E+03  0.25500000920E-02 0. -1.
    10030    2    1    2    0    0  0.00000000000E+00  0.00000000000E+00 -0.21679027936E+03  0.11210089949E+04  0.10998468718E+04 0.  0.
        4    1    3    3  502    0 -0.32218457438E+03 -0.44060199358E+03 -0.17662459308E+03  0.57369929100E+03  0.12699999809E+01 0. -1.
       -4    1    3    3    0  502  0.32218457438E+03  0.44060199358E+03 -0.40165686279E+02  0.54730970389E+03  0.12699999809E+01 0.  1.
</event>
<event>
 5   0  0.6412712E-04  0.1098885E+04  0.7818609E-02  0.9206280E-01
       -2   -1    0    0    0  501  0.00000000000E+00  0.00000000000E+00  0.46490406964E+03  0.46490406965E+03  0.25500000920E-02 0. -1.
        2   -1    0    0  501    0  0.00000000000E+00  0.00000000000E+00 -0.64935302101E+03  0.64935302101E+03  0.25500000920E-02 0.  1.
    10030    2    1    2    0    0  0.00000000000E+00  0.00000000000E+00 -0.18444895136E+03  0.11142570907E+04  0.10988846384E+04 0.  0.
        2    1    3    3  502    0 -0.13754649884E+03  0.21919411605E+03 -0.58369211743E+03  0.63848381954E+03  0.25500000920E-02 0.  1.
       -2    1    3    3    0  502  0.13754649884E+03 -0.21919411605E+03  0.39924316607E+03  0.47577327112E+03  0.25500000920E-02 0. -1.
</event>
<event>
 5   0  0.3657529E-04  0.1100735E+04  0.7818609E-02  0.9204476E-01
       -1   -1    0    0    0  501  0.00000000000E+00  0.00000000000E+00  0.27460417114E+03  0.27460417119E+03  0.50400001928E-02 0.  1.
        1   -1    0    0  501    0  0.00000000000E+00  0.00000000000E+00 -0.11030582871E+04  0.11030582871E+04  0.50400001928E-02 0. -1.
    10030    2    1    2    0    0  0.00000000000E+00  0.00000000000E+00 -0.82845411597E+03  0.13776624583E+04  0.11007350393E+04 0.  0.
        4    1    3    3  502    0  0.30643235398E+03  0.87849765471E+02 -0.97574691403E+03  0.10264998889E+04  0.12699999809E+01 0. -1.
       -4    1    3    3    0  502 -0.30643235398E+03 -0.87849765471E+02  0.14729279807E+03  0.35116256936E+03  0.12699999809E+01 0.  1.
</event>
<event>
 5   0  0.6245176E-04  0.1098884E+04  0.7818609E-02  0.9206281E-01
        2   -1    0    0  501    0  0.00000000000E+00  0.00000000000E+00  0.11367453073E+04  0.11367453073E+04  0.25500000920E-02 0. -1.
       -2   -1    0    0    0  501  0.00000000000E+00  0.00000000000E+00 -0.26557079856E+03  0.26557079857E+03  0.25500000920E-02 0.  1.
    10030    2    1    2    0    0  0.00000000000E+00  0.00000000000E+00  0.87117450873E+03  0.14023161059E+04  0.10988837227E+04 0.  0.
        5    1    3    3  502    0  0.71777441519E+02 -0.97097074462E+02  0.11195779959E+04  0.11260802910E+04  0.46999998093E+01 0. -1.
       -5    1    3    3    0  502 -0.71777441519E+02  0.97097074462E+02 -0.24840348714E+03  0.27623581484E+03  0.46999998093E+01 0.  1.
</event>
<event>
 5   0  0.3642161E-04  0.1105073E+04  0.7818609E-02  0.9200262E-01
       -1   -1    0    0    0  501  0.00000000000E+00  0.00000000000E+00  0.20515320923E+03  0.20515320929E+03  0.50400001928E-02 0.  1.
        1   -1    0    0  501    0  0.00000000000E+00  0.00000000000E+00 -0.14881385938E+04  0.14881385938E+04  0.50400001928E-02 0. -1.
    10030    2    1    2    0    0  0.00000000000E+00  0.00000000000E+00 -0.12829853846E+04  0.16932918031E+04  0.11050726824E+04 0.  0.
        2    1    3    3  502    0  0.16131737569E+03 -0.48953000607E+03 -0.94654344308E+03  0.10777789255E+04  0.25500000920E-02 0. -1.
       -2    1    3    3    0  502 -0.16131737569E+03  0.48953000607E+03 -0.33644194150E+03  0.61551287765E+03  0.25500000920E-02 0.  1.
</event>
<event>
 5   0  0.3423758E-04  0.1093902E+04  0.7818609E-02  0.9211156E-01
       -1   -1    0    0    0  501  0.00000000000E+00  0.00000000000E+00  0.52494974029E+03  0.52494974031E+03  0.50400001928E-02 0.  1.
        1   -1    0    0  501    0  0.00000000000E+00  0.00000000000E+00 -0.56987467096E+03  0.56987467099E+03  0.50400001928E-02 0. -1.
    10030    2    1    2    0    0  0.00000000000E+00  0.00000000000E+00 -0.44924930676E+02  0.10948244113E+04  0.10939023001E+04 0.  0.
        1    1    3    3  502    0  0.26567049748E+03 -0.26126550347E+03  0.37826871005E+03  0.53096863708E+03  0.50400001928E-02 0.  1.
       -1    1    3    3    0  502 -0.26567049748E+03  0.26126550347E+03 -0.42319364073E+03  0.56385577422E+03  0.50400001928E-02 0. -1.
</event>
<event>
 5   0  0.3523525E-04  0.1097616E+04  0.7818609E-02  0.9207519E-01
        1   -1    0    0  501    0  0.00000000000E+00  0.00000000000E+00  0.15785561535E+03  0.15785561543E+03  0.50400001928E-02 0. -1.
       -1   -1    0    0    0  501  0.00000000000E+00  0.00000000000E+00 -0.19080095262E+04  0.19080095262E+04  0.50400001928E-02 0.  1.
    10030    2    1    2    0    0  0.00000000000E+00  0.00000000000E+00 -0.17501539108E+04  0.20658651416E+04  0.10976156302E+04 0.  0.
        5    1    3    3  502    0  0.11518741823E+03 -0.20289230441E+03 -0.18099801076E+04  0.18249612348E+04  0.46999998093E+01 0.  1.
       -5    1    3    3    0  502 -0.11518741823E+03  0.20289230441E+03  0.59826196783E+02  0.24090390683E+03  0.46999998093E+01 0. -1.
</event>
<event>
 5   0  0.3657529E-04  0.1099452E+04  0.7818609E-02  0.9205726E-01
       -1   -1    0    0    0  501  0.00000000000E+00  0.00000000000E+00  0.49900726779E+03  0.49900726781E+03  0.50400001928E-02 0. -1.
        1   -1    0    0  501    0  0.00000000000E+00  0.00000000000E+00 -0.60559966958E+03  0.60559966960E+03  0.50400001928E-02 0.  1.
    10030    2    1    2    0    0  0.00000000000E+00  0.00000000000E+00 -0.10659240179E+03  0.11046069374E+04  0.10994519299E+04 0.  0.
        4    1    3    3  502    0 -0.42218645021E+03 -0.15567941719E+03  0.26396843241E+03  0.52168805419E+03  0.12699999809E+01 0. -1.
       -4    1    3    3    0  502  0.42218645021E+03  0.15567941719E+03 -0.37056083420E+03  0.58291888322E+03  0.12699999809E+01 0.  1.
</event>
<event>
 5   0  0.6109149E-04  0.1097299E+04  0.7818609E-02  0.9207828E-01
        2   -1    0    0  501    0  0.00000000000E+00  0.00000000000E+00  0.41479615240E+03  0.41479615241E+03  0.25500000920E-02 0.  1.
       -2   -1    0    0    0  501  0.00000000000E+00  0.00000000000E+00 -0.72569701583E+03  0.72569701584E+03  0.25500000920E-02 0. -1.
    10030    2    1    2    0    0  0.00000000000E+00  0.00000000000E+00 -0.31090086343E+03  0.11404931682E+04  0.10972991023E+04 0.  0.
        1    1    3    3  502    0  0.40755288394E+03 -0.23826058369E+03  0.13510501318E+03  0.49104055185E+03  0.50400001928E-02 0.  1.
       -1    1    3    3    0  502 -0.40755288394E+03  0.23826058369E+03 -0.44600587662E+03  0.64945261640E+03  0.50400001928E-02 0. -1.
</event>
<event>
 5   0  0.3423758E-04  0.1098178E+04  0.7818609E-02  0.9206969E-01
        1   -1    0    0  501    0  0.00000000000E+00  0.00000000000E+00  0.87718954772E+03  0.87718954774E+03  0.50400001928E-02 0. -1.
       -1   -1    0    0    0  501  0.00000000000E+00  0.00000000000E+00 -0.34371000958E+03  0.34371000962E+03  0.50400001928E-02 0.  1.
    10030    2    1    2    0    0  0.00000000000E+00  0.00000000000E+00  0.53347953815E+03  0.12208995574E+04  0.10981781784E+04 0.  0.
        1    1    3    3  502    0 -0.12133655568E+03  0.44581227869E+03 -0.63110433608E+02  0.46631971268E+03  0.50400001928E-02 0.  1.
       -1    1    3    3    0  502  0.12133655568E+03 -0.44581227869E+03  0.59658997175E+03  0.75457984468E+03  0.50400001928E-02 0. -1.
</event>
<event>
 5   0  0.5948818E-04  0.1097523E+04  0.7818609E-02  0.9207609E-01
        2   -1    0    0  501    0  0.00000000000E+00  0.00000000000E+00  0.97310893387E+03  0.97310893387E+03  0.25500000920E-02 0.  1.
       -2   -1    0    0    0  501  0.00000000000E+00  0.00000000000E+00 -0.30946093220E+03  0.30946093221E+03  0.25500000920E-02 0. -1.
    10030    2    1    2    0    0  0.00000000000E+00  0.00000000000E+00  0.66364800167E+03  0.12825698661E+04  0.10975230254E+04 0.  0.
        3    1    3    3  502    0 -0.54279726024E+03  0.41308086962E+02  0.41282068806E+03  0.68319554629E+03  0.10100000352E+00 0.  1.
       -3    1    3    3    0  502  0.54279726024E+03 -0.41308086962E+02  0.25082731360E+03  0.59937431979E+03  0.10100000352E+00 0. -1.
</event>
<event>
 5   0  0.6109149E-04  0.1119525E+04  0.7818609E-02  0.9186368E-01
       -2   -1    0    0    0  501  0.00000000000E+00  0.00000000000E+00  0.47509028870E+03  0.47509028871E+03  0.25500000920E-02 0.  1.
        2   -1    0    0  501    0  0.00000000000E+00  0.00000000000E+00 -0.65952522897E+03  0.65952522898E+03  0.25500000920E-02 0. -1.
    10030    2    1    2    0    0  0.00000000000E+00  0.00000000000E+00 -0.18443494027E+03  0.11346155177E+04  0.11195249554E+04 0.  0.
        1    1    3    3  502    0  0.37038240008E+02 -0.53819059218E+03 -0.24360662564E+03  0.59191649142E+03  0.50400001928E-02 0. -1.
       -1    1    3    3    0  502 -0.37038240008E+02  0.53819059218E+03  0.59171685378E+02  0.54269902627E+03  0.50400001928E-02 0.  1.
</event>
<event>
 5   0  0.6109149E-04  0.1104375E+04  0.7818609E-02  0.9200938E-01
       -2   -1    0    0    0  501  0.00000000000E+00  0.00000000000E+00  0.20748374330E+03  0.20748374331E+03  0.25500000920E-02 0. -1.
        2   -1    0    0  501    0  0.00000000000E+00  0.00000000000E+00 -0.14695661303E+04  0.14695661303E+04  0.25500000920E-02 0.  1.
    10030    2    1    2    0    0  0.00000000000E+00  0.00000000000E+00 -0.12620823870E+04  0.16770498736E+04  0.11043750844E+04 0.  0.
        1    1    3    3  502    0 -0.77733434686E+02  0.72170533582E+02  0.19186774945E+03  0.21923573179E+03  0.50400001928E-02 0. -1.
       -1    1    3    3    0  502  0.77733434686E+02 -0.72170533582E+02 -0.14539501364E+04  0.14578141418E+04  0.50400001928E-02 0.  1.
</event>
<event>
 5   0  0.6245176E-04  0.1098904E+04  0.7818609E-02  0.9206261E-01
       -2   -1    0    0    0  501  0.00000000000E+00  0.00000000000E+00  0.67603986012E+03  0.67603986012E+03  0.25500000920E-02 0. -1.
        2   -1    0    0  501    0  0.00000000000E+00  0.00000000000E+00 -0.44656722554E+03  0.44656722555E+03  0.25500000920E-02 0.  1.
    10030    2    1    2    0    0  0.00000000000E+00  0.00000000000E+00  0.22947263458E+03  0.11226070857E+04  0.10989035348E+04 0.  0.
        5    1    3    3  502    0  0.38650470657E+02 -0.31483749883E+02  0.67370426344E+03  0.67556243972E+03  0.46999998093E+01 0. -1.
       -5    1    3    3    0  502 -0.38650470657E+02  0.31483749883E+02 -0.44423162886E+03  0.44704464595E+03  0.46999998093E+01 0.  1.
</event>
<event>
 5   0  0.3523525E-04  0.1098552E+04  0.7818609E-02  0.9206605E-01
        1   -1    0    0  501    0  0.00000000000E+00  0.00000000000E+00  0.64562429701E+03  0.64562429703E+03  0.50400001928E-02 0.  1.
       -1   -1    0    0    0  501  0.00000000000E+00  0.00000000000E+00 -0.46730566098E+03  0.46730566101E+03  0.50400001928E-02 0. -1.
    10030    2    1    2    0    0  0.00000000000E+00  0.00000000000E+00  0.17831863603E+03  0.11129299580E+04  0.10985515716E+04 0.  0.
        5    1    3    3  502    0 -0.12686301410E+03 -0.52804734696E+03  0.59035729217E+01  0.54312536964E+03  0.46999998093E+01 0.  1.
       -5    1    3    3    0  502  0.12686301410E+03  0.52804734696E+03  0.17241506310E+03  0.56980458840E+03  0.46999998093E+01 0. -1.
</event>
<event>
 5   0  0.5948818E-04  0.1099387E+04  0.7818609E-02  0.9205790E-01
        2   -1    0    0  501    0  0.00000000000E+00  0.00000000000E+00  0.70954783197E+03  0.70954783198E+03  0.25500000920E-02 0. -1.
       -2   -1    0    0    0  501  0.00000000000E+00  0.00000000000E+00 -0.42585245494E+03  0.42585245495E+03  0.25500000920E-02 0.  1.
    10030    2    1    2    0    0  0.00000000000E+00  0.00000000000E+00  0.28369537703E+03  0.11354002869E+04  0.10993865310E+04 0.  0.
        3    1    3    3  502    0 -0.10821592720E+03 -0.51501786088E+03 -0.22125515391E+02  0.52672918332E+03  0.10100000352E+00 0.  1.
       -3    1    3    3    0  502  0.10821592720E+03  0.51501786088E+03  0.30582089242E+03  0.60867110361E+03  0.10100000352E+00 0. -1.
</event>
<event>
 5   0  0.3642161E-04  0.1104420E+04  0.7818609E-02  0.9200894E-01
        1   -1    0    0  501    0  0.00000000000E+00  0.00000000000E+00  0.69500161030E+03  0.69500161031E+03  0.50400001928E-02 0. -1.
       -1   -1    0    0    0  501  0.00000000000E+00  0.00000000000E+00 -0.43875594298E+03  0.43875594301E+03  0.50400001928E-02 0.  1.
    10030    2    1    2    0    0  0.00000000000E+00  0.00000000000E+00  0.25624566731E+03  0.11337575533E+04  0.11044203673E+04 0.  0.
        2    1    3    3  502    0  0.34564020261E+03  0.25699853117E+01  0.57021584029E+03  0.66679821461E+03  0.25500000920E-02 0. -1.
       -2    1    3    3    0  502 -0.34564020261E+03 -0.25699853117E+01 -0.31397017298E+03  0.46695933871E+03  0.25500000920E-02 0.  1.
</event>
<event>
 5   0  0.3423758E-04  0.1097522E+04  0.7818609E-02  0.9207610E-01
        1   -1    0    0  501    0  0.00000000000E+00  0.00000000000E+00  0.21599908482E+04  0.21599908482E+04  0.50400001928E-02 0.  1.
       -1   -1    0    0    0  501  0.00000000000E+00  0.00000000000E+00 -0.13941672421E+03  0.13941672430E+03  0.50400001928E-02 0. -1.
    10030    2    1    2    0    0  0.00000000000E+00  0.00000000000E+00  0.20205741240E+04  0.22994075725E+04  0.10975223888E+04 0.  0.
        1    1    3    3  502    0  0.29205503435E+03 -0.10163833563E+03  0.19600638160E+04  0.19843076015E+04  0.50400001928E-02 0.  1.
       -1    1    3    3    0  502 -0.29205503435E+03  0.10163833563E+03  0.60510307990E+02  0.31509997105E+03  0.50400001928E-02 0. -1.
</event>
<event>
 5   0  0.3621403E-04  0.1100694E+04  0.7818609E-02  0.9204516E-01
        1   -1    0    0  501    0  0.00000000000E+00  0.00000000000E+00  0.21252791629E+04  0.21252791629E+04  0.50400001928E-02 0.  1.
       -1   -1    0    0    0  501  0.00000000000E+00  0.00000000000E+00 -0.14251379622E+03  0.14251379631E+03  0.50400001928E-02 0. -1.
    10030    2    1    2    0    0  0.00000000000E+00  0.00000000000E+00  0.19827653666E+04  0.22677929592E+04  0.11006936025E+04 0.  0.
        3    1    3    3  502    0 -0.50053940973E+03  0.11205178620E+03  0.58041878619E+03  0.77458458611E+03  0.10100000352E+00 0. -1.
       -3    1    3    3    0  502  0.50053940973E+03 -0.11205178620E+03  0.14023465805E+04  0.14932083731E+04  0.10100000352E+00 0.  1.
</event>
<event>
 5   0  0.3621403E-04  0.1098911E+04  0.7818609E-02  0.9206254E-01
        1   -1    0    0  501    0  0.00000000000E+00  0.00000000000E+00  0.34694041431E+03  0.34694041434E+03  0.50400001928E-02 0.  1.
       -1   -1    0    0    0  501  0.00000000000E+00  0.00000000000E+00 -0.87018161256E+03  0.87018161258E+03  0.50400001928E-02 0. -1.
    10030    2    1    2    0    0  0.00000000000E+00  0.00000000000E+00 -0.52324119826E+03  0.12171220269E+04  0.10989106774E+04 0.  0.
        3    1    3    3  502    0  0.18473932606E+03  0.39404939643E+03  0.10986619857E+03  0.44885870518E+03  0.10100000352E+00 0.  1.
       -3    1    3    3    0  502 -0.18473932606E+03 -0.39404939643E+03 -0.63310739683E+03  0.76826332175E+03  0.10100000352E+00 0. -1.
</event>
<event>
 5   0  0.6412712E-04  0.1100680E+04  0.7818609E-02  0.9204529E-01
       -2   -1    0    0    0  501  0.00000000000E+00  0.00000000000E+00  0.47730071648E+03  0.47730071649E+03  0.25500000920E-02 0.  1.
        2   -1    0    0  501    0  0.00000000000E+00  0.00000000000E+00 -0.63455648119E+03  0.63455648120E+03  0.25500000920E-02 0. -1.
    10030    2    1    2    0    0  0.00000000000E+00  0.00000000000E+00 -0.15725576471E+03  0.11118571977E+04  0.11006802681E+04 0.  0.
        2    1    3    3  502    0 -0.12104668437E+03  0.13041550758E+03 -0.60469806835E+03  0.63033345008E+03  0.25500000920E-02 0. -1.
       -2    1    3    3    0  502  0.12104668437E+03 -0.13041550758E+03  0.44744230364E+03  0.48152374761E+03  0.25500000920E-02 0.  1.
</event>
<event>
 5   0  0.3523525E-04  0.1096753E+04  0.7818609E-02  0.9208363E-01
       -1   -1    0    0    0  501  0.00000000000E+00  0.00000000000E+00  0.10114413687E+04  0.10114413687E+04  0.50400001928E-02 0.  1.
        1   -1    0    0  501    0  0.00000000000E+00  0.00000000000E+00 -0.29731496011E+03  0.29731496016E+03  0.50400001928E-02 0. -1.
    10030    2    1    2    0    0  0.00000000000E+00  0.00000000000E+00  0.71412640859E+03  0.13087563289E+04  0.10967527529E+04 0.  0.
        5    1    3    3  502    0  0.18651827738E+03 -0.76735841223E+02 -0.25142339668E+03  0.32235581509E+03  0.46999998093E+01 0. -1.
       -5    1    3    3    0  502 -0.18651827738E+03  0.76735841223E+02  0.96554980527E+03  0.98640051378E+03  0.46999998093E+01 0.  1.
</event>
<event>
 5   0  0.6245176E-04  0.1099534E+04  0.7818609E-02  0.9205646E-01
        2   -1    0    0  501    0  0.00000000000E+00  0.00000000000E+00  0.75858604690E+03  0.75858604690E+03  0.25500000920E-02 0.  1.
       -2   -1    0    0    0  501  0.00000000000E+00  0.00000000000E+00 -0.39843076504E+03  0.39843076505E+03  0.25500000920E-02 0. -1.
    10030    2    1    2    0    0  0.00000000000E+00  0.00000000000E+00  0.36015528185E+03  0.11570168120E+04  0.10995344815E+04 0.  0.
        5    1    3    3  502    0 -0.33227147264E+03 -0.96319531593E+02  0.62966077659E+03  0.71845429031E+03  0.46999998093E+01 0.  1.
       -5    1    3    3    0  502  0.33227147264E+03  0.96319531593E+02 -0.26950549473E+03  0.43856252164E+03  0.46999998093E+01 0. -1.
</event>
<event>
 5   0  0.3642161E-04  0.1102186E+04  0.7818609E-02  0.9203064E-01
       -1   -1    0    0    0  501  0.00000000000E+00  0.00000000000E+00  0.75740984063E+03  0.75740984065E+03  0.50400001928E-02 0. -1.
        1   -1    0    0  501    0  0.00000000000E+00  0.00000000000E+00 -0.40097667847E+03  0.40097667851E+03  0.50400001928E-02 0.  1.
    10030    2    1    2    0    0  0.00000000000E+00  0.00000000000E+00  0.35643316216E+03  0.11583865192E+04  0.11021863403E+04 0.  0.
        2    1    3    3  502    0  0.34701448392E+03  0.10070522700E+03  0.61553830255E+03  0.71375625862E+03  0.25500000920E-02 0. -1.
       -2    1    3    3    0  502 -0.34701448392E+03 -0.10070522700E+03 -0.25910514040E+03  0.44463026054E+03  0.25500000920E-02 0.  1.
</event>
<event>
 5   0  0.2403875E-04  0.1092608E+04  0.7818609E-02  0.9212427E-01
       -4   -1    0    0    0  501  0.00000000000E+00  0.00000000000E+00  0.11916615200E+04  0.11916621968E+04  0.12699999809E+01 0. -1.
        4   -1    0    0  501    0  0.00000000000E+00  0.00000000000E+00 -0.25044469775E+03  0.25044791780E+03  0.12699999809E+01 0.  1.
    10030    2    1    2    0    0  0.00000000000E+00  0.00000000000E+00  0.94121682228E+03  0.14421101146E+04  0.10926081073E+04 0.  0.
        4    1    3    3  502    0 -0.17539112958E+03  0.28203658533E+02 -0.21125808345E+03  0.27602370444E+03  0.12699999809E+01 0.  1.
       -4    1    3    3    0  502  0.17539112958E+03 -0.28203658533E+02  0.11524749057E+04  0.11660864101E+04  0.12699999809E+01 0. -1.
</event>
<event>
 5   0  0.3423758E-04  0.1102345E+04  0.7818609E-02  0.9202909E-01
        1   -1    0    0  501    0  0.00000000000E+00  0.00000000000E+00  0.13029817750E+04  0.13029817750E+04  0.50400001928E-02 0. -1.
       -1   -1    0    0    0  501  0.00000000000E+00  0.00000000000E+00 -0.23315065185E+03  0.23315065191E+03  0.50400001928E-02 0.  1.
    10030    2    1    2    0    0  0.00000000000E+00  0.00000000000E+00  0.10698311231E+04  0.15361324269E+04  0.11023448648E+04 0.  0.
        1    1    3    3  502    0  0.13726413025E+03 -0.53354041092E+03  0.51142178897E+03  0.75170410256E+03  0.50400001928E-02 0. -1.
       -1    1    3    3    0  502 -0.13726413025E+03  0.53354041092E+03  0.55840933417E+03  0.78442832436E+03  0.50400001928E-02 0.  1.
</event>
<event>
 5   0  0.3642161E-04  0.1099924E+04  0.7818609E-02  0.9205266E-01
        1   -1    0    0  501    0  0.00000000000E+00  0.00000000000E+00  0.69313614853E+03  0.69313614855E+03  0.50400001928E-02 0. -1.
       -1   -1    0    0    0  501  0.00000000000E+00  0.00000000000E+00 -0.43636212807E+03  0.43636212810E+03  0.50400001928E-02 0.  1.
    10030    2    1    2    0    0  0.00000000000E+00  0.00000000000E+00  0.25677402046E+03  0.11294982767E+04  0.10999242971E+04 0.  0.
        2    1    3    3  502    0 -0.15625975960E+03 -0.31102456017E+03 -0.30886079483E+03  0.46534759061E+03  0.25500000920E-02 0.  1.
       -2    1    3    3    0  502  0.15625975960E+03  0.31102456017E+03  0.56563481529E+03  0.66415068604E+03  0.25500000920E-02 0. -1.
</event>
<event>
 5   0  0.6109149E-04  0.1099248E+04  0.7818609E-02  0.9205925E-01
       -2   -1    0    0    0  501  0.00000000000E+00  0.00000000000E+00  0.13473373051E+03  0.13473373053E+03  0.25500000920E-02 0. -1.
        2   -1    0    0  501    0  0.00000000000E+00  0.00000000000E+00 -0.22421014945E+04  0.22421014945E+04  0.25500000920E-02 0.  1.
    10030    2    1    2    0    0  0.00000000000E+00  0.00000000000E+00 -0.21073677640E+04  0.23768352250E+04  0.10992482860E+04 0.  0.
        1    1    3    3  502    0 -0.42889544499E+03 -0.15783814491E+03 -0.17138658950E+04  0.17737532210E+04  0.50400001928E-02 0.  1.
       -1    1    3    3    0  502  0.42889544499E+03  0.15783814491E+03 -0.39350186895E+03  0.60308200406E+03  0.50400001928E-02 0. -1.
</event>
<event>
 5   0  0.6109149E-04  0.1110315E+04  0.7818609E-02  0.9195196E-01
        2   -1    0    0  501    0  0.00000000000E+00  0.00000000000E+00  0.11763295484E+04  0.11763295484E+04  0.25500000920E-02 0.  1.
       -2   -1    0    0    0  501  0.00000000000E+00  0.00000000000E+00 -0.26200119542E+03  0.26200119543E+03  0.25500000920E-02 0. -1.
    10030    2    1    2    0    0  0.00000000000E+00  0.00000000000E+00  0.91432835297E+03  0.14383307438E+04  0.11103148164E+04 0.  0.
        1    1    3    3  502    0 -0.15388188129E+02  0.43387380931E+03  0.89458828263E+01  0.43423876795E+03  0.50400001928E-02 0. -1.
       -1    1    3    3    0  502  0.15388188129E+02 -0.43387380931E+03  0.90538247014E+03  0.10040919759E+04  0.50400001928E-02 0.  1.
</event>
<event>
 5   0  0.3523525E-04  0.1099208E+04  0.7818609E-02  0.9205965E-01
       -1   -1    0    0    0  501  0.00000000000E+00  0.00000000000E+00  0.33133971512E+03  0.33133971516E+03  0.50400001928E-02 0. -1.
        1   -1    0    0  501    0  0.00000000000E+00  0.00000000000E+00 -0.91164544342E+03  0.91164544344E+03  0.50400001928E-02 0.  1.
    10030    2    1    2    0    0  0.00000000000E+00  0.00000000000E+00 -0.58030572830E+03  0.12429851586E+04  0.10992076083E+04 0.  0.
        5    1    3    3  502    0 -0.23648141247E+03  0.16138391741E+03  0.24032908414E+03  0.37382935402E+03  0.46999998093E+01 0. -1.
       -5    1    3    3    0  502  0.23648141247E+03 -0.16138391741E+03 -0.82063481244E+03  0.86915580458E+03  0.46999998093E+01 0.  1.
</event>
<event>
 5   0  0.3657529E-04  0.1100040E+04  0.7818609E-02  0.9205153E-01
        1   -1    0    0  501    0  0.00000000000E+00  0.00000000000E+00  0.22171708075E+04  0.22171708075E+04  0.50400001928E-02 0.  1.
       -1   -1    0    0    0  501  0.00000000000E+00  0.00000000000E+00 -0.13644510268E+03  0.13644510277E+03  0.50400001928E-02 0. -1.
    10030    2    1    2    0    0  0.00000000000E+00  0.00000000000E+00  0.20807257048E+04  0.23536159102E+04  0.11000401785E+04 0.  0.
        4    1    3    3  502    0  0.34988629285E+03  0.38539700939E+03  0.66020941612E+03  0.84073144274E+03  0.12699999809E+01 0. -1.
       -4    1    3    3    0  502 -0.34988629285E+03 -0.38539700939E+03  0.14205162887E+04  0.15128844675E+04  0.12699999809E+01 0.  1.
</event>
<event>
 5   0  0.6245176E-04  0.1096929E+04  0.7818609E-02  0.9208191E-01
       -2   -1    0    0    0  501  0.00000000000E+00  0.00000000000E+00  0.82029681654E+03  0.82029681654E+03  0.25500000920E-02 0.  1.
        2   -1    0    0  501    0  0.00000000000E+00  0.00000000000E+00 -0.36671256318E+03  0.36671256319E+03  0.25500000920E-02 0. -1.
    10030    2    1    2    0    0  0.00000000000E+00  0.00000000000E+00  0.45358425336E+03  0.11870093797E+04  0.10969287090E+04 0.  0.
        5    1    3    3  502    0  0.29636234229E+03  0.45055697879E+03  0.33478121824E+03  0.63476986629E+03  0.46999998093E+01 0.  1.
       -5    1    3    3    0  502 -0.29636234229E+03 -0.45055697879E+03  0.11880303512E+03  0.55223951345E+03  0.46999998093E+01 0. -1.
</event>
<event>
 5   0  0.3523525E-04  0.1100374E+04  0.7818609E-02  0.9204828E-01
       -1   -1    0    0    0  501  0.00000000000E+00  0.00000000000E+00  0.38936851273E+03  0.38936851276E+03  0.50400001928E-02 0.  1.
        1   -1    0    0  501    0  0.00000000000E+00  0.00000000000E+00 -0.77742707228E+03  0.77742707230E+03  0.50400001928E-02 0. -1.
    10030    2    1    2    0    0  0.00000000000E+00  0.00000000000E+00 -0.38805855956E+03  0.11667955851E+04  0.11003737963E+04 0.  0.
        5    1    3    3  502    0 -0.10870415461E+03  0.48191802243E+03 -0.45076405717E+03  0.66878389544E+03  0.46999998093E+01 0.  1.
       -5    1    3    3    0  502  0.10870415461E+03 -0.48191802243E+03  0.62705497612E+02  0.49801168962E+03  0.46999998093E+01 0. -1.
</event>
<event>
 5   0  0.3642161E-04  0.1100287E+04  0.7818609E-02  0.9204912E-01
        1   -1    0    0  501    0  0.00000000000E+00  0.00000000000E+00  0.19526737460E+04  0.19526737460E+04  0.50400001928E-02 0. -1.
       -1   -1    0    0    0  501  0.00000000000E+00  0.00000000000E+00 -0.15499671584E+03  0.15499671593E+03  0.50400001928E-02 0.  1.
    10030    2    1    2    0    0  0.00000000000E+00  0.00000000000E+00  0.17976770302E+04  0.21076704620E+04  0.11002872677E+04 0.  0.
        2    1    3    3  502    0  0.10224900207E+03  0.22716460941E+03  0.18384404261E+04  0.18552417143E+04  0.25500000920E-02 0. -1.
       -2    1    3    3    0  502 -0.10224900207E+03 -0.22716460941E+03 -0.40763395906E+02  0.25242874766E+03  0.25500000920E-02 0.  1.
</event>
<event>
 5   0  0.6245176E-04  0.1105808E+04  0.7818609E-02  0.9199550E-01
        2   -1    0    0  501    0  0.00000000000E+00  0.00000000000E+00  0.77668414793E+03  0.77668414793E+03  0.25500000920E-02 0. -1.
       -2   -1    0    0    0  501  0.00000000000E+00  0.00000000000E+00 -0.39359977536E+03  0.39359977537E+03  0.25500000920E-02 0.  1.
    10030    2    1    2    0    0  0.00000000000E+00  0.00000000000E+00  0.38308437257E+03  0.11702839233E+04  0.11058077702E+04 0.  0.
        5    1    3    3  502    0 -0.86656933233E+02  0.52834327642E+03  0.45570348443E+02  0.53735908708E+03  0.46999998093E+01 0.  1.
       -5    1    3    3    0  502  0.86656933233E+02 -0.52834327642E+03  0.33751402412E+03  0.63292483621E+03  0.46999998093E+01 0. -1.
</event>
<event>
 5   0  0.6109149E-04  0.1098180E+04  0.7818609E-02  0.9206968E-01
       -2   -1    0    0    0  501  0.00000000000E+00  0.00000000000E+00  0.87343506927E+03  0.87343506927E+03  0.25500000920E-02 0.  1.
        2   -1    0    0  501    0  0.00000000000E+00  0.00000000000E+00 -0.34518841840E+03  0.34518841841E+03  0.25500000920E-02 0. -1.
    10030    2    1    2    0    0  0.00000000000E+00  0.00000000000E+00  0.52824665087E+03  0.12186234877E+04  0.10981797123E+04 0.  0.
        1    1    3    3  502    0  0.20336445552E+03 -0.22370337674E+03 -0.24451432061E+03  0.38882843973E+03  0.50400001928E-02 0. -1.
       -1    1    3    3    0  502 -0.20336445552E+03  0.22370337674E+03  0.77276097148E+03  0.82979504795E+03  0.50400001928E-02 0.  1.
</event>
<event>
 5   0  0.3642161E-04  0.1101857E+04  0.7818609E-02  0.9203384E-01
       -1   -1    0    0    0  501  0.00000000000E+00  0.00000000000E+00  0.40087427479E+03  0.40087427482E+03  0.50400001928E-02 0. -1.
        1   -1    0    0  501    0  0.00000000000E+00  0.00000000000E+00 -0.75715088844E+03  0.75715088846E+03  0.50400001928E-02 0.  1.
    10030    2    1    2    0    0  0.00000000000E+00  0.00000000000E+00 -0.35627661366E+03  0.11580251633E+04  0.11018571837E+04 0.  0.
        2    1    3    3  502    0 -0.14225607216E+03  0.47202137191E+03  0.80327691576E+02  0.49949324685E+03  0.25500000920E-02 0. -1.
       -2    1    3    3    0  502  0.14225607216E+03 -0.47202137191E+03 -0.43660430523E+03  0.65853191643E+03  0.25500000920E-02 0.  1.
</event>
<event>
 5   0  0.3523525E-04  0.1100045E+04  0.7818609E-02  0.9205148E-01
       -1   -1    0    0    0  501  0.00000000000E+00  0.00000000000E+00  0.31200721640E+03  0.31200721644E+03  0.50400001928E-02 0. -1.
        1   -1    0    0  501    0  0.00000000000E+00  0.00000000000E+00 -0.96960733983E+03  0.96960733984E+03  0.50400001928E-02 0.  1.
    10030    2    1    2    0    0  0.00000000000E+00  0.00000000000E+00 -0.65760012342E+03  0.12816145563E+04  0.11000445212E+04 0.  0.
        5    1    3    3  502    0 -0.23696640520E+03 -0.31998912083E+03  0.11324086481E+03  0.41399480444E+03  0.46999998093E+01 0. -1.
       -5    1    3    3    0  502  0.23696640520E+03  0.31998912083E+03 -0.77084098824E+03  0.86761975184E+03  0.46999998093E+01 0.  1.
</event>
<event>
 5   0  0.3621403E-04  0.1101371E+04  0.7818609E-02  0.9203857E-01
       -1   -1    0    0    0  501  0.00000000000E+00  0.00000000000E+00  0.31130813434E+03  0.31130813439E+03  0.50400001928E-02 0. -1.
        1   -1    0    0  501    0  0.00000000000E+00  0.00000000000E+00 -0.97412918478E+03  0.97412918480E+03  0.50400001928E-02 0.  1.
    10030    2    1    2    0    0  0.00000000000E+00  0.00000000000E+00 -0.66282105044E+03  0.12854373192E+04  0.11013706718E+04 0.  0.
        3    1    3    3  502    0  0.47100825897E+03  0.23498900639E+03 -0.52027471588E+03  0.74010431922E+03  0.10100000352E+00 0.  1.
       -3    1    3    3    0  502 -0.47100825897E+03 -0.23498900639E+03 -0.14254633456E+03  0.54533299996E+03  0.10100000352E+00 0. -1.
</event>
<event>
 5   0  0.3621403E-04  0.1100776E+04  0.7818609E-02  0.9204436E-01
        1   -1    0    0  501    0  0.00000000000E+00  0.00000000000E+00  0.68555740492E+03  0.68555740494E+03  0.50400001928E-02 0.  1.
       -1   -1    0    0    0  501  0.00000000000E+00  0.00000000000E+00 -0.44186932834E+03  0.44186932836E+03  0.50400001928E-02 0. -1.
    10030    2    1    2    0    0  0.00000000000E+00  0.00000000000E+00  0.24368807659E+03  0.11274267333E+04  0.11007757084E+04 0.  0.
        3    1    3    3  502    0  0.42527987337E+03  0.20460008006E+02  0.47906503250E+03  0.64092503321E+03  0.10100000352E+00 0.  1.
       -3    1    3    3    0  502 -0.42527987337E+03 -0.20460008006E+02 -0.23537695592E+03  0.48650170010E+03  0.10100000352E+00 0. -1.
</event>
<event>
 5   0  0.3523525E-04  0.1088404E+04  0.7818609E-02  0.9216569E-01
       -1   -1    0    0    0  501  0.00000000000E+00  0.00000000000E+00  0.63240185987E+03  0.63240185989E+03  0.50400001928E-02 0. -1.
        1   -1    0    0  501    0  0.00000000000E+00  0.00000000000E+00 -0.46830289808E+03  0.46830289811E+03  0.50400001928E-02 0.  1.
    10030    2    1    2    0    0  0.00000000000E+00  0.00000000000E+00  0.16409896179E+03  0.11007047580E+04  0.10884036453E+04 0.  0.
        5    1    3    3  502    0 -0.12501982927E+03 -0.81209004311E+02  0.61132736655E+03  0.62925996153E+03  0.46999998093E+01 0. -1.
       -5    1    3    3    0  502  0.12501982927E+03  0.81209004311E+02 -0.44722840476E+03  0.47144479647E+03  0.46999998093E+01 0.  1.
</event>
<event>
 5   0  0.3657529E-04  0.1100471E+04  0.7818609E-02  0.9204733E-01
       -1   -1    0    0    0  501  0.00000000000E+00  0.00000000000E+00  0.10846903050E+04  0.10846903050E+04  0.50400001928E-02 0. -1.
        1   -1    0    0  501    0  0.00000000000E+00  0.00000000000E+00 -0.27912052586E+03  0.27912052590E+03  0.50400001928E-02 0.  1.
    10030    2    1    2    0    0  0.00000000000E+00  0.00000000000E+00  0.80556977910E+03  0.13638108309E+04  0.11004714051E+04 0.  0.
        4    1    3    3  502    0  0.61918105372E+02  0.14868725172E+03  0.10548199365E+04  0.10670466072E+04  0.12699999809E+01 0. -1.
       -4    1    3    3    0  502 -0.61918105372E+02 -0.14868725172E+03 -0.24925015740E+03  0.29676422368E+03  0.12699999809E+01 0.  1.
</event>
<event>
 5   0  0.3621403E-04  0.1099448E+04  0.7818609E-02  0.9205730E-01
       -1   -1    0    0    0  501  0.00000000000E+00  0.00000000000E+00  0.29532758975E+03  0.29532758979E+03  0.50400001928E-02 0.  1.
        1   -1    0    0  501    0  0.00000000000E+00  0.00000000000E+00 -0.10232584983E+04  0.10232584984E+04  0.50400001928E-02 0. -1.
    10030    2    1    2    0    0  0.00000000000E+00  0.00000000000E+00 -0.72793090860E+03  0.13185860882E+04  0.10994479816E+04 0.  0.
        3    1    3    3  502    0 -0.54395146335E+02 -0.35698400810E+03 -0.86106736876E+03  0.93372021384E+03  0.10100000352E+00 0. -1.
       -3    1    3    3    0  502  0.54395146335E+02  0.35698400810E+03  0.13313646016E+03  0.38486587431E+03  0.10100000352E+00 0.  1.
</event>
<event>
 5   0  0.6264830E-04  0.1100826E+04  0.7818609E-02  0.9204387E-01
       -2   -1    0    0    0  501  0.00000000000E+00  0.00000000000E+00  0.17000131500E+03  0.17000131501E+03  0.25500000920E-02 0. -1.
        2   -1    0    0  501    0  0.00000000000E+00  0.00000000000E+00 -0.17820729447E+04  0.17820729447E+04  0.25500000920E-02 0.  1.
    10030    2    1    2    0    0  0.00000000000E+00  0.00000000000E+00 -0.16120716297E+04  0.19520742597E+04  0.11008264968E+04 0.  0.
        4    1    3    3  502    0  0.17157238720E+03  0.17437361877E+03 -0.16803726437E+04  0.16980862986E+04  0.12699999809E+01 0.  1.
       -4    1    3    3    0  502 -0.17157238720E+03 -0.17437361877E+03  0.68301013990E+02  0.25398796110E+03  0.12699999809E+01 0. -1.
</event>
<event>
 5   0  0.3621403E-04  0.1100725E+04  0.7818609E-02  0.9204485E-01
        1   -1    0    0  501    0  0.00000000000E+00  0.00000000000E+00  0.97886352128E+03  0.97886352130E+03  0.50400001928E-02 0. -1.
       -1   -1    0    0    0  501  0.00000000000E+00  0.00000000000E+00 -0.30943947465E+03  0.30943947469E+03  0.50400001928E-02 0.  1.
    10030    2    1    2    0    0  0.00000000000E+00  0.00000000000E+00  0.66942404663E+03  0.12883029960E+04  0.11007252406E+04 0.  0.
        3    1    3    3  502    0  0.20435552206E+03 -0.40283464005E+03 -0.33293177681E+02  0.45292976553E+03  0.10100000352E+00 0.  1.
       -3    1    3    3    0  502 -0.20435552206E+03  0.40283464005E+03  0.70271722431E+03  0.83537323046E+03  0.10100000352E+00 0. -1.
</event>
<event>
 5   0  0.5948818E-04  0.1096390E+04  0.7818609E-02  0.9208717E-01
        2   -1    0    0  501    0  0.00000000000E+00  0.00000000000E+00  0.21241881752E+04  0.21241881752E+04  0.25500000920E-02 0. -1.
       -2   -1    0    0    0  501  0.00000000000E+00  0.00000000000E+00 -0.14147428877E+03  0.14147428879E+03  0.25500000920E-02 0.  1.
    10030    2    1    2    0    0  0.00000000000E+00  0.00000000000E+00  0.19827138864E+04  0.22656624640E+04  0.10963904621E+04 0.  0.
        3    1    3    3  502    0  0.37466661918E+03  0.27410928783E+03  0.38885650549E+03  0.60557441266E+03  0.10100000352E+00 0.  1.
       -3    1    3    3    0  502 -0.37466661918E+03 -0.27410928783E+03  0.15938573809E+04  0.16600880513E+04  0.10100000352E+00 0. -1.
</event>
<event>
 5   0  0.5948818E-04  0.1099178E+04  0.7818609E-02  0.9205993E-01
       -2   -1    0    0    0  501  0.00000000000E+00  0.00000000000E+00  0.36755000907E+03  0.36755000908E+03  0.25500000920E-02 0. -1.
        2   -1    0    0  501    0  0.00000000000E+00  0.00000000000E+00 -0.82178758258E+03  0.82178758259E+03  0.25500000920E-02 0.  1.
    10030    2    1    2    0    0  0.00000000000E+00  0.00000000000E+00 -0.45423757351E+03  0.11893375917E+04  0.10991779354E+04 0.  0.
        3    1    3    3  502    0 -0.46799820499E+03 -0.11088714771E+03 -0.51488392973E+03  0.70457345301E+03  0.10100000352E+00 0.  1.
       -3    1    3    3    0  502  0.46799820499E+03  0.11088714771E+03  0.60646356220E+02  0.48476413865E+03  0.10100000352E+00 0. -1.
</event>
<event>
 5   0  0.2403875E-04  0.1111355E+04  0.7818609E-02  0.9194195E-01
        4   -1    0    0  501    0  0.00000000000E+00  0.00000000000E+00  0.13385376738E+04  0.13385382763E+04  0.12699999809E+01 0. -1.
       -4   -1    0    0    0  501  0.00000000000E+00  0.00000000000E+00 -0.23068036683E+03  0.23068386276E+03  0.12699999809E+01 0.  1.
    10030    2    1    2    0    0  0.00000000000E+00  0.00000000000E+00  0.11078573070E+04  0.15692221391E+04  0.11113551678E+04 0.  0.
        4    1    3    3  502    0 -0.53865287080E+03  0.41045822204E+02  0.37012961443E+03  0.65485053189E+03  0.12699999809E+01 0.  1.
       -4    1    3    3    0  502  0.53865287080E+03 -0.41045822204E+02  0.73772769256E+03  0.91437160718E+03  0.12699999809E+01 0. -1.
</event>
<event>
 5   0  0.6245176E-04  0.1099901E+04  0.7818609E-02  0.9205288E-01
       -2   -1    0    0    0  501  0.00000000000E+00  0.00000000000E+00  0.23056491725E+03  0.23056491726E+03  0.25500000920E-02 0. -1.
        2   -1    0    0  501    0  0.00000000000E+00  0.00000000000E+00 -0.13117598116E+04  0.13117598116E+04  0.25500000920E-02 0.  1.
    10030    2    1    2    0    0  0.00000000000E+00  0.00000000000E+00 -0.10811948943E+04  0.15423247288E+04  0.10999014363E+04 0.  0.
        5    1    3    3  502    0 -0.25246683325E+03 -0.83911952887E+02  0.13429043261E+03  0.29805490772E+03  0.46999998093E+01 0. -1.
       -5    1    3    3    0  502  0.25246683325E+03  0.83911952887E+02 -0.12154853269E+04  0.12442698211E+04  0.46999998093E+01 0.  1.
</event>
<event>
 5   0  0.3523525E-04  0.1099996E+04  0.7818609E-02  0.9205196E-01
        1   -1    0    0  501    0  0.00000000000E+00  0.00000000000E+00  0.52899994064E+03  0.52899994066E+03  0.50400001928E-02 0.  1.
       -1   -1    0    0    0  501  0.00000000000E+00  0.00000000000E+00 -0.57182963338E+03  0.57182963340E+03  0.50400001928E-02 0. -1.
    10030    2    1    2    0    0  0.00000000000E+00  0.00000000000E+00 -0.42829692739E+02  0.11008295741E+04  0.10999960766E+04 0.  0.
        5    1    3    3  502    0  0.50483842032E+01 -0.52721037915E+03 -0.17805655221E+03  0.55650920554E+03  0.46999998093E+01 0.  1.
       -5    1    3    3    0  502 -0.50483842032E+01  0.52721037915E+03  0.13522685947E+03  0.54432036852E+03  0.46999998093E+01 0. -1.
</event>
<event>
 5   0  0.3642161E-04  0.1099015E+04  0.7818609E-02  0.9206153E-01
        1   -1    0    0  501    0  0.00000000000E+00  0.00000000000E+00  0.27884815100E+03  0.27884815105E+03  0.50400001928E-02 0.  1.
       -1   -1    0    0    0  501  0.00000000000E+00  0.00000000000E+00 -0.10828775191E+04  0.10828775191E+04  0.50400001928E-02 0. -1.
    10030    2    1    2    0    0  0.00000000000E+00  0.00000000000E+00 -0.80402936812E+03  0.13617256702E+04  0.10990148207E+04 0.  0.
        2    1    3    3  502    0  0.41405854639E+03  0.30397119147E+03 -0.64391502536E+03  0.82369261559E+03  0.25500000920E-02 0. -1.
       -2    1    3    3    0  502 -0.41405854639E+03 -0.30397119147E+03 -0.16011434276E+03  0.53803305460E+03  0.25500000920E-02 0.  1.
</event>
<event>
 5   0  0.6245176E-04  0.1101093E+04  0.7818609E-02  0.9204128E-01
       -2   -1    0    0    0  501  0.00000000000E+00  0.00000000000E+00  0.35913492496E+03  0.35913492496E+03  0.25500000920E-02 0. -1.
        2   -1    0    0  501    0  0.00000000000E+00  0.00000000000E+00 -0.84397586215E+03  0.84397586216E+03  0.25500000920E-02 0.  1.
    10030    2    1    2    0    0  0.00000000000E+00  0.00000000000E+00 -0.48484093720E+03  0.12031107871E+04  0.11010925627E+04 0.  0.
        5    1    3    3  502    0 -0.62676357490E+02 -0.14863142547E+03  0.33271255869E+03  0.36978285944E+03  0.46999998093E+01 0. -1.
       -5    1    3    3    0  502  0.62676357490E+02  0.14863142547E+03 -0.81755349589E+03  0.83332792768E+03  0.46999998093E+01 0.  1.
</event>
<event>
 5   0  0.6109149E-04  0.1100600E+04  0.7818609E-02  0.9204607E-01
       -2   -1    0    0    0  501  0.00000000000E+00  0.00000000000E+00  0.90412961348E+03  0.90412961349E+03  0.25500000920E-02 0.  1.
        2   -1    0    0  501    0  0.00000000000E+00  0.00000000000E+00 -0.33494126921E+03  0.33494126922E+03  0.25500000920E-02 0. -1.
    10030    2    1    2    0    0  0.00000000000E+00  0.00000000000E+00  0.56918834427E+03  0.12390708827E+04  0.11006004185E+04 0.  0.
        1    1    3    3  502    0 -0.17351733353E+03 -0.21811771214E+03 -0.24960017625E+03  0.37414415590E+03  0.50400001928E-02 0. -1.
       -1    1    3    3    0  502  0.17351733353E+03  0.21811771214E+03  0.81878852052E+03  0.86492672681E+03  0.50400001928E-02 0.  1.
</event>
<event>
 5   0  0.3642161E-04  0.1099858E+04  0.7818609E-02  0.9205330E-01
        1   -1    0    0  501    0  0.00000000000E+00  0.00000000000E+00  0.90941983786E+03  0.90941983787E+03  0.50400001928E-02 0.  1.
       -1   -1    0    0    0  501  0.00000000000E+00  0.00000000000E+00 -0.33254383762E+03  0.33254383765E+03  0.50400001928E-02 0. -1.
    10030    2    1    2    0    0  0.00000000000E+00  0.00000000000E+00  0.57687600024E+03  0.12419636755E+04  0.10998581052E+04 0.  0.
        2    1    3    3  502    0  0.24376054955E+03 -0.23652294386E+03 -0.19994697894E+03  0.39413335672E+03  0.25500000920E-02 0. -1.
       -2    1    3    3    0  502 -0.24376054955E+03  0.23652294386E+03  0.77682297918E+03  0.84783031880E+03  0.25500000920E-02 0.  1.
</event>
<event>
 5   0  0.6109149E-04  0.1100042E+04  0.7818609E-02  0.9205151E-01
        2   -1    0    0  501    0  0.00000000000E+00  0.00000000000E+00  0.73834470726E+03  0.73834470727E+03  0.25500000920E-02 0. -1.
       -2   -1    0    0    0  501  0.00000000000E+00  0.00000000000E+00 -0.40973135171E+03  0.40973135172E+03  0.25500000920E-02 0.  1.
    10030    2    1    2    0    0  0.00000000000E+00  0.00000000000E+00  0.32861335555E+03  0.11480760590E+04  0.11000417718E+04 0.  0.
        1    1    3    3  502    0 -0.40004997720E+03 -0.20954703891E+03 -0.16336622994E+03  0.48024834293E+03  0.50400001928E-02 0.  1.
       -1    1    3    3    0  502  0.40004997720E+03  0.20954703891E+03  0.49197958549E+03  0.66782771606E+03  0.50400001928E-02 0. -1.
</event>
<event>
 5   0  0.3657529E-04  0.1099677E+04  0.7818609E-02  0.9205506E-01
       -1   -1    0    0    0  501  0.00000000000E+00  0.00000000000E+00  0.49903126479E+03  0.49903126482E+03  0.50400001928E-02 0.  1.
        1   -1    0    0  501    0  0.00000000000E+00  0.00000000000E+00 -0.60581879961E+03  0.60581879963E+03  0.50400001928E-02 0. -1.
    10030    2    1    2    0    0  0.00000000000E+00  0.00000000000E+00 -0.10678753482E+03  0.11048500645E+04  0.10996772651E+04 0.  0.
        4    1    3    3  502    0 -0.13202829928E+03  0.65689392939E+02  0.47879055247E+03  0.50098759884E+03  0.12699999809E+01 0.  1.
       -4    1    3    3    0  502  0.13202829928E+03 -0.65689392939E+02 -0.58557808729E+03  0.60386246561E+03  0.12699999809E+01 0. -1.
</event>
<event>
 5   0  0.2403875E-04  0.1098207E+04  0.7818609E-02  0.9206941E-01
       -3   -1    0    0    0  501  0.00000000000E+00  0.00000000000E+00  0.11605890922E+04  0.11605890966E+04  0.10100000352E+00 0.  1.
        3   -1    0    0  501    0  0.00000000000E+00  0.00000000000E+00 -0.25979459332E+03  0.25979461295E+03  0.10100000352E+00 0. -1.
    10030    2    1    2    0    0  0.00000000000E+00  0.00000000000E+00  0.90079449893E+03  0.14203837096E+04  0.10982072451E+04 0.  0.
        3    1    3    3  502    0 -0.38157177316E+03  0.45174496014E+02 -0.56953456159E+02  0.38843462711E+03  0.10100000352E+00 0. -1.
       -3    1    3    3    0  502  0.38157177316E+03 -0.45174496014E+02  0.95774795509E+03  0.10319490825E+04  0.10100000352E+00 0.  1.
</event>
<event>
 5   0  0.5948818E-04  0.1125072E+04  0.7818609E-02  0.9181094E-01
       -2   -1    0    0    0  501  0.00000000000E+00  0.00000000000E+00  0.36039774473E+03  0.36039774474E+03  0.25500000920E-02 0. -1.
        2   -1    0    0  501    0  0.00000000000E+00  0.00000000000E+00 -0.87804900050E+03  0.87804900051E+03  0.25500000920E-02 0.  1.
    10030    2    1    2    0    0  0.00000000000E+00  0.00000000000E+00 -0.51765125577E+03  0.12384467453E+04  0.11250722280E+04 0.  0.
        3    1    3    3  502    0 -0.19533588988E+03 -0.34307632120E+03 -0.69994422320E+03  0.80360400561E+03  0.10100000352E+00 0.  1.
       -3    1    3    3    0  502  0.19533588988E+03  0.34307632120E+03  0.18229296743E+03  0.43484273964E+03  0.10100000352E+00 0. -1.
</event>
<event>
 5   0  0.3657529E-04  0.1082579E+04  0.7818609E-02  0.9222339E-01
       -1   -1    0    0    0  501  0.00000000000E+00  0.00000000000E+00  0.38749483951E+03  0.38749483954E+03  0.50400001928E-02 0. -1.
        1   -1    0    0  501    0  0.00000000000E+00  0.00000000000E+00 -0.75612495997E+03  0.75612495998E+03  0.50400001928E-02 0.  1.
    10030    2    1    2    0    0  0.00000000000E+00  0.00000000000E+00 -0.36863012046E+03  0.11436197995E+04  0.10825793644E+04 0.  0.
        4    1    3    3  502    0 -0.43064868393E+03 -0.30876414752E+02 -0.52919057110E+03  0.68297577952E+03  0.12699999809E+01 0.  1.
       -4    1    3    3    0  502  0.43064868393E+03  0.30876414752E+02  0.16056045064E+03  0.46064402001E+03  0.12699999809E+01 0. -1.
</event>
<event>
 5   0  0.5948818E-04  0.1102452E+04  0.7818609E-02  0.9202805E-01
        2   -1    0    0  501    0  0.00000000000E+00  0.00000000000E+00  0.33798240762E+03  0.33798240763E+03  0.25500000920E-02 0. -1.
       -2   -1    0    0    0  501  0.00000000000E+00  0.00000000000E+00 -0.89901123086E+03  0.89901123087E+03  0.25500000920E-02 0.  1.
    10030    2    1    2    0    0  0.00000000000E+00  0.00000000000E+00 -0.56102882325E+03  0.12369936385E+04  0.11024517773E+04 0.  0.
        3    1    3    3  502    0  0.47427153395E+03 -0.66692652131E+02  0.25677968145E+02  0.47962565196E+03  0.10100000352E+00 0. -1.
       -3    1    3    3    0  502 -0.47427153395E+03  0.66692652131E+02 -0.58670679139E+03  0.75736798654E+03  0.10100000352E+00 0.  1.
</event>
<event>
 5   0  0.6264830E-04  0.1099917E+04  0.7818609E-02  0.9205273E-01
       -2   -1    0    0    0  501  0.00000000000E+00  0.00000000000E+00  0.52751785498E+03  0.52751785499E+03  0.25500000920E-02 0.  1.
        2   -1    0    0  501    0  0.00000000000E+00  0.00000000000E+00 -0.57335357931E+03  0.57335357932E+03  0.25500000920E-02 0. -1.
    10030    2    1    2    0    0  0.00000000000E+00  0.00000000000E+00 -0.45835724331E+02  0.11008714343E+04  0.10999168156E+04 0.  0.
        4    1    3    3  502    0 -0.25542160169E+03  0.26928909344E+03 -0.42909741643E+03  0.56734735052E+03  0.12699999809E+01 0. -1.
       -4    1    3    3    0  502  0.25542160169E+03 -0.26928909344E+03  0.38326169210E+03  0.53352408379E+03  0.12699999809E+01 0.  1.
</event>
<event>
 5   0  0.6412712E-04  0.1098742E+04  0.7818609E-02  0.9206419E-01
       -2   -1    0    0    0  501  0.00000000000E+00  0.00000000000E+00  0.45947157732E+03  0.45947157733E+03  0.25500000920E-02 0.  1.
        2   -1    0    0  501    0  0.00000000000E+00  0.00000000000E+00 -0.65685980637E+03  0.65685980637E+03  0.25500000920E-02 0. -1.
    10030    2    1    2    0    0  0.00000000000E+00  0.00000000000E+00 -0.19738822905E+03  0.11163313837E+04  0.10987418465E+04 0.  0.
        2    1    3    3  502    0 -0.24493834435E+03 -0.27619571967E+03 -0.51206056662E+03  0.63125659758E+03  0.25500000920E-02 0. -1.
       -2    1    3    3    0  502  0.24493834435E+03  0.27619571967E+03  0.31467233757E+03  0.48507478612E+03  0.25500000920E-02 0.  1.
</event>
<event>
 5   0  0.6412712E-04  0.1099369E+04  0.7818609E-02  0.9205807E-01
        2   -1    0    0  501    0  0.00000000000E+00  0.00000000000E+00  0.35868177867E+03  0.35868177868E+03  0.25500000920E-02 0. -1.
       -2   -1    0    0    0  501  0.00000000000E+00  0.00000000000E+00 -0.84239890857E+03  0.84239890858E+03  0.25500000920E-02 0.  1.
    10030    2    1    2    0    0  0.00000000000E+00  0.00000000000E+00 -0.48371712990E+03  0.12010806873E+04  0.10993691625E+04 0.  0.
        2    1    3    3  502    0 -0.11605627604E+03 -0.24416371669E+03 -0.76474935912E+03  0.81112672379E+03  0.25500000920E-02 0.  1.
       -2    1    3    3    0  502  0.11605627604E+03  0.24416371669E+03  0.28103222922E+03  0.38995396347E+03  0.25500000920E-02 0. -1.
</event>
<event>
 5   0  0.3642161E-04  0.1103682E+04  0.7818609E-02  0.9201610E-01
       -1   -1    0    0    0  501  0.00000000000E+00  0.00000000000E+00  0.39677353529E+03  0.39677353532E+03  0.50400001928E-02 0. -1.
        1   -1    0    0  501    0  0.00000000000E+00  0.00000000000E+00 -0.76751242720E+03  0.76751242722E+03  0.50400001928E-02 0.  1.
    10030    2    1    2    0    0  0.00000000000E+00  0.00000000000E+00 -0.37073889191E+03  0.11642859625E+04  0.11036822353E+04 0.  0.
        2    1    3    3  502    0  0.24997869068E+03  0.31241919894E+03 -0.58628195129E+03  0.70980393637E+03  0.25500000920E-02 0. -1.
       -2    1    3    3    0  502 -0.24997869068E+03 -0.31241919894E+03  0.21554305939E+03  0.45448202618E+03  0.25500000920E-02 0.  1.
</event>
<event>
 5   0  0.6412712E-04  0.1100090E+04  0.7818609E-02  0.9205104E-01
       -2   -1    0    0    0  501  0.00000000000E+00  0.00000000000E+00  0.24890730490E+03  0.24890730491E+03  0.25500000920E-02 0. -1.
        2   -1    0    0  501    0  0.00000000000E+00  0.00000000000E+00 -0.12155105543E+04  0.12155105543E+04  0.25500000920E-02 0.  1.
    10030    2    1    2    0    0  0.00000000000E+00  0.00000000000E+00 -0.96660324938E+03  0.14644178592E+04  0.11000899166E+04 0.  0.
        2    1    3    3  502    0 -0.25831720894E+03 -0.25366473215E+03  0.67935364584E+02  0.36835959406E+03  0.25500000920E-02 0. -1.
       -2    1    3    3    0  502  0.25831720894E+03  0.25366473215E+03 -0.10345386140E+04  0.10960582651E+04  0.25500000920E-02 0.  1.
</event>
<event>
 5   0  0.6245176E-04  0.1100843E+04  0.7818609E-02  0.9204371E-01
        2   -1    0    0  501    0  0.00000000000E+00  0.00000000000E+00  0.11453737795E+04  0.11453737795E+04  0.25500000920E-02 0.  1.
       -2   -1    0    0    0  501  0.00000000000E+00  0.00000000000E+00 -0.26451075814E+03  0.26451075816E+03  0.25500000920E-02 0. -1.
    10030    2    1    2    0    0  0.00000000000E+00  0.00000000000E+00  0.88086302136E+03  0.14098845377E+04  0.11008427441E+04 0.  0.
        5    1    3    3  502    0  0.17779034709E+02 -0.12720008420E+03  0.11258871795E+04  0.11331990057E+04  0.46999998093E+01 0.  1.
       -5    1    3    3    0  502 -0.17779034709E+02  0.12720008420E+03 -0.24502415818E+03  0.27668553194E+03  0.46999998093E+01 0. -1.
</event>
<event>
 5   0  0.6245176E-04  0.1103212E+04  0.7818609E-02  0.9202067E-01
        2   -1    0    0  501    0  0.00000000000E+00  0.00000000000E+00  0.15170362366E+04  0.15170362366E+04  0.25500000920E-02 0.  1.
       -2   -1    0    0    0  501  0.00000000000E+00  0.00000000000E+00 -0.20056829385E+03  0.20056829387E+03  0.25500000920E-02 0. -1.
    10030    2    1    2    0    0  0.00000000000E+00  0.00000000000E+00  0.13164679427E+04  0.17176045304E+04  0.11032123453E+04 0.  0.
        5    1    3    3  502    0  0.54795593974E+03  0.46465691695E+02  0.72488194037E+03  0.90988498717E+03  0.46999998093E+01 0.  1.
       -5    1    3    3    0  502 -0.54795593974E+03 -0.46465691695E+02  0.59158600236E+03  0.80771954328E+03  0.46999998093E+01 0. -1.
</event>
<event>
 5   0  0.5948818E-04  0.1100544E+04  0.7818609E-02  0.9204662E-01
       -2   -1    0    0    0  501  0.00000000000E+00  0.00000000000E+00  0.15143947823E+03  0.15143947825E+03  0.25500000920E-02 0.  1.
        2   -1    0    0  501    0  0.00000000000E+00  0.00000000000E+00 -0.19994729318E+04  0.19994729318E+04  0.25500000920E-02 0. -1.
    10030    2    1    2    0    0  0.00000000000E+00  0.00000000000E+00 -0.18480334536E+04  0.21509124100E+04  0.11005437521E+04 0.  0.
        3    1    3    3  502    0  0.54223839464E+03  0.56513041392E+01 -0.74125375746E+03  0.91842885245E+03  0.10100000352E+00 0.  1.
       -3    1    3    3    0  502 -0.54223839464E+03 -0.56513041392E+01 -0.11067796961E+04  0.12324835576E+04  0.10100000352E+00 0. -1.
</event>
<event>
 5   0  0.3523525E-04  0.1100044E+04  0.7818609E-02  0.9205149E-01
       -1   -1    0    0    0  501  0.00000000000E+00  0.00000000000E+00  0.38273525681E+03  0.38273525684E+03  0.50400001928E-02 0. -1.
        1   -1    0    0  501    0  0.00000000000E+00  0.00000000000E+00 -0.79042744659E+03  0.79042744661E+03  0.50400001928E-02 0.  1.
    10030    2    1    2    0    0  0.00000000000E+00  0.00000000000E+00 -0.40769218978E+03  0.11731627035E+04  0.11000444569E+04 0.  0.
        5    1    3    3  502    0 -0.32105488020E+03  0.27777458668E+03  0.16906332805E+03  0.45698955787E+03  0.46999998093E+01 0. -1.
       -5    1    3    3    0  502  0.32105488020E+03 -0.27777458668E+03 -0.57675551783E+03  0.71617314559E+03  0.46999998093E+01 0.  1.
</event>
<event>
 5   0  0.3423758E-04  0.1100919E+04  0.7818609E-02  0.9204297E-01
       -1   -1    0    0    0  501  0.00000000000E+00  0.00000000000E+00  0.41533616076E+03  0.41533616079E+03  0.50400001928E-02 0. -1.
        1   -1    0    0  501    0  0.00000000000E+00  0.00000000000E+00 -0.72954271880E+03  0.72954271882E+03  0.50400001928E-02 0.  1.
    10030    2    1    2    0    0  0.00000000000E+00  0.00000000000E+00 -0.31420655804E+03  0.11448788796E+04  0.11009186563E+04 0.  0.
        1    1    3    3  502    0 -0.21122014152E+02  0.21625374246E+03 -0.68305901155E+03  0.71678548666E+03  0.50400001928E-02 0.  1.
       -1    1    3    3    0  502  0.21122014152E+02 -0.21625374246E+03  0.36885245351E+03  0.42809339295E+03  0.50400001928E-02 0. -1.
</event>
<event>
 5   0  0.5948818E-04  0.1102292E+04  0.7818609E-02  0.9202961E-01
       -2   -1    0    0    0  501  0.00000000000E+00  0.00000000000E+00  0.14774473923E+03  0.14774473925E+03  0.25500000920E-02 0.  1.
        2   -1    0    0  501    0  0.00000000000E+00  0.00000000000E+00 -0.20559905381E+04  0.20559905381E+04  0.25500000920E-02 0. -1.
    10030    2    1    2    0    0  0.00000000000E+00  0.00000000000E+00 -0.19082457989E+04  0.22037352774E+04  0.11022917689E+04 0.  0.
        3    1    3    3  502    0  0.24919226347E+03  0.12846346607E+03 -0.54630216228E+01  0.28040952390E+03  0.10100000352E+00 0.  1.
       -3    1    3    3    0  502 -0.24919226347E+03 -0.12846346607E+03 -0.19027827773E+04  0.19233257535E+04  0.10100000352E+00 0. -1.
</event>
<event>
 5   0  0.2403875E-04  0.1098046E+04  0.7818609E-02  0.9207099E-01
        4   -1    0    0  501    0  0.00000000000E+00  0.00000000000E+00  0.44256608126E+03  0.44256790347E+03  0.12699999809E+01 0.  1.
       -4   -1    0    0    0  501  0.00000000000E+00  0.00000000000E+00 -0.68108313939E+03  0.68108432346E+03  0.12699999809E+01 0. -1.
    10030    2    1    2    0    0  0.00000000000E+00  0.00000000000E+00 -0.23851705813E+03  0.11236522269E+04  0.10980455091E+04 0.  0.
        3    1    3    3  502    0  0.45948669949E+03 -0.28167802079E+03 -0.12149397724E+02  0.53909011535E+03  0.10100000352E+00 0. -1.
       -3    1    3    3    0  502 -0.45948669949E+03  0.28167802079E+03 -0.22636766041E+03  0.58456211157E+03  0.10100000352E+00 0.  1.
</event>
<event>
 5   0  0.6264830E-04  0.1099209E+04  0.7818609E-02  0.9205963E-01
       -2   -1    0    0    0  501  0.00000000000E+00  0.00000000000E+00  0.38002822007E+03  0.38002822008E+03  0.25500000920E-02 0.  1.
        2   -1    0    0  501    0  0.00000000000E+00  0.00000000000E+00 -0.79484892276E+03  0.79484892277E+03  0.25500000920E-02 0. -1.
    10030    2    1    2    0    0  0.00000000000E+00  0.00000000000E+00 -0.41482070269E+03  0.11748771428E+04  0.10992088452E+04 0.  0.
        4    1    3    3  502    0 -0.64820728318E+02 -0.30654954163E+02  0.37500578136E+03  0.38180152172E+03  0.12699999809E+01 0.  1.
       -4    1    3    3    0  502  0.64820728318E+02  0.30654954163E+02 -0.78982648405E+03  0.79307562113E+03  0.12699999809E+01 0. -1.
</event>
<event>
 5   0  0.2403875E-04  0.1096028E+04  0.7818609E-02  0.9209072E-01
       -3   -1    0    0    0  501  0.00000000000E+00  0.00000000000E+00  0.28094097654E+03  0.28094099470E+03  0.10100000352E+00 0.  1.
        3   -1    0    0  501    0  0.00000000000E+00  0.00000000000E+00 -0.10689771408E+04  0.10689771455E+04  0.10100000352E+00 0. -1.
    10030    2    1    2    0    0  0.00000000000E+00  0.00000000000E+00 -0.78803616423E+03  0.13499181402E+04  0.10960282794E+04 0.  0.
        1    1    3    3  502    0  0.43637218611E+03 -0.26916233127E+03 -0.15566860426E+03  0.53581877511E+03  0.50400001928E-02 0.  1.
       -1    1    3    3    0  502 -0.43637218611E+03  0.26916233127E+03 -0.63236755998E+03  0.81409936514E+03  0.50400001928E-02 0. -1.
</event>
<event>
 5   0  0.3657529E-04  0.1100123E+04  0.7818609E-02  0.9205072E-01
        1   -1    0    0  501    0  0.00000000000E+00  0.00000000000E+00  0.28226691640E+03  0.28226691645E+03  0.50400001928E-02 0.  1.
       -1   -1    0    0    0  501  0.00000000000E+00  0.00000000000E+00 -0.10719206063E+04  0.10719206063E+04  0.50400001928E-02 0. -1.
    10030    2    1    2    0    0  0.00000000000E+00  0.00000000000E+00 -0.78965368987E+03  0.13541875227E+04  0.11001231280E+04 0.  0.
        4    1    3    3  502    0  0.33048862418E+03  0.25241080714E+03 -0.83802087342E+03  0.93552901796E+03  0.12699999809E+01 0. -1.
       -4    1    3    3    0  502 -0.33048862418E+03 -0.25241080714E+03  0.48367183545E+02  0.41865850477E+03  0.12699999809E+01 0.  1.
</event>
<event>
 5   0  0.6264830E-04  0.1097235E+04  0.7818609E-02  0.9207891E-01
        2   -1    0    0  501    0  0.00000000000E+00  0.00000000000E+00  0.44632537367E+03  0.44632537368E+03  0.25500000920E-02 0. -1.
       -2   -1    0    0    0  501  0.00000000000E+00  0.00000000000E+00 -0.67435330072E+03  0.67435330072E+03  0.25500000920E-02 0.  1.
    10030    2    1    2    0    0  0.00000000000E+00  0.00000000000E+00 -0.22802792704E+03  0.11206786744E+04  0.10972346858E+04 0.  0.
        4    1    3    3  502    0 -0.18524622256E+03  0.17161346845E+03  0.38343660918E+03  0.45912154348E+03  0.12699999809E+01 0. -1.
       -4    1    3    3    0  502  0.18524622256E+03 -0.17161346845E+03 -0.61146453622E+03  0.66155713093E+03  0.12699999809E+01 0.  1.
</event>
<event>
 5   0  0.6109149E-04  0.1098676E+04  0.7818609E-02  0.9206484E-01
        2   -1    0    0  501    0  0.00000000000E+00  0.00000000000E+00  0.56961443910E+03  0.56961443911E+03  0.25500000920E-02 0. -1.
       -2   -1    0    0    0  501  0.00000000000E+00  0.00000000000E+00 -0.52978287651E+03  0.52978287651E+03  0.25500000920E-02 0.  1.
    10030    2    1    2    0    0  0.00000000000E+00  0.00000000000E+00  0.39831562597E+02  0.10993973156E+04  0.10986755227E+04 0.  0.
        1    1    3    3  502    0  0.13257459380E+03 -0.33306715890E+03  0.43643702982E+03  0.56478937338E+03  0.50400001928E-02 0. -1.
       -1    1    3    3    0  502 -0.13257459380E+03  0.33306715890E+03 -0.39660546722E+03  0.53460794225E+03  0.50400001928E-02 0.  1.
</event>
<event>
 5   0  0.6412712E-04  0.1101469E+04  0.7818609E-02  0.9203761E-01
       -2   -1    0    0    0  501  0.00000000000E+00  0.00000000000E+00  0.69338887238E+03  0.69338887238E+03  0.25500000920E-02 0. -1.
        2   -1    0    0  501    0  0.00000000000E+00  0.00000000000E+00 -0.43742902768E+03  0.43742902769E+03  0.25500000920E-02 0.  1.
    10030    2    1    2    0    0  0.00000000000E+00  0.00000000000E+00  0.25595984470E+03  0.11308179001E+04  0.11014688743E+04 0.  0.
        2    1    3    3  502    0  0.24700613959E+03 -0.25879421329E+03  0.55785135230E+03  0.66271004904E+03  0.25500000920E-02 0. -1.
       -2    1    3    3    0  502 -0.24700613959E+03  0.25879421329E+03 -0.30189150760E+03  0.46810785103E+03  0.25500000920E-02 0.  1.
</event>
<event>
 5   0  0.3621403E-04  0.1092458E+04  0.7818609E-02  0.9212574E-01
       -1   -1    0    0    0  501  0.00000000000E+00  0.00000000000E+00  0.20178084104E+03  0.20178084110E+03  0.50400001928E-02 0.  1.
        1   -1    0    0  501    0  0.00000000000E+00  0.00000000000E+00 -0.14786634639E+04  0.14786634639E+04  0.50400001928E-02 0. -1.
    10030    2    1    2    0    0  0.00000000000E+00  0.00000000000E+00 -0.12768826228E+04  0.16804443050E+04  0.10924577015E+04 0.  0.
        3    1    3    3  502    0  0.34084227842E+03 -0.45385674990E+01 -0.12949797748E+04  0.13390917388E+04  0.10100000352E+00 0. -1.
       -3    1    3    3    0  502 -0.34084227842E+03  0.45385674990E+01  0.18097152017E+02  0.34135256622E+03  0.10100000352E+00 0.  1.
</event>
<event>
 5   0  0.2403875E-04  0.1100603E+04  0.7818609E-02  0.9204604E-01
        3   -1    0    0  501    0  0.00000000000E+00  0.00000000000E+00  0.87986008428E+03  0.87986009008E+03  0.10100000352E+00 0.  1.
       -3   -1    0    0    0  501  0.00000000000E+00  0.00000000000E+00 -0.34418162539E+03  0.34418164021E+03  0.10100000352E+00 0. -1.
    10030    2    1    2    0    0  0.00000000000E+00  0.00000000000E+00  0.53567845890E+03  0.12240417303E+04  0.11006029012E+04 0.  0.
        4    1    3    3  502    0  0.44000599602E+03 -0.32194748632E+03  0.35087647571E+03  0.64836052825E+03  0.12699999809E+01 0. -1.
       -4    1    3    3    0  502 -0.44000599602E+03  0.32194748632E+03  0.18480198319E+03  0.57568120203E+03  0.12699999809E+01 0.  1.
</event>
<event>
 5   0  0.3423758E-04  0.1085588E+04  0.7818609E-02  0.9219353E-01
       -1   -1    0    0    0  501  0.00000000000E+00  0.00000000000E+00  0.41844014151E+03  0.41844014154E+03  0.50400001928E-02 0.  1.
        1   -1    0    0  501    0  0.00000000000E+00  0.00000000000E+00 -0.70410433899E+03  0.70410433901E+03  0.50400001928E-02 0. -1.
    10030    2    1    2    0    0  0.00000000000E+00  0.00000000000E+00 -0.28566419748E+03  0.11225444806E+04  0.10855883553E+04 0.  0.
        1    1    3    3  502    0  0.31003558099E+03 -0.44451263638E+03 -0.11160514782E+03  0.55332563145E+03  0.50400001928E-02 0. -1.
       -1    1    3    3    0  502 -0.31003558099E+03  0.44451263638E+03 -0.17405904966E+03  0.56921884910E+03  0.50400001928E-02 0.  1.
</event>
<event>
 5   0  0.3642161E-04  0.1099221E+04  0.7818609E-02  0.9205952E-01
       -1   -1    0    0    0  501  0.00000000000E+00  0.00000000000E+00  0.17658197233E+03  0.17658197240E+03  0.50400001928E-02 0.  1.
        1   -1    0    0  501    0  0.00000000000E+00  0.00000000000E+00 -0.17106583696E+04  0.17106583696E+04  0.50400001928E-02 0. -1.
    10030    2    1    2    0    0  0.00000000000E+00  0.00000000000E+00 -0.15340763973E+04  0.18872403420E+04  0.10992205037E+04 0.  0.
        2    1    3    3  502    0  0.27151265710E+03 -0.23443922418E+03 -0.14819543532E+04  0.15247523004E+04  0.25500000920E-02 0. -1.
       -2    1    3    3    0  502 -0.27151265710E+03  0.23443922418E+03 -0.52122044108E+02  0.36248804158E+03  0.25500000920E-02 0.  1.
</event>
<event>
 5   0  0.6412712E-04  0.1105071E+04  0.7818609E-02  0.9200264E-01
        2   -1    0    0  501    0  0.00000000000E+00  0.00000000000E+00  0.13131639661E+04  0.13131639661E+04  0.25500000920E-02 0. -1.
       -2   -1    0    0    0  501  0.00000000000E+00  0.00000000000E+00 -0.23248834867E+03  0.23248834868E+03  0.25500000920E-02 0.  1.
    10030    2    1    2    0    0  0.00000000000E+00  0.00000000000E+00  0.10806756175E+04  0.15456523148E+04  0.11050707163E+04 0.  0.
        2    1    3    3  502    0 -0.15064843150E+03  0.25182988102E+03  0.11951613184E+04  0.12306599108E+04  0.25500000920E-02 0. -1.
       -2    1    3    3    0  502  0.15064843150E+03 -0.25182988102E+03 -0.11448570096E+03  0.31499240406E+03  0.25500000920E-02 0.  1.
</event>
<event>
 5   0  0.6245176E-04  0.1098399E+04  0.7818609E-02  0.9206754E-01
        2   -1    0    0  501    0  0.00000000000E+00  0.00000000000E+00  0.77030606743E+03  0.77030606744E+03  0.25500000920E-02 0.  1.
       -2   -1    0    0    0  501  0.00000000000E+00  0.00000000000E+00 -0.39155890114E+03  0.39155890115E+03  0.25500000920E-02 0. -1.
    10030    2    1    2    0    0  0.00000000000E+00  0.00000000000E+00  0.37874716629E+03  0.11618649686E+04  0.10983991939E+04 0.  0.
        5    1    3    3  502    0  0.38608808861E+01 -0.54766955997E+03  0.14652037402E+03  0.56696310579E+03  0.46999998093E+01 0. -1.
       -5    1    3    3    0  502 -0.38608808861E+01  0.54766955997E+03  0.23222679227E+03  0.59490186281E+03  0.46999998093E+01 0.  1.
</event>
<event>
 5   0  0.3423758E-04  0.1100033E+04  0.7818609E-02  0.9205160E-01
        1   -1    0    0  501    0  0.00000000000E+00  0.00000000000E+00  0.98270971506E+03  0.98270971507E+03  0.50400001928E-02 0. -1.
       -1   -1    0    0    0  501  0.00000000000E+00  0.00000000000E+00 -0.30784063991E+03  0.30784063995E+03  0.50400001928E-02 0.  1.
    10030    2    1    2    0    0  0.00000000000E+00  0.00000000000E+00  0.67486907515E+03  0.12905503550E+04  0.11000327042E+04 0.  0.
        1    1    3    3  502    0 -0.51884551509E+03 -0.24049285472E+02  0.54971094878E+03  0.75628114078E+03  0.50400001928E-02 0. -1.
       -1    1    3    3    0  502  0.51884551509E+03  0.24049285472E+02  0.12515812637E+03  0.53426921424E+03  0.50400001928E-02 0.  1.
</event>
<event>
 5   0  0.6109149E-04  0.1099264E+04  0.7818609E-02  0.9205909E-01
        2   -1    0    0  501    0  0.00000000000E+00  0.00000000000E+00  0.30586382060E+03  0.30586382062E+03  0.25500000920E-02 0. -1.
       -2   -1    0    0    0  501  0.00000000000E+00  0.00000000000E+00 -0.98767929591E+03  0.98767929591E+03  0.25500000920E-02 0.  1.
    10030    2    1    2    0    0  0.00000000000E+00  0.00000000000E+00 -0.68181547530E+03  0.12935431165E+04  0.10992640501E+04 0.  0.
        1    1    3    3  502    0  0.52184099715E+03  0.17008320432E+03 -0.30661966868E+03  0.62869861137E+03  0.50400001928E-02 0. -1.
       -1    1    3    3    0  502 -0.52184099715E+03 -0.17008320432E+03 -0.37519580662E+03  0.66484450515E+03  0.50400001928E-02 0.  1.
</event>
<event>
 5   0  0.3423758E-04  0.1102815E+04  0.7818609E-02  0.9202452E-01
        1   -1    0    0  501    0  0.00000000000E+00  0.00000000000E+00  0.73682135220E+03  0.73682135222E+03  0.50400001928E-02 0. -1.
       -1   -1    0    0    0  501  0.00000000000E+00  0.00000000000E+00 -0.41265124149E+03  0.41265124152E+03  0.50400001928E-02 0.  1.
    10030    2    1    2    0    0  0.00000000000E+00  0.00000000000E+00  0.32417011070E+03  0.11494725937E+04  0.11028150267E+04 0.  0.
        1    1    3    3  502    0  0.45445662743E+02 -0.11935874836E+02 -0.41056079867E+03  0.41324078066E+03  0.50400001928E-02 0.  1.
       -1    1    3    3    0  502 -0.45445662743E+02  0.11935874836E+02  0.73473090938E+03  0.73623181308E+03  0.50400001928E-02 0. -1.
</event>
<event>
 5   0  0.6245176E-04  0.1101205E+04  0.7818609E-02  0.9204018E-01
       -2   -1    0    0    0  501  0.00000000000E+00  0.00000000000E+00  0.39046171196E+03  0.39046171196E+03  0.25500000920E-02 0.  1.
        2   -1    0    0  501    0  0.00000000000E+00  0.00000000000E+00 -0.77642202942E+03  0.77642202942E+03  0.25500000920E-02 0. -1.
    10030    2    1    2    0    0  0.00000000000E+00  0.00000000000E+00 -0.38596031746E+03  0.11668837414E+04  0.11012049306E+04 0.  0.
        5    1    3    3  502    0  0.32057139743E+03 -0.75253916935E+02  0.27459947945E+03  0.42878448779E+03  0.46999998093E+01 0.  1.
       -5    1    3    3    0  502 -0.32057139743E+03  0.75253916935E+02 -0.66055979691E+03  0.73809925359E+03  0.46999998093E+01 0. -1.
</event>
<event>
 5   0  0.6109149E-04  0.1098260E+04  0.7818609E-02  0.9206889E-01
        2   -1    0    0  501    0  0.00000000000E+00  0.00000000000E+00  0.25039387770E+04  0.25039387770E+04  0.25500000920E-02 0.  1.
       -2   -1    0    0    0  501  0.00000000000E+00  0.00000000000E+00 -0.12042782728E+03  0.12042782730E+03  0.25500000920E-02 0. -1.
    10030    2    1    2    0    0  0.00000000000E+00  0.00000000000E+00  0.23835109497E+04  0.26243666043E+04  0.10982602726E+04 0.  0.
        1    1    3    3  502    0 -0.22873282499E+03  0.40994836192E+03  0.18725411759E+04  0.19304887516E+04  0.50400001928E-02 0.  1.
       -1    1    3    3    0  502  0.22873282499E+03 -0.40994836192E+03  0.51096977384E+03  0.69387785270E+03  0.50400001928E-02 0. -1.
</event>
<event>
 5   0  0.6245176E-04  0.1103968E+04  0.7818609E-02  0.9201333E-01
       -2   -1    0    0    0  501  0.00000000000E+00  0.00000000000E+00  0.20436626866E+03  0.20436626868E+03  0.25500000920E-02 0.  1.
        2   -1    0    0  501    0  0.00000000000E+00  0.00000000000E+00 -0.14908847774E+04  0.14908847774E+04  0.25500000920E-02 0. -1.
    10030    2    1    2    0    0  0.00000000000E+00  0.00000000000E+00 -0.12865185087E+04  0.16952510461E+04  0.11039684035E+04 0.  0.
        5    1    3    3  502    0  0.45059610703E+03  0.22700387374E+03 -0.98696170146E+03  0.11084597875E+04  0.46999998093E+01 0. -1.
       -5    1    3    3    0  502 -0.45059610703E+03 -0.22700387374E+03 -0.29955680727E+03  0.58679125858E+03  0.46999998093E+01 0.  1.
</event>
<event>
 5   0  0.6245176E-04  0.1099526E+04  0.7818609E-02  0.9205654E-01
        2   -1    0    0  501    0  0.00000000000E+00  0.00000000000E+00  0.18175926558E+04  0.18175926558E+04  0.25500000920E-02 0. -1.
       -2   -1    0    0    0  501  0.00000000000E+00  0.00000000000E+00 -0.16628555390E+03  0.16628555392E+03  0.25500000920E-02 0.  1.
    10030    2    1    2    0    0  0.00000000000E+00  0.00000000000E+00  0.16513071019E+04  0.19838782097E+04  0.10995260826E+04 0.  0.
        5    1    3    3  502    0 -0.42499091061E+03 -0.29761525784E+03  0.11535465708E+04  0.12648651694E+04  0.46999998093E+01 0. -1.
       -5    1    3    3    0  502  0.42499091061E+03  0.29761525784E+03  0.49776053108E+03  0.71901304029E+03  0.46999998093E+01 0.  1.
</event>
<event>
 5   0  0.2403875E-04  0.1099664E+04  0.7818609E-02  0.9205519E-01
       -4   -1    0    0    0  501  0.00000000000E+00  0.00000000000E+00  0.94852137260E+03  0.94852222282E+03  0.12699999809E+01 0. -1.
        4   -1    0    0  501    0  0.00000000000E+00  0.00000000000E+00 -0.31872058565E+03  0.31872311592E+03  0.12699999809E+01 0.  1.
    10030    2    1    2    0    0  0.00000000000E+00  0.00000000000E+00  0.62980078695E+03  0.12672453387E+04  0.10996643658E+04 0.  0.
        4    1    3    3  502    0 -0.28160160743E+02 -0.53995759005E+03  0.19985358914E+03  0.57644623660E+03  0.12699999809E+01 0.  1.
       -4    1    3    3    0  502  0.28160160743E+02  0.53995759005E+03  0.42994719781E+03  0.69079910213E+03  0.12699999809E+01 0. -1.
</event>
<event>
 5   0  0.6109149E-04  0.1101740E+04  0.7818609E-02  0.9203498E-01
       -2   -1    0    0    0  501  0.00000000000E+00  0.00000000000E+00  0.67423820296E+03  0.67423820297E+03  0.25500000920E-02 0. -1.
        2   -1    0    0  501    0  0.00000000000E+00  0.00000000000E+00 -0.45007500059E+03  0.45007500060E+03  0.25500000920E-02 0.  1.
    10030    2    1    2    0    0  0.00000000000E+00  0.00000000000E+00  0.22416320237E+03  0.11243132036E+04  0.11017400049E+04 0.  0.
        1    1    3    3  502    0 -0.40688093651E+03 -0.17172258787E+03  0.44809524821E+03  0.62915029617E+03  0.50400001928E-02 0. -1.
       -1    1    3    3    0  502  0.40688093651E+03  0.17172258787E+03 -0.22393204584E+03  0.49516290739E+03  0.50400001928E-02 0.  1.
</event>
<event>
 5   0  0.3642161E-04  0.1103118E+04  0.7818609E-02  0.9202158E-01
       -1   -1    0    0    0  501  0.00000000000E+00  0.00000000000E+00  0.33290465971E+03  0.33290465975E+03  0.50400001928E-02 0.  1.
        1   -1    0    0  501    0  0.00000000000E+00  0.00000000000E+00 -0.91382672182E+03  0.91382672183E+03  0.50400001928E-02 0. -1.
    10030    2    1    2    0    0  0.00000000000E+00  0.00000000000E+00 -0.58092206211E+03  0.12467313816E+04  0.11031177161E+04 0.  0.
        2    1    3    3  502    0 -0.14293208841E+03 -0.46448608076E+03 -0.58526549467E+03  0.76073162178E+03  0.25500000920E-02 0. -1.
       -2    1    3    3    0  502  0.14293208841E+03  0.46448608076E+03  0.43434325678E+01  0.48599975980E+03  0.25500000920E-02 0.  1.
</event>
<event>
 5   0  0.6264830E-04  0.1108777E+04  0.7818609E-02  0.9196679E-01
        2   -1    0    0  501    0  0.00000000000E+00  0.00000000000E+00  0.86575824088E+03  0.86575824088E+03  0.25500000920E-02 0. -1.
       -2   -1    0    0    0  501  0.00000000000E+00  0.00000000000E+00 -0.35500310212E+03  0.35500310213E+03  0.25500000920E-02 0.  1.
    10030    2    1    2    0    0  0.00000000000E+00  0.00000000000E+00  0.51075513876E+03  0.12207613430E+04  0.11087774550E+04 0.  0.
        4    1    3    3  502    0 -0.50460811559E+03 -0.19252390903E+02  0.50727572837E+03  0.71577250742E+03  0.12699999809E+01 0.  1.
       -4    1    3    3    0  502  0.50460811559E+03  0.19252390903E+02  0.34794103856E+01  0.50498883559E+03  0.12699999809E+01 0. -1.
</event>
<event>
 5   0  0.3621403E-04  0.1100938E+04  0.7818609E-02  0.9204278E-01
        1   -1    0    0  501    0  0.00000000000E+00  0.00000000000E+00  0.34817083997E+03  0.34817084000E+03  0.50400001928E-02 0. -1.
       -1   -1    0    0    0  501  0.00000000000E+00  0.00000000000E+00 -0.87030936931E+03  0.87030936932E+03  0.50400001928E-02 0.  1.
    10030    2    1    2    0    0  0.00000000000E+00  0.00000000000E+00 -0.52213852934E+03  0.12184802093E+04  0.11009384073E+04 0.  0.
        3    1    3    3  502    0 -0.63473249927E+02  0.32237245017E+03 -0.74988305004E+03  0.81870473861E+03  0.10100000352E+00 0.  1.
       -3    1    3    3    0  502  0.63473249927E+02 -0.32237245017E+03  0.22774452069E+03  0.39977547072E+03  0.10100000352E+00 0. -1.
</event>
<event>
 5   0  0.5948818E-04  0.1100681E+04  0.7818609E-02  0.9204528E-01
       -2   -1    0    0    0  501  0.00000000000E+00  0.00000000000E+00  0.45129845652E+03  0.45129845652E+03  0.25500000920E-02 0.  1.
        2   -1    0    0  501    0  0.00000000000E+00  0.00000000000E+00 -0.67111853284E+03  0.67111853285E+03  0.25500000920E-02 0. -1.
    10030    2    1    2    0    0  0.00000000000E+00  0.00000000000E+00 -0.21982007632E+03  0.11224169894E+04  0.11006811673E+04 0.  0.
        3    1    3    3  502    0  0.48070929234E+03  0.22866175545E+03 -0.25233605767E+03  0.58910195921E+03  0.10100000352E+00 0. -1.
       -3    1    3    3    0  502 -0.48070929234E+03 -0.22866175545E+03  0.32515981346E+02  0.53331503016E+03  0.10100000352E+00 0.  1.
</event>
<event>
 5   0  0.3657529E-04  0.1099577E+04  0.7818609E-02  0.9205604E-01
        1   -1    0    0  501    0  0.00000000000E+00  0.00000000000E+00  0.57547342406E+03  0.57547342408E+03  0.50400001928E-02 0. -1.
       -1   -1    0    0    0  501  0.00000000000E+00  0.00000000000E+00 -0.52525023505E+03  0.52525023507E+03  0.50400001928E-02 0.  1.
    10030    2    1    2    0    0  0.00000000000E+00  0.00000000000E+00  0.50223189014E+02  0.11007236592E+04  0.10995772847E+04 0.  0.
        4    1    3    3  502    0 -0.28385322224E+03  0.40937791870E+03 -0.20773143474E+03  0.53973780113E+03  0.12699999809E+01 0.  1.
       -4    1    3    3    0  502  0.28385322224E+03 -0.40937791870E+03  0.25795462375E+03  0.56098585802E+03  0.12699999809E+01 0. -1.
</event>
<event>
 5   0  0.6109149E-04  0.1102824E+04  0.7818609E-02  0.9202443E-01
       -2   -1    0    0    0  501  0.00000000000E+00  0.00000000000E+00  0.21854443476E+03  0.21854443478E+03  0.25500000920E-02 0.  1.
        2   -1    0    0  501    0  0.00000000000E+00  0.00000000000E+00 -0.13912748072E+04  0.13912748072E+04  0.25500000920E-02 0. -1.
    10030    2    1    2    0    0  0.00000000000E+00  0.00000000000E+00 -0.11727303724E+04  0.16098192419E+04  0.11028243130E+04 0.  0.
        1    1    3    3  502    0  0.11316565765E+03  0.11187857744E+03  0.18429737802E+03  0.24349292748E+03  0.50400001928E-02 0.  1.
       -1    1    3    3    0  502 -0.11316565765E+03 -0.11187857744E+03 -0.13570277504E+04  0.13663263145E+04  0.50400001928E-02 0. -1.
</event>
<event>
 5   0  0.3523525E-04  0.1099586E+04  0.7818609E-02  0.9205596E-01
       -1   -1    0    0    0  501  0.00000000000E+00  0.00000000000E+00  0.23949270018E+03  0.23949270023E+03  0.50400001928E-02 0.  1.
        1   -1    0    0  501    0  0.00000000000E+00  0.00000000000E+00 -0.12621349306E+04  0.12621349306E+04  0.50400001928E-02 0. -1.
    10030    2    1    2    0    0  0.00000000000E+00  0.00000000000E+00 -0.10226422304E+04  0.15016276308E+04  0.10995855629E+04 0.  0.
        5    1    3    3  502    0 -0.14083351970E+03 -0.43699498690E+03 -0.92430033181E+03  0.10320619614E+04  0.46999998093E+01 0. -1.
       -5    1    3    3    0  502  0.14083351970E+03  0.43699498690E+03 -0.98341898586E+02  0.46956566939E+03  0.46999998093E+01 0.  1.
</event>
<event>
 5   0  0.3657529E-04  0.1099500E+04  0.7818609E-02  0.9205680E-01
       -1   -1    0    0    0  501  0.00000000000E+00  0.00000000000E+00  0.13767675873E+04  0.13767675873E+04  0.50400001928E-02 0.  1.
        1   -1    0    0  501    0  0.00000000000E+00  0.00000000000E+00 -0.21951772056E+03  0.21951772061E+03  0.50400001928E-02 0. -1.
    10030    2    1    2    0    0  0.00000000000E+00  0.00000000000E+00  0.11572498667E+04  0.15962853079E+04  0.10994996727E+04 0.  0.
        4    1    3    3  502    0 -0.17194568315E+03  0.47341898880E+03  0.89846388496E+03  0.10300144768E+04  0.12699999809E+01 0. -1.
       -4    1    3    3    0  502  0.17194568315E+03 -0.47341898880E+03  0.25878598174E+03  0.56627083110E+03  0.12699999809E+01 0.  1.
</event>
<event>
 5   0  0.5948818E-04  0.1098222E+04  0.7818609E-02  0.9206926E-01
       -2   -1    0    0    0  501  0.00000000000E+00  0.00000000000E+00  0.25688900772E+03  0.25688900773E+03  0.25500000920E-02 0.  1.
        2   -1    0    0  501    0  0.00000000000E+00  0.00000000000E+00 -0.11737479396E+04  0.11737479396E+04  0.25500000920E-02 0. -1.
    10030    2    1    2    0    0  0.00000000000E+00  0.00000000000E+00 -0.91685893190E+03  0.14306369474E+04  0.10982220969E+04 0.  0.
        3    1    3    3  502    0 -0.23450577564E+02 -0.25762107386E+03 -0.10893974492E+04  0.11196898499E+04  0.10100000352E+00 0. -1.
       -3    1    3    3    0  502  0.23450577564E+02  0.25762107386E+03  0.17253851732E+03  0.31094709751E+03  0.10100000352E+00 0.  1.
</event>
<event>
 5   0  0.3523525E-04  0.1098499E+04  0.7818609E-02  0.9206656E-01
        1   -1    0    0  501    0  0.00000000000E+00  0.00000000000E+00  0.85777577683E+03  0.85777577685E+03  0.50400001928E-02 0.  1.
       -1   -1    0    0    0  501  0.00000000000E+00  0.00000000000E+00 -0.35169441358E+03  0.35169441361E+03  0.50400001928E-02 0. -1.
    10030    2    1    2    0    0  0.00000000000E+00  0.00000000000E+00  0.50608136326E+03  0.12094701905E+04  0.10984988827E+04 0.  0.
        5    1    3    3  502    0  0.16242482025E+03 -0.48054773085E+03  0.48489621371E+03  0.70175093298E+03  0.46999998093E+01 0.  1.
       -5    1    3    3    0  502 -0.16242482025E+03  0.48054773085E+03  0.21185149545E+02  0.50771925748E+03  0.46999998093E+01 0. -1.
</event>
<event>
 5   0  0.3621403E-04  0.1098198E+04  0.7818609E-02  0.9206950E-01
       -1   -1    0    0    0  501  0.00000000000E+00  0.00000000000E+00  0.56673941296E+03  0.56673941299E+03  0.50400001928E-02 0.  1.
        1   -1    0    0  501    0  0.00000000000E+00  0.00000000000E+00 -0.53200743524E+03  0.53200743526E+03  0.50400001928E-02 0. -1.
    10030    2    1    2    0    0  0.00000000000E+00  0.00000000000E+00  0.34731977728E+02  0.10987468482E+04  0.10981977628E+04 0.  0.
        3    1    3    3  502    0  0.41623455639E+03  0.12706958753E+03 -0.31763225340E+03  0.53878394984E+03  0.10100000352E+00 0. -1.
       -3    1    3    3    0  502 -0.41623455639E+03 -0.12706958753E+03  0.35236423113E+03  0.55996289840E+03  0.10100000352E+00 0.  1.
</event>
<event>
 5   0  0.3642161E-04  0.1100376E+04  0.7818609E-02  0.9204825E-01
        1   -1    0    0  501    0  0.00000000000E+00  0.00000000000E+00  0.10238420432E+04  0.10238420432E+04  0.50400001928E-02 0. -1.
       -1   -1    0    0    0  501  0.00000000000E+00  0.00000000000E+00 -0.29565798164E+03  0.29565798169E+03  0.50400001928E-02 0.  1.
    10030    2    1    2    0    0  0.00000000000E+00  0.00000000000E+00  0.72818406153E+03  0.13195000249E+04  0.11003764302E+04 0.  0.
        2    1    3    3  502    0 -0.42897095951E+03 -0.22370090893E+03  0.49907435689E+02  0.48636296416E+03  0.25500000920E-02 0.  1.
       -2    1    3    3    0  502  0.42897095951E+03  0.22370090893E+03  0.67827662584E+03  0.83313706071E+03  0.25500000920E-02 0. -1.
</event>
<event>
 5   0  0.6412712E-04  0.1100964E+04  0.7818609E-02  0.9204252E-01
        2   -1    0    0  501    0  0.00000000000E+00  0.00000000000E+00  0.13977465579E+04  0.13977465579E+04  0.25500000920E-02 0. -1.
       -2   -1    0    0    0  501  0.00000000000E+00  0.00000000000E+00 -0.21679941413E+03  0.21679941414E+03  0.25500000920E-02 0.  1.
    10030    2    1    2    0    0  0.00000000000E+00  0.00000000000E+00  0.11809471438E+04  0.16145459721E+04  0.11009643679E+04 0.  0.
        2    1    3    3  502    0 -0.31870189766E+03 -0.43576752114E+03  0.74818977324E+03  0.92263327972E+03  0.25500000920E-02 0. -1.
       -2    1    3    3    0  502  0.31870189766E+03  0.43576752114E+03  0.43275737054E+03  0.69191269234E+03  0.25500000920E-02 0.  1.
</event>
<event>
 5   0  0.3642161E-04  0.1101074E+04  0.7818609E-02  0.9204145E-01
        1   -1    0    0  501    0  0.00000000000E+00  0.00000000000E+00  0.18374807228E+04  0.18374807228E+04  0.50400001928E-02 0.  1.
       -1   -1    0    0    0  501  0.00000000000E+00  0.00000000000E+00 -0.16494931227E+03  0.16494931234E+03  0.50400001928E-02 0. -1.
    10030    2    1    2    0    0  0.00000000000E+00  0.00000000000E+00  0.16725314105E+04  0.20024300351E+04  0.11010743510E+04 0.  0.
        2    1    3    3  502    0  0.12852507528E+02  0.41162402732E+03  0.15007240547E+04  0.15562044259E+04  0.25500000920E-02 0.  1.
       -2    1    3    3    0  502 -0.12852507528E+02 -0.41162402732E+03  0.17180735581E+03  0.44622560924E+03  0.25500000920E-02 0. -1.
</event>
<event>
 5   0  0.3642161E-04  0.1099863E+04  0.7818609E-02  0.9205325E-01
       -1   -1    0    0    0  501  0.00000000000E+00  0.00000000000E+00  0.77073256893E+03  0.77073256895E+03  0.50400001928E-02 0.  1.
        1   -1    0    0  501    0  0.00000000000E+00  0.00000000000E+00 -0.39238600337E+03  0.39238600340E+03  0.50400001928E-02 0. -1.
    10030    2    1    2    0    0  0.00000000000E+00  0.00000000000E+00  0.37834656556E+03  0.11631185723E+04  0.10998630322E+04 0.  0.
        2    1    3    3  502    0  0.51794505390E+03 -0.17299616716E+03  0.12039498124E+03  0.55918664525E+03  0.25500000920E-02 0.  1.
       -2    1    3    3    0  502 -0.51794505390E+03  0.17299616716E+03  0.25795158432E+03  0.60393192710E+03  0.25500000920E-02 0. -1.
</event>
<event>
 5   0  0.3621403E-04  0.1097705E+04  0.7818609E-02  0.9207431E-01
       -1   -1    0    0    0  501  0.00000000000E+00  0.00000000000E+00  0.34816458044E+03  0.34816458048E+03  0.50400001928E-02 0. -1.
        1   -1    0    0  501    0  0.00000000000E+00  0.00000000000E+00 -0.86522099404E+03  0.86522099405E+03  0.50400001928E-02 0.  1.
    10030    2    1    2    0    0  0.00000000000E+00  0.00000000000E+00 -0.51705641360E+03  0.12133855745E+04  0.10977054330E+04 0.  0.
        3    1    3    3  502    0 -0.47883444562E+03  0.16749458605E+03 -0.26918209801E+02  0.50799750284E+03  0.10100000352E+00 0. -1.
       -3    1    3    3    0  502  0.47883444562E+03 -0.16749458605E+03 -0.49013820379E+03  0.70538807169E+03  0.10100000352E+00 0.  1.
</event>
<event>
 5   0  0.6109149E-04  0.1101091E+04  0.7818609E-02  0.9204130E-01
       -2   -1    0    0    0  501  0.00000000000E+00  0.00000000000E+00  0.17390607542E+03  0.17390607544E+03  0.25500000920E-02 0. -1.
        2   -1    0    0  501    0  0.00000000000E+00  0.00000000000E+00 -0.17428957022E+04  0.17428957022E+04  0.25500000920E-02 0.  1.
    10030    2    1    2    0    0  0.00000000000E+00  0.00000000000E+00 -0.15689896268E+04  0.19168017777E+04  0.11010906438E+04 0.  0.
        1    1    3    3  502    0  0.33187562153E+03  0.42968565898E+03 -0.94336758069E+03  0.10884454906E+04  0.50400001928E-02 0.  1.
       -1    1    3    3    0  502 -0.33187562153E+03 -0.42968565898E+03 -0.62562204609E+03  0.82835628704E+03  0.50400001928E-02 0. -1.
</event>
<event>
 5   0  0.2403875E-04  0.1098231E+04  0.7818609E-02  0.9206917E-01
       -3   -1    0    0    0  501  0.00000000000E+00  0.00000000000E+00  0.11185806043E+04  0.11185806089E+04  0.10100000352E+00 0.  1.
        3   -1    0    0  501    0  0.00000000000E+00  0.00000000000E+00 -0.26956302616E+03  0.26956304508E+03  0.10100000352E+00 0. -1.
    10030    2    1    2    0    0  0.00000000000E+00  0.00000000000E+00  0.84901757813E+03  0.13881436539E+04  0.10982312853E+04 0.  0.
        5    1    3    3  502    0  0.53881841078E+03 -0.93758860996E+02  0.36271710557E+03  0.65627874602E+03  0.46999998093E+01 0.  1.
       -5    1    3    3    0  502 -0.53881841078E+03  0.93758860996E+02  0.48630047257E+03  0.73186490791E+03  0.46999998093E+01 0. -1.
</event>
<event>
 5   0  0.6264830E-04  0.1108379E+04  0.7818609E-02  0.9197064E-01
        2   -1    0    0  501    0  0.00000000000E+00  0.00000000000E+00  0.17145513863E+04  0.17145513863E+04  0.25500000920E-02 0. -1.
       -2   -1    0    0    0  501  0.00000000000E+00  0.00000000000E+00 -0.17912902978E+03  0.17912902980E+03  0.25500000920E-02 0.  1.
    10030    2    1    2    0    0  0.00000000000E+00  0.00000000000E+00  0.15354223566E+04  0.18936804161E+04  0.11083788637E+04 0.  0.
        4    1    3    3  502    0 -0.14752850129E+02  0.11957010118E+03  0.16919044035E+04  0.16961888984E+04  0.12699999809E+01 0. -1.
       -4    1    3    3    0  502  0.14752850129E+02 -0.11957010118E+03 -0.15648204690E+03  0.19749151775E+03  0.12699999809E+01 0.  1.
</event>
<event>
 5   0  0.3423758E-04  0.1099098E+04  0.7818609E-02  0.9206071E-01
       -1   -1    0    0    0  501  0.00000000000E+00  0.00000000000E+00  0.12358327291E+03  0.12358327301E+03  0.50400001928E-02 0.  1.
        1   -1    0    0  501    0  0.00000000000E+00  0.00000000000E+00 -0.24437305166E+04  0.24437305167E+04  0.50400001928E-02 0. -1.
    10030    2    1    2    0    0  0.00000000000E+00  0.00000000000E+00 -0.23201472437E+04  0.25673137897E+04  0.10990982040E+04 0.  0.
        1    1    3    3  502    0 -0.54872089467E+03 -0.11388701187E+02 -0.10948417437E+04  0.12247051753E+04  0.50400001928E-02 0. -1.
       -1    1    3    3    0  502  0.54872089467E+03  0.11388701187E+02 -0.12253055001E+04  0.13426086143E+04  0.50400001928E-02 0.  1.
</event>
<event>
 5   0  0.6109149E-04  0.1107130E+04  0.7818609E-02  0.9198270E-01
        2   -1    0    0  501    0  0.00000000000E+00  0.00000000000E+00  0.72175690468E+03  0.72175690469E+03  0.25500000920E-02 0. -1.
       -2   -1    0    0    0  501  0.00000000000E+00  0.00000000000E+00 -0.42456740537E+03  0.42456740538E+03  0.25500000920E-02 0.  1.
    10030    2    1    2    0    0  0.00000000000E+00  0.00000000000E+00  0.29718949931E+03  0.11463243101E+04  0.11071304464E+04 0.  0.
        1    1    3    3  502    0  0.31807431630E+03 -0.70875583427E+02  0.61191784627E+03  0.69328065718E+03  0.50400001928E-02 0. -1.
       -1    1    3    3    0  502 -0.31807431630E+03  0.70875583427E+02 -0.31472834696E+03  0.45304365288E+03  0.50400001928E-02 0.  1.
</event>
<event>
 5   0  0.6264830E-04  0.1099781E+04  0.7818609E-02  0.9205406E-01
       -2   -1    0    0    0  501  0.00000000000E+00  0.00000000000E+00  0.21263375008E+03  0.21263375009E+03  0.25500000920E-02 0.  1.
        2   -1    0    0  501    0  0.00000000000E+00  0.00000000000E+00 -0.14220670458E+04  0.14220670458E+04  0.25500000920E-02 0. -1.
    10030    2    1    2    0    0  0.00000000000E+00  0.00000000000E+00 -0.12094332957E+04  0.16347007959E+04  0.10997807942E+04 0.  0.
        4    1    3    3  502    0  0.59791530792E+02 -0.54692619853E+02  0.20370826568E+03  0.21923726924E+03  0.12699999809E+01 0.  1.
       -4    1    3    3    0  502 -0.59791530792E+02  0.54692619853E+02 -0.14131415614E+04  0.14154635266E+04  0.12699999809E+01 0. -1.
</event>
<event>
 5   0  0.6245176E-04  0.1100820E+04  0.7818609E-02  0.9204393E-01
       -2   -1    0    0    0  501  0.00000000000E+00  0.00000000000E+00  0.42803014413E+03  0.42803014413E+03  0.25500000920E-02 0. -1.
        2   -1    0    0  501    0  0.00000000000E+00  0.00000000000E+00 -0.70777975291E+03  0.70777975291E+03  0.25500000920E-02 0.  1.
    10030    2    1    2    0    0  0.00000000000E+00  0.00000000000E+00 -0.27974960878E+03  0.11358098970E+04  0.11008198211E+04 0.  0.
        5    1    3    3  502    0 -0.23629070993E+02  0.24481161553E+03 -0.64790518258E+03  0.69303266569E+03  0.46999998093E+01 0.  1.
       -5    1    3    3    0  502  0.23629070993E+02 -0.24481161553E+03  0.36815557380E+03  0.44277723136E+03  0.46999998093E+01 0. -1.
</event>
<event>
 5   0  0.6109149E-04  0.1097678E+04  0.7818609E-02  0.9207458E-01
       -2   -1    0    0    0  501  0.00000000000E+00  0.00000000000E+00  0.55459823136E+03  0.55459823136E+03  0.25500000920E-02 0.  1.
        2   -1    0    0  501    0  0.00000000000E+00  0.00000000000E+00 -0.54314002838E+03  0.54314002839E+03  0.25500000920E-02 0. -1.
    10030    2    1    2    0    0  0.00000000000E+00  0.00000000000E+00  0.11458202978E+02  0.10977382598E+04  0.10976784577E+04 0.  0.
        1    1    3    3  502    0  0.17416067610E+03 -0.49403512523E+03 -0.15805360717E+03  0.54715956432E+03  0.50400001928E-02 0. -1.
       -1    1    3    3    0  502 -0.17416067610E+03  0.49403512523E+03  0.16951181014E+03  0.55057869543E+03  0.50400001928E-02 0.  1.
</event>
<event>
 5   0  0.6245176E-04  0.1100252E+04  0.7818609E-02  0.9204947E-01
        2   -1    0    0  501    0  0.00000000000E+00  0.00000000000E+00  0.28677360667E+03  0.28677360668E+03  0.25500000920E-02 0.  1.
       -2   -1    0    0    0  501  0.00000000000E+00  0.00000000000E+00 -0.10553219257E+04  0.10553219257E+04  0.25500000920E-02 0. -1.
    10030    2    1    2    0    0  0.00000000000E+00  0.00000000000E+00 -0.76854831904E+03  0.13420955324E+04  0.11002517436E+04 0.  0.
        5    1    3    3  502    0 -0.24266535290E+02  0.31730320769E+03  0.16307326393E+03  0.35761036024E+03  0.46999998093E+01 0.  1.
       -5    1    3    3    0  502  0.24266535290E+02 -0.31730320769E+03 -0.93162158297E+03  0.98448517216E+03  0.46999998093E+01 0. -1.
</event>
<event>
 5   0  0.6109149E-04  0.1100387E+04  0.7818609E-02  0.9204815E-01
       -2   -1    0    0    0  501  0.00000000000E+00  0.00000000000E+00  0.35707019303E+03  0.35707019304E+03  0.25500000920E-02 0. -1.
        2   -1    0    0  501    0  0.00000000000E+00  0.00000000000E+00 -0.84776884293E+03  0.84776884293E+03  0.25500000920E-02 0.  1.
    10030    2    1    2    0    0  0.00000000000E+00  0.00000000000E+00 -0.49069864990E+03  0.12048390360E+04  0.11003871762E+04 0.  0.
        1    1    3    3  502    0  0.22040662100E+03  0.26203081081E+03  0.22619741587E+03  0.41037116781E+03  0.50400001928E-02 0. -1.
       -1    1    3    3    0  502 -0.22040662100E+03 -0.26203081081E+03 -0.71689606577E+03  0.79446786816E+03  0.50400001928E-02 0.  1.
</event>
<event>
 5   0  0.3657529E-04  0.1104104E+04  0.7818609E-02  0.9201201E-01
        1   -1    0    0  501    0  0.00000000000E+00  0.00000000000E+00  0.55670021192E+03  0.55670021194E+03  0.50400001928E-02 0. -1.
       -1   -1    0    0    0  501  0.00000000000E+00  0.00000000000E+00 -0.54744291382E+03  0.54744291384E+03  0.50400001928E-02 0.  1.
    10030    2    1    2    0    0  0.00000000000E+00  0.00000000000E+00  0.92572981021E+01  0.11041431258E+04  0.11041043178E+04 0.  0.
        4    1    3    3  502    0  0.40336338897E+03 -0.36540825468E+03 -0.87758347279E+02  0.55129697675E+03  0.12699999809E+01 0. -1.
       -4    1    3    3    0  502 -0.40336338897E+03  0.36540825468E+03  0.97015645381E+02  0.55284614904E+03  0.12699999809E+01 0.  1.
</event>
<event>
 5   0  0.3621403E-04  0.1100652E+04  0.7818609E-02  0.9204556E-01
        1   -1    0    0  501    0  0.00000000000E+00  0.00000000000E+00  0.59729360582E+03  0.59729360585E+03  0.50400001928E-02 0. -1.
       -1   -1    0    0    0  501  0.00000000000E+00  0.00000000000E+00 -0.50705176800E+03  0.50705176803E+03  0.50400001928E-02 0.  1.
    10030    2    1    2    0    0  0.00000000000E+00  0.00000000000E+00  0.90241837823E+02  0.11043453739E+04  0.11006521319E+04 0.  0.
        3    1    3    3  502    0  0.15774647688E+03  0.11109541376E+03  0.56224593278E+03  0.59442967713E+03  0.10100000352E+00 0. -1.
       -3    1    3    3    0  502 -0.15774647688E+03 -0.11109541376E+03 -0.47200409496E+03  0.50991569674E+03  0.10100000352E+00 0.  1.
</event>
<event>
 5   0  0.6109149E-04  0.1099771E+04  0.7818609E-02  0.9205415E-01
       -2   -1    0    0    0  501  0.00000000000E+00  0.00000000000E+00  0.83229425540E+03  0.83229425540E+03  0.25500000920E-02 0.  1.
        2   -1    0    0  501    0  0.00000000000E+00  0.00000000000E+00 -0.36330194068E+03  0.36330194069E+03  0.25500000920E-02 0. -1.
    10030    2    1    2    0    0  0.00000000000E+00  0.00000000000E+00  0.46899231471E+03  0.11955961961E+04  0.10997711002E+04 0.  0.
        1    1    3    3  502    0 -0.37340455366E+03 -0.54468984790E+02 -0.20032435971E+03  0.42723258316E+03  0.50400001928E-02 0. -1.
       -1    1    3    3    0  502  0.37340455366E+03  0.54468984790E+02  0.66931667442E+03  0.76836361293E+03  0.50400001928E-02 0.  1.
</event>
<event>
 5   0  0.3642161E-04  0.1098623E+04  0.7818609E-02  0.9206535E-01
        1   -1    0    0  501    0  0.00000000000E+00  0.00000000000E+00  0.15717486324E+04  0.15717486324E+04  0.50400001928E-02 0. -1.
       -1   -1    0    0    0  501  0.00000000000E+00  0.00000000000E+00 -0.19197920711E+03  0.19197920718E+03  0.50400001928E-02 0.  1.
    10030    2    1    2    0    0  0.00000000000E+00  0.00000000000E+00  0.13797694253E+04  0.17637278396E+04  0.10986228767E+04 0.  0.
        2    1    3    3  502    0  0.45565077236E+03 -0.13015294446E+03  0.24386794137E+03  0.53294370072E+03  0.25500000920E-02 0.  1.
       -2    1    3    3    0  502 -0.45565077236E+03  0.13015294446E+03  0.11359014840E+04  0.12307841389E+04  0.25500000920E-02 0. -1.
</event>
<event>
 5   0  0.6412712E-04  0.1099250E+04  0.7818609E-02  0.9205923E-01
       -2   -1    0    0    0  501  0.00000000000E+00  0.00000000000E+00  0.54774296733E+03  0.54774296733E+03  0.25500000920E-02 0.  1.
        2   -1    0    0  501    0  0.00000000000E+00  0.00000000000E+00 -0.55151328803E+03  0.55151328804E+03  0.25500000920E-02 0. -1.
    10030    2    1    2    0    0  0.00000000000E+00  0.00000000000E+00 -0.37703207040E+01  0.10992562554E+04  0.10992497895E+04 0.  0.
        2    1    3    3  502    0  0.45720373314E+03  0.13801203611E+03 -0.27392526733E+03  0.55056119351E+03  0.25500000920E-02 0. -1.
       -2    1    3    3    0  502 -0.45720373314E+03 -0.13801203611E+03  0.27015494663E+03  0.54869506186E+03  0.25500000920E-02 0.  1.
</event>
<event>
 5   0  0.3657529E-04  0.1100684E+04  0.7818609E-02  0.9204526E-01
        1   -1    0    0  501    0  0.00000000000E+00  0.00000000000E+00  0.99995231877E+03  0.99995231879E+03  0.50400001928E-02 0. -1.
       -1   -1    0    0    0  501  0.00000000000E+00  0.00000000000E+00 -0.30289061682E+03  0.30289061686E+03  0.50400001928E-02 0.  1.
    10030    2    1    2    0    0  0.00000000000E+00  0.00000000000E+00  0.69706170195E+03  0.13028429356E+04  0.11006837414E+04 0.  0.
        4    1    3    3  502    0 -0.81476909145E+02  0.48951038316E+03  0.66888605920E+02  0.50073406160E+03  0.12699999809E+01 0.  1.
       -4    1    3    3    0  502  0.81476909145E+02 -0.48951038316E+03  0.63017309603E+03  0.80210887404E+03  0.12699999809E+01 0. -1.
</event>
<event>
 5   0  0.6245176E-04  0.1099964E+04  0.7818609E-02  0.9205227E-01
        2   -1    0    0  501    0  0.00000000000E+00  0.00000000000E+00  0.97977816902E+03  0.97977816902E+03  0.25500000920E-02 0. -1.
       -2   -1    0    0    0  501  0.00000000000E+00  0.00000000000E+00 -0.30872326872E+03  0.30872326873E+03  0.25500000920E-02 0.  1.
    10030    2    1    2    0    0  0.00000000000E+00  0.00000000000E+00  0.67105490030E+03  0.12885014378E+04  0.10999642157E+04 0.  0.
        5    1    3    3  502    0  0.15595437631E+03 -0.16385864767E+03  0.92273440807E+03  0.95006962995E+03  0.46999998093E+01 0. -1.
       -5    1    3    3    0  502 -0.15595437631E+03  0.16385864767E+03 -0.25167950778E+03  0.33843180781E+03  0.46999998093E+01 0.  1.
</event>
<event>
 5   0  0.3657529E-04  0.1088302E+04  0.7818609E-02  0.9216669E-01
       -1   -1    0    0    0  501  0.00000000000E+00  0.00000000000E+00  0.65320208790E+03  0.65320208791E+03  0.50400001928E-02 0. -1.
        1   -1    0    0  501    0  0.00000000000E+00  0.00000000000E+00 -0.45330561741E+03  0.45330561744E+03  0.50400001928E-02 0.  1.
    10030    2    1    2    0    0  0.00000000000E+00  0.00000000000E+00  0.19989647048E+03  0.11065077054E+04  0.10883017519E+04 0.  0.
        4    1    3    3  502    0 -0.12102765062E+03  0.11400908791E+03  0.62674012742E+03  0.64842159477E+03  0.12699999809E+01 0. -1.
       -4    1    3    3    0  502  0.12102765062E+03 -0.11400908791E+03 -0.42684365694E+03  0.45808611059E+03  0.12699999809E+01 0.  1.
</event>
<event>
 5   0  0.6109149E-04  0.1087484E+04  0.7818609E-02  0.9217477E-01
        2   -1    0    0  501    0  0.00000000000E+00  0.00000000000E+00  0.14877690192E+04  0.14877690192E+04  0.25500000920E-02 0. -1.
       -2   -1    0    0    0  501  0.00000000000E+00  0.00000000000E+00 -0.19872397370E+03  0.19872397372E+03  0.25500000920E-02 0.  1.
    10030    2    1    2    0    0  0.00000000000E+00  0.00000000000E+00  0.12890450455E+04  0.16864929930E+04  0.10874840164E+04 0.  0.
        1    1    3    3  502    0 -0.24404818662E+03  0.42119428672E+02 -0.10618023839E+03  0.26945835803E+03  0.50400001928E-02 0.  1.
       -1    1    3    3    0  502  0.24404818662E+03 -0.42119428672E+02  0.13952252839E+04  0.14170346349E+04  0.50400001928E-02 0. -1.
</event>
<event>
 5   0  0.3642161E-04  0.1101292E+04  0.7818609E-02  0.9203934E-01
       -1   -1    0    0    0  501  0.00000000000E+00  0.00000000000E+00  0.37906649773E+03  0.37906649777E+03  0.50400001928E-02 0. -1.
        1   -1    0    0  501    0  0.00000000000E+00  0.00000000000E+00 -0.79988812955E+03  0.79988812956E+03  0.50400001928E-02 0.  1.
    10030    2    1    2    0    0  0.00000000000E+00  0.00000000000E+00 -0.42082163181E+03  0.11789546273E+04  0.11012915906E+04 0.  0.
        2    1    3    3  502    0  0.16936365507E+03  0.47874727208E+03  0.17506361908E+02  0.50812347997E+03  0.25500000920E-02 0. -1.
       -2    1    3    3    0  502 -0.16936365507E+03 -0.47874727208E+03 -0.43832799372E+03  0.67083114736E+03  0.25500000920E-02 0.  1.
</event>
<event>
 5   0  0.3642161E-04  0.1099955E+04  0.7818609E-02  0.9205236E-01
        1   -1    0    0  501    0  0.00000000000E+00  0.00000000000E+00  0.13855965818E+04  0.13855965818E+04  0.50400001928E-02 0. -1.
       -1   -1    0    0    0  501  0.00000000000E+00  0.00000000000E+00 -0.21829971812E+03  0.21829971818E+03  0.50400001928E-02 0.  1.
    10030    2    1    2    0    0  0.00000000000E+00  0.00000000000E+00  0.11672968637E+04  0.16038963000E+04  0.10999551687E+04 0.  0.
        2    1    3    3  502    0  0.16669500245E+03  0.51426334489E+03  0.73106796744E+03  0.90923835421E+03  0.25500000920E-02 0. -1.
       -2    1    3    3    0  502 -0.16669500245E+03 -0.51426334489E+03  0.43622889626E+03  0.69465794581E+03  0.25500000920E-02 0.  1.
</event>
<event>
 5   0  0.3621403E-04  0.1103122E+04  0.7818609E-02  0.9202154E-01
       -1   -1    0    0    0  501  0.00000000000E+00  0.00000000000E+00  0.44690694155E+03  0.44690694158E+03  0.50400001928E-02 0. -1.
        1   -1    0    0  501    0  0.00000000000E+00  0.00000000000E+00 -0.68072257975E+03  0.68072257977E+03  0.50400001928E-02 0.  1.
    10030    2    1    2    0    0  0.00000000000E+00  0.00000000000E+00 -0.23381563820E+03  0.11276295213E+04  0.11031221985E+04 0.  0.
        3    1    3    3  502    0 -0.10767109342E+03 -0.38927681179E+03 -0.50087237687E+03  0.64343037593E+03  0.10100000352E+00 0.  1.
       -3    1    3    3    0  502  0.10767109342E+03  0.38927681179E+03  0.26705673867E+03  0.48419914542E+03  0.10100000352E+00 0. -1.
</event>
<event>
 5   0  0.3523525E-04  0.1090240E+04  0.7818609E-02  0.9214757E-01
        1   -1    0    0  501    0  0.00000000000E+00  0.00000000000E+00  0.10099551527E+04  0.10099551527E+04  0.50400001928E-02 0.  1.
       -1   -1    0    0    0  501  0.00000000000E+00  0.00000000000E+00 -0.29422688361E+03  0.29422688365E+03  0.50400001928E-02 0. -1.
    10030    2    1    2    0    0  0.00000000000E+00  0.00000000000E+00  0.71572826908E+03  0.13041820363E+04  0.10902402619E+04 0.  0.
        5    1    3    3  502    0  0.40859982181E+02  0.29580864657E+03  0.90338020028E+03  0.95146737715E+03  0.46999998093E+01 0.  1.
       -5    1    3    3    0  502 -0.40859982181E+02 -0.29580864657E+03 -0.18765193120E+03  0.35271465920E+03  0.46999998093E+01 0. -1.
</event>
<event>
 5   0  0.3657529E-04  0.1096100E+04  0.7818609E-02  0.9209001E-01
        1   -1    0    0  501    0  0.00000000000E+00  0.00000000000E+00  0.65538025067E+03  0.65538025069E+03  0.50400001928E-02 0.  1.
       -1   -1    0    0    0  501  0.00000000000E+00  0.00000000000E+00 -0.45829732250E+03  0.45829732253E+03  0.50400001928E-02 0. -1.
    10030    2    1    2    0    0  0.00000000000E+00  0.00000000000E+00  0.19708292817E+03  0.11136775732E+04  0.10961003861E+04 0.  0.
        4    1    3    3  502    0 -0.38322013698E+03 -0.38242517090E+03  0.12024831827E+02  0.54152829493E+03  0.12699999809E+01 0.  1.
       -4    1    3    3    0  502  0.38322013698E+03  0.38242517090E+03  0.18505809634E+03  0.57214927829E+03  0.12699999809E+01 0. -1.
</event>
<event>
 5   0  0.6264830E-04  0.1101201E+04  0.7818609E-02  0.9204023E-01
       -2   -1    0    0    0  501  0.00000000000E+00  0.00000000000E+00  0.87041051378E+03  0.87041051379E+03  0.25500000920E-02 0.  1.
        2   -1    0    0  501    0  0.00000000000E+00  0.00000000000E+00 -0.34829617995E+03  0.34829617996E+03  0.25500000920E-02 0. -1.
    10030    2    1    2    0    0  0.00000000000E+00  0.00000000000E+00  0.52211433383E+03  0.12187066938E+04  0.11012005393E+04 0.  0.
        4    1    3    3  502    0  0.36610187171E+02  0.69347713212E+02  0.86419705156E+03  0.86774856263E+03  0.12699999809E+01 0.  1.
       -4    1    3    3    0  502 -0.36610187171E+02 -0.69347713212E+02 -0.34208271773E+03  0.35095813112E+03  0.12699999809E+01 0. -1.
</event>
<event>
 5   0  0.6109149E-04  0.1097975E+04  0.7818609E-02  0.9207168E-01
       -2   -1    0    0    0  501  0.00000000000E+00  0.00000000000E+00  0.34682004231E+03  0.34682004232E+03  0.25500000920E-02 0.  1.
        2   -1    0    0  501    0  0.00000000000E+00  0.00000000000E+00 -0.86900141931E+03  0.86900141931E+03  0.25500000920E-02 0. -1.
    10030    2    1    2    0    0  0.00000000000E+00  0.00000000000E+00 -0.52218137699E+03  0.12158214616E+04  0.10979746974E+04 0.  0.
        1    1    3    3  502    0  0.34590920567E+03 -0.38314577721E+03 -0.46805569950E+03  0.69679982995E+03  0.50400001928E-02 0. -1.
       -1    1    3    3    0  502 -0.34590920567E+03  0.38314577721E+03 -0.54125677496E+02  0.51902163168E+03  0.50400001928E-02 0.  1.
</event>
<event>
 5   0  0.6245176E-04  0.1095041E+04  0.7818609E-02  0.9210039E-01
        2   -1    0    0  501    0  0.00000000000E+00  0.00000000000E+00  0.37649619329E+03  0.37649619330E+03  0.25500000920E-02 0.  1.
       -2   -1    0    0    0  501  0.00000000000E+00  0.00000000000E+00 -0.79623264970E+03  0.79623264971E+03  0.25500000920E-02 0. -1.
    10030    2    1    2    0    0  0.00000000000E+00  0.00000000000E+00 -0.41973645641E+03  0.11727288430E+04  0.10950407510E+04 0.  0.
        5    1    3    3  502    0 -0.13975032607E+03 -0.34373490382E+03 -0.64101205310E+03  0.74067697410E+03  0.46999998093E+01 0. -1.
       -5    1    3    3    0  502  0.13975032607E+03  0.34373490382E+03  0.22127559669E+03  0.43205186891E+03  0.46999998093E+01 0.  1.
</event>
<event>
 5   0  0.6412712E-04  0.1084376E+04  0.7818609E-02  0.9220555E-01
        2   -1    0    0  501    0  0.00000000000E+00  0.00000000000E+00  0.11273271498E+04  0.11273271498E+04  0.25500000920E-02 0.  1.
       -2   -1    0    0    0  501  0.00000000000E+00  0.00000000000E+00 -0.26076538051E+03  0.26076538052E+03  0.25500000920E-02 0. -1.
    10030    2    1    2    0    0  0.00000000000E+00  0.00000000000E+00  0.86656176927E+03  0.13880925303E+04  0.10843761214E+04 0.  0.
        2    1    3    3  502    0 -0.34925208725E+03  0.39550886008E+03  0.59297676084E+03  0.79374159382E+03  0.25500000920E-02 0.  1.
       -2    1    3    3    0  502  0.34925208725E+03 -0.39550886008E+03  0.27358500843E+03  0.59435093648E+03  0.25500000920E-02 0. -1.
</event>
<event>
 5   0  0.3642161E-04  0.1100812E+04  0.7818609E-02  0.9204401E-01
        1   -1    0    0  501    0  0.00000000000E+00  0.00000000000E+00  0.24202828576E+03  0.24202828582E+03  0.50400001928E-02 0. -1.
       -1   -1    0    0    0  501  0.00000000000E+00  0.00000000000E+00 -0.12517001335E+04  0.12517001335E+04  0.50400001928E-02 0.  1.
    10030    2    1    2    0    0  0.00000000000E+00  0.00000000000E+00 -0.10096718478E+04  0.14937284194E+04  0.11008121323E+04 0.  0.
        2    1    3    3  502    0 -0.24847810060E+03 -0.33374475216E+03 -0.99374611608E+03  0.10773385119E+04  0.25500000920E-02 0.  1.
       -2    1    3    3    0  502  0.24847810060E+03  0.33374475216E+03 -0.15925731699E+02  0.41638990743E+03  0.25500000920E-02 0. -1.
</event>
<event>
 5   0  0.3423758E-04  0.1099203E+04  0.7818609E-02  0.9205969E-01
        1   -1    0    0  501    0  0.00000000000E+00  0.00000000000E+00  0.15201479700E+04  0.15201479700E+04  0.50400001928E-02 0. -1.
       -1   -1    0    0    0  501  0.00000000000E+00  0.00000000000E+00 -0.19870544836E+03  0.19870544842E+03  0.50400001928E-02 0.  1.
    10030    2    1    2    0    0  0.00000000000E+00  0.00000000000E+00  0.13214425216E+04  0.17188534184E+04  0.10992027729E+04 0.  0.
        1    1    3    3  502    0 -0.64658243616E+02  0.52735910648E+03  0.44083334897E+03  0.69037841597E+03  0.50400001928E-02 0.  1.
       -1    1    3    3    0  502  0.64658243616E+02 -0.52735910648E+03  0.88060917263E+03  0.10284750024E+04  0.50400001928E-02 0. -1.
</event>
<event>
 5   0  0.6245176E-04  0.1096998E+04  0.7818609E-02  0.9208123E-01
        2   -1    0    0  501    0  0.00000000000E+00  0.00000000000E+00  0.91120008304E+03  0.91120008305E+03  0.25500000920E-02 0.  1.
       -2   -1    0    0    0  501  0.00000000000E+00  0.00000000000E+00 -0.33017000060E+03  0.33017000061E+03  0.25500000920E-02 0. -1.
    10030    2    1    2    0    0  0.00000000000E+00  0.00000000000E+00  0.58103008244E+03  0.12413700837E+04  0.10969975970E+04 0.  0.
        5    1    3    3  502    0 -0.17583692593E+03 -0.17604362964E+03 -0.26260680741E+03  0.36179332409E+03  0.46999998093E+01 0. -1.
       -5    1    3    3    0  502  0.17583692593E+03  0.17604362964E+03  0.84363688985E+03  0.87957675957E+03  0.46999998093E+01 0.  1.
</event>
<event>
 5   0  0.6109149E-04  0.1097471E+04  0.7818609E-02  0.9207660E-01
        2   -1    0    0  501    0  0.00000000000E+00  0.00000000000E+00  0.11978535269E+04  0.11978535269E+04  0.25500000920E-02 0.  1.
       -2   -1    0    0    0  501  0.00000000000E+00  0.00000000000E+00 -0.25137524692E+03  0.25137524694E+03  0.25500000920E-02 0. -1.
    10030    2    1    2    0    0  0.00000000000E+00  0.00000000000E+00  0.94647827993E+03  0.14492287738E+04  0.10974711406E+04 0.  0.
        1    1    3    3  502    0 -0.66119054867E+02 -0.43936775070E+03  0.48010313597E+02  0.44690126428E+03  0.50400001928E-02 0. -1.
       -1    1    3    3    0  502  0.66119054867E+02  0.43936775070E+03  0.89846796633E+03  0.10023275095E+04  0.50400001928E-02 0.  1.
</event>
<event>
 5   0  0.3523525E-04  0.1102451E+04  0.7818609E-02  0.9202806E-01
       -1   -1    0    0    0  501  0.00000000000E+00  0.00000000000E+00  0.14895146522E+04  0.14895146522E+04  0.50400001928E-02 0. -1.
        1   -1    0    0  501    0  0.00000000000E+00  0.00000000000E+00 -0.20399248024E+03  0.20399248030E+03  0.50400001928E-02 0.  1.
    10030    2    1    2    0    0  0.00000000000E+00  0.00000000000E+00  0.12855221720E+04  0.16935071325E+04  0.11024514290E+04 0.  0.
        5    1    3    3  502    0  0.16172633982E+03  0.46605608612E+03  0.26503580525E+03  0.56002656407E+03  0.46999998093E+01 0. -1.
       -5    1    3    3    0  502 -0.16172633982E+03 -0.46605608612E+03  0.10204863667E+04  0.11334805685E+04  0.46999998093E+01 0.  1.
</event>
<event>
 5   0  0.3621403E-04  0.1102074E+04  0.7818609E-02  0.9203173E-01
       -1   -1    0    0    0  501  0.00000000000E+00  0.00000000000E+00  0.68880790401E+03  0.68880790403E+03  0.50400001928E-02 0.  1.
        1   -1    0    0  501    0  0.00000000000E+00  0.00000000000E+00 -0.44082226665E+03  0.44082226668E+03  0.50400001928E-02 0. -1.
    10030    2    1    2    0    0  0.00000000000E+00  0.00000000000E+00  0.24798563736E+03  0.11296301707E+04  0.11020741564E+04 0.  0.
        3    1    3    3  502    0  0.97517150863E+01  0.15777731828E+03  0.66506771325E+03  0.68359626354E+03  0.10100000352E+00 0.  1.
       -3    1    3    3    0  502 -0.97517150863E+01 -0.15777731828E+03 -0.41708207589E+03  0.44603390717E+03  0.10100000352E+00 0. -1.
</event>
<event>
 5   0  0.6245176E-04  0.1108798E+04  0.7818609E-02  0.9196659E-01
       -2   -1    0    0    0  501  0.00000000000E+00  0.00000000000E+00  0.23228921470E+03  0.23228921471E+03  0.25500000920E-02 0. -1.
        2   -1    0    0  501    0  0.00000000000E+00  0.00000000000E+00 -0.13231712060E+04  0.13231712060E+04  0.25500000920E-02 0.  1.
    10030    2    1    2    0    0  0.00000000000E+00  0.00000000000E+00 -0.10908819913E+04  0.15554604207E+04  0.11087982691E+04 0.  0.
        5    1    3    3  502    0  0.26090215496E+03 -0.42998179926E+03 -0.21830063667E+03  0.54829876904E+03  0.46999998093E+01 0. -1.
       -5    1    3    3    0  502 -0.26090215496E+03  0.42998179926E+03 -0.87258135464E+03  0.10071616517E+04  0.46999998093E+01 0.  1.
</event>
<event>
 5   0  0.3621403E-04  0.1099213E+04  0.7818609E-02  0.9205959E-01
       -1   -1    0    0    0  501  0.00000000000E+00  0.00000000000E+00  0.21185796591E+03  0.21185796597E+03  0.50400001928E-02 0. -1.
        1   -1    0    0  501    0  0.00000000000E+00  0.00000000000E+00 -0.14258016796E+04  0.14258016797E+04  0.50400001928E-02 0.  1.
    10030    2    1    2    0    0  0.00000000000E+00  0.00000000000E+00 -0.12139437137E+04  0.16376596456E+04  0.10992132527E+04 0.  0.
        3    1    3    3  502    0  0.45146828981E+03  0.19207754608E+03 -0.23795254700E+03  0.54528783705E+03  0.10100000352E+00 0. -1.
       -3    1    3    3    0  502 -0.45146828981E+03 -0.19207754608E+03 -0.97599116674E+03  0.10923718086E+04  0.10100000352E+00 0.  1.
</event>
<event>
 5   0  0.5948818E-04  0.1101020E+04  0.7818609E-02  0.9204198E-01
       -2   -1    0    0    0  501  0.00000000000E+00  0.00000000000E+00  0.29506719756E+03  0.29506719758E+03  0.25500000920E-02 0. -1.
        2   -1    0    0  501    0  0.00000000000E+00  0.00000000000E+00 -0.10270928609E+04  0.10270928609E+04  0.25500000920E-02 0.  1.
    10030    2    1    2    0    0  0.00000000000E+00  0.00000000000E+00 -0.73202566333E+03  0.13221600585E+04  0.11010202761E+04 0.  0.
        3    1    3    3  502    0  0.28601554550E+03 -0.41143595482E+03 -0.92237588318E+02  0.50950193335E+03  0.10100000352E+00 0. -1.
       -3    1    3    3    0  502 -0.28601554550E+03  0.41143595482E+03 -0.63978807501E+03  0.81265812512E+03  0.10100000352E+00 0.  1.
</event>
<event>
 5   0  0.3642161E-04  0.1102634E+04  0.7818609E-02  0.9202629E-01
       -1   -1    0    0    0  501  0.00000000000E+00  0.00000000000E+00  0.61634363109E+03  0.61634363111E+03  0.50400001928E-02 0. -1.
        1   -1    0    0  501    0  0.00000000000E+00  0.00000000000E+00 -0.49315075805E+03  0.49315075807E+03  0.50400001928E-02 0.  1.
    10030    2    1    2    0    0  0.00000000000E+00  0.00000000000E+00  0.12319287304E+03  0.11094943892E+04  0.11026338085E+04 0.  0.
        2    1    3    3  502    0  0.46421087001E+03  0.29719725464E+03  0.73174064760E+02  0.55603271825E+03  0.25500000920E-02 0.  1.
       -2    1    3    3    0  502 -0.46421087001E+03 -0.29719725464E+03  0.50018808282E+02  0.55346167093E+03  0.25500000920E-02 0. -1.
</event>
<event>
 5   0  0.6109149E-04  0.1103855E+04  0.7818609E-02  0.9201443E-01
       -2   -1    0    0    0  501  0.00000000000E+00  0.00000000000E+00  0.31605612130E+03  0.31605612131E+03  0.25500000920E-02 0. -1.
        2   -1    0    0  501    0  0.00000000000E+00  0.00000000000E+00 -0.96382874513E+03  0.96382874513E+03  0.25500000920E-02 0.  1.
    10030    2    1    2    0    0  0.00000000000E+00  0.00000000000E+00 -0.64777262383E+03  0.12798848664E+04  0.11038550173E+04 0.  0.
        1    1    3    3  502    0  0.22074143267E+03  0.15930053644E+03 -0.88057664034E+03  0.92169336579E+03  0.50400001928E-02 0.  1.
       -1    1    3    3    0  502 -0.22074143267E+03 -0.15930053644E+03  0.23280401651E+03  0.35819150065E+03  0.50400001928E-02 0. -1.
</event>
<event>
 5   0  0.3642161E-04  0.1100856E+04  0.7818609E-02  0.9204358E-01
        1   -1    0    0  501    0  0.00000000000E+00  0.00000000000E+00  0.24840955647E+03  0.24840955652E+03  0.50400001928E-02 0.  1.
       -1   -1    0    0    0  501  0.00000000000E+00  0.00000000000E+00 -0.12196430434E+04  0.12196430434E+04  0.50400001928E-02 0. -1.
    10030    2    1    2    0    0  0.00000000000E+00  0.00000000000E+00 -0.97123348690E+03  0.14680525999E+04  0.11008560078E+04 0.  0.
        2    1    3    3  502    0  0.53777510596E+03 -0.11733601789E+03 -0.48416702557E+03  0.73306719633E+03  0.25500000920E-02 0.  1.
       -2    1    3    3    0  502 -0.53777510596E+03  0.11733601789E+03 -0.48706646133E+03  0.73498540356E+03  0.25500000920E-02 0. -1.
</event>
<event>
 5   0  0.6264830E-04  0.1101506E+04  0.7818609E-02  0.9203725E-01
        2   -1    0    0  501    0  0.00000000000E+00  0.00000000000E+00  0.68084048540E+03  0.68084048541E+03  0.25500000920E-02 0. -1.
       -2   -1    0    0    0  501  0.00000000000E+00  0.00000000000E+00 -0.44552151624E+03  0.44552151624E+03  0.25500000920E-02 0.  1.
    10030    2    1    2    0    0  0.00000000000E+00  0.00000000000E+00  0.23531896917E+03  0.11263620017E+04  0.11015063965E+04 0.  0.
        4    1    3    3  502    0  0.19960330933E+03  0.17858156515E+03  0.60976156026E+03  0.66599071298E+03  0.12699999809E+01 0. -1.
       -4    1    3    3    0  502 -0.19960330933E+03 -0.17858156515E+03 -0.37444259110E+03  0.46037128867E+03  0.12699999809E+01 0.  1.
</event>
<event>
 5   0  0.3657529E-04  0.1100354E+04  0.7818609E-02  0.9204847E-01
       -1   -1    0    0    0  501  0.00000000000E+00  0.00000000000E+00  0.48523180529E+03  0.48523180532E+03  0.50400001928E-02 0.  1.
        1   -1    0    0  501    0  0.00000000000E+00  0.00000000000E+00 -0.62381458513E+03  0.62381458515E+03  0.50400001928E-02 0. -1.
    10030    2    1    2    0    0  0.00000000000E+00  0.00000000000E+00 -0.13858277984E+03  0.11090463905E+04  0.11003539019E+04 0.  0.
        4    1    3    3  502    0 -0.33819928196E+02  0.44296678212E+03 -0.39640059270E+03  0.59539768256E+03  0.12699999809E+01 0. -1.
       -4    1    3    3    0  502  0.33819928196E+02 -0.44296678212E+03  0.25781781286E+03  0.51364870791E+03  0.12699999809E+01 0.  1.
</event>
<event>
 5   0  0.2403875E-04  0.1102477E+04  0.7818609E-02  0.9202781E-01
       -4   -1    0    0    0  501  0.00000000000E+00  0.00000000000E+00  0.13038787181E+04  0.13038793366E+04  0.12699999809E+01 0.  1.
        4   -1    0    0  501    0  0.00000000000E+00  0.00000000000E+00 -0.23304382217E+03  0.23304728266E+03  0.12699999809E+01 0. -1.
    10030    2    1    2    0    0  0.00000000000E+00  0.00000000000E+00  0.10708348960E+04  0.15369266193E+04  0.11024772373E+04 0.  0.
        4    1    3    3  502    0  0.12717621813E+03  0.51231521686E+03  0.31402085347E+03  0.61420792993E+03  0.12699999809E+01 0. -1.
       -4    1    3    3    0  502 -0.12717621813E+03 -0.51231521686E+03  0.75681404249E+03  0.92271868936E+03  0.12699999809E+01 0.  1.
</event>
<event>
 5   0  0.3621403E-04  0.1101528E+04  0.7818609E-02  0.9203704E-01
       -1   -1    0    0    0  501  0.00000000000E+00  0.00000000000E+00  0.32157367076E+03  0.32157367079E+03  0.50400001928E-02 0. -1.
        1   -1    0    0  501    0  0.00000000000E+00  0.00000000000E+00 -0.94330114739E+03  0.94330114740E+03  0.50400001928E-02 0.  1.
    10030    2    1    2    0    0  0.00000000000E+00  0.00000000000E+00 -0.62172747663E+03  0.12648748182E+04  0.11015276894E+04 0.  0.
        3    1    3    3  502    0  0.25471134002E+03  0.12864262664E+03 -0.85179799894E+03  0.89832434751E+03  0.10100000352E+00 0.  1.
       -3    1    3    3    0  502 -0.25471134002E+03 -0.12864262664E+03  0.23007052231E+03  0.36655047069E+03  0.10100000352E+00 0. -1.
</event>
<event>
 5   0  0.3642161E-04  0.1102062E+04  0.7818609E-02  0.9203184E-01
        1   -1    0    0  501    0  0.00000000000E+00  0.00000000000E+00  0.10197572693E+04  0.10197572693E+04  0.50400001928E-02 0. -1.
       -1   -1    0    0    0  501  0.00000000000E+00  0.00000000000E+00 -0.29775263400E+03  0.29775263404E+03  0.50400001928E-02 0.  1.
    10030    2    1    2    0    0  0.00000000000E+00  0.00000000000E+00  0.72200463529E+03  0.13175099033E+04  0.11020624538E+04 0.  0.
        2    1    3    3  502    0 -0.18837522922E+03 -0.47367245845E+03  0.11084781977E+03  0.52166853847E+03  0.25500000920E-02 0.  1.
       -2    1    3    3    0  502  0.18837522922E+03  0.47367245845E+03  0.61115681552E+03  0.79584136487E+03  0.25500000920E-02 0. -1.
</event>
<event>
 5   0  0.3621403E-04  0.1099595E+04  0.7818609E-02  0.9205587E-01
       -1   -1    0    0    0  501  0.00000000000E+00  0.00000000000E+00  0.53082858310E+03  0.53082858312E+03  0.50400001928E-02 0.  1.
        1   -1    0    0  501    0  0.00000000000E+00  0.00000000000E+00 -0.56944424526E+03  0.56944424528E+03  0.50400001928E-02 0. -1.
    10030    2    1    2    0    0  0.00000000000E+00  0.00000000000E+00 -0.38615662157E+02  0.11002728284E+04  0.10995949834E+04 0.  0.
        3    1    3    3  502    0  0.19566298333E+02 -0.46192148738E+03  0.27840368148E+03  0.53968779919E+03  0.10100000352E+00 0.  1.
       -3    1    3    3    0  502 -0.19566298333E+02  0.46192148738E+03 -0.31701934364E+03  0.56058502921E+03  0.10100000352E+00 0. -1.
</event>
<event>
 5   0  0.3523525E-04  0.1097634E+04  0.7818609E-02  0.9207501E-01
        1   -1    0    0  501    0  0.00000000000E+00  0.00000000000E+00  0.47861824050E+03  0.47861824053E+03  0.50400001928E-02 0.  1.
       -1   -1    0    0    0  501  0.00000000000E+00  0.00000000000E+00 -0.62931178286E+03  0.62931178288E+03  0.50400001928E-02 0. -1.
    10030    2    1    2    0    0  0.00000000000E+00  0.00000000000E+00 -0.15069354236E+03  0.11079300234E+04  0.10976339978E+04 0.  0.
        5    1    3    3  502    0  0.39530092224E+03 -0.25502420490E+03  0.20993101021E+03  0.51516335589E+03  0.46999998093E+01 0.  1.
       -5    1    3    3    0  502 -0.39530092224E+03  0.25502420490E+03 -0.36062455257E+03  0.59276666752E+03  0.46999998093E+01 0. -1.
</event>
<event>
 5   0  0.3523525E-04  0.1099917E+04  0.7818609E-02  0.9205273E-01
       -1   -1    0    0    0  501  0.00000000000E+00  0.00000000000E+00  0.38623622554E+03  0.38623622558E+03  0.50400001928E-02 0. -1.
        1   -1    0    0  501    0  0.00000000000E+00  0.00000000000E+00 -0.78308074702E+03  0.78308074704E+03  0.50400001928E-02 0.  1.
    10030    2    1    2    0    0  0.00000000000E+00  0.00000000000E+00 -0.39684452148E+03  0.11693169726E+04  0.10999166369E+04 0.  0.
        5    1    3    3  502    0 -0.35917164784E+03 -0.23450520040E+03  0.16743585957E+03  0.46049301699E+03  0.46999998093E+01 0. -1.
       -5    1    3    3    0  502  0.35917164784E+03  0.23450520040E+03 -0.56428038105E+03  0.70882395562E+03  0.46999998093E+01 0.  1.
</event>
<event>
 5   0  0.3523525E-04  0.1106638E+04  0.7818609E-02  0.9198746E-01
       -1   -1    0    0    0  501  0.00000000000E+00  0.00000000000E+00  0.16567472899E+03  0.16567472907E+03  0.50400001928E-02 0.  1.
        1   -1    0    0  501    0  0.00000000000E+00  0.00000000000E+00 -0.18479714065E+04  0.18479714065E+04  0.50400001928E-02 0. -1.
    10030    2    1    2    0    0  0.00000000000E+00  0.00000000000E+00 -0.16822966775E+04  0.20136461356E+04  0.11066384451E+04 0.  0.
        5    1    3    3  502    0  0.19118354037E+03 -0.21532843031E+03  0.18550764313E+02  0.28858915410E+03  0.46999998093E+01 0.  1.
       -5    1    3    3    0  502 -0.19118354037E+03  0.21532843031E+03 -0.17008474418E+04  0.17250569815E+04  0.46999998093E+01 0. -1.
</event>
<event>
 5   0  0.6264830E-04  0.1100900E+04  0.7818609E-02  0.9204315E-01
        2   -1    0    0  501    0  0.00000000000E+00  0.00000000000E+00  0.15822251979E+04  0.15822251979E+04  0.25500000920E-02 0. -1.
       -2   -1    0    0    0  501  0.00000000000E+00  0.00000000000E+00 -0.19149947054E+03  0.19149947056E+03  0.25500000920E-02 0.  1.
    10030    2    1    2    0    0  0.00000000000E+00  0.00000000000E+00  0.13907257274E+04  0.17737246685E+04  0.11009001548E+04 0.  0.
        4    1    3    3  502    0  0.46097660346E+03  0.29912974657E+03  0.64401666555E+03  0.84660327937E+03  0.12699999809E+01 0.  1.
       -4    1    3    3    0  502 -0.46097660346E+03 -0.29912974657E+03  0.74670906181E+03  0.92712138909E+03  0.12699999809E+01 0. -1.
</event>
<event>
 5   0  0.3657529E-04  0.1097255E+04  0.7818609E-02  0.9207872E-01
       -1   -1    0    0    0  501  0.00000000000E+00  0.00000000000E+00  0.33582130127E+03  0.33582130130E+03  0.50400001928E-02 0.  1.
        1   -1    0    0  501    0  0.00000000000E+00  0.00000000000E+00 -0.89628601962E+03  0.89628601964E+03  0.50400001928E-02 0. -1.
    10030    2    1    2    0    0  0.00000000000E+00  0.00000000000E+00 -0.56046471836E+03  0.12321073209E+04  0.10972546422E+04 0.  0.
        4    1    3    3  502    0  0.18197441081E+02  0.13830322182E+03 -0.87603788734E+03  0.88707548776E+03  0.12699999809E+01 0. -1.
       -4    1    3    3    0  502 -0.18197441081E+02 -0.13830322182E+03  0.31557316898E+03  0.34503183318E+03  0.12699999809E+01 0.  1.
</event>
<event>
 5   0  0.5948818E-04  0.1104981E+04  0.7818609E-02  0.9200350E-01
        2   -1    0    0  501    0  0.00000000000E+00  0.00000000000E+00  0.15666032837E+04  0.15666032837E+04  0.25500000920E-02 0. -1.
       -2   -1    0    0    0  501  0.00000000000E+00  0.00000000000E+00 -0.19484565123E+03  0.19484565125E+03  0.25500000920E-02 0.  1.
    10030    2    1    2    0    0  0.00000000000E+00  0.00000000000E+00  0.13717576324E+04  0.17614489349E+04  0.11049811529E+04 0.  0.
        3    1    3    3  502    0 -0.49255086401E+03 -0.23135938950E+03  0.83804891995E+03  0.99922946473E+03  0.10100000352E+00 0.  1.
       -3    1    3    3    0  502  0.49255086401E+03  0.23135938950E+03  0.53370871249E+03  0.76221947019E+03  0.10100000352E+00 0. -1.
</event>
<event>
 5   0  0.6109149E-04  0.1100073E+04  0.7818609E-02  0.9205121E-01
        2   -1    0    0  501    0  0.00000000000E+00  0.00000000000E+00  0.10585340823E+04  0.10585340823E+04  0.25500000920E-02 0.  1.
       -2   -1    0    0    0  501  0.00000000000E+00  0.00000000000E+00 -0.28581051848E+03  0.28581051849E+03  0.25500000920E-02 0. -1.
    10030    2    1    2    0    0  0.00000000000E+00  0.00000000000E+00  0.77272356379E+03  0.13443446008E+04  0.11000730428E+04 0.  0.
        1    1    3    3  502    0 -0.93484950199E+02 -0.15659789562E+03  0.10205079766E+04  0.10366768383E+04  0.50400001928E-02 0.  1.
       -1    1    3    3    0  502  0.93484950199E+02  0.15659789562E+03 -0.24778441277E+03  0.30766776247E+03  0.50400001928E-02 0. -1.
</event>
<event>
 5   0  0.3657529E-04  0.1095647E+04  0.7818609E-02  0.9209445E-01
       -1   -1    0    0    0  501  0.00000000000E+00  0.00000000000E+00  0.49921781567E+03  0.49921781569E+03  0.50400001928E-02 0. -1.
        1   -1    0    0  501    0  0.00000000000E+00  0.00000000000E+00 -0.60116115712E+03  0.60116115714E+03  0.50400001928E-02 0.  1.
    10030    2    1    2    0    0  0.00000000000E+00  0.00000000000E+00 -0.10194334145E+03  0.11003789728E+04  0.10956465849E+04 0.  0.
        4    1    3    3  502    0  0.27722794299E+03  0.43196185503E+03  0.14132955973E+03  0.53237396060E+03  0.12699999809E+01 0.  1.
       -4    1    3    3    0  502 -0.27722794299E+03 -0.43196185503E+03 -0.24327290118E+03  0.56800501223E+03  0.12699999809E+01 0. -1.
</event>
<event>
 5   0  0.6109149E-04  0.1101881E+04  0.7818609E-02  0.9203361E-01
        2   -1    0    0  501    0  0.00000000000E+00  0.00000000000E+00  0.23765182008E+03  0.23765182010E+03  0.25500000920E-02 0. -1.
       -2   -1    0    0    0  501  0.00000000000E+00  0.00000000000E+00 -0.12772264311E+04  0.12772264311E+04  0.25500000920E-02 0.  1.
    10030    2    1    2    0    0  0.00000000000E+00  0.00000000000E+00 -0.10395746110E+04  0.15148782512E+04  0.11018805489E+04 0.  0.
        1    1    3    3  502    0 -0.34248328388E+03 -0.40286904362E+03 -0.73249213337E+03  0.90340632692E+03  0.50400001928E-02 0.  1.
       -1    1    3    3    0  502  0.34248328388E+03  0.40286904362E+03 -0.30708247760E+03  0.61147192423E+03  0.50400001928E-02 0. -1.
</event>
<event>
 5   0  0.5948818E-04  0.1117267E+04  0.7818609E-02  0.9188524E-01
        2   -1    0    0  501    0  0.00000000000E+00  0.00000000000E+00  0.11597675389E+04  0.11597675389E+04  0.25500000920E-02 0.  1.
       -2   -1    0    0    0  501  0.00000000000E+00  0.00000000000E+00 -0.26908114156E+03  0.26908114157E+03  0.25500000920E-02 0. -1.
    10030    2    1    2    0    0  0.00000000000E+00  0.00000000000E+00  0.89068639737E+03  0.14288486805E+04  0.11172673330E+04 0.  0.
        3    1    3    3  502    0  0.18981713698E+03 -0.38170648789E+03  0.90705391285E+03  0.10022360996E+04  0.10100000352E+00 0.  1.
       -3    1    3    3    0  502 -0.18981713698E+03  0.38170648789E+03 -0.16367515478E+02  0.42661258087E+03  0.10100000352E+00 0. -1.
</event>
<event>
 5   0  0.3642161E-04  0.1103102E+04  0.7818609E-02  0.9202173E-01
       -1   -1    0    0    0  501  0.00000000000E+00  0.00000000000E+00  0.15095476612E+03  0.15095476621E+03  0.50400001928E-02 0.  1.
        1   -1    0    0  501    0  0.00000000000E+00  0.00000000000E+00 -0.20152305708E+04  0.20152305708E+04  0.50400001928E-02 0. -1.
    10030    2    1    2    0    0  0.00000000000E+00  0.00000000000E+00 -0.18642758046E+04  0.21661853370E+04  0.11031022792E+04 0.  0.
        2    1    3    3  502    0  0.20932221639E+03 -0.32394747242E+03 -0.15789638406E+03  0.41676015076E+03  0.25500000920E-02 0.  1.
       -2    1    3    3    0  502 -0.20932221639E+03  0.32394747242E+03 -0.17063794206E+04  0.17494251862E+04  0.25500000920E-02 0. -1.
</event>
<event>
 5   0  0.5948818E-04  0.1099026E+04  0.7818609E-02  0.9206142E-01
       -2   -1    0    0    0  501  0.00000000000E+00  0.00000000000E+00  0.38442417649E+03  0.38442417650E+03  0.25500000920E-02 0.  1.
        2   -1    0    0  501    0  0.00000000000E+00  0.00000000000E+00 -0.78549811785E+03  0.78549811786E+03  0.25500000920E-02 0. -1.
    10030    2    1    2    0    0  0.00000000000E+00  0.00000000000E+00 -0.40107394136E+03  0.11699222944E+04  0.10990258725E+04 0.  0.
        3    1    3    3  502    0 -0.49926094312E+03  0.24870858186E+02 -0.44347917448E+03  0.66824683861E+03  0.10100000352E+00 0. -1.
       -3    1    3    3    0  502  0.49926094312E+03 -0.24870858186E+02  0.42405233124E+02  0.50167545575E+03  0.10100000352E+00 0.  1.
</event>
<event>
 5   0  0.3657529E-04  0.1103696E+04  0.7818609E-02  0.9201597E-01
       -1   -1    0    0    0  501  0.00000000000E+00  0.00000000000E+00  0.17266697586E+03  0.17266697594E+03  0.50400001928E-02 0.  1.
        1   -1    0    0  501    0  0.00000000000E+00  0.00000000000E+00 -0.17637193914E+04  0.17637193914E+04  0.50400001928E-02 0. -1.
    10030    2    1    2    0    0  0.00000000000E+00  0.00000000000E+00 -0.15910524155E+04  0.19363863673E+04  0.11036957799E+04 0.  0.
        4    1    3    3  502    0 -0.37718834359E+03  0.36755824038E+03 -0.10846890509E+04  0.12057869035E+04  0.12699999809E+01 0.  1.
       -4    1    3    3    0  502  0.37718834359E+03 -0.36755824038E+03 -0.50636336463E+03  0.73059946383E+03  0.12699999809E+01 0. -1.
</event>
<event>
 5   0  0.2403875E-04  0.1099695E+04  0.7818609E-02  0.9205489E-01
        4   -1    0    0  501    0  0.00000000000E+00  0.00000000000E+00  0.29719304477E+03  0.29719575832E+03  0.12699999809E+01 0.  1.
       -4   -1    0    0    0  501  0.00000000000E+00  0.00000000000E+00 -0.10172847080E+04  0.10172855007E+04  0.12699999809E+01 0. -1.
    10030    2    1    2    0    0  0.00000000000E+00  0.00000000000E+00 -0.72009166322E+03  0.13144812591E+04  0.10996949472E+04 0.  0.
        5    1    3    3  502    0  0.44156099404E+03 -0.26098617514E+03 -0.59676716510E+03  0.78691996697E+03  0.46999998093E+01 0. -1.
       -5    1    3    3    0  502 -0.44156099404E+03  0.26098617514E+03 -0.12332449812E+03  0.52756129209E+03  0.46999998093E+01 0.  1.
</event>
<event>
 5   0  0.3657529E-04  0.1101042E+04  0.7818609E-02  0.9204176E-01
        1   -1    0    0  501    0  0.00000000000E+00  0.00000000000E+00  0.95327239828E+03  0.95327239829E+03  0.50400001928E-02 0. -1.
       -1   -1    0    0    0  501  0.00000000000E+00  0.00000000000E+00 -0.31792973503E+03  0.31792973507E+03  0.50400001928E-02 0.  1.
    10030    2    1    2    0    0  0.00000000000E+00  0.00000000000E+00  0.63534266326E+03  0.12712021334E+04  0.11010424897E+04 0.  0.
        4    1    3    3  502    0 -0.37615941336E+03 -0.99811109886E+02 -0.13188073182E+03  0.41091641759E+03  0.12699999809E+01 0.  1.
       -4    1    3    3    0  502  0.37615941336E+03  0.99811109886E+02  0.76722339507E+03  0.86028571577E+03  0.12699999809E+01 0. -1.
</event>
<event>
 5   0  0.6109149E-04  0.1101926E+04  0.7818609E-02  0.9203317E-01
        2   -1    0    0  501    0  0.00000000000E+00  0.00000000000E+00  0.57518027327E+03  0.57518027328E+03  0.25500000920E-02 0. -1.
       -2   -1    0    0    0  501  0.00000000000E+00  0.00000000000E+00 -0.52776509622E+03  0.52776509623E+03  0.25500000920E-02 0.  1.
    10030    2    1    2    0    0  0.00000000000E+00  0.00000000000E+00  0.47415177052E+02  0.11029453695E+04  0.11019257185E+04 0.  0.
        1    1    3    3  502    0  0.12710347645E+03  0.52444274302E+03 -0.87591473433E+02  0.54668798292E+03  0.50400001928E-02 0.  1.
       -1    1    3    3    0  502 -0.12710347645E+03 -0.52444274302E+03  0.13500665049E+03  0.55625738658E+03  0.50400001928E-02 0. -1.
</event>
<event>
 5   0  0.3423758E-04  0.1100187E+04  0.7818609E-02  0.9205009E-01
       -1   -1    0    0    0  501  0.00000000000E+00  0.00000000000E+00  0.58405310586E+03  0.58405310588E+03  0.50400001928E-02 0.  1.
        1   -1    0    0  501    0  0.00000000000E+00  0.00000000000E+00 -0.51810859484E+03  0.51810859486E+03  0.50400001928E-02 0. -1.
    10030    2    1    2    0    0  0.00000000000E+00  0.00000000000E+00  0.65944511026E+02  0.11021617007E+04  0.11001871368E+04 0.  0.
        1    1    3    3  502    0 -0.36410355150E+02 -0.48142049173E+03  0.29709583662E+03  0.56688388580E+03  0.50400001928E-02 0.  1.
       -1    1    3    3    0  502  0.36410355150E+02  0.48142049173E+03 -0.23115132559E+03  0.53527781494E+03  0.50400001928E-02 0. -1.
</event>
<event>
 5   0  0.3642161E-04  0.1099691E+04  0.7818609E-02  0.9205493E-01
        1   -1    0    0  501    0  0.00000000000E+00  0.00000000000E+00  0.69693823243E+03  0.69693823245E+03  0.50400001928E-02 0. -1.
       -1   -1    0    0    0  501  0.00000000000E+00  0.00000000000E+00 -0.43379746704E+03  0.43379746707E+03  0.50400001928E-02 0.  1.
    10030    2    1    2    0    0  0.00000000000E+00  0.00000000000E+00  0.26314076539E+03  0.11307356995E+04  0.10996909383E+04 0.  0.
        2    1    3    3  502    0 -0.19724137399E+03  0.22512215360E+03 -0.34269459298E+03  0.45499860189E+03  0.25500000920E-02 0.  1.
       -2    1    3    3    0  502  0.19724137399E+03 -0.22512215360E+03  0.60583535838E+03  0.67573709763E+03  0.25500000920E-02 0. -1.
</event>
<event>
 5   0  0.6412712E-04  0.1099466E+04  0.7818609E-02  0.9205712E-01
       -2   -1    0    0    0  501  0.00000000000E+00  0.00000000000E+00  0.25677789185E+03  0.25677789186E+03  0.25500000920E-02 0.  1.
        2   -1    0    0  501    0  0.00000000000E+00  0.00000000000E+00 -0.11769184460E+04  0.11769184460E+04  0.25500000920E-02 0. -1.
    10030    2    1    2    0    0  0.00000000000E+00  0.00000000000E+00 -0.92014055414E+03  0.14336963379E+04  0.10994664842E+04 0.  0.
        2    1    3    3  502    0 -0.29217574257E+03 -0.15556005730E+03  0.11226378006E+03  0.34952646866E+03  0.25500000920E-02 0.  1.
       -2    1    3    3    0  502  0.29217574257E+03  0.15556005730E+03 -0.10324043342E+04  0.10841698692E+04  0.25500000920E-02 0. -1.
</event>
<event>
 5   0  0.6412712E-04  0.1100282E+04  0.7818609E-02  0.9204917E-01
       -2   -1    0    0    0  501  0.00000000000E+00  0.00000000000E+00  0.45264365988E+03  0.45264365989E+03  0.25500000920E-02 0.  1.
        2   -1    0    0  501    0  0.00000000000E+00  0.00000000000E+00 -0.66863881495E+03  0.66863881495E+03  0.25500000920E-02 0. -1.
    10030    2    1    2    0    0  0.00000000000E+00  0.00000000000E+00 -0.21599515507E+03  0.11212824748E+04  0.11002820008E+04 0.  0.
        2    1    3    3  502    0 -0.13006688016E+01  0.54399057876E+03 -0.24409632076E+02  0.54453950423E+03  0.25500000920E-02 0.  1.
       -2    1    3    3    0  502  0.13006688016E+01 -0.54399057876E+03 -0.19158552299E+03  0.57674297061E+03  0.25500000920E-02 0. -1.
</event>
<event>
 5   0  0.6245176E-04  0.1100228E+04  0.7818609E-02  0.9204969E-01
        2   -1    0    0  501    0  0.00000000000E+00  0.00000000000E+00  0.28392067255E+03  0.28392067256E+03  0.25500000920E-02 0.  1.
       -2   -1    0    0    0  501  0.00000000000E+00  0.00000000000E+00 -0.10658806867E+04  0.10658806867E+04  0.25500000920E-02 0. -1.
    10030    2    1    2    0    0  0.00000000000E+00  0.00000000000E+00 -0.78196001415E+03  0.13498013593E+04  0.11002282698E+04 0.  0.
        5    1    3    3  502    0 -0.37328686755E+03  0.28631275707E+03 -0.41201345814E+02  0.47226869602E+03  0.46999998093E+01 0. -1.
       -5    1    3    3    0  502  0.37328686755E+03 -0.28631275707E+03 -0.74075866833E+03  0.87753266324E+03  0.46999998093E+01 0.  1.
</event>
<event>
 5   0  0.6109149E-04  0.1099807E+04  0.7818609E-02  0.9205380E-01
        2   -1    0    0  501    0  0.00000000000E+00  0.00000000000E+00  0.58459535898E+03  0.58459535899E+03  0.25500000920E-02 0. -1.
       -2   -1    0    0    0  501  0.00000000000E+00  0.00000000000E+00 -0.51727001671E+03  0.51727001672E+03  0.25500000920E-02 0.  1.
    10030    2    1    2    0    0  0.00000000000E+00  0.00000000000E+00  0.67325342269E+02  0.11018653757E+04  0.10998066214E+04 0.  0.
        1    1    3    3  502    0 -0.49792383893E+03 -0.22157710918E+03 -0.39748542316E+02  0.54644717158E+03  0.50400001928E-02 0.  1.
       -1    1    3    3    0  502  0.49792383893E+03  0.22157710918E+03  0.10707388459E+03  0.55541820412E+03  0.50400001928E-02 0. -1.
</event>
<event>
 5   0  0.3621403E-04  0.1100272E+04  0.7818609E-02  0.9204926E-01
       -1   -1    0    0    0  501  0.00000000000E+00  0.00000000000E+00  0.34412948583E+03  0.34412948586E+03  0.50400001928E-02 0.  1.
        1   -1    0    0  501    0  0.00000000000E+00  0.00000000000E+00 -0.87946507830E+03  0.87946507831E+03  0.50400001928E-02 0. -1.
    10030    2    1    2    0    0  0.00000000000E+00  0.00000000000E+00 -0.53533559247E+03  0.12235945642E+04  0.11002724485E+04 0.  0.
        3    1    3    3  502    0  0.27766275972E+03 -0.45149525884E+03 -0.10382778145E+03  0.54011553884E+03  0.10100000352E+00 0.  1.
       -3    1    3    3    0  502 -0.27766275972E+03  0.45149525884E+03 -0.43150781102E+03  0.68347902533E+03  0.10100000352E+00 0. -1.
</event>
<event>
 5   0  0.6264830E-04  0.1096056E+04  0.7818609E-02  0.9209044E-01
       -2   -1    0    0    0  501  0.00000000000E+00  0.00000000000E+00  0.16990909929E+03  0.16990909931E+03  0.25500000920E-02 0. -1.
        2   -1    0    0  501    0  0.00000000000E+00  0.00000000000E+00 -0.17676202716E+04  0.17676202716E+04  0.25500000920E-02 0.  1.
    10030    2    1    2    0    0  0.00000000000E+00  0.00000000000E+00 -0.15977111723E+04  0.19375293709E+04  0.10960561450E+04 0.  0.
        4    1    3    3  502    0 -0.32252066732E+03 -0.40520748834E+03 -0.11156710791E+04  0.12300147394E+04  0.12699999809E+01 0. -1.
       -4    1    3    3    0  502  0.32252066732E+03  0.40520748834E+03 -0.48204009322E+03  0.70751463153E+03  0.12699999809E+01 0.  1.
</event>
<event>
 5   0  0.6245176E-04  0.1099191E+04  0.7818609E-02  0.9205981E-01
       -2   -1    0    0    0  501  0.00000000000E+00  0.00000000000E+00  0.37499768653E+03  0.37499768654E+03  0.25500000920E-02 0. -1.
        2   -1    0    0  501    0  0.00000000000E+00  0.00000000000E+00 -0.80548557944E+03  0.80548557944E+03  0.25500000920E-02 0.  1.
    10030    2    1    2    0    0  0.00000000000E+00  0.00000000000E+00 -0.43048789291E+03  0.11804832660E+04  0.10991910277E+04 0.  0.
        5    1    3    3  502    0 -0.63269828716E+01  0.43611552226E+03 -0.57433161470E+03  0.72119045550E+03  0.46999998093E+01 0.  1.
       -5    1    3    3    0  502  0.63269828716E+01 -0.43611552226E+03  0.14384372179E+03  0.45929281048E+03  0.46999998093E+01 0. -1.
</event>
<event>
 5   0  0.5948818E-04  0.1096386E+04  0.7818609E-02  0.9208721E-01
       -2   -1    0    0    0  501  0.00000000000E+00  0.00000000000E+00  0.38527356209E+03  0.38527356210E+03  0.25500000920E-02 0. -1.
        2   -1    0    0  501    0  0.00000000000E+00  0.00000000000E+00 -0.78000589277E+03  0.78000589278E+03  0.25500000920E-02 0.  1.
    10030    2    1    2    0    0  0.00000000000E+00  0.00000000000E+00 -0.39473233068E+03  0.11652794549E+04  0.10963861524E+04 0.  0.
        3    1    3    3  502    0 -0.18831130668E+03 -0.23669117339E+03 -0.68329503959E+03  0.74724559625E+03  0.10100000352E+00 0.  1.
       -3    1    3    3    0  502  0.18831130668E+03  0.23669117339E+03  0.28856270891E+03  0.41803385863E+03  0.10100000352E+00 0. -1.
</event>
<event>
 5   0  0.3423758E-04  0.1100189E+04  0.7818609E-02  0.9205007E-01
        1   -1    0    0  501    0  0.00000000000E+00  0.00000000000E+00  0.16448208508E+04  0.16448208508E+04  0.50400001928E-02 0.  1.
       -1   -1    0    0    0  501  0.00000000000E+00  0.00000000000E+00 -0.18397394670E+03  0.18397394677E+03  0.50400001928E-02 0. -1.
    10030    2    1    2    0    0  0.00000000000E+00  0.00000000000E+00  0.14608469041E+04  0.18287947976E+04  0.11001894084E+04 0.  0.
        1    1    3    3  502    0 -0.47868329832E+03 -0.15626999416E+03  0.10985524920E+04  0.12084600071E+04  0.50400001928E-02 0.  1.
       -1    1    3    3    0  502  0.47868329832E+03  0.15626999416E+03  0.36229441211E+03  0.62033479045E+03  0.50400001928E-02 0. -1.
</event>
<event>
 5   0  0.2403875E-04  0.1101351E+04  0.7818609E-02  0.9203876E-01
        4   -1    0    0  501    0  0.00000000000E+00  0.00000000000E+00  0.11673395844E+04  0.11673402752E+04  0.12699999809E+01 0. -1.
       -4   -1    0    0    0  501  0.00000000000E+00  0.00000000000E+00 -0.25977070448E+03  0.25977380893E+03  0.12699999809E+01 0.  1.
    10030    2    1    2    0    0  0.00000000000E+00  0.00000000000E+00  0.90756887991E+03  0.14271140842E+04  0.11013506878E+04 0.  0.
        1    1    3    3  502    0  0.34312362715E+03  0.42371079876E+03  0.35359190826E+03  0.64983990498E+03  0.50400001928E-02 0. -1.
       -1    1    3    3    0  502 -0.34312362715E+03 -0.42371079876E+03  0.55397697165E+03  0.77727417920E+03  0.50400001928E-02 0.  1.
</event>
<event>
 5   0  0.3642161E-04  0.1101470E+04  0.7818609E-02  0.9203761E-01
        1   -1    0    0  501    0  0.00000000000E+00  0.00000000000E+00  0.22629574362E+03  0.22629574368E+03  0.50400001928E-02 0.  1.
       -1   -1    0    0    0  501  0.00000000000E+00  0.00000000000E+00 -0.13403204563E+04  0.13403204563E+04  0.50400001928E-02 0. -1.
    10030    2    1    2    0    0  0.00000000000E+00  0.00000000000E+00 -0.11140247126E+04  0.15666162000E+04  0.11014695899E+04 0.  0.
        2    1    3    3  502    0  0.17903427435E+03 -0.49950347790E+03 -0.34724500824E+03  0.63414201216E+03  0.25500000920E-02 0.  1.
       -2    1    3    3    0  502 -0.17903427435E+03  0.49950347790E+03 -0.76677970440E+03  0.93247418780E+03  0.25500000920E-02 0. -1.
</event>
<event>
 5   0  0.6412712E-04  0.1109275E+04  0.7818609E-02  0.9196199E-01
       -2   -1    0    0    0  501  0.00000000000E+00  0.00000000000E+00  0.43871246777E+03  0.43871246778E+03  0.25500000920E-02 0. -1.
        2   -1    0    0  501    0  0.00000000000E+00  0.00000000000E+00 -0.70119449312E+03  0.70119449312E+03  0.25500000920E-02 0.  1.
    10030    2    1    2    0    0  0.00000000000E+00  0.00000000000E+00 -0.26248202535E+03  0.11399069609E+04  0.11092750181E+04 0.  0.
        2    1    3    3  502    0  0.19999438826E+03  0.12889288531E+03 -0.64608672445E+03  0.68850503755E+03  0.25500000920E-02 0.  1.
       -2    1    3    3    0  502 -0.19999438826E+03 -0.12889288531E+03  0.38360469910E+03  0.45140192335E+03  0.25500000920E-02 0. -1.
</event>
<event>
 5   0  0.6264830E-04  0.1100522E+04  0.7818609E-02  0.9204683E-01
        2   -1    0    0  501    0  0.00000000000E+00  0.00000000000E+00  0.12250021785E+04  0.12250021785E+04  0.25500000920E-02 0. -1.
       -2   -1    0    0    0  501  0.00000000000E+00  0.00000000000E+00 -0.24717273693E+03  0.24717273694E+03  0.25500000920E-02 0.  1.
    10030    2    1    2    0    0  0.00000000000E+00  0.00000000000E+00  0.97782944154E+03  0.14721749154E+04  0.11005219511E+04 0.  0.
        4    1    3    3  502    0 -0.24398314661E+03  0.49262371809E+03  0.52112052907E+03  0.75747879322E+03  0.12699999809E+01 0. -1.
       -4    1    3    3    0  502  0.24398314661E+03 -0.49262371809E+03  0.45670891246E+03  0.71469612219E+03  0.12699999809E+01 0.  1.
</event>
<event>
 5   0  0.6245176E-04  0.1100733E+04  0.7818609E-02  0.9204478E-01
       -2   -1    0    0    0  501  0.00000000000E+00  0.00000000000E+00  0.19530037163E+03  0.19530037165E+03  0.25500000920E-02 0. -1.
        2   -1    0    0  501    0  0.00000000000E+00  0.00000000000E+00 -0.15509608363E+04  0.15509608363E+04  0.25500000920E-02 0.  1.
    10030    2    1    2    0    0  0.00000000000E+00  0.00000000000E+00 -0.13556604647E+04  0.17462612080E+04  0.11007328972E+04 0.  0.
        5    1    3    3  502    0 -0.23417599569E+03 -0.46847676949E+03 -0.94599365248E+03  0.10813116854E+04  0.46999998093E+01 0.  1.
       -5    1    3    3    0  502  0.23417599569E+03  0.46847676949E+03 -0.40966681221E+03  0.66494952255E+03  0.46999998093E+01 0. -1.
</event>
<event>
 5   0  0.3657529E-04  0.1100884E+04  0.7818609E-02  0.9204330E-01
        1   -1    0    0  501    0  0.00000000000E+00  0.00000000000E+00  0.13959041002E+04  0.13959041002E+04  0.50400001928E-02 0. -1.
       -1   -1    0    0    0  501  0.00000000000E+00  0.00000000000E+00 -0.21705406505E+03  0.21705406510E+03  0.50400001928E-02 0.  1.
    10030    2    1    2    0    0  0.00000000000E+00  0.00000000000E+00  0.11788500352E+04  0.16129581653E+04  0.11008844797E+04 0.  0.
        4    1    3    3  502    0 -0.10469604349E+03  0.78959054375E+02 -0.19383201106E+03  0.23402618487E+03  0.12699999809E+01 0.  1.
       -4    1    3    3    0  502  0.10469604349E+03 -0.78959054375E+02  0.13726820462E+04  0.13789319805E+04  0.12699999809E+01 0. -1.
</event>
<event>
 5   0  0.3657529E-04  0.1100369E+04  0.7818609E-02  0.9204832E-01
        1   -1    0    0  501    0  0.00000000000E+00  0.00000000000E+00  0.40594256302E+03  0.40594256305E+03  0.50400001928E-02 0. -1.
       -1   -1    0    0    0  501  0.00000000000E+00  0.00000000000E+00 -0.74567913736E+03  0.74567913738E+03  0.50400001928E-02 0.  1.
    10030    2    1    2    0    0  0.00000000000E+00  0.00000000000E+00 -0.33973657434E+03  0.11516217004E+04  0.11003688477E+04 0.  0.
        4    1    3    3  502    0  0.27114118739E+03 -0.37126092286E+03  0.14644950500E+03  0.48249485671E+03  0.12699999809E+01 0. -1.
       -4    1    3    3    0  502 -0.27114118739E+03  0.37126092286E+03 -0.48618607934E+03  0.66912684372E+03  0.12699999809E+01 0.  1.
</event>
<event>
 5   0  0.6412712E-04  0.1096765E+04  0.7818609E-02  0.9208351E-01
       -2   -1    0    0    0  501  0.00000000000E+00  0.00000000000E+00  0.28897658191E+03  0.28897658192E+03  0.25500000920E-02 0. -1.
        2   -1    0    0  501    0  0.00000000000E+00  0.00000000000E+00 -0.10406497481E+04  0.10406497481E+04  0.25500000920E-02 0.  1.
    10030    2    1    2    0    0  0.00000000000E+00  0.00000000000E+00 -0.75167316619E+03  0.13296263300E+04  0.10967650745E+04 0.  0.
        2    1    3    3  502    0 -0.94788974452E+02  0.11860932862E+03  0.26298664220E+03  0.30366938683E+03  0.25500000920E-02 0. -1.
       -2    1    3    3    0  502  0.94788974452E+02 -0.11860932862E+03 -0.10146598084E+04  0.10259569432E+04  0.25500000920E-02 0.  1.
</event>
<event>
 5   0  0.6109149E-04  0.1100514E+04  0.7818609E-02  0.9204691E-01
        2   -1    0    0  501    0  0.00000000000E+00  0.00000000000E+00  0.16145719093E+04  0.16145719093E+04  0.25500000920E-02 0.  1.
       -2   -1    0    0    0  501  0.00000000000E+00  0.00000000000E+00 -0.18753124710E+03  0.18753124711E+03  0.25500000920E-02 0. -1.
    10030    2    1    2    0    0  0.00000000000E+00  0.00000000000E+00  0.14270406622E+04  0.18021031564E+04  0.11005138503E+04 0.  0.
        1    1    3    3  502    0 -0.84569183480E+02  0.45930663774E+03  0.23704088806E+03  0.52373935970E+03  0.50400001928E-02 0. -1.
       -1    1    3    3    0  502  0.84569183480E+02 -0.45930663774E+03  0.11899997741E+04  0.12783637967E+04  0.50400001928E-02 0.  1.
</event>
<event>
 5   0  0.6109149E-04  0.1103961E+04  0.7818609E-02  0.9201340E-01
        2   -1    0    0  501    0  0.00000000000E+00  0.00000000000E+00  0.69813720337E+03  0.69813720337E+03  0.25500000920E-02 0.  1.
       -2   -1    0    0    0  501  0.00000000000E+00  0.00000000000E+00 -0.43642168811E+03  0.43642168812E+03  0.25500000920E-02 0. -1.
    10030    2    1    2    0    0  0.00000000000E+00  0.00000000000E+00  0.26171551525E+03  0.11345588915E+04  0.11039605370E+04 0.  0.
        1    1    3    3  502    0 -0.34709783764E+03  0.30189490896E+03  0.44437840929E+03  0.63960113791E+03  0.50400001928E-02 0.  1.
       -1    1    3    3    0  502  0.34709783764E+03 -0.30189490896E+03 -0.18266289403E+03  0.49495775358E+03  0.50400001928E-02 0. -1.
</event>
<event>
 5   0  0.3642161E-04  0.1101207E+04  0.7818609E-02  0.9204016E-01
        1   -1    0    0  501    0  0.00000000000E+00  0.00000000000E+00  0.41163654368E+03  0.41163654371E+03  0.50400001928E-02 0.  1.
       -1   -1    0    0    0  501  0.00000000000E+00  0.00000000000E+00 -0.73648544866E+03  0.73648544868E+03  0.50400001928E-02 0. -1.
    10030    2    1    2    0    0  0.00000000000E+00  0.00000000000E+00 -0.32484890498E+03  0.11481219924E+04  0.11012072005E+04 0.  0.
        2    1    3    3  502    0 -0.25024928508E+03  0.39979765690E+03  0.13375823654E+03  0.49025925488E+03  0.25500000920E-02 0. -1.
       -2    1    3    3    0  502  0.25024928508E+03 -0.39979765690E+03 -0.45860714151E+03  0.65786273751E+03  0.25500000920E-02 0.  1.
</event>
<event>
 5   0  0.6245176E-04  0.1103070E+04  0.7818609E-02  0.9202205E-01
        2   -1    0    0  501    0  0.00000000000E+00  0.00000000000E+00  0.87982366773E+03  0.87982366774E+03  0.25500000920E-02 0.  1.
       -2   -1    0    0    0  501  0.00000000000E+00  0.00000000000E+00 -0.34574049704E+03  0.34574049705E+03  0.25500000920E-02 0. -1.
    10030    2    1    2    0    0  0.00000000000E+00  0.00000000000E+00  0.53408317069E+03  0.12255641648E+04  0.11030696663E+04 0.  0.
        5    1    3    3  502    0  0.60951504310E+02 -0.54154524786E+03  0.36120085780E+03  0.65381533404E+03  0.46999998093E+01 0.  1.
       -5    1    3    3    0  502 -0.60951504310E+02  0.54154524786E+03  0.17288231289E+03  0.57174883075E+03  0.46999998093E+01 0. -1.
</event>
<event>
 5   0  0.3657529E-04  0.1108345E+04  0.7818609E-02  0.9197096E-01
       -1   -1    0    0    0  501  0.00000000000E+00  0.00000000000E+00  0.12872253315E+04  0.12872253316E+04  0.50400001928E-02 0.  1.
        1   -1    0    0  501    0  0.00000000000E+00  0.00000000000E+00 -0.23858090735E+03  0.23858090740E+03  0.50400001928E-02 0. -1.
    10030    2    1    2    0    0  0.00000000000E+00  0.00000000000E+00  0.10486444242E+04  0.15258062390E+04  0.11083454112E+04 0.  0.
        4    1    3    3  502    0  0.39526526713E+03 -0.32870750202E+03  0.80920117296E+03  0.95869254952E+03  0.12699999809E+01 0.  1.
       -4    1    3    3    0  502 -0.39526526713E+03  0.32870750202E+03  0.23944325123E+03  0.56711368944E+03  0.12699999809E+01 0. -1.
</event>
<event>
 5   0  0.3423758E-04  0.1101260E+04  0.7818609E-02  0.9203964E-01
        1   -1    0    0  501    0  0.00000000000E+00  0.00000000000E+00  0.15809092804E+04  0.15809092804E+04  0.50400001928E-02 0.  1.
       -1   -1    0    0    0  501  0.00000000000E+00  0.00000000000E+00 -0.19178431189E+03  0.19178431195E+03  0.50400001928E-02 0. -1.
    10030    2    1    2    0    0  0.00000000000E+00  0.00000000000E+00  0.13891249685E+04  0.17726935923E+04  0.11012603662E+04 0.  0.
        1    1    3    3  502    0  0.13442907312E+03 -0.17452438983E+03  0.15068824987E+04  0.15229001291E+04  0.50400001928E-02 0.  1.
       -1    1    3    3    0  502 -0.13442907312E+03  0.17452438983E+03 -0.11775753018E+03  0.24979346325E+03  0.50400001928E-02 0. -1.
</event>
<event>
 5   0  0.3423758E-04  0.1104011E+04  0.7818609E-02  0.9201291E-01
        1   -1    0    0  501    0  0.00000000000E+00  0.00000000000E+00  0.13161267935E+04  0.13161267935E+04  0.50400001928E-02 0. -1.
       -1   -1    0    0    0  501  0.00000000000E+00  0.00000000000E+00 -0.23152023345E+03  0.23152023350E+03  0.50400001928E-02 0.  1.
    10030    2    1    2    0    0  0.00000000000E+00  0.00000000000E+00  0.10846065601E+04  0.15476470270E+04  0.11040108379E+04 0.  0.
        1    1    3    3  502    0 -0.12144921441E+03 -0.30826002923E+03  0.11612373811E+04  0.12075787397E+04  0.50400001928E-02 0. -1.
       -1    1    3    3    0  502  0.12144921441E+03  0.30826002923E+03 -0.76630821017E+02  0.34006828734E+03  0.50400001928E-02 0.  1.
</event>
<event>
 5   0  0.3642161E-04  0.1103612E+04  0.7818609E-02  0.9201678E-01
        1   -1    0    0  501    0  0.00000000000E+00  0.00000000000E+00  0.12095968362E+04  0.12095968362E+04  0.50400001928E-02 0. -1.
       -1   -1    0    0    0  501  0.00000000000E+00  0.00000000000E+00 -0.25172844387E+03  0.25172844392E+03  0.50400001928E-02 0.  1.
    10030    2    1    2    0    0  0.00000000000E+00  0.00000000000E+00  0.95786839230E+03  0.14613252801E+04  0.11036121227E+04 0.  0.
        2    1    3    3  502    0 -0.36335565362E+03 -0.41524064620E+03  0.47079278740E+03  0.72532611559E+03  0.25500000920E-02 0. -1.
       -2    1    3    3    0  502  0.36335565362E+03  0.41524064620E+03  0.48707560489E+03  0.73599916451E+03  0.25500000920E-02 0.  1.
</event>
<event>
 5   0  0.2403875E-04  0.1099492E+04  0.7818609E-02  0.9205688E-01
        3   -1    0    0  501    0  0.00000000000E+00  0.00000000000E+00  0.10627415944E+04  0.10627415992E+04  0.10100000352E+00 0. -1.
       -3   -1    0    0    0  501  0.00000000000E+00  0.00000000000E+00 -0.28437804979E+03  0.28437806773E+03  0.10100000352E+00 0.  1.
    10030    2    1    2    0    0  0.00000000000E+00  0.00000000000E+00  0.77836354460E+03  0.13471196669E+04  0.10994915140E+04 0.  0.
        3    1    3    3  502    0  0.94988212630E+02 -0.33990116609E+03  0.90561600165E+03  0.97195468819E+03  0.10100000352E+00 0. -1.
       -3    1    3    3    0  502 -0.94988212630E+02  0.33990116609E+03 -0.12725245705E+03  0.37516497874E+03  0.10100000352E+00 0.  1.
</event>
<event>
 5   0  0.3423758E-04  0.1101000E+04  0.7818609E-02  0.9204218E-01
       -1   -1    0    0    0  501  0.00000000000E+00  0.00000000000E+00  0.28311541413E+03  0.28311541418E+03  0.50400001928E-02 0.  1.
        1   -1    0    0  501    0  0.00000000000E+00  0.00000000000E+00 -0.10704116287E+04  0.10704116287E+04  0.50400001928E-02 0. -1.
    10030    2    1    2    0    0  0.00000000000E+00  0.00000000000E+00 -0.78729621459E+03  0.13535270429E+04  0.11009996033E+04 0.  0.
        1    1    3    3  502    0 -0.54700646049E+03  0.37591039965E+02 -0.45413568307E+03  0.71194688900E+03  0.50400001928E-02 0. -1.
       -1    1    3    3    0  502  0.54700646049E+03 -0.37591039965E+02 -0.33316053153E+03  0.64158015391E+03  0.50400001928E-02 0.  1.
</event>
<event>
 5   0  0.5948818E-04  0.1099330E+04  0.7818609E-02  0.9205845E-01
        2   -1    0    0  501    0  0.00000000000E+00  0.00000000000E+00  0.72190531129E+03  0.72190531129E+03  0.25500000920E-02 0.  1.
       -2   -1    0    0    0  501  0.00000000000E+00  0.00000000000E+00 -0.41851967120E+03  0.41851967120E+03  0.25500000920E-02 0. -1.
    10030    2    1    2    0    0  0.00000000000E+00  0.00000000000E+00  0.30338564009E+03  0.11404249825E+04  0.10993299296E+04 0.  0.
        3    1    3    3  502    0  0.54954886544E+03 -0.41445538014E+01  0.14079139758E+03  0.56731240130E+03  0.10100000352E+00 0.  1.
       -3    1    3    3    0  502 -0.54954886544E+03  0.41445538014E+01  0.16259424251E+03  0.57311258120E+03  0.10100000352E+00 0. -1.
</event>
<event>
 5   0  0.3423758E-04  0.1099879E+04  0.7818609E-02  0.9205310E-01
        1   -1    0    0  501    0  0.00000000000E+00  0.00000000000E+00  0.91415944439E+03  0.91415944440E+03  0.50400001928E-02 0.  1.
       -1   -1    0    0    0  501  0.00000000000E+00  0.00000000000E+00 -0.33083213777E+03  0.33083213780E+03  0.50400001928E-02 0. -1.
    10030    2    1    2    0    0  0.00000000000E+00  0.00000000000E+00  0.58332730662E+03  0.12449915822E+04  0.10998787629E+04 0.  0.
        1    1    3    3  502    0 -0.44907349664E+03  0.11430537864E+03  0.62687821536E+03  0.77955693948E+03  0.50400001928E-02 0.  1.
       -1    1    3    3    0  502  0.44907349664E+03 -0.11430537864E+03 -0.43550908739E+02  0.46543464273E+03  0.50400001928E-02 0. -1.
</event>
<event>
 5   0  0.6264830E-04  0.1104007E+04  0.7818609E-02  0.9201296E-01
       -2   -1    0    0    0  501  0.00000000000E+00  0.00000000000E+00  0.17902149343E+03  0.17902149345E+03  0.25500000920E-02 0. -1.
        2   -1    0    0  501    0  0.00000000000E+00  0.00000000000E+00 -0.17020726837E+04  0.17020726837E+04  0.25500000920E-02 0.  1.
    10030    2    1    2    0    0  0.00000000000E+00  0.00000000000E+00 -0.15230511903E+04  0.18810941772E+04  0.11040065105E+04 0.  0.
        4    1    3    3  502    0 -0.14198740136E+03  0.14350920453E+02 -0.16700939077E+04  0.16761806718E+04  0.12699999809E+01 0.  1.
       -4    1    3    3    0  502  0.14198740136E+03 -0.14350920453E+02  0.14704271738E+03  0.20491350540E+03  0.12699999809E+01 0. -1.
</event>
<event>
 5   0  0.5948818E-04  0.1106692E+04  0.7818609E-02  0.9198694E-01
       -2   -1    0    0    0  501  0.00000000000E+00  0.00000000000E+00  0.57046946082E+03  0.57046946082E+03  0.25500000920E-02 0.  1.
        2   -1    0    0  501    0  0.00000000000E+00  0.00000000000E+00 -0.53673664623E+03  0.53673664624E+03  0.25500000920E-02 0. -1.
    10030    2    1    2    0    0  0.00000000000E+00  0.00000000000E+00  0.33732814586E+02  0.11072061071E+04  0.11066921255E+04 0.  0.
        3    1    3    3  502    0 -0.24956258919E+03 -0.33843679758E+03  0.37671512354E+03  0.56456642336E+03  0.10100000352E+00 0.  1.
       -3    1    3    3    0  502  0.24956258919E+03  0.33843679758E+03 -0.34298230895E+03  0.54263968371E+03  0.10100000352E+00 0. -1.
</event>
<event>
 5   0  0.6412712E-04  0.1100033E+04  0.7818609E-02  0.9205160E-01
        2   -1    0    0  501    0  0.00000000000E+00  0.00000000000E+00  0.13395741431E+04  0.13395741431E+04  0.25500000920E-02 0.  1.
       -2   -1    0    0    0  501  0.00000000000E+00  0.00000000000E+00 -0.22583152610E+03  0.22583152611E+03  0.25500000920E-02 0. -1.
    10030    2    1    2    0    0  0.00000000000E+00  0.00000000000E+00  0.11137426170E+04  0.15654056693E+04  0.11000328596E+04 0.  0.
        2    1    3    3  502    0  0.20403526522E+03 -0.30016720971E+03 -0.31225832667E+02  0.36428806715E+03  0.25500000920E-02 0. -1.
       -2    1    3    3    0  502 -0.20403526522E+03  0.30016720971E+03  0.11449684497E+04  0.12011176021E+04  0.25500000920E-02 0.  1.
</event>
<event>
 5   0  0.3523525E-04  0.1099762E+04  0.7818609E-02  0.9205423E-01
       -1   -1    0    0    0  501  0.00000000000E+00  0.00000000000E+00  0.10290735519E+04  0.10290735519E+04  0.50400001928E-02 0.  1.
        1   -1    0    0  501    0  0.00000000000E+00  0.00000000000E+00 -0.29382679233E+03  0.29382679237E+03  0.50400001928E-02 0. -1.
    10030    2    1    2    0    0  0.00000000000E+00  0.00000000000E+00  0.73524675956E+03  0.13229003443E+04  0.10997624850E+04 0.  0.
        5    1    3    3  502    0 -0.52302429252E+03  0.50788283502E+02  0.17286768798E+03  0.55320808730E+03  0.46999998093E+01 0. -1.
       -5    1    3    3    0  502  0.52302429252E+03 -0.50788283502E+02  0.56237907158E+03  0.76969225698E+03  0.46999998093E+01 0.  1.
</event>
<event>
 5   0  0.3423758E-04  0.1101001E+04  0.7818609E-02  0.9204217E-01
        1   -1    0    0  501    0  0.00000000000E+00  0.00000000000E+00  0.26587493711E+03  0.26587493716E+03  0.50400001928E-02 0. -1.
       -1   -1    0    0    0  501  0.00000000000E+00  0.00000000000E+00 -0.11398249839E+04  0.11398249840E+04  0.50400001928E-02 0.  1.
    10030    2    1    2    0    0  0.00000000000E+00  0.00000000000E+00 -0.87395004683E+03  0.14056999211E+04  0.11010011734E+04 0.  0.
        1    1    3    3  502    0  0.17843089087E+03 -0.42445852420E+03 -0.82222329429E+03  0.94236604740E+03  0.50400001928E-02 0. -1.
       -1    1    3    3    0  502 -0.17843089087E+03  0.42445852420E+03 -0.51726752538E+02  0.46333387372E+03  0.50400001928E-02 0.  1.
</event>
<event>
 5   0  0.6109149E-04  0.1094504E+04  0.7818609E-02  0.9210565E-01
        2   -1    0    0  501    0  0.00000000000E+00  0.00000000000E+00  0.10613747448E+04  0.10613747448E+04  0.25500000920E-02 0.  1.
       -2   -1    0    0    0  501  0.00000000000E+00  0.00000000000E+00 -0.28216692193E+03  0.28216692194E+03  0.25500000920E-02 0. -1.
    10030    2    1    2    0    0  0.00000000000E+00  0.00000000000E+00  0.77920782291E+03  0.13435416668E+04  0.10945041704E+04 0.  0.
        1    1    3    3  502    0  0.35349915418E+03  0.38342806863E+03  0.59319009361E+03  0.78984379659E+03  0.50400001928E-02 0. -1.
       -1    1    3    3    0  502 -0.35349915418E+03 -0.38342806863E+03  0.18601772930E+03  0.55369787020E+03  0.50400001928E-02 0.  1.
</event>
<event>
 5   0  0.6264830E-04  0.1099906E+04  0.7818609E-02  0.9205284E-01
       -2   -1    0    0    0  501  0.00000000000E+00  0.00000000000E+00  0.69117564213E+03  0.69117564214E+03  0.25500000920E-02 0.  1.
        2   -1    0    0  501    0  0.00000000000E+00  0.00000000000E+00 -0.43758513875E+03  0.43758513876E+03  0.25500000920E-02 0. -1.
    10030    2    1    2    0    0  0.00000000000E+00  0.00000000000E+00  0.25359050338E+03  0.11287607809E+04  0.10999057946E+04 0.  0.
        4    1    3    3  502    0 -0.28055519214E+03 -0.27534820393E+03 -0.26789645565E+03  0.47570786528E+03  0.12699999809E+01 0. -1.
       -4    1    3    3    0  502  0.28055519214E+03  0.27534820393E+03  0.52148695903E+03  0.65305291561E+03  0.12699999809E+01 0.  1.
</event>
<event>
 5   0  0.6245176E-04  0.1114674E+04  0.7818609E-02  0.9191006E-01
        2   -1    0    0  501    0  0.00000000000E+00  0.00000000000E+00  0.36272766408E+03  0.36272766409E+03  0.25500000920E-02 0.  1.
       -2   -1    0    0    0  501  0.00000000000E+00  0.00000000000E+00 -0.85635796436E+03  0.85635796436E+03  0.25500000920E-02 0. -1.
    10030    2    1    2    0    0  0.00000000000E+00  0.00000000000E+00 -0.49363030028E+03  0.12190856284E+04  0.11146743453E+04 0.  0.
        5    1    3    3  502    0  0.43509236448E+02  0.29795734129E+03 -0.75971129327E+03  0.81722394116E+03  0.46999998093E+01 0. -1.
       -5    1    3    3    0  502 -0.43509236448E+02 -0.29795734129E+03  0.26608099299E+03  0.40186168729E+03  0.46999998093E+01 0.  1.
</event>
<event>
 5   0  0.5948818E-04  0.1099693E+04  0.7818609E-02  0.9205491E-01
        2   -1    0    0  501    0  0.00000000000E+00  0.00000000000E+00  0.28266958303E+03  0.28266958304E+03  0.25500000920E-02 0. -1.
       -2   -1    0    0    0  501  0.00000000000E+00  0.00000000000E+00 -0.10695562604E+04  0.10695562604E+04  0.25500000920E-02 0.  1.
    10030    2    1    2    0    0  0.00000000000E+00  0.00000000000E+00 -0.78688667741E+03  0.13522258435E+04  0.10996927247E+04 0.  0.
        3    1    3    3  502    0  0.26649486010E+03 -0.35732935030E+03 -0.78927892842E+03  0.90645739673E+03  0.10100000352E+00 0.  1.
       -3    1    3    3    0  502 -0.26649486010E+03  0.35732935030E+03  0.23922510079E+01  0.44576844674E+03  0.10100000352E+00 0. -1.
</event>
<event>
 5   0  0.6264830E-04  0.1100325E+04  0.7818609E-02  0.9204875E-01
       -2   -1    0    0    0  501  0.00000000000E+00  0.00000000000E+00  0.18004476698E+03  0.18004476699E+03  0.25500000920E-02 0. -1.
        2   -1    0    0  501    0  0.00000000000E+00  0.00000000000E+00 -0.16811313313E+04  0.16811313313E+04  0.25500000920E-02 0.  1.
    10030    2    1    2    0    0  0.00000000000E+00  0.00000000000E+00 -0.15010865643E+04  0.18611760983E+04  0.11003252225E+04 0.  0.
        4    1    3    3  502    0  0.36637571792E+03  0.25656839090E+03 -0.20869235365E+03  0.49357128894E+03  0.12699999809E+01 0. -1.
       -4    1    3    3    0  502 -0.36637571792E+03 -0.25656839090E+03 -0.12923942107E+04  0.13676048094E+04  0.12699999809E+01 0.  1.
</event>
<event>
 5   0  0.2403875E-04  0.1099537E+04  0.7818609E-02  0.9205643E-01
       -3   -1    0    0    0  501  0.00000000000E+00  0.00000000000E+00  0.10171551993E+04  0.10171552044E+04  0.10100000352E+00 0. -1.
        3   -1    0    0  501    0  0.00000000000E+00  0.00000000000E+00 -0.29714801196E+03  0.29714802913E+03  0.10100000352E+00 0.  1.
    10030    2    1    2    0    0  0.00000000000E+00  0.00000000000E+00  0.72000718738E+03  0.13143032335E+04  0.10995374662E+04 0.  0.
        5    1    3    3  502    0 -0.62277924116E+02 -0.19000227997E+02 -0.29249868467E+03  0.29969504338E+03  0.46999998093E+01 0.  1.
       -5    1    3    3    0  502  0.62277924116E+02  0.19000227997E+02  0.10125058721E+04  0.10146081901E+04  0.46999998093E+01 0. -1.
</event>
<event>
 5   0  0.3523525E-04  0.1107589E+04  0.7818609E-02  0.9197827E-01
       -1   -1    0    0    0  501  0.00000000000E+00  0.00000000000E+00  0.10193368005E+04  0.10193368005E+04  0.50400001928E-02 0. -1.
        1   -1    0    0  501    0  0.00000000000E+00  0.00000000000E+00 -0.30087021989E+03  0.30087021994E+03  0.50400001928E-02 0.  1.
    10030    2    1    2    0    0  0.00000000000E+00  0.00000000000E+00  0.71846658060E+03  0.13202070204E+04  0.11075885289E+04 0.  0.
        5    1    3    3  502    0 -0.19629299220E+03 -0.12586138345E+03 -0.23947741636E+03  0.33428064493E+03  0.46999998093E+01 0.  1.
       -5    1    3    3    0  502  0.19629299220E+03  0.12586138345E+03  0.95794399695E+03  0.98592637551E+03  0.46999998093E+01 0. -1.
</event>
<event>
 5   0  0.3642161E-04  0.1098564E+04  0.7818609E-02  0.9206593E-01
       -1   -1    0    0    0  501  0.00000000000E+00  0.00000000000E+00  0.17799117334E+03  0.17799117341E+03  0.50400001928E-02 0.  1.
        1   -1    0    0  501    0  0.00000000000E+00  0.00000000000E+00 -0.16950875436E+04  0.16950875436E+04  0.50400001928E-02 0. -1.
    10030    2    1    2    0    0  0.00000000000E+00  0.00000000000E+00 -0.15170963702E+04  0.18730787170E+04  0.10985638277E+04 0.  0.
        2    1    3    3  502    0  0.14610491442E+03 -0.34366021493E+03 -0.14453614169E+04  0.14928223655E+04  0.25500000920E-02 0. -1.
       -2    1    3    3    0  502 -0.14610491442E+03  0.34366021493E+03 -0.71734953329E+02  0.38025635153E+03  0.25500000920E-02 0.  1.
</event>
<event>
 5   0  0.2403875E-04  0.1103456E+04  0.7818609E-02  0.9201830E-01
        3   -1    0    0  501    0  0.00000000000E+00  0.00000000000E+00  0.59122796818E+03  0.59122797681E+03  0.10100000352E+00 0.  1.
       -3   -1    0    0    0  501  0.00000000000E+00  0.00000000000E+00 -0.51486722453E+03  0.51486723443E+03  0.10100000352E+00 0. -1.
    10030    2    1    2    0    0  0.00000000000E+00  0.00000000000E+00  0.76360743651E+02  0.11060952112E+04  0.11034562307E+04 0.  0.
        3    1    3    3  502    0  0.68189388366E+02 -0.36598420204E+03  0.44635154890E+03  0.58122624187E+03  0.10100000352E+00 0.  1.
       -3    1    3    3    0  502 -0.68189388366E+02  0.36598420204E+03 -0.36999080525E+03  0.52486896937E+03  0.10100000352E+00 0. -1.
</event>
<event>
 5   0  0.6264830E-04  0.1099686E+04  0.7818609E-02  0.9205498E-01
       -2   -1    0    0    0  501  0.00000000000E+00  0.00000000000E+00  0.65629648992E+03  0.65629648993E+03  0.25500000920E-02 0.  1.
        2   -1    0    0  501    0  0.00000000000E+00  0.00000000000E+00 -0.46065685858E+03  0.46065685859E+03  0.25500000920E-02 0. -1.
    10030    2    1    2    0    0  0.00000000000E+00  0.00000000000E+00  0.19563963134E+03  0.11169533485E+04  0.10996862814E+04 0.  0.
        4    1    3    3  502    0 -0.23187614153E+03  0.13264849961E+03 -0.39031309393E+03  0.47297789975E+03  0.12699999809E+01 0. -1.
       -4    1    3    3    0  502  0.23187614153E+03 -0.13264849961E+03  0.58595272527E+03  0.64397544876E+03  0.12699999809E+01 0.  1.
</event>
<event>
 5   0  0.5948818E-04  0.1095301E+04  0.7818609E-02  0.9209784E-01
        2   -1    0    0  501    0  0.00000000000E+00  0.00000000000E+00  0.99687629862E+03  0.99687629862E+03  0.25500000920E-02 0. -1.
       -2   -1    0    0    0  501  0.00000000000E+00  0.00000000000E+00 -0.30086067253E+03  0.30086067254E+03  0.25500000920E-02 0.  1.
    10030    2    1    2    0    0  0.00000000000E+00  0.00000000000E+00  0.69601562610E+03  0.12977369712E+04  0.10953006412E+04 0.  0.
        3    1    3    3  502    0 -0.43066807086E+03 -0.21608585391E+03  0.65640960660E+03  0.81427370420E+03  0.10100000352E+00 0.  1.
       -3    1    3    3    0  502  0.43066807086E+03  0.21608585391E+03  0.39606019492E+02  0.48346326696E+03  0.10100000352E+00 0. -1.
</event>
<event>
 5   0  0.3523525E-04  0.1101540E+04  0.7818609E-02  0.9203693E-01
        1   -1    0    0  501    0  0.00000000000E+00  0.00000000000E+00  0.75986231070E+03  0.75986231072E+03  0.50400001928E-02 0. -1.
       -1   -1    0    0    0  501  0.00000000000E+00  0.00000000000E+00 -0.39921355311E+03  0.39921355315E+03  0.50400001928E-02 0.  1.
    10030    2    1    2    0    0  0.00000000000E+00  0.00000000000E+00  0.36064875759E+03  0.11590758639E+04  0.11015395280E+04 0.  0.
        5    1    3    3  502    0  0.47319519017E+03 -0.26588520987E+03  0.27856375297E+03  0.61010530836E+03  0.46999998093E+01 0. -1.
       -5    1    3    3    0  502 -0.47319519017E+03  0.26588520987E+03  0.82085004620E+02  0.54897055550E+03  0.46999998093E+01 0.  1.
</event>
<event>
 5   0  0.6412712E-04  0.1097753E+04  0.7818609E-02  0.9207385E-01
        2   -1    0    0  501    0  0.00000000000E+00  0.00000000000E+00  0.25725922196E+03  0.25725922198E+03  0.25500000920E-02 0.  1.
       -2   -1    0    0    0  501  0.00000000000E+00  0.00000000000E+00 -0.11710574925E+04  0.11710574925E+04  0.25500000920E-02 0. -1.
    10030    2    1    2    0    0  0.00000000000E+00  0.00000000000E+00 -0.91379827051E+03  0.14283167144E+04  0.10977528673E+04 0.  0.
        2    1    3    3  502    0  0.48251841556E+03  0.41809422340E+02 -0.79291594949E+03  0.92913279574E+03  0.25500000920E-02 0. -1.
       -2    1    3    3    0  502 -0.48251841556E+03 -0.41809422340E+02 -0.12088232102E+03  0.49918391871E+03  0.25500000920E-02 0.  1.
</event>
<event>
 5   0  0.6264830E-04  0.1095007E+04  0.7818609E-02  0.9210072E-01
       -2   -1    0    0    0  501  0.00000000000E+00  0.00000000000E+00  0.31582639591E+03  0.31582639592E+03  0.25500000920E-02 0.  1.
        2   -1    0    0  501    0  0.00000000000E+00  0.00000000000E+00 -0.94912996000E+03  0.94912996000E+03  0.25500000920E-02 0. -1.
    10030    2    1    2    0    0  0.00000000000E+00  0.00000000000E+00 -0.63330356408E+03  0.12649563559E+04  0.10950073872E+04 0.  0.
        4    1    3    3  502    0  0.12412271120E+02  0.36576025484E+03 -0.78706796706E+03  0.86799321781E+03  0.12699999809E+01 0. -1.
       -4    1    3    3    0  502 -0.12412271120E+02 -0.36576025484E+03  0.15376440298E+03  0.39696313811E+03  0.12699999809E+01 0.  1.
</event>
<event>
 5   0  0.3423758E-04  0.1099732E+04  0.7818609E-02  0.9205453E-01
       -1   -1    0    0    0  501  0.00000000000E+00  0.00000000000E+00  0.15740891734E+03  0.15740891742E+03  0.50400001928E-02 0. -1.
        1   -1    0    0  501    0  0.00000000000E+00  0.00000000000E+00 -0.19208090770E+04  0.19208090770E+04  0.50400001928E-02 0.  1.
    10030    2    1    2    0    0  0.00000000000E+00  0.00000000000E+00 -0.17634001597E+04  0.20782179944E+04  0.10997317442E+04 0.  0.
        1    1    3    3  502    0 -0.38189501413E+03  0.64053691764E+02 -0.14395709742E+03  0.41312264907E+03  0.50400001928E-02 0. -1.
       -1    1    3    3    0  502  0.38189501413E+03 -0.64053691764E+02 -0.16194430623E+04  0.16650953454E+04  0.50400001928E-02 0.  1.
</event>
<event>
 5   0  0.6412712E-04  0.1092020E+04  0.7818609E-02  0.9213005E-01
        2   -1    0    0  501    0  0.00000000000E+00  0.00000000000E+00  0.10344918310E+04  0.10344918310E+04  0.25500000920E-02 0.  1.
       -2   -1    0    0    0  501  0.00000000000E+00  0.00000000000E+00 -0.28818682903E+03  0.28818682904E+03  0.25500000920E-02 0. -1.
    10030    2    1    2    0    0  0.00000000000E+00  0.00000000000E+00  0.74630500199E+03  0.13226786601E+04  0.10920200006E+04 0.  0.
        2    1    3    3  502    0  0.38104285925E+03  0.13664270156E+03 -0.70660849164E+02  0.41092316081E+03  0.25500000920E-02 0. -1.
       -2    1    3    3    0  502 -0.38104285925E+03 -0.13664270156E+03  0.81696585115E+03  0.91175549926E+03  0.25500000920E-02 0.  1.
</event>
<event>
 5   0  0.3523525E-04  0.1097161E+04  0.7818609E-02  0.9207964E-01
        1   -1    0    0  501    0  0.00000000000E+00  0.00000000000E+00  0.14188182519E+04  0.14188182519E+04  0.50400001928E-02 0. -1.
       -1   -1    0    0    0  501  0.00000000000E+00  0.00000000000E+00 -0.21210630695E+03  0.21210630701E+03  0.50400001928E-02 0.  1.
    10030    2    1    2    0    0  0.00000000000E+00  0.00000000000E+00  0.12067119449E+04  0.16309245589E+04  0.10971605164E+04 0.  0.
        5    1    3    3  502    0 -0.36435834858E+03 -0.16318006951E+03  0.44122346474E+02  0.40168845232E+03  0.46999998093E+01 0.  1.
       -5    1    3    3    0  502  0.36435834858E+03  0.16318006951E+03  0.11625895984E+04  0.12292361065E+04  0.46999998093E+01 0. -1.
</event>
<event>
 5   0  0.2403875E-04  0.1101816E+04  0.7818609E-02  0.9203424E-01
       -3   -1    0    0    0  501  0.00000000000E+00  0.00000000000E+00  0.32795560748E+03  0.32795562304E+03  0.10100000352E+00 0. -1.
        3   -1    0    0  501    0  0.00000000000E+00  0.00000000000E+00 -0.92542886215E+03  0.92542886766E+03  0.10100000352E+00 0.  1.
    10030    2    1    2    0    0  0.00000000000E+00  0.00000000000E+00 -0.59747325466E+03  0.12533844907E+04  0.11018159517E+04 0.  0.
        1    1    3    3  502    0 -0.38036780160E+03 -0.30231467205E+03 -0.33517712394E+01  0.48588585061E+03  0.50400001928E-02 0. -1.
       -1    1    3    3    0  502  0.38036780160E+03  0.30231467205E+03 -0.59412148342E+03  0.76749864008E+03  0.50400001928E-02 0.  1.
</event>
<event>
 5   0  0.3423758E-04  0.1099376E+04  0.7818609E-02  0.9205800E-01
        1   -1    0    0  501    0  0.00000000000E+00  0.00000000000E+00  0.48843581582E+03  0.48843581585E+03  0.50400001928E-02 0. -1.
       -1   -1    0    0    0  501  0.00000000000E+00  0.00000000000E+00 -0.61862139787E+03  0.61862139789E+03  0.50400001928E-02 0.  1.
    10030    2    1    2    0    0  0.00000000000E+00  0.00000000000E+00 -0.13018558205E+03  0.11070572137E+04  0.10993759087E+04 0.  0.
        1    1    3    3  502    0  0.32835035379E+03 -0.34682194014E+03 -0.33912914520E+03  0.58575420626E+03  0.50400001928E-02 0.  1.
       -1    1    3    3    0  502 -0.32835035379E+03  0.34682194014E+03  0.20894356316E+03  0.52130300748E+03  0.50400001928E-02 0. -1.
</event>
<event>
 5   0  0.6245176E-04  0.1099017E+04  0.7818609E-02  0.9206151E-01
        2   -1    0    0  501    0  0.00000000000E+00  0.00000000000E+00  0.29419185833E+03  0.29419185834E+03  0.25500000920E-02 0.  1.
       -2   -1    0    0    0  501  0.00000000000E+00  0.00000000000E+00 -0.10264029311E+04  0.10264029311E+04  0.25500000920E-02 0. -1.
    10030    2    1    2    0    0  0.00000000000E+00  0.00000000000E+00 -0.73221107273E+03  0.13205947894E+04  0.10990166253E+04 0.  0.
        5    1    3    3  502    0  0.31505664130E+03  0.31615032706E+03  0.19022039780E+02  0.44676128360E+03  0.46999998093E+01 0. -1.
       -5    1    3    3    0  502 -0.31505664130E+03 -0.31615032706E+03 -0.75123311251E+03  0.87383350580E+03  0.46999998093E+01 0.  1.
</event>
<event>
 5   0  0.3523525E-04  0.1099883E+04  0.7818609E-02  0.9205306E-01
       -1   -1    0    0    0  501  0.00000000000E+00  0.00000000000E+00  0.36136008976E+03  0.36136008980E+03  0.50400001928E-02 0. -1.
        1   -1    0    0  501    0  0.00000000000E+00  0.00000000000E+00 -0.83693733885E+03  0.83693733887E+03  0.50400001928E-02 0.  1.
    10030    2    1    2    0    0  0.00000000000E+00  0.00000000000E+00 -0.47557724909E+03  0.11982974287E+04  0.10998831791E+04 0.  0.
        5    1    3    3  502    0 -0.72585683181E+02  0.53741540023E+03 -0.33722193897E+03  0.63861155637E+03  0.46999998093E+01 0.  1.
       -5    1    3    3    0  502  0.72585683181E+02 -0.53741540023E+03 -0.13835531012E+03  0.55968587230E+03  0.46999998093E+01 0. -1.
</event>
<event>
 5   0  0.5948818E-04  0.1100998E+04  0.7818609E-02  0.9204220E-01
       -2   -1    0    0    0  501  0.00000000000E+00  0.00000000000E+00  0.23267740201E+03  0.23267740202E+03  0.25500000920E-02 0. -1.
        2   -1    0    0  501    0  0.00000000000E+00  0.00000000000E+00 -0.13024438656E+04  0.13024438656E+04  0.25500000920E-02 0.  1.
    10030    2    1    2    0    0  0.00000000000E+00  0.00000000000E+00 -0.10697664636E+04  0.15351212676E+04  0.11009981924E+04 0.  0.
        3    1    3    3  502    0  0.22666937179E+03 -0.53361979611E+02 -0.12303896088E+04  0.12522320490E+04  0.10100000352E+00 0.  1.
       -3    1    3    3    0  502 -0.22666937179E+03  0.53361979611E+02  0.16062314525E+03  0.28288921854E+03  0.10100000352E+00 0. -1.
</event>
<event>
 5   0  0.3423758E-04  0.1104408E+04  0.7818609E-02  0.9200906E-01
        1   -1    0    0  501    0  0.00000000000E+00  0.00000000000E+00  0.10060309874E+04  0.10060309874E+04  0.50400001928E-02 0.  1.
       -1   -1    0    0    0  501  0.00000000000E+00  0.00000000000E+00 -0.30310110201E+03  0.30310110205E+03  0.50400001928E-02 0. -1.
    10030    2    1    2    0    0  0.00000000000E+00  0.00000000000E+00  0.70292988540E+03  0.13091320895E+04  0.11044077163E+04 0.  0.
        1    1    3    3  502    0  0.32154393216E+03 -0.12912524956E+03 -0.15819640872E+03  0.38090672630E+03  0.50400001928E-02 0. -1.
       -1    1    3    3    0  502 -0.32154393216E+03  0.12912524956E+03  0.86112629412E+03  0.92822536317E+03  0.50400001928E-02 0.  1.
</event>
<event>
 5   0  0.3621403E-04  0.1102518E+04  0.7818609E-02  0.9202741E-01
        1   -1    0    0  501    0  0.00000000000E+00  0.00000000000E+00  0.59117037243E+03  0.59117037245E+03  0.50400001928E-02 0. -1.
       -1   -1    0    0    0  501  0.00000000000E+00  0.00000000000E+00 -0.51404202992E+03  0.51404202995E+03  0.50400001928E-02 0.  1.
    10030    2    1    2    0    0  0.00000000000E+00  0.00000000000E+00  0.77128342503E+02  0.11052124024E+04  0.11025178789E+04 0.  0.
        3    1    3    3  502    0 -0.30175220180E+03 -0.33726327683E+03  0.35411197309E+03  0.57462701718E+03  0.10100000352E+00 0. -1.
       -3    1    3    3    0  502  0.30175220180E+03  0.33726327683E+03 -0.27698363059E+03  0.53058538521E+03  0.10100000352E+00 0.  1.
</event>
<event>
 5   0  0.5948818E-04  0.1110104E+04  0.7818609E-02  0.9195399E-01
       -2   -1    0    0    0  501  0.00000000000E+00  0.00000000000E+00  0.16231505899E+03  0.16231505901E+03  0.25500000920E-02 0. -1.
        2   -1    0    0  501    0  0.00000000000E+00  0.00000000000E+00 -0.18980547445E+04  0.18980547445E+04  0.25500000920E-02 0.  1.
    10030    2    1    2    0    0  0.00000000000E+00  0.00000000000E+00 -0.17357396855E+04  0.20603698035E+04  0.11101042615E+04 0.  0.
        3    1    3    3  502    0 -0.11512844915E+03  0.53226590368E+03 -0.10670895304E+04  0.11980157045E+04  0.10100000352E+00 0.  1.
       -3    1    3    3    0  502  0.11512844915E+03 -0.53226590368E+03 -0.66865015506E+03  0.86235409902E+03  0.10100000352E+00 0. -1.
</event>
<event>
 5   0  0.6245176E-04  0.1094639E+04  0.7818609E-02  0.9210432E-01
        2   -1    0    0  501    0  0.00000000000E+00  0.00000000000E+00  0.11149648702E+04  0.11149648702E+04  0.25500000920E-02 0.  1.
       -2   -1    0    0    0  501  0.00000000000E+00  0.00000000000E+00 -0.26867112273E+03  0.26867112274E+03  0.25500000920E-02 0. -1.
    10030    2    1    2    0    0  0.00000000000E+00  0.00000000000E+00  0.84629374744E+03  0.13836359929E+04  0.10946394173E+04 0.  0.
        5    1    3    3  502    0 -0.50688484170E+03  0.36628710177E+02  0.16638503612E+03  0.53477095601E+03  0.46999998093E+01 0. -1.
       -5    1    3    3    0  502  0.50688484170E+03 -0.36628710177E+02  0.67990871132E+03  0.84886503691E+03  0.46999998093E+01 0.  1.
</event>
<event>
 5   0  0.6245176E-04  0.1099953E+04  0.7818609E-02  0.9205237E-01
        2   -1    0    0  501    0  0.00000000000E+00  0.00000000000E+00  0.33481954495E+03  0.33481954496E+03  0.25500000920E-02 0. -1.
       -2   -1    0    0    0  501  0.00000000000E+00  0.00000000000E+00 -0.90339496439E+03  0.90339496439E+03  0.25500000920E-02 0.  1.
    10030    2    1    2    0    0  0.00000000000E+00  0.00000000000E+00 -0.56857541944E+03  0.12382145094E+04  0.10999532552E+04 0.  0.
        5    1    3    3  502    0 -0.63401278683E+02 -0.37278996544E+03  0.16523092839E+03  0.41269290056E+03  0.46999998093E+01 0. -1.
       -5    1    3    3    0  502  0.63401278683E+02  0.37278996544E+03 -0.73380634783E+03  0.82552160880E+03  0.46999998093E+01 0.  1.
</event>
<event>
 5   0  0.3657529E-04  0.1099505E+04  0.7818609E-02  0.9205674E-01
        1   -1    0    0  501    0  0.00000000000E+00  0.00000000000E+00  0.82936017262E+03  0.82936017264E+03  0.50400001928E-02 0. -1.
       -1   -1    0    0    0  501  0.00000000000E+00  0.00000000000E+00 -0.36441113275E+03  0.36441113279E+03  0.50400001928E-02 0.  1.
    10030    2    1    2    0    0  0.00000000000E+00  0.00000000000E+00  0.46494903987E+03  0.11937713054E+04  0.10995054888E+04 0.  0.
        4    1    3    3  502    0  0.47170893849E+03 -0.59505552612E+00 -0.74073585223E+02  0.47749155560E+03  0.12699999809E+01 0.  1.
       -4    1    3    3    0  502 -0.47170893849E+03  0.59505552612E+00  0.53902262509E+03  0.71627974982E+03  0.12699999809E+01 0. -1.
</event>
<event>
 5   0  0.3523525E-04  0.1099190E+04  0.7818609E-02  0.9205982E-01
        1   -1    0    0  501    0  0.00000000000E+00  0.00000000000E+00  0.46473521640E+03  0.46473521642E+03  0.50400001928E-02 0.  1.
       -1   -1    0    0    0  501  0.00000000000E+00  0.00000000000E+00 -0.64994948775E+03  0.64994948777E+03  0.50400001928E-02 0. -1.
    10030    2    1    2    0    0  0.00000000000E+00  0.00000000000E+00 -0.18521427135E+03  0.11146847042E+04  0.10991895485E+04 0.  0.
        5    1    3    3  502    0 -0.13167636232E+03  0.38139900450E+03 -0.47100045702E+03  0.62021559601E+03  0.46999998093E+01 0. -1.
       -5    1    3    3    0  502  0.13167636232E+03 -0.38139900450E+03  0.28578618566E+03  0.49446910818E+03  0.46999998093E+01 0.  1.
</event>
<event>
 5   0  0.3657529E-04  0.1101345E+04  0.7818609E-02  0.9203882E-01
        1   -1    0    0  501    0  0.00000000000E+00  0.00000000000E+00  0.83969072717E+03  0.83969072719E+03  0.50400001928E-02 0.  1.
       -1   -1    0    0    0  501  0.00000000000E+00  0.00000000000E+00 -0.36113307187E+03  0.36113307191E+03  0.50400001928E-02 0. -1.
    10030    2    1    2    0    0  0.00000000000E+00  0.00000000000E+00  0.47855765530E+03  0.12008237991E+04  0.11013447993E+04 0.  0.
        4    1    3    3  502    0  0.51816115847E+03 -0.17947844417E+03  0.29417515841E+03  0.62228943008E+03  0.12699999809E+01 0.  1.
       -4    1    3    3    0  502 -0.51816115847E+03  0.17947844417E+03  0.18438249689E+03  0.57853436901E+03  0.12699999809E+01 0. -1.
</event>
<event>
 5   0  0.3423758E-04  0.1098853E+04  0.7818609E-02  0.9206311E-01
        1   -1    0    0  501    0  0.00000000000E+00  0.00000000000E+00  0.38368279807E+03  0.38368279811E+03  0.50400001928E-02 0. -1.
       -1   -1    0    0    0  501  0.00000000000E+00  0.00000000000E+00 -0.78676778545E+03  0.78676778546E+03  0.50400001928E-02 0.  1.
    10030    2    1    2    0    0  0.00000000000E+00  0.00000000000E+00 -0.40308498737E+03  0.11704505836E+04  0.10988526114E+04 0.  0.
        1    1    3    3  502    0 -0.28770541099E+00  0.33680625244E+03 -0.66391234070E+03  0.74445827997E+03  0.50400001928E-02 0.  1.
       -1    1    3    3    0  502  0.28770541099E+00 -0.33680625244E+03  0.26082735332E+03  0.42599230360E+03  0.50400001928E-02 0. -1.
</event>
<event>
 5   0  0.2403875E-04  0.1100084E+04  0.7818609E-02  0.9205110E-01
        3   -1    0    0  501    0  0.00000000000E+00  0.00000000000E+00  0.50643920607E+03  0.50643921614E+03  0.10100000352E+00 0.  1.
       -3   -1    0    0    0  501  0.00000000000E+00  0.00000000000E+00 -0.59739893146E+03  0.59739894000E+03  0.10100000352E+00 0. -1.
    10030    2    1    2    0    0  0.00000000000E+00  0.00000000000E+00 -0.90959725392E+02  0.11038381561E+04  0.11000840892E+04 0.  0.
        3    1    3    3  502    0 -0.36959653268E+03  0.16243354167E+03 -0.42033199081E+03  0.58280806886E+03  0.10100000352E+00 0. -1.
       -3    1    3    3    0  502  0.36959653268E+03 -0.16243354167E+03  0.32937226542E+03  0.52103008728E+03  0.10100000352E+00 0.  1.
</event>
<event>
 5   0  0.3657529E-04  0.1099442E+04  0.7818609E-02  0.9205736E-01
       -1   -1    0    0    0  501  0.00000000000E+00  0.00000000000E+00  0.27278413446E+03  0.27278413450E+03  0.50400001928E-02 0. -1.
        1   -1    0    0  501    0  0.00000000000E+00  0.00000000000E+00 -0.11078098392E+04  0.11078098392E+04  0.50400001928E-02 0.  1.
    10030    2    1    2    0    0  0.00000000000E+00  0.00000000000E+00 -0.83502570474E+03  0.13805939737E+04  0.10994415822E+04 0.  0.
        4    1    3    3  502    0  0.52964572828E+02 -0.10428880574E+03  0.25697510630E+03  0.28234592105E+03  0.12699999809E+01 0. -1.
       -4    1    3    3    0  502 -0.52964572828E+02  0.10428880574E+03 -0.10920008110E+04  0.10982480527E+04  0.12699999809E+01 0.  1.
</event>
<event>
 5   0  0.5948818E-04  0.1101163E+04  0.7818609E-02  0.9204059E-01
       -2   -1    0    0    0  501  0.00000000000E+00  0.00000000000E+00  0.31800735123E+03  0.31800735124E+03  0.25500000920E-02 0.  1.
        2   -1    0    0  501    0  0.00000000000E+00  0.00000000000E+00 -0.95324853883E+03  0.95324853883E+03  0.25500000920E-02 0. -1.
    10030    2    1    2    0    0  0.00000000000E+00  0.00000000000E+00 -0.63524118760E+03  0.12712558901E+04  0.11011630995E+04 0.  0.
        3    1    3    3  502    0  0.42207947659E+03 -0.33285230246E+03 -0.45518288290E+03  0.70436723865E+03  0.10100000352E+00 0.  1.
       -3    1    3    3    0  502 -0.42207947659E+03  0.33285230246E+03 -0.18005830471E+03  0.56688865141E+03  0.10100000352E+00 0. -1.
</event>
<event>
 5   0  0.6245176E-04  0.1099950E+04  0.7818609E-02  0.9205240E-01
        2   -1    0    0  501    0  0.00000000000E+00  0.00000000000E+00  0.10446851181E+04  0.10446851181E+04  0.25500000920E-02 0. -1.
       -2   -1    0    0    0  501  0.00000000000E+00  0.00000000000E+00 -0.28953486137E+03  0.28953486139E+03  0.25500000920E-02 0.  1.
    10030    2    1    2    0    0  0.00000000000E+00  0.00000000000E+00  0.75515025676E+03  0.13342199795E+04  0.10999504732E+04 0.  0.
        5    1    3    3  502    0 -0.51854833738E+03  0.75701767659E+02  0.17523050077E+03  0.55258569854E+03  0.46999998093E+01 0.  1.
       -5    1    3    3    0  502  0.51854833738E+03 -0.75701767659E+02  0.57991975599E+03  0.78163428098E+03  0.46999998093E+01 0. -1.
</event>
<event>
 5   0  0.6245176E-04  0.1101032E+04  0.7818609E-02  0.9204186E-01
        2   -1    0    0  501    0  0.00000000000E+00  0.00000000000E+00  0.45644744026E+03  0.45644744027E+03  0.25500000920E-02 0. -1.
       -2   -1    0    0    0  501  0.00000000000E+00  0.00000000000E+00 -0.66397131997E+03  0.66397131998E+03  0.25500000920E-02 0.  1.
    10030    2    1    2    0    0  0.00000000000E+00  0.00000000000E+00 -0.20752387971E+03  0.11204187602E+04  0.11010322600E+04 0.  0.
        5    1    3    3  502    0  0.18230091545E+03  0.37754304943E+03  0.25927380860E+03  0.49296792570E+03  0.46999998093E+01 0. -1.
       -5    1    3    3    0  502 -0.18230091545E+03 -0.37754304943E+03 -0.46679768831E+03  0.62745083454E+03  0.46999998093E+01 0.  1.
</event>
<event>
 5   0  0.3423758E-04  0.1096105E+04  0.7818609E-02  0.9208996E-01
       -1   -1    0    0    0  501  0.00000000000E+00  0.00000000000E+00  0.52841850354E+03  0.52841850357E+03  0.50400001928E-02 0. -1.
        1   -1    0    0  501    0  0.00000000000E+00  0.00000000000E+00 -0.56841606317E+03  0.56841606319E+03  0.50400001928E-02 0.  1.
    10030    2    1    2    0    0  0.00000000000E+00  0.00000000000E+00 -0.39997559628E+02  0.10968345668E+04  0.10961050415E+04 0.  0.
        1    1    3    3  502    0 -0.15142678359E+02  0.24641835662E+03  0.46962255226E+03  0.53056257765E+03  0.50400001928E-02 0. -1.
       -1    1    3    3    0  502  0.15142678359E+02 -0.24641835662E+03 -0.50962011189E+03  0.56627198911E+03  0.50400001928E-02 0.  1.
</event>
<event>
 5   0  0.6109149E-04  0.1099215E+04  0.7818609E-02  0.9205957E-01
        2   -1    0    0  501    0  0.00000000000E+00  0.00000000000E+00  0.10175395744E+04  0.10175395744E+04  0.25500000920E-02 0. -1.
       -2   -1    0    0    0  501  0.00000000000E+00  0.00000000000E+00 -0.29686161815E+03  0.29686161816E+03  0.25500000920E-02 0.  1.
    10030    2    1    2    0    0  0.00000000000E+00  0.00000000000E+00  0.72067795620E+03  0.13144011925E+04  0.10992150737E+04 0.  0.
        1    1    3    3  502    0 -0.31976250518E+03 -0.14793937620E+03  0.86473904755E+03  0.93376000082E+03  0.50400001928E-02 0. -1.
       -1    1    3    3    0  502  0.31976250518E+03  0.14793937620E+03 -0.14406109134E+03  0.38064119169E+03  0.50400001928E-02 0.  1.
</event>
<event>
 5   0  0.6109149E-04  0.1100036E+04  0.7818609E-02  0.9205157E-01
       -2   -1    0    0    0  501  0.00000000000E+00  0.00000000000E+00  0.21560868017E+03  0.21560868019E+03  0.25500000920E-02 0. -1.
        2   -1    0    0  501    0  0.00000000000E+00  0.00000000000E+00 -0.14030953757E+04  0.14030953757E+04  0.25500000920E-02 0.  1.
    10030    2    1    2    0    0  0.00000000000E+00  0.00000000000E+00 -0.11874866956E+04  0.16187040559E+04  0.11000355306E+04 0.  0.
        1    1    3    3  502    0  0.26350919161E+03  0.46751873270E+03 -0.41649804596E+03  0.67932428324E+03  0.50400001928E-02 0. -1.
       -1    1    3    3    0  502 -0.26350919161E+03 -0.46751873270E+03 -0.77098864960E+03  0.93937977269E+03  0.50400001928E-02 0.  1.
</event>
<event>
 5   0  0.3423758E-04  0.1098258E+04  0.7818609E-02  0.9206892E-01
       -1   -1    0    0    0  501  0.00000000000E+00  0.00000000000E+00  0.29004814489E+03  0.29004814493E+03  0.50400001928E-02 0. -1.
        1   -1    0    0  501    0  0.00000000000E+00  0.00000000000E+00 -0.10396292304E+04  0.10396292304E+04  0.50400001928E-02 0.  1.
    10030    2    1    2    0    0  0.00000000000E+00  0.00000000000E+00 -0.74958108547E+03  0.13296773753E+04  0.10982577651E+04 0.  0.
        1    1    3    3  502    0 -0.53988090027E+03 -0.98806563352E+02 -0.35352857031E+03  0.65285264302E+03  0.50400001928E-02 0. -1.
       -1    1    3    3    0  502  0.53988090027E+03  0.98806563352E+02 -0.39605251516E+03  0.67682473228E+03  0.50400001928E-02 0.  1.
</event>
<event>
 5   0  0.6264830E-04  0.1099292E+04  0.7818609E-02  0.9205882E-01
        2   -1    0    0  501    0  0.00000000000E+00  0.00000000000E+00  0.10826842421E+04  0.10826842421E+04  0.25500000920E-02 0. -1.
       -2   -1    0    0    0  501  0.00000000000E+00  0.00000000000E+00 -0.27903885975E+03  0.27903885976E+03  0.25500000920E-02 0.  1.
    10030    2    1    2    0    0  0.00000000000E+00  0.00000000000E+00  0.80364538238E+03  0.13617231019E+04  0.10992924568E+04 0.  0.
        4    1    3    3  502    0  0.33210870522E+03  0.25024735300E+03 -0.43412060561E+02  0.41809825361E+03  0.12699999809E+01 0.  1.
       -4    1    3    3    0  502 -0.33210870522E+03 -0.25024735300E+03  0.84705744294E+03  0.94362484829E+03  0.12699999809E+01 0. -1.
</event>
<event>
 5   0  0.3642161E-04  0.1090101E+04  0.7818609E-02  0.9214894E-01
       -1   -1    0    0    0  501  0.00000000000E+00  0.00000000000E+00  0.11234170674E+04  0.11234170674E+04  0.50400001928E-02 0. -1.
        1   -1    0    0  501    0  0.00000000000E+00  0.00000000000E+00 -0.26444311269E+03  0.26444311274E+03  0.50400001928E-02 0.  1.
    10030    2    1    2    0    0  0.00000000000E+00  0.00000000000E+00  0.85897395472E+03  0.13878601802E+04  0.10901007407E+04 0.  0.
        2    1    3    3  502    0 -0.50293292330E+03 -0.19505591061E+03  0.52885434670E+03  0.75543050880E+03  0.25500000920E-02 0. -1.
       -2    1    3    3    0  502  0.50293292330E+03  0.19505591061E+03  0.33011960802E+03  0.63242967135E+03  0.25500000920E-02 0.  1.
</event>
<event>
 5   0  0.6412712E-04  0.1103647E+04  0.7818609E-02  0.9201645E-01
        2   -1    0    0  501    0  0.00000000000E+00  0.00000000000E+00  0.41607188709E+03  0.41607188710E+03  0.25500000920E-02 0.  1.
       -2   -1    0    0    0  501  0.00000000000E+00  0.00000000000E+00 -0.73186629414E+03  0.73186629414E+03  0.25500000920E-02 0. -1.
    10030    2    1    2    0    0  0.00000000000E+00  0.00000000000E+00 -0.31579440704E+03  0.11479381812E+04  0.11036466647E+04 0.  0.
        2    1    3    3  502    0 -0.30462691874E+03  0.37024138653E+03  0.12625639284E+03  0.49579927456E+03  0.25500000920E-02 0.  1.
       -2    1    3    3    0  502  0.30462691874E+03 -0.37024138653E+03 -0.44205079988E+03  0.65213890668E+03  0.25500000920E-02 0. -1.
</event>
<event>
 5   0  0.3423758E-04  0.1098974E+04  0.7818609E-02  0.9206193E-01
        1   -1    0    0  501    0  0.00000000000E+00  0.00000000000E+00  0.64749358866E+03  0.64749358868E+03  0.50400001928E-02 0.  1.
       -1   -1    0    0    0  501  0.00000000000E+00  0.00000000000E+00 -0.46631484533E+03  0.46631484535E+03  0.50400001928E-02 0. -1.
    10030    2    1    2    0    0  0.00000000000E+00  0.00000000000E+00  0.18117874333E+03  0.11138084340E+04  0.10989738353E+04 0.  0.
        1    1    3    3  502    0  0.50906838718E+03 -0.66930495256E+02 -0.10777060545E+03  0.52463779643E+03  0.50400001928E-02 0. -1.
       -1    1    3    3    0  502 -0.50906838718E+03  0.66930495256E+02  0.28894934878E+03  0.58917063760E+03  0.50400001928E-02 0.  1.
</event>
<event>
 5   0  0.6412712E-04  0.1102002E+04  0.7818609E-02  0.9203242E-01
        2   -1    0    0  501    0  0.00000000000E+00  0.00000000000E+00  0.18129945307E+04  0.18129945307E+04  0.25500000920E-02 0. -1.
       -2   -1    0    0    0  501  0.00000000000E+00  0.00000000000E+00 -0.16745904837E+03  0.16745904839E+03  0.25500000920E-02 0.  1.
    10030    2    1    2    0    0  0.00000000000E+00  0.00000000000E+00  0.16455354824E+04  0.19804535791E+04  0.11020024298E+04 0.  0.
        2    1    3    3  502    0 -0.28690619655E+03  0.46618317123E+03  0.70967025273E+03  0.89625542251E+03  0.25500000920E-02 0.  1.
       -2    1    3    3    0  502  0.28690619655E+03 -0.46618317123E+03  0.93586522964E+03  0.10841981566E+04  0.25500000920E-02 0. -1.
</event>
<event>
 5   0  0.6245176E-04  0.1096887E+04  0.7818609E-02  0.9208231E-01
       -2   -1    0    0    0  501  0.00000000000E+00  0.00000000000E+00  0.35082648496E+03  0.35082648497E+03  0.25500000920E-02 0.  1.
        2   -1    0    0  501    0  0.00000000000E+00  0.00000000000E+00 -0.85737637154E+03  0.85737637154E+03  0.25500000920E-02 0. -1.
    10030    2    1    2    0    0  0.00000000000E+00  0.00000000000E+00 -0.50654988658E+03  0.12082028565E+04  0.10968871204E+04 0.  0.
        5    1    3    3  502    0 -0.84353600137E+02 -0.51000295456E+03 -0.51520886819E+02  0.51951423011E+03  0.46999998093E+01 0.  1.
       -5    1    3    3    0  502  0.84353600137E+02  0.51000295456E+03 -0.45502899976E+03  0.68868862640E+03  0.46999998093E+01 0. -1.
</event>
<event>
 5   0  0.6245176E-04  0.1098482E+04  0.7818609E-02  0.9206673E-01
       -2   -1    0    0    0  501  0.00000000000E+00  0.00000000000E+00  0.28418874939E+03  0.28418874941E+03  0.25500000920E-02 0. -1.
        2   -1    0    0  501    0  0.00000000000E+00  0.00000000000E+00 -0.10614975107E+04  0.10614975107E+04  0.25500000920E-02 0.  1.
    10030    2    1    2    0    0  0.00000000000E+00  0.00000000000E+00 -0.77730876130E+03  0.13456862601E+04  0.10984819526E+04 0.  0.
        5    1    3    3  502    0  0.49385275139E+03 -0.77103764314E+02 -0.66749075646E+03  0.83390738723E+03  0.46999998093E+01 0.  1.
       -5    1    3    3    0  502 -0.49385275139E+03  0.77103764314E+02 -0.10981800484E+03  0.51177887287E+03  0.46999998093E+01 0. -1.
</event>
<event>
 5   0  0.6245176E-04  0.1095873E+04  0.7818609E-02  0.9209224E-01
        2   -1    0    0  501    0  0.00000000000E+00  0.00000000000E+00  0.24539158527E+03  0.24539158529E+03  0.25500000920E-02 0.  1.
       -2   -1    0    0    0  501  0.00000000000E+00  0.00000000000E+00 -0.12234909978E+04  0.12234909978E+04  0.25500000920E-02 0. -1.
    10030    2    1    2    0    0  0.00000000000E+00  0.00000000000E+00 -0.97809941257E+03  0.14688825831E+04  0.10958729772E+04 0.  0.
        5    1    3    3  502    0 -0.43814457063E+03 -0.10399586972E+03 -0.70675006633E+02  0.45585398128E+03  0.46999998093E+01 0.  1.
       -5    1    3    3    0  502  0.43814457063E+03  0.10399586972E+03 -0.90742440594E+03  0.10130286019E+04  0.46999998093E+01 0. -1.
</event>
<event>
 5   0  0.3423758E-04  0.1105331E+04  0.7818609E-02  0.9200011E-01
        1   -1    0    0  501    0  0.00000000000E+00  0.00000000000E+00  0.16060451492E+04  0.16060451492E+04  0.50400001928E-02 0. -1.
       -1   -1    0    0    0  501  0.00000000000E+00  0.00000000000E+00 -0.19018098746E+03  0.19018098753E+03  0.50400001928E-02 0.  1.
    10030    2    1    2    0    0  0.00000000000E+00  0.00000000000E+00  0.14158641618E+04  0.17962261368E+04  0.11053311765E+04 0.  0.
        1    1    3    3  502    0  0.35666565091E+01 -0.95152250922E+02  0.15926149191E+04  0.15954588532E+04  0.50400001928E-02 0. -1.
       -1    1    3    3    0  502 -0.35666565091E+01  0.95152250922E+02 -0.17675075731E+03  0.20076728352E+03  0.50400001928E-02 0.  1.
</event>
<event>
 5   0  0.3423758E-04  0.1095731E+04  0.7818609E-02  0.9209362E-01
        1   -1    0    0  501    0  0.00000000000E+00  0.00000000000E+00  0.12277061371E+04  0.12277061371E+04  0.50400001928E-02 0.  1.
       -1   -1    0    0    0  501  0.00000000000E+00  0.00000000000E+00 -0.24448583144E+03  0.24448583149E+03  0.50400001928E-02 0. -1.
    10030    2    1    2    0    0  0.00000000000E+00  0.00000000000E+00  0.98322030564E+03  0.14721919686E+04  0.10957312731E+04 0.  0.
        1    1    3    3  502    0  0.53606081229E+03 -0.50869942363E+02  0.35586426562E+03  0.64543653528E+03  0.50400001928E-02 0.  1.
       -1    1    3    3    0  502 -0.53606081229E+03  0.50869942363E+02  0.62735604002E+03  0.82675543329E+03  0.50400001928E-02 0. -1.
</event>
<event>
 5   0  0.3621403E-04  0.1099147E+04  0.7818609E-02  0.9206024E-01
       -1   -1    0    0    0  501  0.00000000000E+00  0.00000000000E+00  0.46288455867E+03  0.46288455870E+03  0.50400001928E-02 0.  1.
        1   -1    0    0  501    0  0.00000000000E+00  0.00000000000E+00 -0.65249720113E+03  0.65249720115E+03  0.50400001928E-02 0. -1.
    10030    2    1    2    0    0  0.00000000000E+00  0.00000000000E+00 -0.18961264245E+03  0.11153817598E+04  0.10991467218E+04 0.  0.
        3    1    3    3  502    0 -0.34290783883E+03  0.30716574894E+03  0.20978427565E+03  0.50591109472E+03  0.10100000352E+00 0.  1.
       -3    1    3    3    0  502  0.34290783883E+03 -0.30716574894E+03 -0.39939691811E+03  0.60947066512E+03  0.10100000352E+00 0. -1.
</event>
<event>
 5   0  0.6109149E-04  0.1103276E+04  0.7818609E-02  0.9202005E-01
       -2   -1    0    0    0  501  0.00000000000E+00  0.00000000000E+00  0.28996711924E+03  0.28996711925E+03  0.25500000920E-02 0.  1.
        2   -1    0    0  501    0  0.00000000000E+00  0.00000000000E+00 -0.10494443662E+04  0.10494443662E+04  0.25500000920E-02 0. -1.
    10030    2    1    2    0    0  0.00000000000E+00  0.00000000000E+00 -0.75947724692E+03  0.13394114854E+04  0.11032757763E+04 0.  0.
        1    1    3    3  502    0 -0.66236202282E+02 -0.39661609557E+03  0.78729542957E+02  0.40974370369E+03  0.50400001928E-02 0.  1.
       -1    1    3    3    0  502  0.66236202282E+02  0.39661609557E+03 -0.83820678988E+03  0.92966778173E+03  0.50400001928E-02 0. -1.
</event>
<event>
 5   0  0.3523525E-04  0.1099491E+04  0.7818609E-02  0.9205688E-01
        1   -1    0    0  501    0  0.00000000000E+00  0.00000000000E+00  0.24534040952E+03  0.24534040957E+03  0.50400001928E-02 0. -1.
       -1   -1    0    0    0  501  0.00000000000E+00  0.00000000000E+00 -0.12318397439E+04  0.12318397439E+04  0.50400001928E-02 0.  1.
    10030    2    1    2    0    0  0.00000000000E+00  0.00000000000E+00 -0.98649933437E+03  0.14771801535E+04  0.10994909136E+04 0.  0.
        5    1    3    3  502    0  0.15150237683E+03 -0.51199938428E+03 -0.31755415479E+03  0.62125604295E+03  0.46999998093E+01 0.  1.
       -5    1    3    3    0  502 -0.15150237683E+03  0.51199938428E+03 -0.66894517959E+03  0.85592411052E+03  0.46999998093E+01 0. -1.
</event>
<event>
 5   0  0.6109149E-04  0.1109893E+04  0.7818609E-02  0.9195602E-01
       -2   -1    0    0    0  501  0.00000000000E+00  0.00000000000E+00  0.49393367663E+03  0.49393367664E+03  0.25500000920E-02 0.  1.
        2   -1    0    0  501    0  0.00000000000E+00  0.00000000000E+00 -0.62349627367E+03  0.62349627368E+03  0.25500000920E-02 0. -1.
    10030    2    1    2    0    0  0.00000000000E+00  0.00000000000E+00 -0.12956259704E+03  0.11174299503E+04  0.11098933405E+04 0.  0.
        1    1    3    3  502    0  0.32249073454E+03 -0.45131201790E+03 -0.81717997798E+02  0.56067873382E+03  0.50400001928E-02 0. -1.
       -1    1    3    3    0  502 -0.32249073454E+03  0.45131201790E+03 -0.47844599244E+02  0.55675121649E+03  0.50400001928E-02 0.  1.
</event>
<event>
 5   0  0.5948818E-04  0.1099008E+04  0.7818609E-02  0.9206160E-01
       -2   -1    0    0    0  501  0.00000000000E+00  0.00000000000E+00  0.13696894111E+04  0.13696894111E+04  0.25500000920E-02 0.  1.
        2   -1    0    0  501    0  0.00000000000E+00  0.00000000000E+00 -0.22045466346E+03  0.22045466347E+03  0.25500000920E-02 0. -1.
    10030    2    1    2    0    0  0.00000000000E+00  0.00000000000E+00  0.11492347477E+04  0.15901440746E+04  0.10990075854E+04 0.  0.
        3    1    3    3  502    0 -0.47463805636E+02 -0.12116784454E+03  0.13470727747E+04  0.13533438328E+04  0.10100000352E+00 0.  1.
       -3    1    3    3    0  502  0.47463805636E+02  0.12116784454E+03 -0.19783802698E+03  0.23680024179E+03  0.10100000352E+00 0. -1.
</event>
<event>
 5   0  0.6412712E-04  0.1103345E+04  0.7818609E-02  0.9201938E-01
        2   -1    0    0  501    0  0.00000000000E+00  0.00000000000E+00  0.24656073200E+04  0.24656073200E+04  0.25500000920E-02 0. -1.
       -2   -1    0    0    0  501  0.00000000000E+00  0.00000000000E+00 -0.12343508837E+03  0.12343508839E+03  0.25500000920E-02 0.  1.
    10030    2    1    2    0    0  0.00000000000E+00  0.00000000000E+00  0.23421722317E+04  0.25890424084E+04  0.11033448372E+04 0.  0.
        2    1    3    3  502    0 -0.17323227314E+03  0.52338831555E+03  0.11242899641E+04  0.12521871556E+04  0.25500000920E-02 0.  1.
       -2    1    3    3    0  502  0.17323227314E+03 -0.52338831555E+03  0.12178822676E+04  0.13368552528E+04  0.25500000920E-02 0. -1.
</event>
<event>
 5   0  0.3642161E-04  0.1098959E+04  0.7818609E-02  0.9206207E-01
       -1   -1    0    0    0  501  0.00000000000E+00  0.00000000000E+00  0.54923223017E+03  0.54923223019E+03  0.50400001928E-02 0. -1.
        1   -1    0    0  501    0  0.00000000000E+00  0.00000000000E+00 -0.54972685550E+03  0.54972685552E+03  0.50400001928E-02 0.  1.
    10030    2    1    2    0    0  0.00000000000E+00  0.00000000000E+00 -0.49462532873E+00  0.10989590857E+04  0.10989589744E+04 0.  0.
        2    1    3    3  502    0 -0.38378414177E+03 -0.38046122275E+03  0.99184570363E+02  0.54943479003E+03  0.25500000920E-02 0.  1.
       -2    1    3    3    0  502  0.38378414177E+03  0.38046122275E+03 -0.99679195692E+02  0.54952429568E+03  0.25500000920E-02 0. -1.
</event>
<event>
 5   0  0.6245176E-04  0.1092306E+04  0.7818609E-02  0.9212724E-01
        2   -1    0    0  501    0  0.00000000000E+00  0.00000000000E+00  0.94524199018E+03  0.94524199018E+03  0.25500000920E-02 0.  1.
       -2   -1    0    0    0  501  0.00000000000E+00  0.00000000000E+00 -0.31556262971E+03  0.31556262972E+03  0.25500000920E-02 0. -1.
    10030    2    1    2    0    0  0.00000000000E+00  0.00000000000E+00  0.62967936046E+03  0.12608046199E+04  0.10923059061E+04 0.  0.
        5    1    3    3  502    0  0.96173272314E+02 -0.48173571051E+03  0.39403326649E+02  0.49284206927E+03  0.46999998093E+01 0. -1.
       -5    1    3    3    0  502 -0.96173272314E+02  0.48173571051E+03  0.59027603381E+03  0.76796255064E+03  0.46999998093E+01 0.  1.
</event>
<event>
 5   0  0.2403875E-04  0.1095292E+04  0.7818609E-02  0.9209792E-01
        3   -1    0    0  501    0  0.00000000000E+00  0.00000000000E+00  0.49760145543E+03  0.49760146569E+03  0.10100000352E+00 0. -1.
       -3   -1    0    0    0  501  0.00000000000E+00  0.00000000000E+00 -0.60272409889E+03  0.60272410735E+03  0.10100000352E+00 0.  1.
    10030    2    1    2    0    0  0.00000000000E+00  0.00000000000E+00 -0.10512264345E+03  0.11003255730E+04  0.10952924708E+04 0.  0.
        2    1    3    3  502    0 -0.35982780427E+03  0.25657788099E+03 -0.37747937860E+03  0.58120473072E+03  0.25500000920E-02 0.  1.
       -2    1    3    3    0  502  0.35982780427E+03 -0.25657788099E+03  0.27235673515E+03  0.51912084231E+03  0.25500000920E-02 0. -1.
</event>
<event>
 5   0  0.6245176E-04  0.1097856E+04  0.7818609E-02  0.9207284E-01
       -2   -1    0    0    0  501  0.00000000000E+00  0.00000000000E+00  0.42027518530E+03  0.42027518530E+03  0.25500000920E-02 0. -1.
        2   -1    0    0  501    0  0.00000000000E+00  0.00000000000E+00 -0.71696379974E+03  0.71696379975E+03  0.25500000920E-02 0.  1.
    10030    2    1    2    0    0  0.00000000000E+00  0.00000000000E+00 -0.29668861445E+03  0.11372389851E+04  0.10978562634E+04 0.  0.
        5    1    3    3  502    0 -0.41563236122E+03 -0.25142256311E+03  0.11643496553E+03  0.49954254687E+03  0.46999998093E+01 0. -1.
       -5    1    3    3    0  502  0.41563236122E+03  0.25142256311E+03 -0.41312357998E+03  0.63769643818E+03  0.46999998093E+01 0.  1.
</event>
<event>
 5   0  0.6109149E-04  0.1103002E+04  0.7818609E-02  0.9202271E-01
        2   -1    0    0  501    0  0.00000000000E+00  0.00000000000E+00  0.10398492770E+04  0.10398492770E+04  0.25500000920E-02 0. -1.
       -2   -1    0    0    0  501  0.00000000000E+00  0.00000000000E+00 -0.29249749491E+03  0.29249749493E+03  0.25500000920E-02 0.  1.
    10030    2    1    2    0    0  0.00000000000E+00  0.00000000000E+00  0.74735178204E+03  0.13323467719E+04  0.11030019195E+04 0.  0.
        1    1    3    3  502    0 -0.10743023920E+03 -0.51976854868E+03  0.19267722634E+03  0.56464600775E+03  0.50400001928E-02 0.  1.
       -1    1    3    3    0  502  0.10743023920E+03  0.51976854868E+03  0.55467455569E+03  0.76770076413E+03  0.50400001928E-02 0. -1.
</event>
<event>
 5   0  0.6264830E-04  0.1096729E+04  0.7818609E-02  0.9208386E-01
        2   -1    0    0  501    0  0.00000000000E+00  0.00000000000E+00  0.46513097098E+03  0.46513097099E+03  0.25500000920E-02 0. -1.
       -2   -1    0    0    0  501  0.00000000000E+00  0.00000000000E+00 -0.64649200628E+03  0.64649200629E+03  0.25500000920E-02 0.  1.
    10030    2    1    2    0    0  0.00000000000E+00  0.00000000000E+00 -0.18136103530E+03  0.11116229773E+04  0.10967286895E+04 0.  0.
        4    1    3    3  502    0  0.67962544985E+02  0.51732255357E+02 -0.63970704647E+03  0.64538504164E+03  0.12699999809E+01 0.  1.
       -4    1    3    3    0  502 -0.67962544985E+02 -0.51732255357E+02  0.45834601117E+03  0.46623793563E+03  0.12699999809E+01 0. -1.
</event>
<event>
 5   0  0.3642161E-04  0.1100132E+04  0.7818609E-02  0.9205063E-01
        1   -1    0    0  501    0  0.00000000000E+00  0.00000000000E+00  0.67971063801E+03  0.67971063803E+03  0.50400001928E-02 0. -1.
       -1   -1    0    0    0  501  0.00000000000E+00  0.00000000000E+00 -0.44514921579E+03  0.44514921582E+03  0.50400001928E-02 0.  1.
    10030    2    1    2    0    0  0.00000000000E+00  0.00000000000E+00  0.23456142222E+03  0.11248598538E+04  0.11001320966E+04 0.  0.
        2    1    3    3  502    0 -0.33810917598E+03  0.13172089606E+03  0.53997878099E+03  0.65057304991E+03  0.25500000920E-02 0. -1.
       -2    1    3    3    0  502  0.33810917598E+03 -0.13172089606E+03 -0.30541735877E+03  0.47428680394E+03  0.25500000920E-02 0.  1.
</event>
<event>
 5   0  0.3642161E-04  0.1101152E+04  0.7818609E-02  0.9204070E-01
        1   -1    0    0  501    0  0.00000000000E+00  0.00000000000E+00  0.19031858165E+03  0.19031858172E+03  0.50400001928E-02 0. -1.
       -1   -1    0    0    0  501  0.00000000000E+00  0.00000000000E+00 -0.15927701149E+04  0.15927701149E+04  0.50400001928E-02 0.  1.
    10030    2    1    2    0    0  0.00000000000E+00  0.00000000000E+00 -0.14024515333E+04  0.17830886966E+04  0.11011516685E+04 0.  0.
        2    1    3    3  502    0 -0.25393073837E+03 -0.28632120121E+03 -0.13421741003E+04  0.13956690029E+04  0.25500000920E-02 0.  1.
       -2    1    3    3    0  502  0.25393073837E+03  0.28632120121E+03 -0.60277432948E+02  0.38741969372E+03  0.25500000920E-02 0. -1.
</event>
<event>
 5   0  0.6245176E-04  0.1104356E+04  0.7818609E-02  0.9200956E-01
        2   -1    0    0  501    0  0.00000000000E+00  0.00000000000E+00  0.13751003954E+04  0.13751003954E+04  0.25500000920E-02 0. -1.
       -2   -1    0    0    0  501  0.00000000000E+00  0.00000000000E+00 -0.22172973791E+03  0.22172973792E+03  0.25500000920E-02 0.  1.
    10030    2    1    2    0    0  0.00000000000E+00  0.00000000000E+00  0.11533706575E+04  0.15968301333E+04  0.11043561930E+04 0.  0.
        5    1    3    3  502    0  0.75483714804E+02  0.18584648028E+03 -0.16715344760E+03  0.26114951747E+03  0.46999998093E+01 0.  1.
       -5    1    3    3    0  502 -0.75483714804E+02 -0.18584648028E+03  0.13205241051E+04  0.13356806158E+04  0.46999998093E+01 0. -1.
</event>
<event>
 5   0  0.5948818E-04  0.1100398E+04  0.7818609E-02  0.9204804E-01
        2   -1    0    0  501    0  0.00000000000E+00  0.00000000000E+00  0.13914849363E+04  0.13914849363E+04  0.25500000920E-02 0. -1.
       -2   -1    0    0    0  501  0.00000000000E+00  0.00000000000E+00 -0.21755107274E+03  0.21755107275E+03  0.25500000920E-02 0.  1.
    10030    2    1    2    0    0  0.00000000000E+00  0.00000000000E+00  0.11739338635E+04  0.16090360090E+04  0.11003981836E+04 0.  0.
        3    1    3    3  502    0  0.31630443422E+03  0.33820765108E+03  0.10214392529E+04  0.11215039313E+04  0.10100000352E+00 0. -1.
       -3    1    3    3    0  502 -0.31630443422E+03 -0.33820765108E+03  0.15249461066E+03  0.48753207775E+03  0.10100000352E+00 0.  1.
</event>
<event>
 5   0  0.3642161E-04  0.1100193E+04  0.7818609E-02  0.9205003E-01
        1   -1    0    0  501    0  0.00000000000E+00  0.00000000000E+00  0.12775428256E+04  0.12775428256E+04  0.50400001928E-02 0.  1.
       -1   -1    0    0    0  501  0.00000000000E+00  0.00000000000E+00 -0.23686589804E+03  0.23686589809E+03  0.50400001928E-02 0. -1.
    10030    2    1    2    0    0  0.00000000000E+00  0.00000000000E+00  0.10406769276E+04  0.15144087237E+04  0.11001933080E+04 0.  0.
        2    1    3    3  502    0 -0.16423222539E+03  0.22630428977E+03 -0.13174823365E+03  0.30910103931E+03  0.25500000920E-02 0. -1.
       -2    1    3    3    0  502  0.16423222539E+03 -0.22630428977E+03  0.11724251612E+04  0.12053076844E+04  0.25500000920E-02 0.  1.
</event>
<event>
 5   0  0.6264830E-04  0.1103553E+04  0.7818609E-02  0.9201735E-01
       -2   -1    0    0    0  501  0.00000000000E+00  0.00000000000E+00  0.20647048323E+03  0.20647048325E+03  0.25500000920E-02 0. -1.
        2   -1    0    0  501    0  0.00000000000E+00  0.00000000000E+00 -0.14745810942E+04  0.14745810942E+04  0.25500000920E-02 0.  1.
    10030    2    1    2    0    0  0.00000000000E+00  0.00000000000E+00 -0.12681106110E+04  0.16810515775E+04  0.11035532993E+04 0.  0.
        4    1    3    3  502    0  0.11879313708E+02  0.48082344487E+03 -0.22213199090E+03  0.52978914439E+03  0.12699999809E+01 0. -1.
       -4    1    3    3    0  502 -0.11879313708E+02 -0.48082344487E+03 -0.10459786201E+04  0.11512624331E+04  0.12699999809E+01 0.  1.
</event>
<event>
 5   0  0.3642161E-04  0.1107034E+04  0.7818609E-02  0.9198363E-01
       -1   -1    0    0    0  501  0.00000000000E+00  0.00000000000E+00  0.68950080645E+03  0.68950080647E+03  0.50400001928E-02 0. -1.
        1   -1    0    0  501    0  0.00000000000E+00  0.00000000000E+00 -0.44435196993E+03  0.44435196996E+03  0.50400001928E-02 0.  1.
    10030    2    1    2    0    0  0.00000000000E+00  0.00000000000E+00  0.24514883652E+03  0.11338527764E+04  0.11070339501E+04 0.  0.
        2    1    3    3  502    0  0.23701690142E+03 -0.17889593030E+03  0.60100989521E+03  0.67036830145E+03  0.25500000920E-02 0. -1.
       -2    1    3    3    0  502 -0.23701690142E+03  0.17889593030E+03 -0.35586105870E+03  0.46348447498E+03  0.25500000920E-02 0.  1.
</event>
<event>
 5   0  0.3621403E-04  0.1097996E+04  0.7818609E-02  0.9207147E-01
        1   -1    0    0  501    0  0.00000000000E+00  0.00000000000E+00  0.10459068709E+04  0.10459068709E+04  0.50400001928E-02 0.  1.
       -1   -1    0    0    0  501  0.00000000000E+00  0.00000000000E+00 -0.28816981599E+03  0.28816981603E+03  0.50400001928E-02 0. -1.
    10030    2    1    2    0    0  0.00000000000E+00  0.00000000000E+00  0.75773705494E+03  0.13340766870E+04  0.10979959755E+04 0.  0.
        3    1    3    3  502    0 -0.22136545396E+03  0.48374645060E+03  0.21412148615E+03  0.57346430901E+03  0.10100000352E+00 0.  1.
       -3    1    3    3    0  502  0.22136545396E+03 -0.48374645060E+03  0.54361556879E+03  0.76061237796E+03  0.10100000352E+00 0. -1.
</event>
<event>
 5   0  0.6109149E-04  0.1098375E+04  0.7818609E-02  0.9206778E-01
        2   -1    0    0  501    0  0.00000000000E+00  0.00000000000E+00  0.26060920946E+03  0.26060920947E+03  0.25500000920E-02 0.  1.
       -2   -1    0    0    0  501  0.00000000000E+00  0.00000000000E+00 -0.11573140355E+04  0.11573140355E+04  0.25500000920E-02 0. -1.
    10030    2    1    2    0    0  0.00000000000E+00  0.00000000000E+00 -0.89670482605E+03  0.14179232450E+04  0.10983746099E+04 0.  0.
        1    1    3    3  502    0  0.98508242997E+02 -0.54551040873E+02 -0.11422514833E+04  0.11477883695E+04  0.50400001928E-02 0. -1.
       -1    1    3    3    0  502 -0.98508242997E+02  0.54551040873E+02  0.24554665729E+03  0.27013487545E+03  0.50400001928E-02 0.  1.
</event>
<event>
 5   0  0.3642161E-04  0.1099322E+04  0.7818609E-02  0.9205853E-01
        1   -1    0    0  501    0  0.00000000000E+00  0.00000000000E+00  0.12949894536E+04  0.12949894536E+04  0.50400001928E-02 0.  1.
       -1   -1    0    0    0  501  0.00000000000E+00  0.00000000000E+00 -0.23330470337E+03  0.23330470342E+03  0.50400001928E-02 0. -1.
    10030    2    1    2    0    0  0.00000000000E+00  0.00000000000E+00  0.10616847502E+04  0.15282941571E+04  0.10993218462E+04 0.  0.
        2    1    3    3  502    0  0.30225894055E+03  0.33177974188E+03  0.97197869852E+03  0.10705983629E+04  0.25500000920E-02 0.  1.
       -2    1    3    3    0  502 -0.30225894055E+03 -0.33177974188E+03  0.89706051729E+02  0.45769579415E+03  0.25500000920E-02 0. -1.
</event>
<event>
 5   0  0.6109149E-04  0.1098957E+04  0.7818609E-02  0.9206209E-01
        2   -1    0    0  501    0  0.00000000000E+00  0.00000000000E+00  0.27054901194E+03  0.27054901195E+03  0.25500000920E-02 0. -1.
       -2   -1    0    0    0  501  0.00000000000E+00  0.00000000000E+00 -0.11159779200E+04  0.11159779200E+04  0.25500000920E-02 0.  1.
    10030    2    1    2    0    0  0.00000000000E+00  0.00000000000E+00 -0.84542890802E+03  0.13865269319E+04  0.10989571850E+04 0.  0.
        1    1    3    3  502    0 -0.42006503772E+03  0.34601552754E+03 -0.51834695062E+03  0.75157497460E+03  0.50400001928E-02 0.  1.
       -1    1    3    3    0  502  0.42006503772E+03 -0.34601552754E+03 -0.32708195740E+03  0.63495195731E+03  0.50400001928E-02 0. -1.
</event>
<event>
 5   0  0.5948818E-04  0.1101191E+04  0.7818609E-02  0.9204032E-01
       -2   -1    0    0    0  501  0.00000000000E+00  0.00000000000E+00  0.43360042411E+03  0.43360042412E+03  0.25500000920E-02 0. -1.
        2   -1    0    0  501    0  0.00000000000E+00  0.00000000000E+00 -0.69915818042E+03  0.69915818042E+03  0.25500000920E-02 0.  1.
    10030    2    1    2    0    0  0.00000000000E+00  0.00000000000E+00 -0.26555775631E+03  0.11327586045E+04  0.11011907801E+04 0.  0.
        3    1    3    3  502    0 -0.45994260160E+03 -0.29334880297E+03 -0.20944429352E+03  0.58435232460E+03  0.10100000352E+00 0.  1.
       -3    1    3    3    0  502  0.45994260160E+03  0.29334880297E+03 -0.56113462789E+02  0.54840627994E+03  0.10100000352E+00 0. -1.
</event>
<event>
 5   0  0.3423758E-04  0.1098179E+04  0.7818609E-02  0.9206968E-01
       -1   -1    0    0    0  501  0.00000000000E+00  0.00000000000E+00  0.51829555934E+03  0.51829555937E+03  0.50400001928E-02 0.  1.
        1   -1    0    0  501    0  0.00000000000E+00  0.00000000000E+00 -0.58171334225E+03  0.58171334227E+03  0.50400001928E-02 0. -1.
    10030    2    1    2    0    0  0.00000000000E+00  0.00000000000E+00 -0.63417782908E+02  0.11000089016E+04  0.10981792971E+04 0.  0.
        1    1    3    3  502    0 -0.44477111715E+03  0.28286960878E+03 -0.18579260867E+03  0.55888769505E+03  0.50400001928E-02 0. -1.
       -1    1    3    3    0  502  0.44477111715E+03 -0.28286960878E+03  0.12237482576E+03  0.54112120659E+03  0.50400001928E-02 0.  1.
</event>
<event>
 5   0  0.3423758E-04  0.1103322E+04  0.7818609E-02  0.9201960E-01
       -1   -1    0    0    0  501  0.00000000000E+00  0.00000000000E+00  0.32688965749E+03  0.32688965753E+03  0.50400001928E-02 0. -1.
        1   -1    0    0  501    0  0.00000000000E+00  0.00000000000E+00 -0.93098699410E+03  0.93098699412E+03  0.50400001928E-02 0.  1.
    10030    2    1    2    0    0  0.00000000000E+00  0.00000000000E+00 -0.60409733661E+03  0.12578766516E+04  0.11033222914E+04 0.  0.
        1    1    3    3  502    0 -0.93060891502E+02  0.16873461468E+03 -0.89137049289E+03  0.91196110407E+03  0.50400001928E-02 0.  1.
       -1    1    3    3    0  502  0.93060891502E+02 -0.16873461468E+03  0.28727315628E+03  0.34591554758E+03  0.50400001928E-02 0. -1.
</event>
<event>
 5   0  0.6109149E-04  0.1098821E+04  0.7818609E-02  0.9206341E-01
        2   -1    0    0  501    0  0.00000000000E+00  0.00000000000E+00  0.70219461262E+03  0.70219461263E+03  0.25500000920E-02 0. -1.
       -2   -1    0    0    0  501  0.00000000000E+00  0.00000000000E+00 -0.42986959351E+03  0.42986959351E+03  0.25500000920E-02 0.  1.
    10030    2    1    2    0    0  0.00000000000E+00  0.00000000000E+00  0.27232501912E+03  0.11320642061E+04  0.10988213917E+04 0.  0.
        1    1    3    3  502    0 -0.23710654900E+03 -0.40294192394E+01 -0.37442783703E+03  0.44320644960E+03  0.50400001928E-02 0.  1.
       -1    1    3    3    0  502  0.23710654900E+03  0.40294192394E+01  0.64675285615E+03  0.68885775655E+03  0.50400001928E-02 0. -1.
</event>
<event>
 5   0  0.3642161E-04  0.1099848E+04  0.7818609E-02  0.9205340E-01
       -1   -1    0    0    0  501  0.00000000000E+00  0.00000000000E+00  0.26917840167E+03  0.26917840172E+03  0.50400001928E-02 0.  1.
        1   -1    0    0  501    0  0.00000000000E+00  0.00000000000E+00 -0.11234802096E+04  0.11234802097E+04  0.50400001928E-02 0. -1.
    10030    2    1    2    0    0  0.00000000000E+00  0.00000000000E+00 -0.85430180797E+03  0.13926586114E+04  0.10998483663E+04 0.  0.
        2    1    3    3  502    0  0.32364949621E+03  0.30874401198E+03 -0.83223447591E+03  0.94482066247E+03  0.25500000920E-02 0. -1.
       -2    1    3    3    0  502 -0.32364949621E+03 -0.30874401198E+03 -0.22067332061E+02  0.44783794891E+03  0.25500000920E-02 0.  1.
</event>
<event>
 5   0  0.3423758E-04  0.1099246E+04  0.7818609E-02  0.9205927E-01
       -1   -1    0    0    0  501  0.00000000000E+00  0.00000000000E+00  0.41963543618E+03  0.41963543621E+03  0.50400001928E-02 0. -1.
        1   -1    0    0  501    0  0.00000000000E+00  0.00000000000E+00 -0.71987619350E+03  0.71987619351E+03  0.50400001928E-02 0.  1.
    10030    2    1    2    0    0  0.00000000000E+00  0.00000000000E+00 -0.30024075732E+03  0.11395116297E+04  0.10992462153E+04 0.  0.
        1    1    3    3  502    0  0.46198197693E+03  0.12720703923E+03 -0.42919647311E+03  0.64328733114E+03  0.50400001928E-02 0.  1.
       -1    1    3    3    0  502 -0.46198197693E+03 -0.12720703923E+03  0.12895571580E+03  0.49622429858E+03  0.50400001928E-02 0. -1.
</event>
<event>
 5   0  0.5948818E-04  0.1080553E+04  0.7818609E-02  0.9224356E-01
        2   -1    0    0  501    0  0.00000000000E+00  0.00000000000E+00  0.16396993799E+04  0.16396993799E+04  0.25500000920E-02 0. -1.
       -2   -1    0    0    0  501  0.00000000000E+00  0.00000000000E+00 -0.17801972521E+03  0.17801972523E+03  0.25500000920E-02 0.  1.
    10030    2    1    2    0    0  0.00000000000E+00  0.00000000000E+00  0.14616796547E+04  0.18177191052E+04  0.10805532529E+04 0.  0.
        3    1    3    3  502    0 -0.18226752542E+03  0.25960381314E+03  0.14665708143E+04  0.15004817740E+04  0.10100000352E+00 0. -1.
       -3    1    3    3    0  502  0.18226752542E+03 -0.25960381314E+03 -0.48911595990E+01  0.31723733113E+03  0.10100000352E+00 0.  1.
</event>
<event>
 5   0  0.3657529E-04  0.1099884E+04  0.7818609E-02  0.9205305E-01
        1   -1    0    0  501    0  0.00000000000E+00  0.00000000000E+00  0.87190368616E+03  0.87190368618E+03  0.50400001928E-02 0.  1.
       -1   -1    0    0    0  501  0.00000000000E+00  0.00000000000E+00 -0.34686867319E+03  0.34686867323E+03  0.50400001928E-02 0. -1.
    10030    2    1    2    0    0  0.00000000000E+00  0.00000000000E+00  0.52503501297E+03  0.12187723594E+04  0.10998837662E+04 0.  0.
        4    1    3    3  502    0  0.41526705985E+03 -0.35853609605E+03  0.30456078090E+03  0.62749800424E+03  0.12699999809E+01 0.  1.
       -4    1    3    3    0  502 -0.41526705985E+03  0.35853609605E+03  0.22047423207E+03  0.59127435516E+03  0.12699999809E+01 0. -1.
</event>
<event>
 5   0  0.3657529E-04  0.1101013E+04  0.7818609E-02  0.9204205E-01
       -1   -1    0    0    0  501  0.00000000000E+00  0.00000000000E+00  0.37513873640E+03  0.37513873644E+03  0.50400001928E-02 0. -1.
        1   -1    0    0  501    0  0.00000000000E+00  0.00000000000E+00 -0.80785370738E+03  0.80785370739E+03  0.50400001928E-02 0.  1.
    10030    2    1    2    0    0  0.00000000000E+00  0.00000000000E+00 -0.43271497097E+03  0.11829924438E+04  0.11010126594E+04 0.  0.
        4    1    3    3  502    0  0.22989265489E+03 -0.48335209365E+03 -0.35469053459E+03  0.64209568402E+03  0.12699999809E+01 0.  1.
       -4    1    3    3    0  502 -0.22989265489E+03  0.48335209365E+03 -0.78024436384E+02  0.54089675981E+03  0.12699999809E+01 0. -1.
</event>
<event>
 5   0  0.3657529E-04  0.1100164E+04  0.7818609E-02  0.9205032E-01
       -1   -1    0    0    0  501  0.00000000000E+00  0.00000000000E+00  0.32053081869E+03  0.32053081873E+03  0.50400001928E-02 0. -1.
        1   -1    0    0  501    0  0.00000000000E+00  0.00000000000E+00 -0.94402854311E+03  0.94402854312E+03  0.50400001928E-02 0.  1.
    10030    2    1    2    0    0  0.00000000000E+00  0.00000000000E+00 -0.62349772442E+03  0.12645593618E+04  0.11001640638E+04 0.  0.
        4    1    3    3  502    0 -0.63679651460E+02  0.22899738293E+03 -0.88195520014E+03  0.91342295096E+03  0.12699999809E+01 0.  1.
       -4    1    3    3    0  502  0.63679651460E+02 -0.22899738293E+03  0.25845747572E+03  0.35113641089E+03  0.12699999809E+01 0. -1.
</event>
<event>
 5   0  0.6412712E-04  0.1098697E+04  0.7818609E-02  0.9206463E-01
        2   -1    0    0  501    0  0.00000000000E+00  0.00000000000E+00  0.98336903982E+03  0.98336903983E+03  0.25500000920E-02 0. -1.
       -2   -1    0    0    0  501  0.00000000000E+00  0.00000000000E+00 -0.30688760748E+03  0.30688760749E+03  0.25500000920E-02 0.  1.
    10030    2    1    2    0    0  0.00000000000E+00  0.00000000000E+00  0.67648143234E+03  0.12902566473E+04  0.10986969954E+04 0.  0.
        2    1    3    3  502    0  0.13886252723E+03 -0.48226672460E+03  0.75858445775E+02  0.50756132529E+03  0.25500000920E-02 0.  1.
       -2    1    3    3    0  502 -0.13886252723E+03  0.48226672460E+03  0.60062298657E+03  0.78269532203E+03  0.25500000920E-02 0. -1.
</event>
<event>
 5   0  0.6264830E-04  0.1099226E+04  0.7818609E-02  0.9205947E-01
        2   -1    0    0  501    0  0.00000000000E+00  0.00000000000E+00  0.85542330010E+03  0.85542330010E+03  0.25500000920E-02 0. -1.
       -2   -1    0    0    0  501  0.00000000000E+00  0.00000000000E+00 -0.35312837369E+03  0.35312837370E+03  0.25500000920E-02 0.  1.
    10030    2    1    2    0    0  0.00000000000E+00  0.00000000000E+00  0.50229492641E+03  0.12085516738E+04  0.10992256161E+04 0.  0.
        4    1    3    3  502    0  0.87661851001E+01  0.52652151394E+03  0.42418848054E+03  0.67619466913E+03  0.12699999809E+01 0. -1.
       -4    1    3    3    0  502 -0.87661851001E+01 -0.52652151394E+03  0.78106445872E+02  0.53235700467E+03  0.12699999809E+01 0.  1.
</event>
<event>
 5   0  0.5948818E-04  0.1102478E+04  0.7818609E-02  0.9202780E-01
        2   -1    0    0  501    0  0.00000000000E+00  0.00000000000E+00  0.40768140971E+03  0.40768140972E+03  0.25500000920E-02 0.  1.
       -2   -1    0    0    0  501  0.00000000000E+00  0.00000000000E+00 -0.74534824929E+03  0.74534824930E+03  0.25500000920E-02 0. -1.
    10030    2    1    2    0    0  0.00000000000E+00  0.00000000000E+00 -0.33766683958E+03  0.11530296590E+04  0.11024783445E+04 0.  0.
        3    1    3    3  502    0 -0.14882427221E+03 -0.22188893527E+03  0.33543802738E+03  0.42883801606E+03  0.10100000352E+00 0.  1.
       -3    1    3    3    0  502  0.14882427221E+03  0.22188893527E+03 -0.67310486697E+03  0.72419164296E+03  0.10100000352E+00 0. -1.
</event>
<event>
 5   0  0.3621403E-04  0.1097984E+04  0.7818609E-02  0.9207159E-01
       -1   -1    0    0    0  501  0.00000000000E+00  0.00000000000E+00  0.25203380163E+03  0.25203380168E+03  0.50400001928E-02 0.  1.
        1   -1    0    0  501    0  0.00000000000E+00  0.00000000000E+00 -0.11958403072E+04  0.11958403072E+04  0.50400001928E-02 0. -1.
    10030    2    1    2    0    0  0.00000000000E+00  0.00000000000E+00 -0.94380650555E+03  0.14478741089E+04  0.10979839321E+04 0.  0.
        3    1    3    3  502    0 -0.42020826759E+03  0.20140341298E+02 -0.93702341158E+03  0.10271287678E+04  0.10100000352E+00 0. -1.
       -3    1    3    3    0  502  0.42020826759E+03 -0.20140341298E+02 -0.67830939702E+01  0.42074534111E+03  0.10100000352E+00 0.  1.
</event>
<event>
 5   0  0.5948818E-04  0.1099557E+04  0.7818609E-02  0.9205623E-01
       -2   -1    0    0    0  501  0.00000000000E+00  0.00000000000E+00  0.29018640734E+03  0.29018640735E+03  0.25500000920E-02 0. -1.
        2   -1    0    0  501    0  0.00000000000E+00  0.00000000000E+00 -0.10415946404E+04  0.10415946404E+04  0.25500000920E-02 0.  1.
    10030    2    1    2    0    0  0.00000000000E+00  0.00000000000E+00 -0.75140823303E+03  0.13317810477E+04  0.10995573775E+04 0.  0.
        3    1    3    3  502    0 -0.26422519711E+03 -0.10250719968E+03 -0.94629755243E+03  0.98782678072E+03  0.10100000352E+00 0.  1.
       -3    1    3    3    0  502  0.26422519711E+03  0.10250719968E+03  0.19488931940E+03  0.34395426701E+03  0.10100000352E+00 0. -1.
</event>
<event>
 5   0  0.2403875E-04  0.1099776E+04  0.7818609E-02  0.9205410E-01
        3   -1    0    0  501    0  0.00000000000E+00  0.00000000000E+00  0.10339295200E+04  0.10339295250E+04  0.10100000352E+00 0.  1.
       -3   -1    0    0    0  501  0.00000000000E+00  0.00000000000E+00 -0.29245411611E+03  0.29245413355E+03  0.10100000352E+00 0. -1.
    10030    2    1    2    0    0  0.00000000000E+00  0.00000000000E+00  0.74147540391E+03  0.13263836585E+04  0.10997762659E+04 0.  0.
        3    1    3    3  502    0 -0.41637582252E+03 -0.31772007900E+03  0.57277181486E+03  0.77613300167E+03  0.10100000352E+00 0.  1.
       -3    1    3    3    0  502  0.41637582252E+03  0.31772007900E+03  0.16870358905E+03  0.55025065683E+03  0.10100000352E+00 0. -1.
</event>
<event>
 5   0  0.6412712E-04  0.1099962E+04  0.7818609E-02  0.9205229E-01
        2   -1    0    0  501    0  0.00000000000E+00  0.00000000000E+00  0.13177577794E+04  0.13177577794E+04  0.25500000920E-02 0.  1.
       -2   -1    0    0    0  501  0.00000000000E+00  0.00000000000E+00 -0.22954061232E+03  0.22954061234E+03  0.25500000920E-02 0. -1.
    10030    2    1    2    0    0  0.00000000000E+00  0.00000000000E+00  0.10882171670E+04  0.15472983917E+04  0.10999616858E+04 0.  0.
        2    1    3    3  502    0 -0.33532411564E+03  0.39740365773E+03  0.79616419227E+03  0.95092026519E+03  0.25500000920E-02 0.  1.
       -2    1    3    3    0  502  0.33532411564E+03 -0.39740365773E+03  0.29205297477E+03  0.59637812651E+03  0.25500000920E-02 0. -1.
</event>
<event>
 5   0  0.3621403E-04  0.1107225E+04  0.7818609E-02  0.9198178E-01
        1   -1    0    0  501    0  0.00000000000E+00  0.00000000000E+00  0.77552001662E+03  0.77552001664E+03  0.50400001928E-02 0.  1.
       -1   -1    0    0    0  501  0.00000000000E+00  0.00000000000E+00 -0.39520170529E+03  0.39520170532E+03  0.50400001928E-02 0. -1.
    10030    2    1    2    0    0  0.00000000000E+00  0.00000000000E+00  0.38031831133E+03  0.11707217220E+04  0.11072250595E+04 0.  0.
        3    1    3    3  502    0  0.22167499205E+03 -0.26428287965E+03 -0.26768770027E+03  0.43662564933E+03  0.10100000352E+00 0. -1.
       -3    1    3    3    0  502 -0.22167499205E+03  0.26428287965E+03  0.64800601160E+03  0.73409607263E+03  0.10100000352E+00 0.  1.
</event>
<event>
 5   0  0.6245176E-04  0.1098741E+04  0.7818609E-02  0.9206420E-01
       -2   -1    0    0    0  501  0.00000000000E+00  0.00000000000E+00  0.18527495611E+03  0.18527495613E+03  0.25500000920E-02 0.  1.
        2   -1    0    0  501    0  0.00000000000E+00  0.00000000000E+00 -0.16289733513E+04  0.16289733513E+04  0.25500000920E-02 0. -1.
    10030    2    1    2    0    0  0.00000000000E+00  0.00000000000E+00 -0.14436983952E+04  0.18142483075E+04  0.10987410363E+04 0.  0.
        5    1    3    3  502    0 -0.40547583165E+03  0.29785736024E+02 -0.13318756589E+04  0.13925561751E+04  0.46999998093E+01 0. -1.
       -5    1    3    3    0  502  0.40547583165E+03 -0.29785736024E+02 -0.11182273633E+03  0.42169213234E+03  0.46999998093E+01 0.  1.
</event>
<event>
 5   0  0.3523525E-04  0.1100734E+04  0.7818609E-02  0.9204477E-01
        1   -1    0    0  501    0  0.00000000000E+00  0.00000000000E+00  0.11748163463E+04  0.11748163463E+04  0.50400001928E-02 0.  1.
       -1   -1    0    0    0  501  0.00000000000E+00  0.00000000000E+00 -0.25783060891E+03  0.25783060896E+03  0.50400001928E-02 0. -1.
    10030    2    1    2    0    0  0.00000000000E+00  0.00000000000E+00  0.91698573743E+03  0.14326469553E+04  0.11007335990E+04 0.  0.
        5    1    3    3  502    0  0.35450690145E+03  0.21808603380E+03 -0.10142016078E+02  0.41636715986E+03  0.46999998093E+01 0. -1.
       -5    1    3    3    0  502 -0.35450690145E+03 -0.21808603380E+03  0.92712775350E+03  0.10162797954E+04  0.46999998093E+01 0.  1.
</event>
<event>
 5   0  0.6245176E-04  0.1098924E+04  0.7818609E-02  0.9206242E-01
       -2   -1    0    0    0  501  0.00000000000E+00  0.00000000000E+00  0.74778714613E+03  0.74778714613E+03  0.25500000920E-02 0. -1.
        2   -1    0    0  501    0  0.00000000000E+00  0.00000000000E+00 -0.40373550394E+03  0.40373550395E+03  0.25500000920E-02 0.  1.
    10030    2    1    2    0    0  0.00000000000E+00  0.00000000000E+00  0.34405164219E+03  0.11515226501E+04  0.10989235101E+04 0.  0.
        5    1    3    3  502    0 -0.63276311414E+02 -0.12126509167E+03  0.72964027277E+03  0.74236522796E+03  0.46999998093E+01 0. -1.
       -5    1    3    3    0  502  0.63276311414E+02  0.12126509167E+03 -0.38558863058E+03  0.40915742212E+03  0.46999998093E+01 0.  1.
</event>
<event>
 5   0  0.6109149E-04  0.1103879E+04  0.7818609E-02  0.9201420E-01
        2   -1    0    0  501    0  0.00000000000E+00  0.00000000000E+00  0.18515027122E+04  0.18515027122E+04  0.25500000920E-02 0.  1.
       -2   -1    0    0    0  501  0.00000000000E+00  0.00000000000E+00 -0.16453503834E+03  0.16453503836E+03  0.25500000920E-02 0. -1.
    10030    2    1    2    0    0  0.00000000000E+00  0.00000000000E+00  0.16869676739E+04  0.20160377506E+04  0.11038787429E+04 0.  0.
        1    1    3    3  502    0 -0.12185046808E+03  0.34885323570E+03  0.15922556022E+04  0.16345715094E+04  0.50400001928E-02 0.  1.
       -1    1    3    3    0  502  0.12185046808E+03 -0.34885323570E+03  0.94712071727E+02  0.38146624121E+03  0.50400001928E-02 0. -1.
</event>
<event>
 5   0  0.6264830E-04  0.1098857E+04  0.7818609E-02  0.9206307E-01
        2   -1    0    0  501    0  0.00000000000E+00  0.00000000000E+00  0.12126712804E+04  0.12126712804E+04  0.25500000920E-02 0. -1.
       -2   -1    0    0    0  501  0.00000000000E+00  0.00000000000E+00 -0.24893113445E+03  0.24893113446E+03  0.25500000920E-02 0.  1.
    10030    2    1    2    0    0  0.00000000000E+00  0.00000000000E+00  0.96374014596E+03  0.14616024149E+04  0.10988569289E+04 0.  0.
        4    1    3    3  502    0  0.47616700546E+03 -0.41269771338E+02  0.84230778809E+03  0.96846385265E+03  0.12699999809E+01 0. -1.
       -4    1    3    3    0  502 -0.47616700546E+03  0.41269771338E+02  0.12143235787E+03  0.49313856223E+03  0.12699999809E+01 0.  1.
</event>
<event>
 5   0  0.3621403E-04  0.1100847E+04  0.7818609E-02  0.9204367E-01
        1   -1    0    0  501    0  0.00000000000E+00  0.00000000000E+00  0.10226958346E+04  0.10226958347E+04  0.50400001928E-02 0.  1.
       -1   -1    0    0    0  501  0.00000000000E+00  0.00000000000E+00 -0.29624242961E+03  0.29624242965E+03  0.50400001928E-02 0. -1.
    10030    2    1    2    0    0  0.00000000000E+00  0.00000000000E+00  0.72645340504E+03  0.13189382643E+04  0.11008467629E+04 0.  0.
        3    1    3    3  502    0 -0.23181252960E+03 -0.28148915296E+03 -0.13075712377E+03  0.38738950390E+03  0.10100000352E+00 0. -1.
       -3    1    3    3    0  502  0.23181252960E+03  0.28148915296E+03  0.85721052881E+03  0.93154876041E+03  0.10100000352E+00 0.  1.
</event>
<event>
 5   0  0.3657529E-04  0.1097141E+04  0.7818609E-02  0.9207983E-01
        1   -1    0    0  501    0  0.00000000000E+00  0.00000000000E+00  0.48574473808E+03  0.48574473810E+03  0.50400001928E-02 0. -1.
       -1   -1    0    0    0  501  0.00000000000E+00  0.00000000000E+00 -0.61952172396E+03  0.61952172398E+03  0.50400001928E-02 0.  1.
    10030    2    1    2    0    0  0.00000000000E+00  0.00000000000E+00 -0.13377698588E+03  0.11052664621E+04  0.10971406793E+04 0.  0.
        4    1    3    3  502    0 -0.18325674168E+03 -0.43876650918E+03  0.20868588599E+03  0.51927882189E+03  0.12699999809E+01 0. -1.
       -4    1    3    3    0  502  0.18325674168E+03  0.43876650918E+03 -0.34246287187E+03  0.58598764019E+03  0.12699999809E+01 0.  1.
</event>
<event>
 5   0  0.6109149E-04  0.1097800E+04  0.7818609E-02  0.9207338E-01
        2   -1    0    0  501    0  0.00000000000E+00  0.00000000000E+00  0.99091512064E+03  0.99091512064E+03  0.25500000920E-02 0.  1.
       -2   -1    0    0    0  501  0.00000000000E+00  0.00000000000E+00 -0.30405369132E+03  0.30405369133E+03  0.25500000920E-02 0. -1.
    10030    2    1    2    0    0  0.00000000000E+00  0.00000000000E+00  0.68686142932E+03  0.12949688120E+04  0.10978003466E+04 0.  0.
        1    1    3    3  502    0  0.24538657013E+03  0.14111033558E+03  0.89817630058E+03  0.94172573638E+03  0.50400001928E-02 0.  1.
       -1    1    3    3    0  502 -0.24538657013E+03 -0.14111033558E+03 -0.21131487126E+03  0.35324307559E+03  0.50400001928E-02 0. -1.
</event>
<event>
 5   0  0.3657529E-04  0.1092262E+04  0.7818609E-02  0.9212767E-01
        1   -1    0    0  501    0  0.00000000000E+00  0.00000000000E+00  0.10345163129E+04  0.10345163130E+04  0.50400001928E-02 0.  1.
       -1   -1    0    0    0  501  0.00000000000E+00  0.00000000000E+00 -0.28830774921E+03  0.28830774926E+03  0.50400001928E-02 0. -1.
    10030    2    1    2    0    0  0.00000000000E+00  0.00000000000E+00  0.74620856374E+03  0.13228240622E+04  0.10922620011E+04 0.  0.
        4    1    3    3  502    0 -0.22435669654E+02  0.31117465925E+03 -0.16976045564E+03  0.35518059214E+03  0.12699999809E+01 0. -1.
       -4    1    3    3    0  502  0.22435669654E+02 -0.31117465925E+03  0.91596901938E+03  0.96764347008E+03  0.12699999809E+01 0.  1.
</event>
<event>
 5   0  0.6264830E-04  0.1098883E+04  0.7818609E-02  0.9206282E-01
       -2   -1    0    0    0  501  0.00000000000E+00  0.00000000000E+00  0.34321310563E+03  0.34321310564E+03  0.25500000920E-02 0. -1.
        2   -1    0    0  501    0  0.00000000000E+00  0.00000000000E+00 -0.87958688342E+03  0.87958688342E+03  0.25500000920E-02 0.  1.
    10030    2    1    2    0    0  0.00000000000E+00  0.00000000000E+00 -0.53637377779E+03  0.12227999891E+04  0.10988826069E+04 0.  0.
        4    1    3    3  502    0  0.60974171071E+02  0.19569148834E+03 -0.83544816800E+03  0.86022570437E+03  0.12699999809E+01 0.  1.
       -4    1    3    3    0  502 -0.60974171071E+02 -0.19569148834E+03  0.29907439021E+03  0.36257428470E+03  0.12699999809E+01 0. -1.
</event>
<event>
 5   0  0.6245176E-04  0.1101324E+04  0.7818609E-02  0.9203903E-01
        2   -1    0    0  501    0  0.00000000000E+00  0.00000000000E+00  0.99187354281E+03  0.99187354281E+03  0.25500000920E-02 0.  1.
       -2   -1    0    0    0  501  0.00000000000E+00  0.00000000000E+00 -0.30571273244E+03  0.30571273245E+03  0.25500000920E-02 0. -1.
    10030    2    1    2    0    0  0.00000000000E+00  0.00000000000E+00  0.68616081036E+03  0.12975862753E+04  0.11013235147E+04 0.  0.
        5    1    3    3  502    0  0.28798780289E+03  0.85919875856E+02 -0.20054029445E+03  0.36132768974E+03  0.46999998093E+01 0. -1.
       -5    1    3    3    0  502 -0.28798780289E+03 -0.85919875856E+02  0.88670110481E+03  0.93625858552E+03  0.46999998093E+01 0.  1.
</event>
<event>
 5   0  0.6245176E-04  0.1100456E+04  0.7818609E-02  0.9204747E-01
        2   -1    0    0  501    0  0.00000000000E+00  0.00000000000E+00  0.18414437236E+04  0.18414437236E+04  0.25500000920E-02 0. -1.
       -2   -1    0    0    0  501  0.00000000000E+00  0.00000000000E+00 -0.16440952851E+03  0.16440952853E+03  0.25500000920E-02 0.  1.
    10030    2    1    2    0    0  0.00000000000E+00  0.00000000000E+00  0.16770341950E+04  0.20058532521E+04  0.11004560771E+04 0.  0.
        5    1    3    3  502    0  0.61121568272E+02  0.38616684282E+03  0.13288052007E+03  0.41296488860E+03  0.46999998093E+01 0.  1.
       -5    1    3    3    0  502 -0.61121568272E+02 -0.38616684282E+03  0.15441536750E+04  0.15928883635E+04  0.46999998093E+01 0. -1.
</event>
<event>
 5   0  0.3657529E-04  0.1100000E+04  0.7818609E-02  0.9205192E-01
        1   -1    0    0  501    0  0.00000000000E+00  0.00000000000E+00  0.32473051724E+03  0.32473051728E+03  0.50400001928E-02 0. -1.
       -1   -1    0    0    0  501  0.00000000000E+00  0.00000000000E+00 -0.93154178193E+03  0.93154178194E+03  0.50400001928E-02 0.  1.
    10030    2    1    2    0    0  0.00000000000E+00  0.00000000000E+00 -0.60681126469E+03  0.12562722992E+04  0.11000000813E+04 0.  0.
        4    1    3    3  502    0  0.32090017565E+03 -0.72249538638E+02  0.20001285216E+03  0.38497230094E+03  0.12699999809E+01 0. -1.
       -4    1    3    3    0  502 -0.32090017565E+03  0.72249538638E+02 -0.80682411685E+03  0.87129999828E+03  0.12699999809E+01 0.  1.
</event>
<event>
 5   0  0.3657529E-04  0.1107086E+04  0.7818609E-02  0.9198312E-01
        1   -1    0    0  501    0  0.00000000000E+00  0.00000000000E+00  0.59462931268E+03  0.59462931270E+03  0.50400001928E-02 0.  1.
       -1   -1    0    0    0  501  0.00000000000E+00  0.00000000000E+00 -0.51529587669E+03  0.51529587672E+03  0.50400001928E-02 0. -1.
    10030    2    1    2    0    0  0.00000000000E+00  0.00000000000E+00  0.79333435989E+02  0.11099251894E+04  0.11070863255E+04 0.  0.
        4    1    3    3  502    0 -0.32921102823E+03  0.29016296259E+03  0.37792479086E+03  0.57914005768E+03  0.12699999809E+01 0.  1.
       -4    1    3    3    0  502  0.32921102823E+03 -0.29016296259E+03 -0.29859135487E+03  0.53078513174E+03  0.12699999809E+01 0. -1.
</event>
<event>
 5   0  0.2403875E-04  0.1101384E+04  0.7818609E-02  0.9203844E-01
       -3   -1    0    0    0  501  0.00000000000E+00  0.00000000000E+00  0.34027655306E+03  0.34027656805E+03  0.10100000352E+00 0.  1.
        3   -1    0    0  501    0  0.00000000000E+00  0.00000000000E+00 -0.89122078824E+03  0.89122079396E+03  0.10100000352E+00 0. -1.
    10030    2    1    2    0    0  0.00000000000E+00  0.00000000000E+00 -0.55094423518E+03  0.12314973620E+04  0.11013837671E+04 0.  0.
        1    1    3    3  502    0 -0.38364777239E+03 -0.17207566691E+03  0.12216007490E+03  0.43785697703E+03  0.50400001928E-02 0.  1.
       -1    1    3    3    0  502  0.38364777239E+03  0.17207566691E+03 -0.67310431008E+03  0.79364038498E+03  0.50400001928E-02 0. -1.
</event>
<event>
 5   0  0.3423758E-04  0.1100434E+04  0.7818609E-02  0.9204769E-01
        1   -1    0    0  501    0  0.00000000000E+00  0.00000000000E+00  0.68847888984E+03  0.68847888986E+03  0.50400001928E-02 0. -1.
       -1   -1    0    0    0  501  0.00000000000E+00  0.00000000000E+00 -0.43972145577E+03  0.43972145580E+03  0.50400001928E-02 0.  1.
    10030    2    1    2    0    0  0.00000000000E+00  0.00000000000E+00  0.24875743407E+03  0.11282003457E+04  0.11004343501E+04 0.  0.
        1    1    3    3  502    0 -0.18523699106E+03  0.41453989497E+03  0.44299806790E+03  0.63435270596E+03  0.50400001928E-02 0. -1.
       -1    1    3    3    0  502  0.18523699106E+03 -0.41453989497E+03 -0.19424063383E+03  0.49384763969E+03  0.50400001928E-02 0.  1.
</event>
<event>
 5   0  0.6245176E-04  0.1098977E+04  0.7818609E-02  0.9206190E-01
        2   -1    0    0  501    0  0.00000000000E+00  0.00000000000E+00  0.15244563170E+04  0.15244563170E+04  0.25500000920E-02 0.  1.
       -2   -1    0    0    0  501  0.00000000000E+00  0.00000000000E+00 -0.19806241685E+03  0.19806241687E+03  0.25500000920E-02 0. -1.
    10030    2    1    2    0    0  0.00000000000E+00  0.00000000000E+00  0.13263939001E+04  0.17225187339E+04  0.10989768015E+04 0.  0.
        5    1    3    3  502    0 -0.27494806586E+03 -0.17100762904E+02  0.14083665776E+04  0.14350635463E+04  0.46999998093E+01 0.  1.
       -5    1    3    3    0  502  0.27494806586E+03  0.17100762904E+02 -0.81972677453E+02  0.28745518757E+03  0.46999998093E+01 0. -1.
</event>
<event>
 5   0  0.6109149E-04  0.1102075E+04  0.7818609E-02  0.9203172E-01
       -2   -1    0    0    0  501  0.00000000000E+00  0.00000000000E+00  0.43314172392E+03  0.43314172393E+03  0.25500000920E-02 0.  1.
        2   -1    0    0  501    0  0.00000000000E+00  0.00000000000E+00 -0.70102327094E+03  0.70102327095E+03  0.25500000920E-02 0. -1.
    10030    2    1    2    0    0  0.00000000000E+00  0.00000000000E+00 -0.26788154702E+03  0.11341649949E+04  0.11020751845E+04 0.  0.
        1    1    3    3  502    0  0.18096148828E+01  0.14285220151E+03  0.41375133472E+03  0.43772159324E+03  0.50400001928E-02 0.  1.
       -1    1    3    3    0  502 -0.18096148828E+01 -0.14285220151E+03 -0.68163288174E+03  0.69644340163E+03  0.50400001928E-02 0. -1.
</event>
<event>
 5   0  0.6109149E-04  0.1102269E+04  0.7818609E-02  0.9202983E-01
        2   -1    0    0  501    0  0.00000000000E+00  0.00000000000E+00  0.88026518020E+03  0.88026518020E+03  0.25500000920E-02 0. -1.
       -2   -1    0    0    0  501  0.00000000000E+00  0.00000000000E+00 -0.34506584319E+03  0.34506584320E+03  0.25500000920E-02 0.  1.
    10030    2    1    2    0    0  0.00000000000E+00  0.00000000000E+00  0.53519933700E+03  0.12253310234E+04  0.11022693802E+04 0.  0.
        1    1    3    3  502    0  0.42318546544E+03 -0.20275179000E+03  0.58893056058E+03  0.75301622275E+03  0.50400001928E-02 0. -1.
       -1    1    3    3    0  502 -0.42318546544E+03  0.20275179000E+03 -0.53731223579E+02  0.47231480066E+03  0.50400001928E-02 0.  1.
</event>
<event>
 5   0  0.6109149E-04  0.1098254E+04  0.7818609E-02  0.9206895E-01
       -2   -1    0    0    0  501  0.00000000000E+00  0.00000000000E+00  0.23137047091E+03  0.23137047093E+03  0.25500000920E-02 0. -1.
        2   -1    0    0  501    0  0.00000000000E+00  0.00000000000E+00 -0.13032795302E+04  0.13032795302E+04  0.25500000920E-02 0.  1.
    10030    2    1    2    0    0  0.00000000000E+00  0.00000000000E+00 -0.10719090593E+04  0.15346500011E+04  0.10982538844E+04 0.  0.
        1    1    3    3  502    0 -0.48194666910E+03 -0.13902377377E+03 -0.22368348075E+03  0.54921261923E+03  0.50400001928E-02 0. -1.
       -1    1    3    3    0  502  0.48194666910E+03  0.13902377377E+03 -0.84822557853E+03  0.98543738190E+03  0.50400001928E-02 0.  1.
</event>
<event>
 5   0  0.3642161E-04  0.1100003E+04  0.7818609E-02  0.9205189E-01
       -1   -1    0    0    0  501  0.00000000000E+00  0.00000000000E+00  0.45620681942E+03  0.45620681944E+03  0.50400001928E-02 0.  1.
        1   -1    0    0  501    0  0.00000000000E+00  0.00000000000E+00 -0.66308019016E+03  0.66308019018E+03  0.50400001928E-02 0. -1.
    10030    2    1    2    0    0  0.00000000000E+00  0.00000000000E+00 -0.20687337075E+03  0.11192870096E+04  0.11000030993E+04 0.  0.
        2    1    3    3  502    0 -0.44348007363E+03 -0.27833567588E+03  0.67908912647E+02  0.52797437873E+03  0.25500000920E-02 0.  1.
       -2    1    3    3    0  502  0.44348007363E+03  0.27833567588E+03 -0.27478228339E+03  0.59131263089E+03  0.25500000920E-02 0. -1.
</event>
<event>
 5   0  0.3523525E-04  0.1092582E+04  0.7818609E-02  0.9212452E-01
       -1   -1    0    0    0  501  0.00000000000E+00  0.00000000000E+00  0.24874349455E+03  0.24874349460E+03  0.50400001928E-02 0. -1.
        1   -1    0    0  501    0  0.00000000000E+00  0.00000000000E+00 -0.11997661400E+04  0.11997661401E+04  0.50400001928E-02 0.  1.
    10030    2    1    2    0    0  0.00000000000E+00  0.00000000000E+00 -0.95102264549E+03  0.14485096347E+04  0.10925823033E+04 0.  0.
        5    1    3    3  502    0  0.10169713708E+03 -0.13092331771E+03  0.21456120873E+03  0.27118596037E+03  0.46999998093E+01 0. -1.
       -5    1    3    3    0  502 -0.10169713708E+03  0.13092331771E+03 -0.11655838542E+04  0.11773236743E+04  0.46999998093E+01 0.  1.
</event>
<event>
 5   0  0.6245176E-04  0.1100262E+04  0.7818609E-02  0.9204937E-01
       -2   -1    0    0    0  501  0.00000000000E+00  0.00000000000E+00  0.18250090373E+03  0.18250090374E+03  0.25500000920E-02 0.  1.
        2   -1    0    0  501    0  0.00000000000E+00  0.00000000000E+00 -0.16583148220E+04  0.16583148220E+04  0.25500000920E-02 0. -1.
    10030    2    1    2    0    0  0.00000000000E+00  0.00000000000E+00 -0.14758139182E+04  0.18408157257E+04  0.11002617028E+04 0.  0.
        5    1    3    3  502    0 -0.47197956422E+03  0.13639964232E+03 -0.11519786045E+04  0.12523762880E+04  0.46999998093E+01 0.  1.
       -5    1    3    3    0  502  0.47197956422E+03 -0.13639964232E+03 -0.32383531376E+03  0.58843943775E+03  0.46999998093E+01 0. -1.
</event>
<event>
 5   0  0.3657529E-04  0.1097578E+04  0.7818609E-02  0.9207556E-01
        1   -1    0    0  501    0  0.00000000000E+00  0.00000000000E+00  0.57136320382E+03  0.57136320384E+03  0.50400001928E-02 0. -1.
       -1   -1    0    0    0  501  0.00000000000E+00  0.00000000000E+00 -0.52710654829E+03  0.52710654831E+03  0.50400001928E-02 0.  1.
    10030    2    1    2    0    0  0.00000000000E+00  0.00000000000E+00  0.44256655535E+02  0.10984697522E+04  0.10975778537E+04 0.  0.
        4    1    3    3  502    0  0.31877243536E+03 -0.40524336375E+03 -0.16598617292E+03  0.54165586114E+03  0.12699999809E+01 0.  1.
       -4    1    3    3    0  502 -0.31877243536E+03  0.40524336375E+03  0.21024282845E+03  0.55681389101E+03  0.12699999809E+01 0. -1.
</event>
<event>
 5   0  0.6412712E-04  0.1100954E+04  0.7818609E-02  0.9204263E-01
       -2   -1    0    0    0  501  0.00000000000E+00  0.00000000000E+00  0.25756793311E+03  0.25756793312E+03  0.25500000920E-02 0. -1.
        2   -1    0    0  501    0  0.00000000000E+00  0.00000000000E+00 -0.11764853874E+04  0.11764853874E+04  0.25500000920E-02 0.  1.
    10030    2    1    2    0    0  0.00000000000E+00  0.00000000000E+00 -0.91891745426E+03  0.14340533205E+04  0.11009539674E+04 0.  0.
        2    1    3    3  502    0 -0.27774784742E+03  0.26812395863E+03 -0.97060267612E+03  0.10445591792E+04  0.25500000920E-02 0.  1.
       -2    1    3    3    0  502  0.27774784742E+03 -0.26812395863E+03  0.51685221859E+02  0.38949414130E+03  0.25500000920E-02 0. -1.
</event>
<event>
 5   0  0.3423758E-04  0.1101872E+04  0.7818609E-02  0.9203369E-01
        1   -1    0    0  501    0  0.00000000000E+00  0.00000000000E+00  0.58674665261E+03  0.58674665264E+03  0.50400001928E-02 0.  1.
       -1   -1    0    0    0  501  0.00000000000E+00  0.00000000000E+00 -0.51731128637E+03  0.51731128639E+03  0.50400001928E-02 0. -1.
    10030    2    1    2    0    0  0.00000000000E+00  0.00000000000E+00  0.69435366246E+02  0.11040579390E+04  0.11018723441E+04 0.  0.
        1    1    3    3  502    0  0.18122060822E+03  0.33659137408E+03  0.43223626356E+03  0.57702933158E+03  0.50400001928E-02 0.  1.
       -1    1    3    3    0  502 -0.18122060822E+03 -0.33659137408E+03 -0.36280089731E+03  0.52702860744E+03  0.50400001928E-02 0. -1.
</event>
<event>
 5   0  0.5948818E-04  0.1101482E+04  0.7818609E-02  0.9203748E-01
       -2   -1    0    0    0  501  0.00000000000E+00  0.00000000000E+00  0.15222810478E+03  0.15222810480E+03  0.25500000920E-02 0. -1.
        2   -1    0    0  501    0  0.00000000000E+00  0.00000000000E+00 -0.19925089258E+04  0.19925089258E+04  0.25500000920E-02 0.  1.
    10030    2    1    2    0    0  0.00000000000E+00  0.00000000000E+00 -0.18402808210E+04  0.21447370306E+04  0.11014823785E+04 0.  0.
        3    1    3    3  502    0 -0.11038590613E+03 -0.42259777090E+03 -0.15733516707E+04  0.16328531514E+04  0.10100000352E+00 0.  1.
       -3    1    3    3    0  502  0.11038590613E+03  0.42259777090E+03 -0.26692915028E+03  0.51188387913E+03  0.10100000352E+00 0. -1.
</event>
<event>
 5   0  0.6245176E-04  0.1099856E+04  0.7818609E-02  0.9205332E-01
       -2   -1    0    0    0  501  0.00000000000E+00  0.00000000000E+00  0.23363906309E+03  0.23363906311E+03  0.25500000920E-02 0.  1.
        2   -1    0    0  501    0  0.00000000000E+00  0.00000000000E+00 -0.12943943194E+04  0.12943943194E+04  0.25500000920E-02 0. -1.
    10030    2    1    2    0    0  0.00000000000E+00  0.00000000000E+00 -0.10607552563E+04  0.15280333825E+04  0.10998564926E+04 0.  0.
        5    1    3    3  502    0 -0.25055050426E+03  0.15334473196E+03 -0.11762297184E+04  0.12123648801E+04  0.46999998093E+01 0. -1.
       -5    1    3    3    0  502  0.25055050426E+03 -0.15334473196E+03  0.11547446213E+03  0.31566850240E+03  0.46999998093E+01 0.  1.
</event>
<event>
 5   0  0.3423758E-04  0.1099400E+04  0.7818609E-02  0.9205777E-01
        1   -1    0    0  501    0  0.00000000000E+00  0.00000000000E+00  0.21766558751E+03  0.21766558756E+03  0.50400001928E-02 0. -1.
       -1   -1    0    0    0  501  0.00000000000E+00  0.00000000000E+00 -0.13882300479E+04  0.13882300479E+04  0.50400001928E-02 0.  1.
    10030    2    1    2    0    0  0.00000000000E+00  0.00000000000E+00 -0.11705644604E+04  0.16058956355E+04  0.10993996708E+04 0.  0.
        1    1    3    3  502    0  0.54862323407E+02  0.41572474054E+03 -0.66099693353E+02  0.42450689502E+03  0.50400001928E-02 0. -1.
       -1    1    3    3    0  502 -0.54862323407E+02 -0.41572474054E+03 -0.11044647671E+04  0.11813887405E+04  0.50400001928E-02 0.  1.
</event>
<event>
 5   0  0.3657529E-04  0.1099541E+04  0.7818609E-02  0.9205640E-01
        1   -1    0    0  501    0  0.00000000000E+00  0.00000000000E+00  0.14105355098E+04  0.14105355098E+04  0.50400001928E-02 0. -1.
       -1   -1    0    0    0  501  0.00000000000E+00  0.00000000000E+00 -0.21427849394E+03  0.21427849400E+03  0.50400001928E-02 0.  1.
    10030    2    1    2    0    0  0.00000000000E+00  0.00000000000E+00  0.11962570159E+04  0.16248140038E+04  0.10995406764E+04 0.  0.
        4    1    3    3  502    0 -0.20113519945E+03 -0.90255135792E+02 -0.14609783510E+03  0.26447598817E+03  0.12699999809E+01 0.  1.
       -4    1    3    3    0  502  0.20113519945E+03  0.90255135792E+02  0.13423548510E+04  0.13603380157E+04  0.12699999809E+01 0. -1.
</event>
<event>
 5   0  0.3523525E-04  0.1101013E+04  0.7818609E-02  0.9204206E-01
        1   -1    0    0  501    0  0.00000000000E+00  0.00000000000E+00  0.86463165039E+03  0.86463165041E+03  0.50400001928E-02 0. -1.
       -1   -1    0    0    0  501  0.00000000000E+00  0.00000000000E+00 -0.35050433269E+03  0.35050433272E+03  0.50400001928E-02 0.  1.
    10030    2    1    2    0    0  0.00000000000E+00  0.00000000000E+00  0.51412731771E+03  0.12151359831E+04  0.11010125152E+04 0.  0.
        5    1    3    3  502    0 -0.29447099706E+03  0.17143366119E+03  0.73423559675E+03  0.80946072779E+03  0.46999998093E+01 0. -1.
       -5    1    3    3    0  502  0.29447099706E+03 -0.17143366119E+03 -0.22010827905E+03  0.40567525535E+03  0.46999998093E+01 0.  1.
</event>
<event>
 5   0  0.3523525E-04  0.1103068E+04  0.7818609E-02  0.9202207E-01
        1   -1    0    0  501    0  0.00000000000E+00  0.00000000000E+00  0.51783867437E+03  0.51783867440E+03  0.50400001928E-02 0.  1.
       -1   -1    0    0    0  501  0.00000000000E+00  0.00000000000E+00 -0.58742181522E+03  0.58742181524E+03  0.50400001928E-02 0. -1.
    10030    2    1    2    0    0  0.00000000000E+00  0.00000000000E+00 -0.69583140849E+02  0.11052604896E+04  0.11030679655E+04 0.  0.
        5    1    3    3  502    0  0.41467089863E+03 -0.34752330619E+03  0.72394143938E+02  0.54588222593E+03  0.46999998093E+01 0. -1.
       -5    1    3    3    0  502 -0.41467089863E+03  0.34752330619E+03 -0.14197728479E+03  0.55937826371E+03  0.46999998093E+01 0.  1.
</event>
<event>
 5   0  0.6245176E-04  0.1100595E+04  0.7818609E-02  0.9204612E-01
       -2   -1    0    0    0  501  0.00000000000E+00  0.00000000000E+00  0.59945594628E+03  0.59945594629E+03  0.25500000920E-02 0.  1.
        2   -1    0    0  501    0  0.00000000000E+00  0.00000000000E+00 -0.50517017329E+03  0.50517017330E+03  0.25500000920E-02 0. -1.
    10030    2    1    2    0    0  0.00000000000E+00  0.00000000000E+00  0.94285772987E+02  0.11046261196E+04  0.11005948651E+04 0.  0.
        5    1    3    3  502    0 -0.92507184396E+02  0.29756877727E+03 -0.40806042515E+03  0.51345901194E+03  0.46999998093E+01 0. -1.
       -5    1    3    3    0  502  0.92507184396E+02 -0.29756877727E+03  0.50234619814E+03  0.59116710764E+03  0.46999998093E+01 0.  1.
</event>
<event>
 5   0  0.6245176E-04  0.1106166E+04  0.7818609E-02  0.9199203E-01
        2   -1    0    0  501    0  0.00000000000E+00  0.00000000000E+00  0.16609648414E+04  0.16609648414E+04  0.25500000920E-02 0.  1.
       -2   -1    0    0    0  501  0.00000000000E+00  0.00000000000E+00 -0.18417041170E+03  0.18417041172E+03  0.25500000920E-02 0. -1.
    10030    2    1    2    0    0  0.00000000000E+00  0.00000000000E+00  0.14767944297E+04  0.18451352532E+04  0.11061655910E+04 0.  0.
        5    1    3    3  502    0  0.13274169220E+03  0.48983741488E+03  0.11050542433E+04  0.12160296133E+04  0.46999998093E+01 0.  1.
       -5    1    3    3    0  502 -0.13274169220E+03 -0.48983741488E+03  0.37174018646E+03  0.62910563985E+03  0.46999998093E+01 0. -1.
</event>
<event>
 5   0  0.5948818E-04  0.1103149E+04  0.7818609E-02  0.9202128E-01
       -2   -1    0    0    0  501  0.00000000000E+00  0.00000000000E+00  0.13348281116E+03  0.13348281118E+03  0.25500000920E-02 0.  1.
        2   -1    0    0  501    0  0.00000000000E+00  0.00000000000E+00 -0.22792040778E+04  0.22792040778E+04  0.25500000920E-02 0. -1.
    10030    2    1    2    0    0  0.00000000000E+00  0.00000000000E+00 -0.21457212666E+04  0.24126868890E+04  0.11031492511E+04 0.  0.
        3    1    3    3  502    0  0.42751239653E+03 -0.89849175126E+01 -0.18348567218E+04  0.18840240916E+04  0.10100000352E+00 0. -1.
       -3    1    3    3    0  502 -0.42751239653E+03  0.89849175126E+01 -0.31086454487E+03  0.52866279744E+03  0.10100000352E+00 0.  1.
</event>
<event>
 5   0  0.6245176E-04  0.1101062E+04  0.7818609E-02  0.9204157E-01
       -2   -1    0    0    0  501  0.00000000000E+00  0.00000000000E+00  0.19818296779E+03  0.19818296781E+03  0.25500000920E-02 0. -1.
        2   -1    0    0  501    0  0.00000000000E+00  0.00000000000E+00 -0.15293162207E+04  0.15293162207E+04  0.25500000920E-02 0.  1.
    10030    2    1    2    0    0  0.00000000000E+00  0.00000000000E+00 -0.13311332529E+04  0.17274991885E+04  0.11010620824E+04 0.  0.
        5    1    3    3  502    0 -0.25280702481E+03 -0.38549595249E+03 -0.11376681940E+04  0.12275298492E+04  0.46999998093E+01 0.  1.
       -5    1    3    3    0  502  0.25280702481E+03  0.38549595249E+03 -0.19346505893E+03  0.49996933927E+03  0.46999998093E+01 0. -1.
</event>
<event>
 5   0  0.3642161E-04  0.1098940E+04  0.7818609E-02  0.9206226E-01
        1   -1    0    0  501    0  0.00000000000E+00  0.00000000000E+00  0.94859764255E+03  0.94859764257E+03  0.50400001928E-02 0. -1.
       -1   -1    0    0    0  501  0.00000000000E+00  0.00000000000E+00 -0.31827750638E+03  0.31827750642E+03  0.50400001928E-02 0.  1.
    10030    2    1    2    0    0  0.00000000000E+00  0.00000000000E+00  0.63032013617E+03  0.12668751490E+04  0.10989400207E+04 0.  0.
        2    1    3    3  502    0  0.19726258147E+03  0.46949209108E+03  0.55304808322E+03  0.75179620376E+03  0.25500000920E-02 0. -1.
       -2    1    3    3    0  502 -0.19726258147E+03 -0.46949209108E+03  0.77272052954E+02  0.51507894522E+03  0.25500000920E-02 0.  1.
</event>
<event>
 5   0  0.5948818E-04  0.1099395E+04  0.7818609E-02  0.9205782E-01
        2   -1    0    0  501    0  0.00000000000E+00  0.00000000000E+00  0.11740120155E+04  0.11740120155E+04  0.25500000920E-02 0. -1.
       -2   -1    0    0    0  501  0.00000000000E+00  0.00000000000E+00 -0.25738003275E+03  0.25738003277E+03  0.25500000920E-02 0.  1.
    10030    2    1    2    0    0  0.00000000000E+00  0.00000000000E+00  0.91663198277E+03  0.14313920483E+04  0.10993948354E+04 0.  0.
        3    1    3    3  502    0 -0.28430726805E+03  0.21886347546E+03  0.10005338001E+04  0.10629203822E+04  0.10100000352E+00 0. -1.
       -3    1    3    3    0  502  0.28430726805E+03 -0.21886347546E+03 -0.83901817337E+02  0.36847166609E+03  0.10100000352E+00 0.  1.
</event>
<event>
 5   0  0.6264830E-04  0.1083919E+04  0.7818609E-02  0.9221009E-01
        2   -1    0    0  501    0  0.00000000000E+00  0.00000000000E+00  0.12102669363E+04  0.12102669363E+04  0.25500000920E-02 0. -1.
       -2   -1    0    0    0  501  0.00000000000E+00  0.00000000000E+00 -0.24269045117E+03  0.24269045118E+03  0.25500000920E-02 0.  1.
    10030    2    1    2    0    0  0.00000000000E+00  0.00000000000E+00  0.96757648518E+03  0.14529573875E+04  0.10839192384E+04 0.  0.
        4    1    3    3  502    0 -0.41226985268E+02 -0.35203814164E+03 -0.65783551204E+02  0.36049910678E+03  0.12699999809E+01 0.  1.
       -4    1    3    3    0  502  0.41226985268E+02  0.35203814164E+03  0.10333600364E+04  0.10924582807E+04  0.12699999809E+01 0. -1.
</event>
<event>
 5   0  0.5948818E-04  0.1102928E+04  0.7818609E-02  0.9202343E-01
       -2   -1    0    0    0  501  0.00000000000E+00  0.00000000000E+00  0.94184410228E+03  0.94184410228E+03  0.25500000920E-02 0. -1.
        2   -1    0    0  501    0  0.00000000000E+00  0.00000000000E+00 -0.32289057726E+03  0.32289057727E+03  0.25500000920E-02 0.  1.
    10030    2    1    2    0    0  0.00000000000E+00  0.00000000000E+00  0.61895352502E+03  0.12647346796E+04  0.11029280772E+04 0.  0.
        3    1    3    3  502    0 -0.42497576918E+03  0.30990963161E+03  0.11944086595E+03  0.53936491804E+03  0.10100000352E+00 0.  1.
       -3    1    3    3    0  502  0.42497576918E+03 -0.30990963161E+03  0.49951265907E+03  0.72536976152E+03  0.10100000352E+00 0. -1.
</event>
<event>
 5   0  0.3642161E-04  0.1102941E+04  0.7818609E-02  0.9202330E-01
       -1   -1    0    0    0  501  0.00000000000E+00  0.00000000000E+00  0.54595673735E+03  0.54595673737E+03  0.50400001928E-02 0. -1.
        1   -1    0    0  501    0  0.00000000000E+00  0.00000000000E+00 -0.55703984025E+03  0.55703984028E+03  0.50400001928E-02 0.  1.
    10030    2    1    2    0    0  0.00000000000E+00  0.00000000000E+00 -0.11083102902E+02  0.11029965776E+04  0.11029408938E+04 0.  0.
        2    1    3    3  502    0  0.36912802562E+03  0.13284852151E+03 -0.39313746599E+03  0.55539292050E+03  0.25500000920E-02 0.  1.
       -2    1    3    3    0  502 -0.36912802562E+03 -0.13284852151E+03  0.38205436309E+03  0.54760365715E+03  0.25500000920E-02 0. -1.
</event>
<event>
 5   0  0.6412712E-04  0.1092503E+04  0.7818609E-02  0.9212530E-01
       -2   -1    0    0    0  501  0.00000000000E+00  0.00000000000E+00  0.29996437475E+03  0.29996437476E+03  0.25500000920E-02 0.  1.
        2   -1    0    0  501    0  0.00000000000E+00  0.00000000000E+00 -0.99475411578E+03  0.99475411578E+03  0.25500000920E-02 0. -1.
    10030    2    1    2    0    0  0.00000000000E+00  0.00000000000E+00 -0.69478974103E+03  0.12947184905E+04  0.10925031741E+04 0.  0.
        2    1    3    3  502    0  0.29954094433E+03  0.31110878670E+02 -0.88748835555E+03  0.93719168015E+03  0.25500000920E-02 0. -1.
       -2    1    3    3    0  502 -0.29954094433E+03 -0.31110878670E+02  0.19269861452E+03  0.35752681038E+03  0.25500000920E-02 0.  1.
</event>
<event>
 5   0  0.3657529E-04  0.1095944E+04  0.7818609E-02  0.9209154E-01
        1   -1    0    0  501    0  0.00000000000E+00  0.00000000000E+00  0.33966848876E+03  0.33966848880E+03  0.50400001928E-02 0. -1.
       -1   -1    0    0    0  501  0.00000000000E+00  0.00000000000E+00 -0.88401948927E+03  0.88401948929E+03  0.50400001928E-02 0.  1.
    10030    2    1    2    0    0  0.00000000000E+00  0.00000000000E+00 -0.54435100051E+03  0.12236879781E+04  0.10959444584E+04 0.  0.
        4    1    3    3  502    0  0.47007294155E+02  0.50723984135E+03 -0.49762669993E+03  0.71213473988E+03  0.12699999809E+01 0.  1.
       -4    1    3    3    0  502 -0.47007294155E+02 -0.50723984135E+03 -0.46724300583E+02  0.51155323821E+03  0.12699999809E+01 0. -1.
</event>
<event>
 5   0  0.3657529E-04  0.1100074E+04  0.7818609E-02  0.9205120E-01
       -1   -1    0    0    0  501  0.00000000000E+00  0.00000000000E+00  0.50121986021E+03  0.50121986023E+03  0.50400001928E-02 0. -1.
        1   -1    0    0  501    0  0.00000000000E+00  0.00000000000E+00 -0.60360868848E+03  0.60360868850E+03  0.50400001928E-02 0.  1.
    10030    2    1    2    0    0  0.00000000000E+00  0.00000000000E+00 -0.10238882827E+03  0.11048285487E+04  0.11000739293E+04 0.  0.
        4    1    3    3  502    0  0.29725832864E+03 -0.28503805676E+03  0.31497685007E+03  0.51847973608E+03  0.12699999809E+01 0. -1.
       -4    1    3    3    0  502 -0.29725832864E+03  0.28503805676E+03 -0.41736567834E+03  0.58634881266E+03  0.12699999809E+01 0.  1.
</event>
<event>
 5   0  0.6264830E-04  0.1099781E+04  0.7818609E-02  0.9205405E-01
       -2   -1    0    0    0  501  0.00000000000E+00  0.00000000000E+00  0.41034144685E+03  0.41034144686E+03  0.25500000920E-02 0.  1.
        2   -1    0    0  501    0  0.00000000000E+00  0.00000000000E+00 -0.73689765261E+03  0.73689765261E+03  0.25500000920E-02 0. -1.
    10030    2    1    2    0    0  0.00000000000E+00  0.00000000000E+00 -0.32655620576E+03  0.11472390995E+04  0.10997811582E+04 0.  0.
        4    1    3    3  502    0  0.51264192370E+03  0.12506540708E+03 -0.18928603971E+01  0.52768200065E+03  0.12699999809E+01 0.  1.
       -4    1    3    3    0  502 -0.51264192370E+03 -0.12506540708E+03 -0.32466334536E+03  0.61955709883E+03  0.12699999809E+01 0. -1.
</event>
<event>
 5   0  0.3621403E-04  0.1074094E+04  0.7818609E-02  0.9230816E-01
       -1   -1    0    0    0  501  0.00000000000E+00  0.00000000000E+00  0.24984165893E+03  0.24984165898E+03  0.50400001928E-02 0.  1.
        1   -1    0    0  501    0  0.00000000000E+00  0.00000000000E+00 -0.11544081925E+04  0.11544081926E+04  0.50400001928E-02 0. -1.
    10030    2    1    2    0    0  0.00000000000E+00  0.00000000000E+00 -0.90456653362E+03  0.14042498515E+04  0.10740935861E+04 0.  0.
        3    1    3    3  502    0 -0.76430142325E+02  0.44337692279E+03 -0.83567065025E+03  0.94908909393E+03  0.10100000352E+00 0. -1.
       -3    1    3    3    0  502  0.76430142325E+02 -0.44337692279E+03 -0.68895883367E+02  0.45516075761E+03  0.10100000352E+00 0.  1.
</event>
<event>
 5   0  0.2403875E-04  0.1104219E+04  0.7818609E-02  0.9201089E-01
       -4   -1    0    0    0  501  0.00000000000E+00  0.00000000000E+00  0.23958614669E+03  0.23958951267E+03  0.12699999809E+01 0. -1.
        4   -1    0    0  501    0  0.00000000000E+00  0.00000000000E+00 -0.12722853755E+04  0.12722860094E+04  0.12699999809E+01 0.  1.
    10030    2    1    2    0    0  0.00000000000E+00  0.00000000000E+00 -0.10326992288E+04  0.15118755220E+04  0.11042191345E+04 0.  0.
        1    1    3    3  502    0 -0.29566623368E+03  0.42400196498E+03 -0.78194521171E+03  0.93735505663E+03  0.50400001928E-02 0. -1.
       -1    1    3    3    0  502  0.29566623368E+03 -0.42400196498E+03 -0.25075401710E+03  0.57452046540E+03  0.50400001928E-02 0.  1.
</event>
<event>
 5   0  0.5948818E-04  0.1100778E+04  0.7818609E-02  0.9204434E-01
        2   -1    0    0  501    0  0.00000000000E+00  0.00000000000E+00  0.58199673387E+03  0.58199673388E+03  0.25500000920E-02 0. -1.
       -2   -1    0    0    0  501  0.00000000000E+00  0.00000000000E+00 -0.52049753039E+03  0.52049753040E+03  0.25500000920E-02 0.  1.
    10030    2    1    2    0    0  0.00000000000E+00  0.00000000000E+00  0.61499203478E+02  0.11024942643E+04  0.11007776573E+04 0.  0.
        3    1    3    3  502    0 -0.18955553299E+03  0.11917158352E+03  0.53432059163E+03  0.57933726900E+03  0.10100000352E+00 0. -1.
       -3    1    3    3    0  502  0.18955553299E+03 -0.11917158352E+03 -0.47282138816E+03  0.52315699528E+03  0.10100000352E+00 0.  1.
</event>
<event>
 5   0  0.5948818E-04  0.1099700E+04  0.7818609E-02  0.9205484E-01
       -2   -1    0    0    0  501  0.00000000000E+00  0.00000000000E+00  0.28215039950E+03  0.28215039951E+03  0.25500000920E-02 0. -1.
        2   -1    0    0  501    0  0.00000000000E+00  0.00000000000E+00 -0.10715391047E+04  0.10715391047E+04  0.25500000920E-02 0.  1.
    10030    2    1    2    0    0  0.00000000000E+00  0.00000000000E+00 -0.78938870520E+03  0.13536895042E+04  0.10997002982E+04 0.  0.
        3    1    3    3  502    0 -0.74659245145E+02 -0.52958504353E+03 -0.55185720840E+03  0.76849249175E+03  0.10100000352E+00 0.  1.
       -3    1    3    3    0  502  0.74659245145E+02  0.52958504353E+03 -0.23753149680E+03  0.58519701245E+03  0.10100000352E+00 0. -1.
</event>
<event>
 5   0  0.6264830E-04  0.1101508E+04  0.7818609E-02  0.9203724E-01
        2   -1    0    0  501    0  0.00000000000E+00  0.00000000000E+00  0.47316468442E+03  0.47316468442E+03  0.25500000920E-02 0.  1.
       -2   -1    0    0    0  501  0.00000000000E+00  0.00000000000E+00 -0.64106581445E+03  0.64106581446E+03  0.25500000920E-02 0. -1.
    10030    2    1    2    0    0  0.00000000000E+00  0.00000000000E+00 -0.16790113004E+03  0.11142304989E+04  0.11015075193E+04 0.  0.
        4    1    3    3  502    0 -0.15231109564E+03 -0.42538534690E+03  0.23461033014E+03  0.50911195539E+03  0.12699999809E+01 0.  1.
       -4    1    3    3    0  502  0.15231109564E+03  0.42538534690E+03 -0.40251146018E+03  0.60511854350E+03  0.12699999809E+01 0. -1.
</event>
<event>
 5   0  0.3423758E-04  0.1099678E+04  0.7818609E-02  0.9205506E-01
        1   -1    0    0  501    0  0.00000000000E+00  0.00000000000E+00  0.15910124694E+04  0.15910124694E+04  0.50400001928E-02 0.  1.
       -1   -1    0    0    0  501  0.00000000000E+00  0.00000000000E+00 -0.19001913497E+03  0.19001913503E+03  0.50400001928E-02 0. -1.
    10030    2    1    2    0    0  0.00000000000E+00  0.00000000000E+00  0.14009933344E+04  0.17810316045E+04  0.10996777950E+04 0.  0.
        1    1    3    3  502    0 -0.69542999898E+02  0.42135608097E+03  0.13957993063E+03  0.44928802885E+03  0.50400001928E-02 0. -1.
       -1    1    3    3    0  502  0.69542999898E+02 -0.42135608097E+03  0.12614134038E+04  0.13317435756E+04  0.50400001928E-02 0.  1.
</event>
<event>
 5   0  0.6264830E-04  0.1099091E+04  0.7818609E-02  0.9206078E-01
        2   -1    0    0  501    0  0.00000000000E+00  0.00000000000E+00  0.96144777340E+03  0.96144777340E+03  0.25500000920E-02 0.  1.
       -2   -1    0    0    0  501  0.00000000000E+00  0.00000000000E+00 -0.31410986518E+03  0.31410986519E+03  0.25500000920E-02 0. -1.
    10030    2    1    2    0    0  0.00000000000E+00  0.00000000000E+00  0.64733790822E+03  0.12755576386E+04  0.10990909525E+04 0.  0.
        4    1    3    3  502    0 -0.30662137470E+03 -0.45604212737E+03  0.32685324539E+03  0.63939482816E+03  0.12699999809E+01 0. -1.
       -4    1    3    3    0  502  0.30662137470E+03  0.45604212737E+03  0.32048466283E+03  0.63616281042E+03  0.12699999809E+01 0.  1.
</event>
<event>
 5   0  0.3621403E-04  0.1096519E+04  0.7818609E-02  0.9208591E-01
        1   -1    0    0  501    0  0.00000000000E+00  0.00000000000E+00  0.15169281053E+04  0.15169281053E+04  0.50400001928E-02 0. -1.
       -1   -1    0    0    0  501  0.00000000000E+00  0.00000000000E+00 -0.19815618015E+03  0.19815618022E+03  0.50400001928E-02 0.  1.
    10030    2    1    2    0    0  0.00000000000E+00  0.00000000000E+00  0.13187719251E+04  0.17150842855E+04  0.10965193641E+04 0.  0.
        3    1    3    3  502    0 -0.54496987118E+03 -0.55645624691E+02  0.62440870571E+03  0.83064724041E+03  0.10100000352E+00 0.  1.
       -3    1    3    3    0  502  0.54496987118E+03  0.55645624691E+02  0.69436321942E+03  0.88443704509E+03  0.10100000352E+00 0. -1.
</event>
<event>
 5   0  0.5948818E-04  0.1100857E+04  0.7818609E-02  0.9204357E-01
       -2   -1    0    0    0  501  0.00000000000E+00  0.00000000000E+00  0.33668027259E+03  0.33668027260E+03  0.25500000920E-02 0.  1.
        2   -1    0    0  501    0  0.00000000000E+00  0.00000000000E+00 -0.89987884097E+03  0.89987884098E+03  0.25500000920E-02 0. -1.
    10030    2    1    2    0    0  0.00000000000E+00  0.00000000000E+00 -0.56319856839E+03  0.12365591136E+04  0.11008568544E+04 0.  0.
        3    1    3    3  502    0  0.41040427021E+03  0.76665868258E+02  0.12131196058E+03  0.43477111489E+03  0.10100000352E+00 0.  1.
       -3    1    3    3    0  502 -0.41040427021E+03 -0.76665868258E+02 -0.68451052896E+03  0.80178799868E+03  0.10100000352E+00 0. -1.
</event>
<event>
 5   0  0.5948818E-04  0.1100698E+04  0.7818609E-02  0.9204512E-01
       -2   -1    0    0    0  501  0.00000000000E+00  0.00000000000E+00  0.69771720852E+03  0.69771720852E+03  0.25500000920E-02 0. -1.
        2   -1    0    0  501    0  0.00000000000E+00  0.00000000000E+00 -0.43410694133E+03  0.43410694134E+03  0.25500000920E-02 0.  1.
    10030    2    1    2    0    0  0.00000000000E+00  0.00000000000E+00  0.26361026718E+03  0.11318241499E+04  0.11006977484E+04 0.  0.
        3    1    3    3  502    0  0.77119117307E+02  0.53438935671E+03  0.22185934816E+02  0.54038094778E+03  0.10100000352E+00 0. -1.
       -3    1    3    3    0  502 -0.77119117307E+02 -0.53438935671E+03  0.24142433237E+03  0.59144320208E+03  0.10100000352E+00 0.  1.
</event>
<event>
 5   0  0.3657529E-04  0.1100432E+04  0.7818609E-02  0.9204771E-01
        1   -1    0    0  501    0  0.00000000000E+00  0.00000000000E+00  0.17068795711E+04  0.17068795711E+04  0.50400001928E-02 0. -1.
       -1   -1    0    0    0  501  0.00000000000E+00  0.00000000000E+00 -0.17736323218E+03  0.17736323225E+03  0.50400001928E-02 0.  1.
    10030    2    1    2    0    0  0.00000000000E+00  0.00000000000E+00  0.15295163389E+04  0.18842428034E+04  0.11004320565E+04 0.  0.
        4    1    3    3  502    0 -0.25973204688E+02 -0.52222258685E+03  0.10580776388E+04  0.11802207167E+04  0.12699999809E+01 0. -1.
       -4    1    3    3    0  502  0.25973204688E+02  0.52222258685E+03  0.47143870016E+03  0.70402208665E+03  0.12699999809E+01 0.  1.
</event>
<event>
 5   0  0.3423758E-04  0.1100476E+04  0.7818609E-02  0.9204728E-01
        1   -1    0    0  501    0  0.00000000000E+00  0.00000000000E+00  0.12525823293E+04  0.12525823293E+04  0.50400001928E-02 0. -1.
       -1   -1    0    0    0  501  0.00000000000E+00  0.00000000000E+00 -0.24171010194E+03  0.24171010199E+03  0.50400001928E-02 0.  1.
    10030    2    1    2    0    0  0.00000000000E+00  0.00000000000E+00  0.10108722274E+04  0.14942924313E+04  0.11004759017E+04 0.  0.
        1    1    3    3  502    0 -0.38839983711E+03 -0.38507734729E+03  0.42370685139E+03  0.69185727777E+03  0.50400001928E-02 0.  1.
       -1    1    3    3    0  502  0.38839983711E+03  0.38507734729E+03  0.58716537597E+03  0.80243515354E+03  0.50400001928E-02 0. -1.
</event>
<event>
 5   0  0.6109149E-04  0.1100444E+04  0.7818609E-02  0.9204759E-01
       -2   -1    0    0    0  501  0.00000000000E+00  0.00000000000E+00  0.33678486458E+03  0.33678486459E+03  0.25500000920E-02 0. -1.
        2   -1    0    0  501    0  0.00000000000E+00  0.00000000000E+00 -0.89892474094E+03  0.89892474095E+03  0.25500000920E-02 0.  1.
    10030    2    1    2    0    0  0.00000000000E+00  0.00000000000E+00 -0.56213987636E+03  0.12357096055E+04  0.11004439961E+04 0.  0.
        1    1    3    3  502    0 -0.52462395460E+03 -0.14778083176E+02 -0.46659154399E+03  0.70225091985E+03  0.50400001928E-02 0.  1.
       -1    1    3    3    0  502  0.52462395460E+03  0.14778083176E+02 -0.95548332368E+02  0.53345868568E+03  0.50400001928E-02 0. -1.
</event>
<event>
 5   0  0.3657529E-04  0.1101023E+04  0.7818609E-02  0.9204196E-01
       -1   -1    0    0    0  501  0.00000000000E+00  0.00000000000E+00  0.95300969013E+03  0.95300969015E+03  0.50400001928E-02 0.  1.
        1   -1    0    0  501    0  0.00000000000E+00  0.00000000000E+00 -0.31800589755E+03  0.31800589759E+03  0.50400001928E-02 0. -1.
    10030    2    1    2    0    0  0.00000000000E+00  0.00000000000E+00  0.63500379258E+03  0.12710155877E+04  0.11010226191E+04 0.  0.
        4    1    3    3  502    0 -0.14433703922E+03 -0.66163120750E+01  0.93072841912E+03  0.94187788993E+03  0.12699999809E+01 0.  1.
       -4    1    3    3    0  502  0.14433703922E+03  0.66163120750E+01 -0.29572462654E+03  0.32913769781E+03  0.12699999809E+01 0. -1.
</event>
<event>
 5   0  0.6245176E-04  0.1098547E+04  0.7818609E-02  0.9206609E-01
        2   -1    0    0  501    0  0.00000000000E+00  0.00000000000E+00  0.40773411402E+03  0.40773411402E+03  0.25500000920E-02 0. -1.
       -2   -1    0    0    0  501  0.00000000000E+00  0.00000000000E+00 -0.73994606074E+03  0.73994606074E+03  0.25500000920E-02 0.  1.
    10030    2    1    2    0    0  0.00000000000E+00  0.00000000000E+00 -0.33221194672E+03  0.11476801748E+04  0.10985467701E+04 0.  0.
        5    1    3    3  502    0  0.65663419140E+02 -0.62915910488E+02 -0.73200518889E+03  0.73764746523E+03  0.46999998093E+01 0.  1.
       -5    1    3    3    0  502 -0.65663419140E+02  0.62915910488E+02  0.39979324217E+03  0.41003270953E+03  0.46999998093E+01 0. -1.
</event>
<event>
 5   0  0.3642161E-04  0.1103014E+04  0.7818609E-02  0.9202259E-01
        1   -1    0    0  501    0  0.00000000000E+00  0.00000000000E+00  0.46123561108E+03  0.46123561111E+03  0.50400001928E-02 0.  1.
       -1   -1    0    0    0  501  0.00000000000E+00  0.00000000000E+00 -0.65944615144E+03  0.65944615146E+03  0.50400001928E-02 0. -1.
    10030    2    1    2    0    0  0.00000000000E+00  0.00000000000E+00 -0.19821054036E+03  0.11206817626E+04  0.11030141407E+04 0.  0.
        2    1    3    3  502    0 -0.15016672384E+03 -0.13890333563E+02  0.43987942952E+03  0.46501279428E+03  0.25500000920E-02 0.  1.
       -2    1    3    3    0  502  0.15016672384E+03  0.13890333563E+02 -0.63808996988E+03  0.65566896830E+03  0.25500000920E-02 0. -1.
</event>
<event>
 5   0  0.3523525E-04  0.1088823E+04  0.7818609E-02  0.9216155E-01
       -1   -1    0    0    0  501  0.00000000000E+00  0.00000000000E+00  0.64019100831E+03  0.64019100833E+03  0.50400001928E-02 0. -1.
        1   -1    0    0  501    0  0.00000000000E+00  0.00000000000E+00 -0.46296146133E+03  0.46296146136E+03  0.50400001928E-02 0.  1.
    10030    2    1    2    0    0  0.00000000000E+00  0.00000000000E+00  0.17722954698E+03  0.11031524697E+04  0.10888227859E+04 0.  0.
        5    1    3    3  502    0 -0.34285686738E+03  0.55762816454E+01 -0.33977342845E+03  0.48275252367E+03  0.46999998093E+01 0.  1.
       -5    1    3    3    0  502  0.34285686738E+03 -0.55762816454E+01  0.51700297543E+03  0.62039994602E+03  0.46999998093E+01 0. -1.
</event>
<event>
 5   0  0.3423758E-04  0.1101038E+04  0.7818609E-02  0.9204181E-01
        1   -1    0    0  501    0  0.00000000000E+00  0.00000000000E+00  0.22094721057E+04  0.22094721057E+04  0.50400001928E-02 0.  1.
       -1   -1    0    0    0  501  0.00000000000E+00  0.00000000000E+00 -0.13716910090E+03  0.13716910099E+03  0.50400001928E-02 0. -1.
    10030    2    1    2    0    0  0.00000000000E+00  0.00000000000E+00  0.20723030048E+04  0.23466412066E+04  0.11010382415E+04 0.  0.
        1    1    3    3  502    0  0.10587688382E+03  0.22862297731E+03  0.20793844182E+04  0.20945925472E+04  0.50400001928E-02 0.  1.
       -1    1    3    3    0  502 -0.10587688382E+03 -0.22862297731E+03 -0.70814134142E+01  0.25204865944E+03  0.50400001928E-02 0. -1.
</event>
<event>
 5   0  0.6245176E-04  0.1102852E+04  0.7818609E-02  0.9202417E-01
        2   -1    0    0  501    0  0.00000000000E+00  0.00000000000E+00  0.20171406953E+04  0.20171406953E+04  0.25500000920E-02 0.  1.
       -2   -1    0    0    0  501  0.00000000000E+00  0.00000000000E+00 -0.15074331120E+03  0.15074331123E+03  0.25500000920E-02 0. -1.
    10030    2    1    2    0    0  0.00000000000E+00  0.00000000000E+00  0.18663973841E+04  0.21678840066E+04  0.11028516992E+04 0.  0.
        5    1    3    3  502    0  0.39659214136E+03  0.14616001805E+03  0.23710417539E+03  0.48465302790E+03  0.46999998093E+01 0. -1.
       -5    1    3    3    0  502 -0.39659214136E+03 -0.14616001805E+03  0.16292932088E+04  0.16832309787E+04  0.46999998093E+01 0.  1.
</event>
<event>
 5   0  0.3642161E-04  0.1106026E+04  0.7818609E-02  0.9199338E-01
       -1   -1    0    0    0  501  0.00000000000E+00  0.00000000000E+00  0.53134135096E+03  0.53134135099E+03  0.50400001928E-02 0.  1.
        1   -1    0    0  501    0  0.00000000000E+00  0.00000000000E+00 -0.57556869399E+03  0.57556869401E+03  0.50400001928E-02 0. -1.
    10030    2    1    2    0    0  0.00000000000E+00  0.00000000000E+00 -0.44227343029E+02  0.11069100450E+04  0.11060261253E+04 0.  0.
        2    1    3    3  502    0 -0.43303182968E+02  0.36105441558E+03  0.39485822150E+03  0.53679462717E+03  0.25500000920E-02 0.  1.
       -2    1    3    3    0  502  0.43303182968E+02 -0.36105441558E+03 -0.43908556453E+03  0.57011541783E+03  0.25500000920E-02 0. -1.
</event>
<event>
 5   0  0.3621403E-04  0.1102765E+04  0.7818609E-02  0.9202501E-01
        1   -1    0    0  501    0  0.00000000000E+00  0.00000000000E+00  0.10638030879E+04  0.10638030879E+04  0.50400001928E-02 0. -1.
       -1   -1    0    0    0  501  0.00000000000E+00  0.00000000000E+00 -0.28578859695E+03  0.28578859699E+03  0.50400001928E-02 0.  1.
    10030    2    1    2    0    0  0.00000000000E+00  0.00000000000E+00  0.77801449092E+03  0.13495916849E+04  0.11027652369E+04 0.  0.
        3    1    3    3  502    0  0.26694861693E+03 -0.31046790208E+03  0.84094661883E+03  0.93533048076E+03  0.10100000352E+00 0. -1.
       -3    1    3    3    0  502 -0.26694861693E+03  0.31046790208E+03 -0.62932127913E+02  0.41426120411E+03  0.10100000352E+00 0.  1.
</event>
<event>
 5   0  0.5948818E-04  0.1092470E+04  0.7818609E-02  0.9212563E-01
       -2   -1    0    0    0  501  0.00000000000E+00  0.00000000000E+00  0.22900384942E+03  0.22900384944E+03  0.25500000920E-02 0.  1.
        2   -1    0    0  501    0  0.00000000000E+00  0.00000000000E+00 -0.13029150765E+04  0.13029150765E+04  0.25500000920E-02 0. -1.
    10030    2    1    2    0    0  0.00000000000E+00  0.00000000000E+00 -0.10739112271E+04  0.15319189260E+04  0.10924698037E+04 0.  0.
        3    1    3    3  502    0 -0.40276055636E+03  0.36876869100E+03 -0.55503024426E+03  0.77863020457E+03  0.10100000352E+00 0. -1.
       -3    1    3    3    0  502  0.40276055636E+03 -0.36876869100E+03 -0.51888098284E+03  0.75328872139E+03  0.10100000352E+00 0.  1.
</event>
<event>
 5   0  0.6245176E-04  0.1100252E+04  0.7818609E-02  0.9204946E-01
        2   -1    0    0  501    0  0.00000000000E+00  0.00000000000E+00  0.12328434937E+04  0.12328434937E+04  0.25500000920E-02 0. -1.
       -2   -1    0    0    0  501  0.00000000000E+00  0.00000000000E+00 -0.24548022047E+03  0.24548022048E+03  0.25500000920E-02 0.  1.
    10030    2    1    2    0    0  0.00000000000E+00  0.00000000000E+00  0.98736327327E+03  0.14783237142E+04  0.11002521396E+04 0.  0.
        5    1    3    3  502    0  0.44553150536E+03 -0.30192638146E+03  0.34072838304E+03  0.63700532423E+03  0.46999998093E+01 0. -1.
       -5    1    3    3    0  502 -0.44553150536E+03  0.30192638146E+03  0.64663489024E+03  0.84131839000E+03  0.46999998093E+01 0.  1.
</event>
<event>
 5   0  0.6109149E-04  0.1098462E+04  0.7818609E-02  0.9206692E-01
       -2   -1    0    0    0  501  0.00000000000E+00  0.00000000000E+00  0.73989728859E+03  0.73989728860E+03  0.25500000920E-02 0. -1.
        2   -1    0    0  501    0  0.00000000000E+00  0.00000000000E+00 -0.40769835471E+03  0.40769835471E+03  0.25500000920E-02 0.  1.
    10030    2    1    2    0    0  0.00000000000E+00  0.00000000000E+00  0.33219893389E+03  0.11475956433E+04  0.10984623930E+04 0.  0.
        1    1    3    3  502    0  0.40250409593E+03 -0.12047937478E+03  0.53565912730E+03  0.68077568088E+03  0.50400001928E-02 0. -1.
       -1    1    3    3    0  502 -0.40250409593E+03  0.12047937478E+03 -0.20346019342E+03  0.46681996243E+03  0.50400001928E-02 0.  1.
</event>
<event>
 5   0  0.3657529E-04  0.1092898E+04  0.7818609E-02  0.9212142E-01
        1   -1    0    0  501    0  0.00000000000E+00  0.00000000000E+00  0.14479479034E+04  0.14479479034E+04  0.50400001928E-02 0.  1.
       -1   -1    0    0    0  501  0.00000000000E+00  0.00000000000E+00 -0.20622736476E+03  0.20622736483E+03  0.50400001928E-02 0. -1.
    10030    2    1    2    0    0  0.00000000000E+00  0.00000000000E+00  0.12417205387E+04  0.16541752683E+04  0.10928979467E+04 0.  0.
        4    1    3    3  502    0  0.26718523043E+03  0.42595806905E+03  0.29702519373E+03  0.58399811863E+03  0.12699999809E+01 0. -1.
       -4    1    3    3    0  502 -0.26718523043E+03 -0.42595806905E+03  0.94469534493E+03  0.10701771496E+04  0.12699999809E+01 0.  1.
</event>
<event>
 5   0  0.3621403E-04  0.1101089E+04  0.7818609E-02  0.9204131E-01
       -1   -1    0    0    0  501  0.00000000000E+00  0.00000000000E+00  0.29388267830E+03  0.29388267834E+03  0.50400001928E-02 0. -1.
        1   -1    0    0  501    0  0.00000000000E+00  0.00000000000E+00 -0.10313615195E+04  0.10313615195E+04  0.50400001928E-02 0.  1.
    10030    2    1    2    0    0  0.00000000000E+00  0.00000000000E+00 -0.73747884124E+03  0.13252441979E+04  0.11010890712E+04 0.  0.
        3    1    3    3  502    0  0.18885556986E+03  0.51373993434E+03 -0.43998591619E+03  0.70226972244E+03  0.10100000352E+00 0. -1.
       -3    1    3    3    0  502 -0.18885556986E+03 -0.51373993434E+03 -0.29749292505E+03  0.62297447545E+03  0.10100000352E+00 0.  1.
</event>
<event>
 5   0  0.3423758E-04  0.1106932E+04  0.7818609E-02  0.9198462E-01
       -1   -1    0    0    0  501  0.00000000000E+00  0.00000000000E+00  0.40079916118E+03  0.40079916121E+03  0.50400001928E-02 0. -1.
        1   -1    0    0  501    0  0.00000000000E+00  0.00000000000E+00 -0.76428474088E+03  0.76428474090E+03  0.50400001928E-02 0.  1.
    10030    2    1    2    0    0  0.00000000000E+00  0.00000000000E+00 -0.36348557970E+03  0.11650839021E+04  0.11069321263E+04 0.  0.
        1    1    3    3  502    0  0.31828175170E+03 -0.69604399744E+02  0.28917262209E+03  0.43562466794E+03  0.50400001928E-02 0. -1.
       -1    1    3    3    0  502 -0.31828175170E+03  0.69604399744E+02 -0.65265820179E+03  0.72945923417E+03  0.50400001928E-02 0.  1.
</event>
<event>
 5   0  0.6412712E-04  0.1101636E+04  0.7818609E-02  0.9203599E-01
       -2   -1    0    0    0  501  0.00000000000E+00  0.00000000000E+00  0.11455257051E+04  0.11455257051E+04  0.25500000920E-02 0. -1.
        2   -1    0    0  501    0  0.00000000000E+00  0.00000000000E+00 -0.26485688976E+03  0.26485688977E+03  0.25500000920E-02 0.  1.
    10030    2    1    2    0    0  0.00000000000E+00  0.00000000000E+00  0.88066881538E+03  0.14103825949E+04  0.11016358299E+04 0.  0.
        2    1    3    3  502    0 -0.30237661988E+03  0.13702110479E+03 -0.12238989673E+03  0.35381589879E+03  0.25500000920E-02 0.  1.
       -2    1    3    3    0  502  0.30237661988E+03 -0.13702110479E+03  0.10030587121E+04  0.10565666961E+04  0.25500000920E-02 0. -1.
</event>
<event>
 5   0  0.3423758E-04  0.1084244E+04  0.7818609E-02  0.9220687E-01
        1   -1    0    0  501    0  0.00000000000E+00  0.00000000000E+00  0.10015358999E+04  0.10015358999E+04  0.50400001928E-02 0.  1.
       -1   -1    0    0    0  501  0.00000000000E+00  0.00000000000E+00 -0.29344538826E+03  0.29344538830E+03  0.50400001928E-02 0. -1.
    10030    2    1    2    0    0  0.00000000000E+00  0.00000000000E+00  0.70809051161E+03  0.12949812882E+04  0.10842436830E+04 0.  0.
        1    1    3    3  502    0  0.17156496017E+03 -0.42928638287E+03  0.69223109504E+03  0.83240928817E+03  0.50400001928E-02 0.  1.
       -1    1    3    3    0  502 -0.17156496017E+03  0.42928638287E+03  0.15859416570E+02  0.46257200001E+03  0.50400001928E-02 0. -1.
</event>
<event>
 5   0  0.2403875E-04  0.1100032E+04  0.7818609E-02  0.9205161E-01
       -4   -1    0    0    0  501  0.00000000000E+00  0.00000000000E+00  0.21954507037E+03  0.21954874362E+03  0.12699999809E+01 0.  1.
        4   -1    0    0  501    0  0.00000000000E+00  0.00000000000E+00 -0.13779129904E+04  0.13779135757E+04  0.12699999809E+01 0. -1.
    10030    2    1    2    0    0  0.00000000000E+00  0.00000000000E+00 -0.11583679200E+04  0.15974623193E+04  0.11000316465E+04 0.  0.
        4    1    3    3  502    0  0.19703449929E+03 -0.47033996352E+03 -0.87846869026E+03  0.10157515089E+04  0.12699999809E+01 0. -1.
       -4    1    3    3    0  502 -0.19703449929E+03  0.47033996352E+03 -0.27989922979E+03  0.58171081039E+03  0.12699999809E+01 0.  1.
</event>
<event>
 5   0  0.3657529E-04  0.1099619E+04  0.7818609E-02  0.9205563E-01
       -1   -1    0    0    0  501  0.00000000000E+00  0.00000000000E+00  0.27610628897E+03  0.27610628902E+03  0.50400001928E-02 0. -1.
        1   -1    0    0  501    0  0.00000000000E+00  0.00000000000E+00 -0.10948344548E+04  0.10948344548E+04  0.50400001928E-02 0.  1.
    10030    2    1    2    0    0  0.00000000000E+00  0.00000000000E+00 -0.81872816578E+03  0.13709407438E+04  0.10996193494E+04 0.  0.
        4    1    3    3  502    0 -0.51124030291E+03 -0.72686395587E+02 -0.64472790683E+03  0.82603005161E+03  0.12699999809E+01 0. -1.
       -4    1    3    3    0  502  0.51124030291E+03  0.72686395587E+02 -0.17400025895E+03  0.54491069217E+03  0.12699999809E+01 0.  1.
</event>
<event>
 5   0  0.5948818E-04  0.1109081E+04  0.7818609E-02  0.9196386E-01
       -2   -1    0    0    0  501  0.00000000000E+00  0.00000000000E+00  0.30504818340E+03  0.30504818342E+03  0.25500000920E-02 0. -1.
        2   -1    0    0  501    0  0.00000000000E+00  0.00000000000E+00 -0.10080865758E+04  0.10080865758E+04  0.25500000920E-02 0.  1.
    10030    2    1    2    0    0  0.00000000000E+00  0.00000000000E+00 -0.70303839235E+03  0.13131347592E+04  0.11090806619E+04 0.  0.
        3    1    3    3  502    0  0.20641589177E+02 -0.11532338627E+03 -0.99326676620E+03  0.10001522072E+04  0.10100000352E+00 0.  1.
       -3    1    3    3    0  502 -0.20641589177E+02  0.11532338627E+03  0.29022837385E+03  0.31298255193E+03  0.10100000352E+00 0. -1.
</event>
<event>
 5   0  0.5948818E-04  0.1097060E+04  0.7818609E-02  0.9208062E-01
       -2   -1    0    0    0  501  0.00000000000E+00  0.00000000000E+00  0.59827660380E+03  0.59827660380E+03  0.25500000920E-02 0. -1.
        2   -1    0    0  501    0  0.00000000000E+00  0.00000000000E+00 -0.50291987932E+03  0.50291987932E+03  0.25500000920E-02 0.  1.
    10030    2    1    2    0    0  0.00000000000E+00  0.00000000000E+00  0.95356724481E+02  0.11011964831E+04  0.10970600665E+04 0.  0.
        3    1    3    3  502    0 -0.32275466983E+03  0.43188098540E+03  0.14902152860E+03  0.55937392560E+03  0.10100000352E+00 0. -1.
       -3    1    3    3    0  502  0.32275466983E+03 -0.43188098540E+03 -0.53664804122E+02  0.54182255753E+03  0.10100000352E+00 0.  1.
</event>
<event>
 5   0  0.3642161E-04  0.1100183E+04  0.7818609E-02  0.9205013E-01
       -1   -1    0    0    0  501  0.00000000000E+00  0.00000000000E+00  0.67629433839E+03  0.67629433841E+03  0.50400001928E-02 0. -1.
        1   -1    0    0  501    0  0.00000000000E+00  0.00000000000E+00 -0.44743952923E+03  0.44743952926E+03  0.50400001928E-02 0.  1.
    10030    2    1    2    0    0  0.00000000000E+00  0.00000000000E+00  0.22885480916E+03  0.11237338677E+04  0.11001832946E+04 0.  0.
        2    1    3    3  502    0  0.38470973951E+03  0.36906751759E+03 -0.24079187759E+02  0.53365927660E+03  0.25500000920E-02 0.  1.
       -2    1    3    3    0  502 -0.38470973951E+03 -0.36906751759E+03  0.25293399692E+03  0.59007459106E+03  0.25500000920E-02 0. -1.
</event>
<event>
 5   0  0.2403875E-04  0.1102871E+04  0.7818609E-02  0.9202398E-01
        3   -1    0    0  501    0  0.00000000000E+00  0.00000000000E+00  0.37462126588E+03  0.37462127950E+03  0.10100000352E+00 0.  1.
       -3   -1    0    0    0  501  0.00000000000E+00  0.00000000000E+00 -0.81170309073E+03  0.81170309701E+03  0.10100000352E+00 0. -1.
    10030    2    1    2    0    0  0.00000000000E+00  0.00000000000E+00 -0.43708182485E+03  0.11863243765E+04  0.11028712548E+04 0.  0.
        4    1    3    3  502    0  0.52294239461E+03 -0.17474679550E+03 -0.22782211292E+03  0.59658169487E+03  0.12699999809E+01 0.  1.
       -4    1    3    3    0  502 -0.52294239461E+03  0.17474679550E+03 -0.20925971192E+03  0.58974268164E+03  0.12699999809E+01 0. -1.
</event>
<event>
 5   0  0.3523525E-04  0.1100004E+04  0.7818609E-02  0.9205188E-01
        1   -1    0    0  501    0  0.00000000000E+00  0.00000000000E+00  0.44183475394E+03  0.44183475397E+03  0.50400001928E-02 0. -1.
       -1   -1    0    0    0  501  0.00000000000E+00  0.00000000000E+00 -0.68465064783E+03  0.68465064785E+03  0.50400001928E-02 0.  1.
    10030    2    1    2    0    0  0.00000000000E+00  0.00000000000E+00 -0.24281589389E+03  0.11264854018E+04  0.11000044555E+04 0.  0.
        5    1    3    3  502    0 -0.54716393012E+03 -0.48784139773E+02 -0.94080303992E+02  0.55735217979E+03  0.46999998093E+01 0.  1.
       -5    1    3    3    0  502  0.54716393012E+03  0.48784139773E+02 -0.14873558990E+03  0.56913322203E+03  0.46999998093E+01 0. -1.
</event>
<event>
 5   0  0.6245176E-04  0.1100045E+04  0.7818609E-02  0.9205148E-01
       -2   -1    0    0    0  501  0.00000000000E+00  0.00000000000E+00  0.59884800161E+03  0.59884800162E+03  0.25500000920E-02 0.  1.
        2   -1    0    0  501    0  0.00000000000E+00  0.00000000000E+00 -0.50517761877E+03  0.50517761878E+03  0.25500000920E-02 0. -1.
    10030    2    1    2    0    0  0.00000000000E+00  0.00000000000E+00  0.93670382840E+02  0.11040256204E+04  0.11000447399E+04 0.  0.
        5    1    3    3  502    0 -0.11877860998E+03 -0.22249717183E+03 -0.44369645616E+03  0.51039395066E+03  0.46999998093E+01 0. -1.
       -5    1    3    3    0  502  0.11877860998E+03  0.22249717183E+03  0.53736683900E+03  0.59363166974E+03  0.46999998093E+01 0.  1.
</event>
<event>
 5   0  0.6109149E-04  0.1099810E+04  0.7818609E-02  0.9205377E-01
       -2   -1    0    0    0  501  0.00000000000E+00  0.00000000000E+00  0.30873805500E+03  0.30873805502E+03  0.25500000920E-02 0.  1.
        2   -1    0    0  501    0  0.00000000000E+00  0.00000000000E+00 -0.97945584692E+03  0.97945584692E+03  0.25500000920E-02 0. -1.
    10030    2    1    2    0    0  0.00000000000E+00  0.00000000000E+00 -0.67071779191E+03  0.12881939019E+04  0.10998096074E+04 0.  0.
        1    1    3    3  502    0 -0.41441336365E+02 -0.54494220391E+03 -0.26395927215E+03  0.60692164844E+03  0.50400001928E-02 0. -1.
       -1    1    3    3    0  502  0.41441336365E+02  0.54494220391E+03 -0.40675851977E+03  0.68127225350E+03  0.50400001928E-02 0.  1.
</event>
<event>
 5   0  0.3523525E-04  0.1095291E+04  0.7818609E-02  0.9209794E-01
        1   -1    0    0  501    0  0.00000000000E+00  0.00000000000E+00  0.17326094896E+03  0.17326094903E+03  0.50400001928E-02 0. -1.
       -1   -1    0    0    0  501  0.00000000000E+00  0.00000000000E+00 -0.17310053547E+04  0.17310053547E+04  0.50400001928E-02 0.  1.
    10030    2    1    2    0    0  0.00000000000E+00  0.00000000000E+00 -0.15577444058E+04  0.19042663038E+04  0.10952910672E+04 0.  0.
        5    1    3    3  502    0  0.96705869819E+02 -0.19263144714E+03  0.96375792968E+02  0.23615520988E+03  0.46999998093E+01 0. -1.
       -5    1    3    3    0  502 -0.96705869819E+02  0.19263144714E+03 -0.16541201988E+04  0.16681110939E+04  0.46999998093E+01 0.  1.
</event>
<event>
 5   0  0.3657529E-04  0.1100407E+04  0.7818609E-02  0.9204796E-01
        1   -1    0    0  501    0  0.00000000000E+00  0.00000000000E+00  0.94295175521E+03  0.94295175522E+03  0.50400001928E-02 0.  1.
       -1   -1    0    0    0  501  0.00000000000E+00  0.00000000000E+00 -0.32103834843E+03  0.32103834847E+03  0.50400001928E-02 0. -1.
    10030    2    1    2    0    0  0.00000000000E+00  0.00000000000E+00  0.62191340678E+03  0.12639901037E+04  0.11004066052E+04 0.  0.
        4    1    3    3  502    0  0.19912013147E+03 -0.36314576268E+03 -0.10510212064E+03  0.42728414476E+03  0.12699999809E+01 0. -1.
       -4    1    3    3    0  502 -0.19912013147E+03  0.36314576268E+03  0.72701552741E+03  0.83670595893E+03  0.12699999809E+01 0.  1.
</event>
<event>
 5   0  0.6264830E-04  0.1101044E+04  0.7818609E-02  0.9204175E-01
       -2   -1    0    0    0  501  0.00000000000E+00  0.00000000000E+00  0.15586642121E+03  0.15586642123E+03  0.25500000920E-02 0.  1.
        2   -1    0    0  501    0  0.00000000000E+00  0.00000000000E+00 -0.19444489138E+04  0.19444489138E+04  0.25500000920E-02 0. -1.
    10030    2    1    2    0    0  0.00000000000E+00  0.00000000000E+00 -0.17885824926E+04  0.21003153351E+04  0.11010436748E+04 0.  0.
        4    1    3    3  502    0  0.23342474625E+03  0.16344007429E+03 -0.17928202435E+04  0.18153252625E+04  0.12699999809E+01 0. -1.
       -4    1    3    3    0  502 -0.23342474625E+03 -0.16344007429E+03  0.42377509161E+01  0.28499007259E+03  0.12699999809E+01 0.  1.
</event>
<event>
 5   0  0.5948818E-04  0.1100030E+04  0.7818609E-02  0.9205162E-01
        2   -1    0    0  501    0  0.00000000000E+00  0.00000000000E+00  0.96964349269E+03  0.96964349270E+03  0.25500000920E-02 0. -1.
       -2   -1    0    0    0  501  0.00000000000E+00  0.00000000000E+00 -0.31198755926E+03  0.31198755927E+03  0.25500000920E-02 0.  1.
    10030    2    1    2    0    0  0.00000000000E+00  0.00000000000E+00  0.65765593344E+03  0.12816310520E+04  0.11000303753E+04 0.  0.
        3    1    3    3  502    0 -0.54355391052E+03 -0.11323086877E+02  0.23178503094E+03  0.59101893092E+03  0.10100000352E+00 0.  1.
       -3    1    3    3    0  502  0.54355391052E+03  0.11323086877E+02  0.42587090249E+03  0.69061212104E+03  0.10100000352E+00 0. -1.
</event>
<event>
 5   0  0.6245176E-04  0.1097156E+04  0.7818609E-02  0.9207968E-01
        2   -1    0    0  501    0  0.00000000000E+00  0.00000000000E+00  0.72410367771E+03  0.72410367771E+03  0.25500000920E-02 0.  1.
       -2   -1    0    0    0  501  0.00000000000E+00  0.00000000000E+00 -0.41560049196E+03  0.41560049197E+03  0.25500000920E-02 0. -1.
    10030    2    1    2    0    0  0.00000000000E+00  0.00000000000E+00  0.30850318575E+03  0.11397041697E+04  0.10971560412E+04 0.  0.
        5    1    3    3  502    0  0.10676493314E+03 -0.48915118425E+03  0.38710556934E+03  0.63288264616E+03  0.46999998093E+01 0.  1.
       -5    1    3    3    0  502 -0.10676493314E+03  0.48915118425E+03 -0.78602383589E+02  0.50682152352E+03  0.46999998093E+01 0. -1.
</event>
<event>
 5   0  0.6245176E-04  0.1095115E+04  0.7818609E-02  0.9209966E-01
       -2   -1    0    0    0  501  0.00000000000E+00  0.00000000000E+00  0.45293103953E+03  0.45293103954E+03  0.25500000920E-02 0.  1.
        2   -1    0    0  501    0  0.00000000000E+00  0.00000000000E+00 -0.66195355831E+03  0.66195355832E+03  0.25500000920E-02 0. -1.
    10030    2    1    2    0    0  0.00000000000E+00  0.00000000000E+00 -0.20902251879E+03  0.11148845979E+04  0.10951151780E+04 0.  0.
        5    1    3    3  502    0 -0.38821412417E+03 -0.21693850448E+03  0.22066796117E+03  0.49647654528E+03  0.46999998093E+01 0.  1.
       -5    1    3    3    0  502  0.38821412417E+03  0.21693850448E+03 -0.42969047995E+03  0.61840805258E+03  0.46999998093E+01 0. -1.
</event>
<event>
 5   0  0.6245176E-04  0.1098896E+04  0.7818609E-02  0.9206268E-01
        2   -1    0    0  501    0  0.00000000000E+00  0.00000000000E+00  0.31103040909E+03  0.31103040910E+03  0.25500000920E-02 0.  1.
       -2   -1    0    0    0  501  0.00000000000E+00  0.00000000000E+00 -0.97062272730E+03  0.97062272730E+03  0.25500000920E-02 0. -1.
    10030    2    1    2    0    0  0.00000000000E+00  0.00000000000E+00 -0.65959231821E+03  0.12816531364E+04  0.10988961442E+04 0.  0.
        5    1    3    3  502    0 -0.54628470097E+03  0.55079620239E+02 -0.35342234678E+03  0.65298559271E+03  0.46999998093E+01 0. -1.
       -5    1    3    3    0  502  0.54628470097E+03 -0.55079620239E+02 -0.30616997144E+03  0.62866754369E+03  0.46999998093E+01 0.  1.
</event>
<event>
 5   0  0.3523525E-04  0.1101414E+04  0.7818609E-02  0.9203815E-01
       -1   -1    0    0    0  501  0.00000000000E+00  0.00000000000E+00  0.10832988488E+04  0.10832988488E+04  0.50400001928E-02 0.  1.
        1   -1    0    0  501    0  0.00000000000E+00  0.00000000000E+00 -0.27995795018E+03  0.27995795023E+03  0.50400001928E-02 0. -1.
    10030    2    1    2    0    0  0.00000000000E+00  0.00000000000E+00  0.80334089858E+03  0.13632567990E+04  0.11014138644E+04 0.  0.
        5    1    3    3  502    0  0.50257438872E+03  0.11662442018E+03  0.16335045958E+03  0.54119103302E+03  0.46999998093E+01 0. -1.
       -5    1    3    3    0  502 -0.50257438872E+03 -0.11662442018E+03  0.63999043900E+03  0.82206576597E+03  0.46999998093E+01 0.  1.
</event>
<event>
 5   0  0.6109149E-04  0.1099999E+04  0.7818609E-02  0.9205193E-01
        2   -1    0    0  501    0  0.00000000000E+00  0.00000000000E+00  0.12305042677E+04  0.12305042677E+04  0.25500000920E-02 0. -1.
       -2   -1    0    0    0  501  0.00000000000E+00  0.00000000000E+00 -0.24583374919E+03  0.24583374920E+03  0.25500000920E-02 0.  1.
    10030    2    1    2    0    0  0.00000000000E+00  0.00000000000E+00  0.98467051853E+03  0.14763380169E+04  0.10999990501E+04 0.  0.
        1    1    3    3  502    0 -0.13681354917E+03 -0.16836725393E+03 -0.18598196292E+03  0.28575298772E+03  0.50400001928E-02 0.  1.
       -1    1    3    3    0  502  0.13681354917E+03  0.16836725393E+03  0.11706524815E+04  0.11905850292E+04  0.50400001928E-02 0. -1.
</event>
<event>
 5   0  0.3642161E-04  0.1101598E+04  0.7818609E-02  0.9203636E-01
        1   -1    0    0  501    0  0.00000000000E+00  0.00000000000E+00  0.34789959271E+03  0.34789959274E+03  0.50400001928E-02 0. -1.
       -1   -1    0    0    0  501  0.00000000000E+00  0.00000000000E+00 -0.87203211063E+03  0.87203211064E+03  0.50400001928E-02 0.  1.
    10030    2    1    2    0    0  0.00000000000E+00  0.00000000000E+00 -0.52413251792E+03  0.12199317034E+04  0.11015981411E+04 0.  0.
        2    1    3    3  502    0  0.44086735503E+03 -0.16153688294E+03  0.56827270096E+02  0.47295615855E+03  0.25500000920E-02 0. -1.
       -2    1    3    3    0  502 -0.44086735503E+03  0.16153688294E+03 -0.58095978801E+03  0.74697554483E+03  0.25500000920E-02 0.  1.
</event>
<event>
 5   0  0.3642161E-04  0.1099690E+04  0.7818609E-02  0.9205495E-01
        1   -1    0    0  501    0  0.00000000000E+00  0.00000000000E+00  0.67629402988E+03  0.67629402990E+03  0.50400001928E-02 0.  1.
       -1   -1    0    0    0  501  0.00000000000E+00  0.00000000000E+00 -0.44703818211E+03  0.44703818214E+03  0.50400001928E-02 0. -1.
    10030    2    1    2    0    0  0.00000000000E+00  0.00000000000E+00  0.22925584777E+03  0.11233322120E+04  0.10996895084E+04 0.  0.
        2    1    3    3  502    0  0.37185331301E+03 -0.27069565316E+03  0.42239983967E+03  0.62447790000E+03  0.25500000920E-02 0.  1.
       -2    1    3    3    0  502 -0.37185331301E+03  0.27069565316E+03 -0.19314399189E+03  0.49885431204E+03  0.25500000920E-02 0. -1.
</event>
<event>
 5   0  0.3621403E-04  0.1107246E+04  0.7818609E-02  0.9198158E-01
       -1   -1    0    0    0  501  0.00000000000E+00  0.00000000000E+00  0.18283240773E+03  0.18283240780E+03  0.50400001928E-02 0. -1.
        1   -1    0    0  501    0  0.00000000000E+00  0.00000000000E+00 -0.16763904864E+04  0.16763904864E+04  0.50400001928E-02 0.  1.
    10030    2    1    2    0    0  0.00000000000E+00  0.00000000000E+00 -0.14935580787E+04  0.18592228942E+04  0.11072461497E+04 0.  0.
        3    1    3    3  502    0  0.28228798877E+03 -0.42206756067E+03 -0.11172227756E+04  0.12271977326E+04  0.10100000352E+00 0. -1.
       -3    1    3    3    0  502 -0.28228798877E+03  0.42206756067E+03 -0.37633530309E+03  0.63202516163E+03  0.10100000352E+00 0.  1.
</event>
<event>
 5   0  0.6109149E-04  0.1102252E+04  0.7818609E-02  0.9202999E-01
        2   -1    0    0  501    0  0.00000000000E+00  0.00000000000E+00  0.13367451619E+04  0.13367451619E+04  0.25500000920E-02 0.  1.
       -2   -1    0    0    0  501  0.00000000000E+00  0.00000000000E+00 -0.22722363376E+03  0.22722363377E+03  0.25500000920E-02 0. -1.
    10030    2    1    2    0    0  0.00000000000E+00  0.00000000000E+00  0.11095215281E+04  0.15639687957E+04  0.11022524087E+04 0.  0.
        1    1    3    3  502    0  0.21839259402E+03  0.50077362800E+03  0.45175188903E+03  0.70890713136E+03  0.50400001928E-02 0. -1.
       -1    1    3    3    0  502 -0.21839259402E+03 -0.50077362800E+03  0.65776963910E+03  0.85506166431E+03  0.50400001928E-02 0.  1.
</event>
<event>
 5   0  0.3657529E-04  0.1099306E+04  0.7818609E-02  0.9205868E-01
        1   -1    0    0  501    0  0.00000000000E+00  0.00000000000E+00  0.20100019578E+03  0.20100019584E+03  0.50400001928E-02 0. -1.
       -1   -1    0    0    0  501  0.00000000000E+00  0.00000000000E+00 -0.15030764669E+04  0.15030764669E+04  0.50400001928E-02 0.  1.
    10030    2    1    2    0    0  0.00000000000E+00  0.00000000000E+00 -0.13020762711E+04  0.17040766627E+04  0.10993064435E+04 0.  0.
        4    1    3    3  502    0 -0.20124212393E+03 -0.49842202556E+03 -0.47298035608E+03  0.71598529185E+03  0.12699999809E+01 0. -1.
       -4    1    3    3    0  502  0.20124212393E+03  0.49842202556E+03 -0.82909591500E+03  0.98809137087E+03  0.12699999809E+01 0.  1.
</event>
<event>
 5   0  0.3657529E-04  0.1102572E+04  0.7818609E-02  0.9202689E-01
        1   -1    0    0  501    0  0.00000000000E+00  0.00000000000E+00  0.49905825788E+03  0.49905825791E+03  0.50400001928E-02 0.  1.
       -1   -1    0    0    0  501  0.00000000000E+00  0.00000000000E+00 -0.60897904237E+03  0.60897904239E+03  0.50400001928E-02 0. -1.
    10030    2    1    2    0    0  0.00000000000E+00  0.00000000000E+00 -0.10992078449E+03  0.11080373003E+04  0.11025715759E+04 0.  0.
        4    1    3    3  502    0 -0.69054561244E+02 -0.12829211056E+03 -0.58927926425E+03  0.60702476246E+03  0.12699999809E+01 0. -1.
       -4    1    3    3    0  502  0.69054561244E+02  0.12829211056E+03  0.47935847976E+03  0.50101253785E+03  0.12699999809E+01 0.  1.
</event>
<event>
 5   0  0.3523525E-04  0.1100285E+04  0.7818609E-02  0.9204914E-01
       -1   -1    0    0    0  501  0.00000000000E+00  0.00000000000E+00  0.26267121046E+03  0.26267121050E+03  0.50400001928E-02 0.  1.
        1   -1    0    0  501    0  0.00000000000E+00  0.00000000000E+00 -0.11522266199E+04  0.11522266199E+04  0.50400001928E-02 0. -1.
    10030    2    1    2    0    0  0.00000000000E+00  0.00000000000E+00 -0.88955540940E+03  0.14148978304E+04  0.11002849831E+04 0.  0.
        5    1    3    3  502    0 -0.15671487385E+03  0.43131886486E+03 -0.83490488521E+03  0.95272439468E+03  0.46999998093E+01 0. -1.
       -5    1    3    3    0  502  0.15671487385E+03 -0.43131886486E+03 -0.54650524191E+02  0.46217343569E+03  0.46999998093E+01 0.  1.
</event>
<event>
 5   0  0.6412712E-04  0.1101360E+04  0.7818609E-02  0.9203867E-01
       -2   -1    0    0    0  501  0.00000000000E+00  0.00000000000E+00  0.15887731878E+03  0.15887731880E+03  0.25500000920E-02 0.  1.
        2   -1    0    0  501    0  0.00000000000E+00  0.00000000000E+00 -0.19086967304E+04  0.19086967304E+04  0.25500000920E-02 0. -1.
    10030    2    1    2    0    0  0.00000000000E+00  0.00000000000E+00 -0.17498194117E+04  0.20675740492E+04  0.11013602842E+04 0.  0.
        2    1    3    3  502    0  0.40759265362E+03 -0.31955322304E+03 -0.12261317144E+04  0.13310315604E+04  0.25500000920E-02 0. -1.
       -2    1    3    3    0  502 -0.40759265362E+03  0.31955322304E+03 -0.52368769721E+03  0.73654248883E+03  0.25500000920E-02 0.  1.
</event>
<event>
 5   0  0.6264830E-04  0.1098855E+04  0.7818609E-02  0.9206309E-01
       -2   -1    0    0    0  501  0.00000000000E+00  0.00000000000E+00  0.16633342631E+03  0.16633342633E+03  0.25500000920E-02 0.  1.
        2   -1    0    0  501    0  0.00000000000E+00  0.00000000000E+00 -0.18148516110E+04  0.18148516110E+04  0.25500000920E-02 0. -1.
    10030    2    1    2    0    0  0.00000000000E+00  0.00000000000E+00 -0.16485181847E+04  0.19811850373E+04  0.10988548343E+04 0.  0.
        4    1    3    3  502    0 -0.32164307825E+03 -0.37986229355E+03 -0.12436901337E+04  0.13395956082E+04  0.12699999809E+01 0. -1.
       -4    1    3    3    0  502  0.32164307825E+03  0.37986229355E+03 -0.40482805100E+03  0.64158942917E+03  0.12699999809E+01 0.  1.
</event>
<event>
 5   0  0.6245176E-04  0.1099761E+04  0.7818609E-02  0.9205425E-01
        2   -1    0    0  501    0  0.00000000000E+00  0.00000000000E+00  0.23150317983E+04  0.23150317983E+04  0.25500000920E-02 0. -1.
       -2   -1    0    0    0  501  0.00000000000E+00  0.00000000000E+00 -0.13061098261E+03  0.13061098264E+03  0.25500000920E-02 0.  1.
    10030    2    1    2    0    0  0.00000000000E+00  0.00000000000E+00  0.21844208157E+04  0.24456427809E+04  0.10997610249E+04 0.  0.
        5    1    3    3  502    0 -0.12839714835E+02  0.29857175384E+03  0.65798348760E+02  0.30604160365E+03  0.46999998093E+01 0.  1.
       -5    1    3    3    0  502  0.12839714835E+02 -0.29857175384E+03  0.21186224669E+04  0.21396011773E+04  0.46999998093E+01 0. -1.
</event>
<event>
 5   0  0.5948818E-04  0.1086859E+04  0.7818609E-02  0.9218095E-01
       -2   -1    0    0    0  501  0.00000000000E+00  0.00000000000E+00  0.27022910304E+03  0.27022910305E+03  0.25500000920E-02 0. -1.
        2   -1    0    0  501    0  0.00000000000E+00  0.00000000000E+00 -0.10928344060E+04  0.10928344060E+04  0.25500000920E-02 0.  1.
    10030    2    1    2    0    0  0.00000000000E+00  0.00000000000E+00 -0.82260530293E+03  0.13630635090E+04  0.10868590733E+04 0.  0.
        3    1    3    3  502    0  0.26648930466E+03  0.30492811179E+03 -0.86577231660E+03  0.95580302220E+03  0.10100000352E+00 0.  1.
       -3    1    3    3    0  502 -0.26648930466E+03 -0.30492811179E+03  0.43167013668E+02  0.40726048682E+03  0.10100000352E+00 0. -1.
</event>
<event>
 5   0  0.6245176E-04  0.1102878E+04  0.7818609E-02  0.9202391E-01
        2   -1    0    0  501    0  0.00000000000E+00  0.00000000000E+00  0.15260602766E+04  0.15260602766E+04  0.25500000920E-02 0. -1.
       -2   -1    0    0    0  501  0.00000000000E+00  0.00000000000E+00 -0.19926139722E+03  0.19926139724E+03  0.25500000920E-02 0.  1.
    10030    2    1    2    0    0  0.00000000000E+00  0.00000000000E+00  0.13267988793E+04  0.17253216738E+04  0.11028778771E+04 0.  0.
        5    1    3    3  502    0  0.66954937221E+02 -0.51493138679E+03  0.37314231839E+03  0.63944865039E+03  0.46999998093E+01 0.  1.
       -5    1    3    3    0  502 -0.66954937221E+02  0.51493138679E+03  0.95365656094E+03  0.10858730234E+04  0.46999998093E+01 0. -1.
</event>
<event>
 5   0  0.6412712E-04  0.1099900E+04  0.7818609E-02  0.9205289E-01
        2   -1    0    0  501    0  0.00000000000E+00  0.00000000000E+00  0.21682268704E+03  0.21682268705E+03  0.25500000920E-02 0.  1.
       -2   -1    0    0    0  501  0.00000000000E+00  0.00000000000E+00 -0.13948963320E+04  0.13948963320E+04  0.25500000920E-02 0. -1.
    10030    2    1    2    0    0  0.00000000000E+00  0.00000000000E+00 -0.11780736449E+04  0.16117190190E+04  0.10999003061E+04 0.  0.
        2    1    3    3  502    0  0.49020886379E+03  0.43976665552E+02 -0.22948816183E+03  0.54305017603E+03  0.25500000920E-02 0.  1.
       -2    1    3    3    0  502 -0.49020886379E+03 -0.43976665552E+02 -0.94858548310E+03  0.10686688430E+04  0.25500000920E-02 0. -1.
</event>
<event>
 5   0  0.3423758E-04  0.1100123E+04  0.7818609E-02  0.9205072E-01
        1   -1    0    0  501    0  0.00000000000E+00  0.00000000000E+00  0.64096158723E+03  0.64096158725E+03  0.50400001928E-02 0. -1.
       -1   -1    0    0    0  501  0.00000000000E+00  0.00000000000E+00 -0.47205292556E+03  0.47205292559E+03  0.50400001928E-02 0.  1.
    10030    2    1    2    0    0  0.00000000000E+00  0.00000000000E+00  0.16890866167E+03  0.11130145128E+04  0.11001232521E+04 0.  0.
        1    1    3    3  502    0 -0.47543404160E+03 -0.25336218502E+03 -0.27923213589E+02  0.53945308470E+03  0.50400001928E-02 0.  1.
       -1    1    3    3    0  502  0.47543404160E+03  0.25336218502E+03  0.19683187526E+03  0.57356142814E+03  0.50400001928E-02 0. -1.
</event>
<event>
 5   0  0.3657529E-04  0.1078886E+04  0.7818609E-02  0.9226019E-01
        1   -1    0    0  501    0  0.00000000000E+00  0.00000000000E+00  0.94704803508E+03  0.94704803510E+03  0.50400001928E-02 0. -1.
       -1   -1    0    0    0  501  0.00000000000E+00  0.00000000000E+00 -0.30726934510E+03  0.30726934515E+03  0.50400001928E-02 0.  1.
    10030    2    1    2    0    0  0.00000000000E+00  0.00000000000E+00  0.63977868998E+03  0.12543173802E+04  0.10788861470E+04 0.  0.
        4    1    3    3  502    0  0.11678041769E+03  0.25500585920E+03  0.85561087571E+03  0.90040948335E+03  0.12699999809E+01 0. -1.
       -4    1    3    3    0  502 -0.11678041769E+03 -0.25500585920E+03 -0.21583218573E+03  0.35390789689E+03  0.12699999809E+01 0.  1.
</event>
<event>
 5   0  0.6264830E-04  0.1100689E+04  0.7818609E-02  0.9204521E-01
       -2   -1    0    0    0  501  0.00000000000E+00  0.00000000000E+00  0.21360092386E+03  0.21360092388E+03  0.25500000920E-02 0. -1.
        2   -1    0    0  501    0  0.00000000000E+00  0.00000000000E+00 -0.14179658136E+04  0.14179658136E+04  0.25500000920E-02 0.  1.
    10030    2    1    2    0    0  0.00000000000E+00  0.00000000000E+00 -0.12043648897E+04  0.16315667374E+04  0.11006885260E+04 0.  0.
        4    1    3    3  502    0  0.19686542102E+03 -0.19698609882E+03  0.10143733050E+03  0.29639612352E+03  0.12699999809E+01 0. -1.
       -4    1    3    3    0  502 -0.19686542102E+03  0.19698609882E+03 -0.13058022202E+04  0.13351706139E+04  0.12699999809E+01 0.  1.
</event>
<event>
 5   0  0.6264830E-04  0.1101729E+04  0.7818609E-02  0.9203508E-01
        2   -1    0    0  501    0  0.00000000000E+00  0.00000000000E+00  0.29536176617E+03  0.29536176618E+03  0.25500000920E-02 0. -1.
       -2   -1    0    0    0  501  0.00000000000E+00  0.00000000000E+00 -0.10273901031E+04  0.10273901031E+04  0.25500000920E-02 0.  1.
    10030    2    1    2    0    0  0.00000000000E+00  0.00000000000E+00 -0.73202833688E+03  0.13227518692E+04  0.11017291053E+04 0.  0.
        4    1    3    3  502    0  0.51428663452E+03  0.14705124799E+03 -0.52409151025E+03  0.74885802125E+03  0.12699999809E+01 0.  1.
       -4    1    3    3    0  502 -0.51428663452E+03 -0.14705124799E+03 -0.20793682664E+03  0.57389384798E+03  0.12699999809E+01 0. -1.
</event>
<event>
 5   0  0.3642161E-04  0.1100508E+04  0.7818609E-02  0.9204697E-01
        1   -1    0    0  501    0  0.00000000000E+00  0.00000000000E+00  0.16062504373E+04  0.16062504373E+04  0.50400001928E-02 0.  1.
       -1   -1    0    0    0  501  0.00000000000E+00  0.00000000000E+00 -0.18850071032E+03  0.18850071039E+03  0.50400001928E-02 0. -1.
    10030    2    1    2    0    0  0.00000000000E+00  0.00000000000E+00  0.14177497270E+04  0.17947511477E+04  0.11005077891E+04 0.  0.
        2    1    3    3  502    0 -0.22547432562E+03 -0.28251860027E+03  0.13854744529E+04  0.14318501635E+04  0.25500000920E-02 0.  1.
       -2    1    3    3    0  502  0.22547432562E+03  0.28251860027E+03  0.32275274066E+02  0.36290098421E+03  0.25500000920E-02 0. -1.
</event>
<event>
 5   0  0.2403875E-04  0.1101178E+04  0.7818609E-02  0.9204045E-01
       -4   -1    0    0    0  501  0.00000000000E+00  0.00000000000E+00  0.86627814093E+03  0.86627907187E+03  0.12699999809E+01 0. -1.
        4   -1    0    0  501    0  0.00000000000E+00  0.00000000000E+00 -0.34994073409E+03  0.34994303862E+03  0.12699999809E+01 0.  1.
    10030    2    1    2    0    0  0.00000000000E+00  0.00000000000E+00  0.51633740684E+03  0.12162221105E+04  0.11011775081E+04 0.  0.
        5    1    3    3  502    0 -0.18721492490E+03 -0.11875103584E+03 -0.29844096655E+03  0.37180685461E+03  0.46999998093E+01 0.  1.
       -5    1    3    3    0  502  0.18721492490E+03  0.11875103584E+03  0.81477837339E+03  0.84441525588E+03  0.46999998093E+01 0. -1.
</event>
<event>
 5   0  0.6412712E-04  0.1100912E+04  0.7818609E-02  0.9204304E-01
       -2   -1    0    0    0  501  0.00000000000E+00  0.00000000000E+00  0.10033172599E+04  0.10033172599E+04  0.25500000920E-02 0.  1.
        2   -1    0    0  501    0  0.00000000000E+00  0.00000000000E+00 -0.30199983467E+03  0.30199983468E+03  0.25500000920E-02 0. -1.
    10030    2    1    2    0    0  0.00000000000E+00  0.00000000000E+00  0.70131742524E+03  0.13053170946E+04  0.11009117070E+04 0.  0.
        2    1    3    3  502    0  0.13438552063E+03  0.25127057459E+03  0.90906393668E+03  0.95267707582E+03  0.25500000920E-02 0.  1.
       -2    1    3    3    0  502 -0.13438552063E+03 -0.25127057459E+03 -0.20774651145E+03  0.35264001877E+03  0.25500000920E-02 0. -1.
</event>
<event>
 5   0  0.5948818E-04  0.1100383E+04  0.7818609E-02  0.9204818E-01
        2   -1    0    0  501    0  0.00000000000E+00  0.00000000000E+00  0.18172068035E+04  0.18172068036E+04  0.25500000920E-02 0. -1.
       -2   -1    0    0    0  501  0.00000000000E+00  0.00000000000E+00 -0.16658027066E+03  0.16658027068E+03  0.25500000920E-02 0.  1.
    10030    2    1    2    0    0  0.00000000000E+00  0.00000000000E+00  0.16506265329E+04  0.19837870742E+04  0.11003832081E+04 0.  0.
        3    1    3    3  502    0 -0.29561417176E+03 -0.39028302697E+02  0.16589076768E+04  0.16854926986E+04  0.10100000352E+00 0. -1.
       -3    1    3    3    0  502  0.29561417176E+03  0.39028302697E+02 -0.82811438732E+01  0.29829437558E+03  0.10100000352E+00 0.  1.
</event>
<event>
 5   0  0.2403875E-04  0.1099290E+04  0.7818609E-02  0.9205884E-01
       -3   -1    0    0    0  501  0.00000000000E+00  0.00000000000E+00  0.19860862387E+03  0.19860864955E+03  0.10100000352E+00 0.  1.
        3   -1    0    0  501    0  0.00000000000E+00  0.00000000000E+00 -0.15211306740E+04  0.15211306773E+04  0.10100000352E+00 0. -1.
    10030    2    1    2    0    0  0.00000000000E+00  0.00000000000E+00 -0.13225220501E+04  0.17197393269E+04  0.10992901252E+04 0.  0.
        3    1    3    3  502    0  0.52396163032E+02 -0.84164061903E+02  0.18450530758E+03  0.20945444837E+03  0.10100000352E+00 0.  1.
       -3    1    3    3    0  502 -0.52396163032E+02  0.84164061903E+02 -0.15070273577E+04  0.15102848785E+04  0.10100000352E+00 0. -1.
</event>
<event>
 5   0  0.6412712E-04  0.1105378E+04  0.7818609E-02  0.9199966E-01
       -2   -1    0    0    0  501  0.00000000000E+00  0.00000000000E+00  0.25299502153E+03  0.25299502154E+03  0.25500000920E-02 0. -1.
        2   -1    0    0  501    0  0.00000000000E+00  0.00000000000E+00 -0.12073966685E+04  0.12073966685E+04  0.25500000920E-02 0.  1.
    10030    2    1    2    0    0  0.00000000000E+00  0.00000000000E+00 -0.95440164697E+03  0.14603916900E+04  0.11053783898E+04 0.  0.
        2    1    3    3  502    0 -0.68644705109E+02  0.16088759403E+03 -0.11698619522E+04  0.11828668144E+04  0.25500000920E-02 0.  1.
       -2    1    3    3    0  502  0.68644705109E+02 -0.16088759403E+03  0.21546030522E+03  0.27752487562E+03  0.25500000920E-02 0. -1.
</event>
<event>
 5   0  0.6109149E-04  0.1099420E+04  0.7818609E-02  0.9205757E-01
       -2   -1    0    0    0  501  0.00000000000E+00  0.00000000000E+00  0.28925904818E+03  0.28925904820E+03  0.25500000920E-02 0.  1.
        2   -1    0    0  501    0  0.00000000000E+00  0.00000000000E+00 -0.10446736256E+04  0.10446736256E+04  0.25500000920E-02 0. -1.
    10030    2    1    2    0    0  0.00000000000E+00  0.00000000000E+00 -0.75541457745E+03  0.13339326738E+04  0.10994203902E+04 0.  0.
        1    1    3    3  502    0  0.30425206703E+03  0.34531216244E+03 -0.74244934454E+03  0.87352208847E+03  0.50400001928E-02 0. -1.
       -1    1    3    3    0  502 -0.30425206703E+03 -0.34531216244E+03 -0.12965232915E+02  0.46041058536E+03  0.50400001928E-02 0.  1.
</event>
<event>
 5   0  0.3621403E-04  0.1100890E+04  0.7818609E-02  0.9204325E-01
        1   -1    0    0  501    0  0.00000000000E+00  0.00000000000E+00  0.60261553755E+03  0.60261553757E+03  0.50400001928E-02 0. -1.
       -1   -1    0    0    0  501  0.00000000000E+00  0.00000000000E+00 -0.50279076269E+03  0.50279076271E+03  0.50400001928E-02 0.  1.
    10030    2    1    2    0    0  0.00000000000E+00  0.00000000000E+00  0.99824774864E+02  0.11054063003E+04  0.11008896870E+04 0.  0.
        3    1    3    3  502    0 -0.35972305554E+02 -0.35349213772E+03 -0.37221555849E+03  0.51458248161E+03  0.10100000352E+00 0.  1.
       -3    1    3    3    0  502  0.35972305554E+02  0.35349213772E+03  0.47204033335E+03  0.59082381867E+03  0.10100000352E+00 0. -1.
</event>
<event>
 5   0  0.6245176E-04  0.1101175E+04  0.7818609E-02  0.9204048E-01
       -2   -1    0    0    0  501  0.00000000000E+00  0.00000000000E+00  0.69764904573E+03  0.69764904574E+03  0.25500000920E-02 0. -1.
        2   -1    0    0  501    0  0.00000000000E+00  0.00000000000E+00 -0.43452570520E+03  0.43452570521E+03  0.25500000920E-02 0.  1.
    10030    2    1    2    0    0  0.00000000000E+00  0.00000000000E+00  0.26312334053E+03  0.11321747509E+04  0.11011747247E+04 0.  0.
        5    1    3    3  502    0  0.36356811841E+03  0.17383992200E+03  0.51725189242E+03  0.65572380269E+03  0.46999998093E+01 0. -1.
       -5    1    3    3    0  502 -0.36356811841E+03 -0.17383992200E+03 -0.25412855189E+03  0.47645094825E+03  0.46999998093E+01 0.  1.
</event>
<event>
 5   0  0.6264830E-04  0.1099506E+04  0.7818609E-02  0.9205673E-01
       -2   -1    0    0    0  501  0.00000000000E+00  0.00000000000E+00  0.70709794123E+03  0.70709794124E+03  0.25500000920E-02 0.  1.
        2   -1    0    0  501    0  0.00000000000E+00  0.00000000000E+00 -0.42742081082E+03  0.42742081083E+03  0.25500000920E-02 0. -1.
    10030    2    1    2    0    0  0.00000000000E+00  0.00000000000E+00  0.27967713041E+03  0.11345187521E+04  0.10995060261E+04 0.  0.
        4    1    3    3  502    0 -0.22120930922E+02  0.53465116318E+03  0.26989005675E+03  0.59931916164E+03  0.12699999809E+01 0.  1.
       -4    1    3    3    0  502  0.22120930922E+02 -0.53465116318E+03  0.97870736619E+01  0.53519959042E+03  0.12699999809E+01 0. -1.
</event>
<event>
 5   0  0.6412712E-04  0.1100405E+04  0.7818609E-02  0.9204797E-01
       -2   -1    0    0    0  501  0.00000000000E+00  0.00000000000E+00  0.11258034968E+03  0.11258034971E+03  0.25500000920E-02 0. -1.
        2   -1    0    0  501    0  0.00000000000E+00  0.00000000000E+00 -0.26889490777E+04  0.26889490777E+04  0.25500000920E-02 0.  1.
    10030    2    1    2    0    0  0.00000000000E+00  0.00000000000E+00 -0.25763687280E+04  0.28015294274E+04  0.11004050663E+04 0.  0.
        2    1    3    3  502    0 -0.87128040311E+02  0.26647908290E+02 -0.26696093591E+04  0.26711637045E+04  0.25500000920E-02 0.  1.
       -2    1    3    3    0  502  0.87128040311E+02 -0.26647908290E+02  0.93240631027E+02  0.13036572289E+03  0.25500000920E-02 0. -1.
</event>
<event>
 5   0  0.3621403E-04  0.1096391E+04  0.7818609E-02  0.9208717E-01
       -1   -1    0    0    0  501  0.00000000000E+00  0.00000000000E+00  0.43971393106E+03  0.43971393109E+03  0.50400001928E-02 0.  1.
        1   -1    0    0  501    0  0.00000000000E+00  0.00000000000E+00 -0.68344038454E+03  0.68344038456E+03  0.50400001928E-02 0. -1.
    10030    2    1    2    0    0  0.00000000000E+00  0.00000000000E+00 -0.24372645348E+03  0.11231543157E+04  0.10963909123E+04 0.  0.
        3    1    3    3  502    0  0.16150933204E+03  0.48533343860E+03  0.80141676283E+02  0.51774174010E+03  0.10100000352E+00 0.  1.
       -3    1    3    3    0  502 -0.16150933204E+03 -0.48533343860E+03 -0.32386812976E+03  0.60541257555E+03  0.10100000352E+00 0. -1.
</event>
<event>
 5   0  0.3523525E-04  0.1100467E+04  0.7818609E-02  0.9204737E-01
       -1   -1    0    0    0  501  0.00000000000E+00  0.00000000000E+00  0.17886432051E+03  0.17886432058E+03  0.50400001928E-02 0. -1.
        1   -1    0    0  501    0  0.00000000000E+00  0.00000000000E+00 -0.16926614163E+04  0.16926614163E+04  0.50400001928E-02 0.  1.
    10030    2    1    2    0    0  0.00000000000E+00  0.00000000000E+00 -0.15137970958E+04  0.18715257369E+04  0.11004666904E+04 0.  0.
        5    1    3    3  502    0 -0.30271869133E+03  0.42750547738E+03 -0.47062493799E+03  0.70420839354E+03  0.46999998093E+01 0. -1.
       -5    1    3    3    0  502  0.30271869133E+03 -0.42750547738E+03 -0.10431721578E+04  0.11673173433E+04  0.46999998093E+01 0.  1.
</event>
<event>
 5   0  0.6109149E-04  0.1095091E+04  0.7818609E-02  0.9209990E-01
       -2   -1    0    0    0  501  0.00000000000E+00  0.00000000000E+00  0.38314142471E+03  0.38314142472E+03  0.25500000920E-02 0. -1.
        2   -1    0    0  501    0  0.00000000000E+00  0.00000000000E+00 -0.78249431156E+03  0.78249431156E+03  0.25500000920E-02 0.  1.
    10030    2    1    2    0    0  0.00000000000E+00  0.00000000000E+00 -0.39935288685E+03  0.11656357363E+04  0.10950908371E+04 0.  0.
        1    1    3    3  502    0  0.25282211499E+03 -0.39266287879E+03 -0.50392690852E+03  0.68705566541E+03  0.50400001928E-02 0.  1.
       -1    1    3    3    0  502 -0.25282211499E+03  0.39266287879E+03  0.10457402168E+03  0.47858007088E+03  0.50400001928E-02 0. -1.
</event>
<event>
 5   0  0.6245176E-04  0.1097184E+04  0.7818609E-02  0.9207940E-01
       -2   -1    0    0    0  501  0.00000000000E+00  0.00000000000E+00  0.69730354346E+03  0.69730354346E+03  0.25500000920E-02 0. -1.
        2   -1    0    0  501    0  0.00000000000E+00  0.00000000000E+00 -0.43159600949E+03  0.43159600950E+03  0.25500000920E-02 0.  1.
    10030    2    1    2    0    0  0.00000000000E+00  0.00000000000E+00  0.26570753397E+03  0.11288995530E+04  0.10971844453E+04 0.  0.
        5    1    3    3  502    0 -0.20499535290E+03 -0.26352871790E+03  0.58070668439E+03  0.66986030123E+03  0.46999998093E+01 0. -1.
       -5    1    3    3    0  502  0.20499535290E+03  0.26352871790E+03 -0.31499915042E+03  0.45903925173E+03  0.46999998093E+01 0.  1.
</event>
<event>
 5   0  0.6245176E-04  0.1101598E+04  0.7818609E-02  0.9203635E-01
       -2   -1    0    0    0  501  0.00000000000E+00  0.00000000000E+00  0.24157595758E+03  0.24157595759E+03  0.25500000920E-02 0. -1.
        2   -1    0    0  501    0  0.00000000000E+00  0.00000000000E+00 -0.12558359195E+04  0.12558359195E+04  0.25500000920E-02 0.  1.
    10030    2    1    2    0    0  0.00000000000E+00  0.00000000000E+00 -0.10142599619E+04  0.14974118771E+04  0.11015984111E+04 0.  0.
        5    1    3    3  502    0 -0.30699211238E+03  0.16414089813E+03 -0.10873035390E+04  0.11416818591E+04  0.46999998093E+01 0.  1.
       -5    1    3    3    0  502  0.30699211238E+03 -0.16414089813E+03  0.73043577133E+02  0.35573001793E+03  0.46999998093E+01 0. -1.
</event>
<event>
 5   0  0.3657529E-04  0.1109397E+04  0.7818609E-02  0.9196081E-01
        1   -1    0    0  501    0  0.00000000000E+00  0.00000000000E+00  0.12223508463E+04  0.12223508463E+04  0.50400001928E-02 0. -1.
       -1   -1    0    0    0  501  0.00000000000E+00  0.00000000000E+00 -0.25172038312E+03  0.25172038317E+03  0.50400001928E-02 0.  1.
    10030    2    1    2    0    0  0.00000000000E+00  0.00000000000E+00  0.97063046315E+03  0.14740712295E+04  0.11093973560E+04 0.  0.
        4    1    3    3  502    0  0.51217960627E+03 -0.12429366491E+03  0.71511793382E+03  0.88835360999E+03  0.12699999809E+01 0. -1.
       -4    1    3    3    0  502 -0.51217960627E+03  0.12429366491E+03  0.25551252933E+03  0.58571761947E+03  0.12699999809E+01 0.  1.
</event>
<event>
 5   0  0.3657529E-04  0.1098541E+04  0.7818609E-02  0.9206615E-01
        1   -1    0    0  501    0  0.00000000000E+00  0.00000000000E+00  0.58602663666E+03  0.58602663668E+03  0.50400001928E-02 0. -1.
       -1   -1    0    0    0  501  0.00000000000E+00  0.00000000000E+00 -0.51481997531E+03  0.51481997534E+03  0.50400001928E-02 0.  1.
    10030    2    1    2    0    0  0.00000000000E+00  0.00000000000E+00  0.71206661350E+02  0.11008466120E+04  0.10985412485E+04 0.  0.
        4    1    3    3  502    0  0.20195056843E+03  0.50821239226E+03 -0.15814560830E+02  0.54709741451E+03  0.12699999809E+01 0. -1.
       -4    1    3    3    0  502 -0.20195056843E+03 -0.50821239226E+03  0.87021222180E+02  0.55374919751E+03  0.12699999809E+01 0.  1.
</event>
<event>
 5   0  0.3642161E-04  0.1100759E+04  0.7818609E-02  0.9204452E-01
       -1   -1    0    0    0  501  0.00000000000E+00  0.00000000000E+00  0.22856015885E+03  0.22856015890E+03  0.50400001928E-02 0.  1.
        1   -1    0    0  501    0  0.00000000000E+00  0.00000000000E+00 -0.13253303077E+04  0.13253303077E+04  0.50400001928E-02 0. -1.
    10030    2    1    2    0    0  0.00000000000E+00  0.00000000000E+00 -0.10967701489E+04  0.15538904666E+04  0.11007592029E+04 0.  0.
        2    1    3    3  502    0 -0.22253057716E+02  0.54766489689E+03 -0.61876513282E+03  0.82662103014E+03  0.25500000920E-02 0.  1.
       -2    1    3    3    0  502  0.22253057716E+02 -0.54766489689E+03 -0.47800501603E+03  0.72726943647E+03  0.25500000920E-02 0. -1.
</event>
<event>
 5   0  0.6109149E-04  0.1100086E+04  0.7818609E-02  0.9205108E-01
       -2   -1    0    0    0  501  0.00000000000E+00  0.00000000000E+00  0.35246411564E+03  0.35246411565E+03  0.25500000920E-02 0.  1.
        2   -1    0    0  501    0  0.00000000000E+00  0.00000000000E+00 -0.85837795524E+03  0.85837795525E+03  0.25500000920E-02 0. -1.
    10030    2    1    2    0    0  0.00000000000E+00  0.00000000000E+00 -0.50591383960E+03  0.12108420709E+04  0.11000862273E+04 0.  0.
        1    1    3    3  502    0 -0.35548044404E+03 -0.30977489500E+03  0.58791107956E+02  0.47516652456E+03  0.50400001928E-02 0.  1.
       -1    1    3    3    0  502  0.35548044404E+03  0.30977489500E+03 -0.56470494756E+03  0.73567554634E+03  0.50400001928E-02 0. -1.
</event>
<event>
 5   0  0.6245176E-04  0.1101040E+04  0.7818609E-02  0.9204179E-01
        2   -1    0    0  501    0  0.00000000000E+00  0.00000000000E+00  0.11411306675E+04  0.11411306675E+04  0.25500000920E-02 0. -1.
       -2   -1    0    0    0  501  0.00000000000E+00  0.00000000000E+00 -0.26558940501E+03  0.26558940502E+03  0.25500000920E-02 0.  1.
    10030    2    1    2    0    0  0.00000000000E+00  0.00000000000E+00  0.87554126254E+03  0.14067200726E+04  0.11010398994E+04 0.  0.
        5    1    3    3  502    0  0.23422007845E+03  0.37650982631E+03  0.85458202023E+03  0.96278305643E+03  0.46999998093E+01 0. -1.
       -5    1    3    3    0  502 -0.23422007845E+03 -0.37650982631E+03  0.20959242312E+02  0.44393701613E+03  0.46999998093E+01 0.  1.
</event>
<event>
 5   0  0.5948818E-04  0.1099106E+04  0.7818609E-02  0.9206064E-01
        2   -1    0    0  501    0  0.00000000000E+00  0.00000000000E+00  0.10117751272E+04  0.10117751272E+04  0.25500000920E-02 0.  1.
       -2   -1    0    0    0  501  0.00000000000E+00  0.00000000000E+00 -0.29849358076E+03  0.29849358077E+03  0.25500000920E-02 0. -1.
    10030    2    1    2    0    0  0.00000000000E+00  0.00000000000E+00  0.71328154642E+03  0.13102687080E+04  0.10991057832E+04 0.  0.
        3    1    3    3  502    0 -0.22886719883E+03  0.42316716905E+03  0.67330073432E+03  0.82751709148E+03  0.10100000352E+00 0.  1.
       -3    1    3    3    0  502  0.22886719883E+03 -0.42316716905E+03  0.39980812105E+02  0.48275161647E+03  0.10100000352E+00 0. -1.
</event>
<event>
 5   0  0.3657529E-04  0.1090386E+04  0.7818609E-02  0.9214613E-01
        1   -1    0    0  501    0  0.00000000000E+00  0.00000000000E+00  0.12773641564E+04  0.12773641564E+04  0.50400001928E-02 0.  1.
       -1   -1    0    0    0  501  0.00000000000E+00  0.00000000000E+00 -0.23269424883E+03  0.23269424888E+03  0.50400001928E-02 0. -1.
    10030    2    1    2    0    0  0.00000000000E+00  0.00000000000E+00  0.10446699076E+04  0.15100584053E+04  0.10903857903E+04 0.  0.
        4    1    3    3  502    0 -0.41302752309E+03 -0.28880621086E+02  0.31124681202E+02  0.41520619430E+03  0.12699999809E+01 0. -1.
       -4    1    3    3    0  502  0.41302752309E+03  0.28880621086E+02  0.10135452264E+04  0.10948522110E+04  0.12699999809E+01 0.  1.
</event>
<event>
 5   0  0.6109149E-04  0.1098171E+04  0.7818609E-02  0.9206976E-01
       -2   -1    0    0    0  501  0.00000000000E+00  0.00000000000E+00  0.20352992286E+03  0.20352992288E+03  0.25500000920E-02 0. -1.
        2   -1    0    0  501    0  0.00000000000E+00  0.00000000000E+00 -0.14813294149E+04  0.14813294149E+04  0.25500000920E-02 0.  1.
    10030    2    1    2    0    0  0.00000000000E+00  0.00000000000E+00 -0.12777994921E+04  0.16848593378E+04  0.10981709549E+04 0.  0.
        1    1    3    3  502    0  0.43176295242E+03 -0.31132043833E+02 -0.11571609716E+04  0.12354796499E+04  0.50400001928E-02 0.  1.
       -1    1    3    3    0  502 -0.43176295242E+03  0.31132043833E+02 -0.12063852051E+03  0.44937968789E+03  0.50400001928E-02 0. -1.
</event>
<event>
 5   0  0.3657529E-04  0.1103537E+04  0.7818609E-02  0.9201752E-01
        1   -1    0    0  501    0  0.00000000000E+00  0.00000000000E+00  0.82165096759E+03  0.82165096761E+03  0.50400001928E-02 0.  1.
       -1   -1    0    0    0  501  0.00000000000E+00  0.00000000000E+00 -0.37053229564E+03  0.37053229567E+03  0.50400001928E-02 0. -1.
    10030    2    1    2    0    0  0.00000000000E+00  0.00000000000E+00  0.45111867196E+03  0.11921832633E+04  0.11035365318E+04 0.  0.
        4    1    3    3  502    0 -0.39342029937E+03 -0.20924243044E+03 -0.12597914314E+03  0.46307049578E+03  0.12699999809E+01 0. -1.
       -4    1    3    3    0  502  0.39342029937E+03  0.20924243044E+03  0.57709781510E+03  0.72911276751E+03  0.12699999809E+01 0.  1.
</event>
<event>
 5   0  0.5948818E-04  0.1092561E+04  0.7818609E-02  0.9212472E-01
       -2   -1    0    0    0  501  0.00000000000E+00  0.00000000000E+00  0.77528190689E+03  0.77528190689E+03  0.25500000920E-02 0.  1.
        2   -1    0    0  501    0  0.00000000000E+00  0.00000000000E+00 -0.38492146978E+03  0.38492146978E+03  0.25500000920E-02 0. -1.
    10030    2    1    2    0    0  0.00000000000E+00  0.00000000000E+00  0.39036043711E+03  0.11602033767E+04  0.10925614877E+04 0.  0.
        3    1    3    3  502    0  0.26837040890E+03  0.38918414045E+03 -0.95511415236E+02  0.48229597986E+03  0.10100000352E+00 0.  1.
       -3    1    3    3    0  502 -0.26837040890E+03 -0.38918414045E+03  0.48587185235E+03  0.67790739681E+03  0.10100000352E+00 0. -1.
</event>
<event>
 5   0  0.6264830E-04  0.1099754E+04  0.7818609E-02  0.9205431E-01
       -2   -1    0    0    0  501  0.00000000000E+00  0.00000000000E+00  0.42463705427E+03  0.42463705427E+03  0.25500000920E-02 0. -1.
        2   -1    0    0  501    0  0.00000000000E+00  0.00000000000E+00 -0.71205495408E+03  0.71205495408E+03  0.25500000920E-02 0.  1.
    10030    2    1    2    0    0  0.00000000000E+00  0.00000000000E+00 -0.28741789981E+03  0.11366920084E+04  0.10997543693E+04 0.  0.
        4    1    3    3  502    0 -0.69589133862E+01 -0.31830929354E+03 -0.60709049726E+03  0.68551419941E+03  0.12699999809E+01 0.  1.
       -4    1    3    3    0  502  0.69589133862E+01  0.31830929354E+03  0.31967259745E+03  0.45117780895E+03  0.12699999809E+01 0. -1.
</event>
<event>
 5   0  0.3423758E-04  0.1100112E+04  0.7818609E-02  0.9205083E-01
       -1   -1    0    0    0  501  0.00000000000E+00  0.00000000000E+00  0.36083254488E+03  0.36083254492E+03  0.50400001928E-02 0. -1.
        1   -1    0    0  501    0  0.00000000000E+00  0.00000000000E+00 -0.83850994770E+03  0.83850994772E+03  0.50400001928E-02 0.  1.
    10030    2    1    2    0    0  0.00000000000E+00  0.00000000000E+00 -0.47767740282E+03  0.11993424926E+04  0.11001121368E+04 0.  0.
        1    1    3    3  502    0 -0.34461693421E+03 -0.42750055035E+03 -0.20361112116E+03  0.58564070946E+03  0.50400001928E-02 0. -1.
       -1    1    3    3    0  502  0.34461693421E+03  0.42750055035E+03 -0.27406628166E+03  0.61370178317E+03  0.50400001928E-02 0.  1.
</event>
<event>
 5   0  0.6109149E-04  0.1120553E+04  0.7818609E-02  0.9185388E-01
       -2   -1    0    0    0  501  0.00000000000E+00  0.00000000000E+00  0.16412181971E+03  0.16412181973E+03  0.25500000920E-02 0. -1.
        2   -1    0    0  501    0  0.00000000000E+00  0.00000000000E+00 -0.19126643402E+04  0.19126643402E+04  0.25500000920E-02 0.  1.
    10030    2    1    2    0    0  0.00000000000E+00  0.00000000000E+00 -0.17485425205E+04  0.20767861599E+04  0.11205533491E+04 0.  0.
        1    1    3    3  502    0 -0.33784515841E+03  0.42637668990E+03 -0.62580020549E+03  0.82919378312E+03  0.50400001928E-02 0. -1.
       -1    1    3    3    0  502  0.33784515841E+03 -0.42637668990E+03 -0.11227423150E+04  0.12475923768E+04  0.50400001928E-02 0.  1.
</event>
<event>
 5   0  0.3523525E-04  0.1098831E+04  0.7818609E-02  0.9206332E-01
        1   -1    0    0  501    0  0.00000000000E+00  0.00000000000E+00  0.84962400888E+03  0.84962400890E+03  0.50400001928E-02 0. -1.
       -1   -1    0    0    0  501  0.00000000000E+00  0.00000000000E+00 -0.35528319175E+03  0.35528319178E+03  0.50400001928E-02 0.  1.
    10030    2    1    2    0    0  0.00000000000E+00  0.00000000000E+00  0.49434081713E+03  0.12049072007E+04  0.10988305232E+04 0.  0.
        5    1    3    3  502    0  0.18305757660E+03  0.58324824404E+02  0.81156502605E+03  0.83400943820E+03  0.46999998093E+01 0. -1.
       -5    1    3    3    0  502 -0.18305757660E+03 -0.58324824404E+02 -0.31722420892E+03  0.37089776248E+03  0.46999998093E+01 0.  1.
</event>
<event>
 5   0  0.3523525E-04  0.1098399E+04  0.7818609E-02  0.9206754E-01
        1   -1    0    0  501    0  0.00000000000E+00  0.00000000000E+00  0.20711084664E+04  0.20711084664E+04  0.50400001928E-02 0.  1.
       -1   -1    0    0    0  501  0.00000000000E+00  0.00000000000E+00 -0.14563224468E+03  0.14563224476E+03  0.50400001928E-02 0. -1.
    10030    2    1    2    0    0  0.00000000000E+00  0.00000000000E+00  0.19254762217E+04  0.22167407112E+04  0.10983991534E+04 0.  0.
        5    1    3    3  502    0  0.30078390751E+03 -0.21977654956E+03  0.14837934212E+03  0.40101273037E+03  0.46999998093E+01 0. -1.
       -5    1    3    3    0  502 -0.30078390751E+03  0.21977654956E+03  0.17770968796E+04  0.18157279808E+04  0.46999998093E+01 0.  1.
</event>
<event>
 5   0  0.3657529E-04  0.1102690E+04  0.7818609E-02  0.9202574E-01
       -1   -1    0    0    0  501  0.00000000000E+00  0.00000000000E+00  0.13429701715E+03  0.13429701725E+03  0.50400001928E-02 0. -1.
        1   -1    0    0  501    0  0.00000000000E+00  0.00000000000E+00 -0.22635005909E+04  0.22635005909E+04  0.50400001928E-02 0.  1.
    10030    2    1    2    0    0  0.00000000000E+00  0.00000000000E+00 -0.21292035738E+04  0.23977976082E+04  0.11026901247E+04 0.  0.
        4    1    3    3  502    0 -0.54879620421E+03 -0.25074293664E+02 -0.11659849711E+04  0.12889253507E+04  0.12699999809E+01 0.  1.
       -4    1    3    3    0  502  0.54879620421E+03  0.25074293664E+02 -0.96321860267E+03  0.11088722575E+04  0.12699999809E+01 0. -1.
</event>
<event>
 5   0  0.3621403E-04  0.1097196E+04  0.7818609E-02  0.9207929E-01
       -1   -1    0    0    0  501  0.00000000000E+00  0.00000000000E+00  0.32082836375E+03  0.32082836379E+03  0.50400001928E-02 0.  1.
        1   -1    0    0  501    0  0.00000000000E+00  0.00000000000E+00 -0.93807105667E+03  0.93807105668E+03  0.50400001928E-02 0. -1.
    10030    2    1    2    0    0  0.00000000000E+00  0.00000000000E+00 -0.61724269292E+03  0.12588994205E+04  0.10971960668E+04 0.  0.
        3    1    3    3  502    0 -0.28762212983E+03 -0.19786890109E+02  0.22690073309E+03  0.36688140245E+03  0.10100000352E+00 0.  1.
       -3    1    3    3    0  502  0.28762212983E+03  0.19786890109E+02 -0.84414342601E+03  0.89201801802E+03  0.10100000352E+00 0. -1.
</event>
<event>
 5   0  0.3621403E-04  0.1098046E+04  0.7818609E-02  0.9207098E-01
        1   -1    0    0  501    0  0.00000000000E+00  0.00000000000E+00  0.45210558577E+03  0.45210558580E+03  0.50400001928E-02 0.  1.
       -1   -1    0    0    0  501  0.00000000000E+00  0.00000000000E+00 -0.66671672852E+03  0.66671672854E+03  0.50400001928E-02 0. -1.
    10030    2    1    2    0    0  0.00000000000E+00  0.00000000000E+00 -0.21461114274E+03  0.11188223143E+04  0.10980461869E+04 0.  0.
        3    1    3    3  502    0  0.32081164774E+03  0.37639960213E+03  0.13559453686E+03  0.51281835228E+03  0.10100000352E+00 0.  1.
       -3    1    3    3    0  502 -0.32081164774E+03 -0.37639960213E+03 -0.35020567960E+03  0.60600396206E+03  0.10100000352E+00 0. -1.
</event>
<event>
 5   0  0.3657529E-04  0.1099424E+04  0.7818609E-02  0.9205753E-01
        1   -1    0    0  501    0  0.00000000000E+00  0.00000000000E+00  0.81175366180E+03  0.81175366182E+03  0.50400001928E-02 0.  1.
       -1   -1    0    0    0  501  0.00000000000E+00  0.00000000000E+00 -0.37225984473E+03  0.37225984477E+03  0.50400001928E-02 0. -1.
    10030    2    1    2    0    0  0.00000000000E+00  0.00000000000E+00  0.43949381707E+03  0.11840135066E+04  0.10994240167E+04 0.  0.
        4    1    3    3  502    0 -0.14550789958E+03  0.20063687338E+02  0.79022682682E+03  0.80376311879E+03  0.12699999809E+01 0.  1.
       -4    1    3    3    0  502  0.14550789958E+03 -0.20063687338E+02 -0.35073300975E+03  0.38025038780E+03  0.12699999809E+01 0. -1.
</event>
<event>
 5   0  0.3621403E-04  0.1100144E+04  0.7818609E-02  0.9205051E-01
       -1   -1    0    0    0  501  0.00000000000E+00  0.00000000000E+00  0.20878594354E+03  0.20878594361E+03  0.50400001928E-02 0.  1.
        1   -1    0    0  501    0  0.00000000000E+00  0.00000000000E+00 -0.14492318502E+04  0.14492318502E+04  0.50400001928E-02 0. -1.
    10030    2    1    2    0    0  0.00000000000E+00  0.00000000000E+00 -0.12404459067E+04  0.16580177938E+04  0.11001440621E+04 0.  0.
        3    1    3    3  502    0 -0.22697509584E+03 -0.17800269936E+03 -0.13261092531E+04  0.13571176871E+04  0.10100000352E+00 0. -1.
       -3    1    3    3    0  502  0.22697509584E+03  0.17800269936E+03  0.85663346473E+02  0.30090010675E+03  0.10100000352E+00 0.  1.
</event>
<event>
 5   0  0.3423758E-04  0.1108679E+04  0.7818609E-02  0.9196774E-01
       -1   -1    0    0    0  501  0.00000000000E+00  0.00000000000E+00  0.82296012197E+03  0.82296012198E+03  0.50400001928E-02 0.  1.
        1   -1    0    0  501    0  0.00000000000E+00  0.00000000000E+00 -0.37339861876E+03  0.37339861879E+03  0.50400001928E-02 0. -1.
    10030    2    1    2    0    0  0.00000000000E+00  0.00000000000E+00  0.44956150321E+03  0.11963587408E+04  0.11086788045E+04 0.  0.
        1    1    3    3  502    0 -0.53118542072E+03 -0.52405933567E+02  0.38623957273E+03  0.65885153155E+03  0.50400001928E-02 0.  1.
       -1    1    3    3    0  502  0.53118542072E+03  0.52405933567E+02  0.63321930484E+02  0.53750720922E+03  0.50400001928E-02 0. -1.
</event>
<event>
 5   0  0.3523525E-04  0.1100542E+04  0.7818609E-02  0.9204664E-01
        1   -1    0    0  501    0  0.00000000000E+00  0.00000000000E+00  0.59950002369E+03  0.59950002371E+03  0.50400001928E-02 0. -1.
       -1   -1    0    0    0  501  0.00000000000E+00  0.00000000000E+00 -0.50508428172E+03  0.50508428175E+03  0.50400001928E-02 0.  1.
    10030    2    1    2    0    0  0.00000000000E+00  0.00000000000E+00  0.94415741965E+02  0.11045843055E+04  0.11005417555E+04 0.  0.
        5    1    3    3  502    0  0.49900511546E+03  0.19402928625E+03 -0.80232862687E+02  0.54139899467E+03  0.46999998093E+01 0. -1.
       -5    1    3    3    0  502 -0.49900511546E+03 -0.19402928625E+03  0.17464860465E+03  0.56318531078E+03  0.46999998093E+01 0.  1.
</event>
<event>
 5   0  0.5948818E-04  0.1103334E+04  0.7818609E-02  0.9201948E-01
       -2   -1    0    0    0  501  0.00000000000E+00  0.00000000000E+00  0.31863052095E+03  0.31863052097E+03  0.25500000920E-02 0.  1.
        2   -1    0    0  501    0  0.00000000000E+00  0.00000000000E+00 -0.95513990736E+03  0.95513990736E+03  0.25500000920E-02 0. -1.
    10030    2    1    2    0    0  0.00000000000E+00  0.00000000000E+00 -0.63650938640E+03  0.12737704283E+04  0.11033344484E+04 0.  0.
        3    1    3    3  502    0  0.17801385912E+03 -0.75892423152E+02  0.27816037490E+03  0.33885365322E+03  0.10100000352E+00 0.  1.
       -3    1    3    3    0  502 -0.17801385912E+03  0.75892423152E+02 -0.91466976131E+03  0.93491677511E+03  0.10100000352E+00 0. -1.
</event>
<event>
 5   0  0.6412712E-04  0.1097977E+04  0.7818609E-02  0.9207166E-01
        2   -1    0    0  501    0  0.00000000000E+00  0.00000000000E+00  0.30461509441E+03  0.30461509442E+03  0.25500000920E-02 0. -1.
       -2   -1    0    0    0  501  0.00000000000E+00  0.00000000000E+00 -0.98940647744E+03  0.98940647744E+03  0.25500000920E-02 0.  1.
    10030    2    1    2    0    0  0.00000000000E+00  0.00000000000E+00 -0.68479138303E+03  0.12940215719E+04  0.10979765891E+04 0.  0.
        2    1    3    3  502    0  0.22157505229E+03 -0.34076785089E+03 -0.77729530337E+03  0.87715803630E+03  0.25500000920E-02 0.  1.
       -2    1    3    3    0  502 -0.22157505229E+03  0.34076785089E+03  0.92503920337E+02  0.41686353556E+03  0.25500000920E-02 0. -1.
</event>
<event>
 5   0  0.3523525E-04  0.1105890E+04  0.7818609E-02  0.9199470E-01
        1   -1    0    0  501    0  0.00000000000E+00  0.00000000000E+00  0.10275288551E+04  0.10275288551E+04  0.50400001928E-02 0.  1.
       -1   -1    0    0    0  501  0.00000000000E+00  0.00000000000E+00 -0.29755704042E+03  0.29755704046E+03  0.50400001928E-02 0. -1.
    10030    2    1    2    0    0  0.00000000000E+00  0.00000000000E+00  0.72997181464E+03  0.13250858955E+04  0.11058904920E+04 0.  0.
        5    1    3    3  502    0 -0.54207774520E+03 -0.66427228432E+02  0.26145708893E+03  0.60551032846E+03  0.46999998093E+01 0. -1.
       -5    1    3    3    0  502  0.54207774520E+03  0.66427228432E+02  0.46851472571E+03  0.71957556707E+03  0.46999998093E+01 0.  1.
</event>
<event>
 5   0  0.5948818E-04  0.1098172E+04  0.7818609E-02  0.9206976E-01
        2   -1    0    0  501    0  0.00000000000E+00  0.00000000000E+00  0.89773434906E+03  0.89773434907E+03  0.25500000920E-02 0.  1.
       -2   -1    0    0    0  501  0.00000000000E+00  0.00000000000E+00 -0.33584014247E+03  0.33584014248E+03  0.25500000920E-02 0. -1.
    10030    2    1    2    0    0  0.00000000000E+00  0.00000000000E+00  0.56189420659E+03  0.12335744915E+04  0.10981716290E+04 0.  0.
        3    1    3    3  502    0  0.48420363274E+03  0.24164370514E+03  0.17647199344E+03  0.56919874636E+03  0.10100000352E+00 0. -1.
       -3    1    3    3    0  502 -0.48420363274E+03 -0.24164370514E+03  0.38542221316E+03  0.66437574518E+03  0.10100000352E+00 0.  1.
</event>
<event>
 5   0  0.6109149E-04  0.1100441E+04  0.7818609E-02  0.9204762E-01
        2   -1    0    0  501    0  0.00000000000E+00  0.00000000000E+00  0.12141806462E+04  0.12141806462E+04  0.25500000920E-02 0. -1.
       -2   -1    0    0    0  501  0.00000000000E+00  0.00000000000E+00 -0.24933898042E+03  0.24933898043E+03  0.25500000920E-02 0.  1.
    10030    2    1    2    0    0  0.00000000000E+00  0.00000000000E+00  0.96484166577E+03  0.14635196266E+04  0.11004409378E+04 0.  0.
        1    1    3    3  502    0 -0.54299107253E+03  0.64397961092E+02  0.40091213106E+03  0.67802429093E+03  0.50400001928E-02 0. -1.
       -1    1    3    3    0  502  0.54299107253E+03 -0.64397961092E+02  0.56392953471E+03  0.78549533569E+03  0.50400001928E-02 0.  1.
</event>
<event>
 5   0  0.6264830E-04  0.1094144E+04  0.7818609E-02  0.9210918E-01
       -2   -1    0    0    0  501  0.00000000000E+00  0.00000000000E+00  0.15425797908E+03  0.15425797910E+03  0.25500000920E-02 0.  1.
        2   -1    0    0  501    0  0.00000000000E+00  0.00000000000E+00 -0.19401783252E+04  0.19401783252E+04  0.25500000920E-02 0. -1.
    10030    2    1    2    0    0  0.00000000000E+00  0.00000000000E+00 -0.17859203461E+04  0.20944363043E+04  0.10941443918E+04 0.  0.
        4    1    3    3  502    0  0.41405466987E+03 -0.16001103374E+02 -0.15767131874E+04  0.16302525550E+04  0.12699999809E+01 0. -1.
       -4    1    3    3    0  502 -0.41405466987E+03  0.16001103374E+02 -0.20920715876E+03  0.46418374931E+03  0.12699999809E+01 0.  1.
</event>
<event>
 5   0  0.6412712E-04  0.1104059E+04  0.7818609E-02  0.9201245E-01
        2   -1    0    0  501    0  0.00000000000E+00  0.00000000000E+00  0.17197957402E+04  0.17197957402E+04  0.25500000920E-02 0. -1.
       -2   -1    0    0    0  501  0.00000000000E+00  0.00000000000E+00 -0.17719331028E+03  0.17719331030E+03  0.25500000920E-02 0.  1.
    10030    2    1    2    0    0  0.00000000000E+00  0.00000000000E+00  0.15426024300E+04  0.18969890505E+04  0.11040585134E+04 0.  0.
        2    1    3    3  502    0  0.17984497897E+03  0.86204176149E+02  0.16557315863E+04  0.16676997519E+04  0.25500000920E-02 0. -1.
       -2    1    3    3    0  502 -0.17984497897E+03 -0.86204176149E+02 -0.11312915638E+03  0.22928929865E+03  0.25500000920E-02 0.  1.
</event>
<event>
 5   0  0.3523525E-04  0.1097062E+04  0.7818609E-02  0.9208060E-01
        1   -1    0    0  501    0  0.00000000000E+00  0.00000000000E+00  0.98221877309E+03  0.98221877311E+03  0.50400001928E-02 0.  1.
       -1   -1    0    0    0  501  0.00000000000E+00  0.00000000000E+00 -0.30633340959E+03  0.30633340963E+03  0.50400001928E-02 0. -1.
    10030    2    1    2    0    0  0.00000000000E+00  0.00000000000E+00  0.67588536351E+03  0.12885521827E+04  0.10970623059E+04 0.  0.
        5    1    3    3  502    0  0.52619510014E+03  0.81322289118E+02  0.18314396829E+03  0.56307939160E+03  0.46999998093E+01 0. -1.
       -5    1    3    3    0  502 -0.52619510014E+03 -0.81322289118E+02  0.49274139521E+03  0.72547279114E+03  0.46999998093E+01 0.  1.
</event>
<event>
 5   0  0.6412712E-04  0.1099862E+04  0.7818609E-02  0.9205327E-01
       -2   -1    0    0    0  501  0.00000000000E+00  0.00000000000E+00  0.46281070627E+03  0.46281070628E+03  0.25500000920E-02 0. -1.
        2   -1    0    0  501    0  0.00000000000E+00  0.00000000000E+00 -0.65345077160E+03  0.65345077161E+03  0.25500000920E-02 0.  1.
    10030    2    1    2    0    0  0.00000000000E+00  0.00000000000E+00 -0.19064006533E+03  0.11162614779E+04  0.10998618334E+04 0.  0.
        2    1    3    3  502    0 -0.10453203182E+03 -0.32992373544E+03 -0.52906509960E+03  0.63220763717E+03  0.25500000920E-02 0.  1.
       -2    1    3    3    0  502  0.10453203182E+03  0.32992373544E+03  0.33842503427E+03  0.48405384071E+03  0.25500000920E-02 0. -1.
</event>
<event>
 5   0  0.3523525E-04  0.1099166E+04  0.7818609E-02  0.9206005E-01
        1   -1    0    0  501    0  0.00000000000E+00  0.00000000000E+00  0.41112378212E+03  0.41112378215E+03  0.50400001928E-02 0. -1.
       -1   -1    0    0    0  501  0.00000000000E+00  0.00000000000E+00 -0.73467299431E+03  0.73467299433E+03  0.50400001928E-02 0.  1.
    10030    2    1    2    0    0  0.00000000000E+00  0.00000000000E+00 -0.32354921219E+03  0.11457967765E+04  0.10991661204E+04 0.  0.
        5    1    3    3  502    0 -0.19837273144E+03 -0.50261347839E+03 -0.57285472871E+02  0.54339282719E+03  0.46999998093E+01 0.  1.
       -5    1    3    3    0  502  0.19837273144E+03  0.50261347839E+03 -0.26626373932E+03  0.60240394929E+03  0.46999998093E+01 0. -1.
</event>
<event>
 5   0  0.3642161E-04  0.1100784E+04  0.7818609E-02  0.9204428E-01
       -1   -1    0    0    0  501  0.00000000000E+00  0.00000000000E+00  0.62456713819E+03  0.62456713821E+03  0.50400001928E-02 0. -1.
        1   -1    0    0  501    0  0.00000000000E+00  0.00000000000E+00 -0.48502614552E+03  0.48502614555E+03  0.50400001928E-02 0.  1.
    10030    2    1    2    0    0  0.00000000000E+00  0.00000000000E+00  0.13954099267E+03  0.11095932838E+04  0.11007840691E+04 0.  0.
        2    1    3    3  502    0  0.46534179306E+03 -0.28025460565E+03  0.15905565713E+03  0.56602502633E+03  0.25500000920E-02 0. -1.
       -2    1    3    3    0  502 -0.46534179306E+03  0.28025460565E+03 -0.19514664455E+02  0.54356825744E+03  0.25500000920E-02 0.  1.
</event>
<event>
 5   0  0.3642161E-04  0.1099899E+04  0.7818609E-02  0.9205290E-01
        1   -1    0    0  501    0  0.00000000000E+00  0.00000000000E+00  0.43219649480E+03  0.43219649483E+03  0.50400001928E-02 0.  1.
       -1   -1    0    0    0  501  0.00000000000E+00  0.00000000000E+00 -0.69978468396E+03  0.69978468398E+03  0.50400001928E-02 0. -1.
    10030    2    1    2    0    0  0.00000000000E+00  0.00000000000E+00 -0.26758818916E+03  0.11319811788E+04  0.10998990636E+04 0.  0.
        2    1    3    3  502    0  0.17239688094E+03  0.25025807816E+03 -0.60552455388E+03  0.67750260192E+03  0.25500000920E-02 0. -1.
       -2    1    3    3    0  502 -0.17239688094E+03 -0.25025807816E+03  0.33793636472E+03  0.45447857689E+03  0.25500000920E-02 0.  1.
</event>
<event>
 5   0  0.3642161E-04  0.1099397E+04  0.7818609E-02  0.9205780E-01
       -1   -1    0    0    0  501  0.00000000000E+00  0.00000000000E+00  0.87439617112E+03  0.87439617114E+03  0.50400001928E-02 0.  1.
        1   -1    0    0  501    0  0.00000000000E+00  0.00000000000E+00 -0.34557358377E+03  0.34557358380E+03  0.50400001928E-02 0. -1.
    10030    2    1    2    0    0  0.00000000000E+00  0.00000000000E+00  0.52882258736E+03  0.12199697549E+04  0.10993965954E+04 0.  0.
        2    1    3    3  502    0  0.64866763273E+02  0.37797144992E+03 -0.17260529377E+03  0.42055047424E+03  0.25500000920E-02 0. -1.
       -2    1    3    3    0  502 -0.64866763273E+02 -0.37797144992E+03  0.70142788113E+03  0.79941928071E+03  0.25500000920E-02 0.  1.
</event>
<event>
 5   0  0.6109149E-04  0.1101761E+04  0.7818609E-02  0.9203477E-01
        2   -1    0    0  501    0  0.00000000000E+00  0.00000000000E+00  0.79159926059E+03  0.79159926059E+03  0.25500000920E-02 0.  1.
       -2   -1    0    0    0  501  0.00000000000E+00  0.00000000000E+00 -0.38336255040E+03  0.38336255041E+03  0.25500000920E-02 0. -1.
    10030    2    1    2    0    0  0.00000000000E+00  0.00000000000E+00  0.40823671019E+03  0.11749618110E+04  0.11017613379E+04 0.  0.
        1    1    3    3  502    0 -0.35846065392E+03 -0.21172147058E+03  0.58884960017E+03  0.72115454181E+03  0.50400001928E-02 0.  1.
       -1    1    3    3    0  502  0.35846065392E+03  0.21172147058E+03 -0.18061288998E+03  0.45380726919E+03  0.50400001928E-02 0. -1.
</event>
<event>
 5   0  0.6264830E-04  0.1101249E+04  0.7818609E-02  0.9203976E-01
       -2   -1    0    0    0  501  0.00000000000E+00  0.00000000000E+00  0.46248417058E+03  0.46248417059E+03  0.25500000920E-02 0. -1.
        2   -1    0    0  501    0  0.00000000000E+00  0.00000000000E+00 -0.65556233284E+03  0.65556233284E+03  0.25500000920E-02 0.  1.
    10030    2    1    2    0    0  0.00000000000E+00  0.00000000000E+00 -0.19307816226E+03  0.11180465034E+04  0.11012487490E+04 0.  0.
        4    1    3    3  502    0  0.31710741332E+02  0.39513660274E+03  0.29145123236E+03  0.49202026349E+03  0.12699999809E+01 0. -1.
       -4    1    3    3    0  502 -0.31710741332E+02 -0.39513660274E+03 -0.48452939462E+03  0.62602623994E+03  0.12699999809E+01 0.  1.
</event>
<event>
 5   0  0.3621403E-04  0.1097277E+04  0.7818609E-02  0.9207849E-01
       -1   -1    0    0    0  501  0.00000000000E+00  0.00000000000E+00  0.50251587850E+03  0.50251587853E+03  0.50400001928E-02 0. -1.
        1   -1    0    0  501    0  0.00000000000E+00  0.00000000000E+00 -0.59899492798E+03  0.59899492801E+03  0.50400001928E-02 0.  1.
    10030    2    1    2    0    0  0.00000000000E+00  0.00000000000E+00 -0.96479049485E+02  0.11015108065E+04  0.10972774717E+04 0.  0.
        3    1    3    3  502    0  0.13014381221E+03  0.13600064380E+03  0.46908434048E+03  0.50544407768E+03  0.10100000352E+00 0. -1.
       -3    1    3    3    0  502 -0.13014381221E+03 -0.13600064380E+03 -0.56556338997E+03  0.59606672885E+03  0.10100000352E+00 0.  1.
</event>
<event>
 5   0  0.5948818E-04  0.1104103E+04  0.7818609E-02  0.9201202E-01
        2   -1    0    0  501    0  0.00000000000E+00  0.00000000000E+00  0.15586508972E+04  0.15586508972E+04  0.25500000920E-02 0.  1.
       -2   -1    0    0    0  501  0.00000000000E+00  0.00000000000E+00 -0.19552869171E+03  0.19552869172E+03  0.25500000920E-02 0. -1.
    10030    2    1    2    0    0  0.00000000000E+00  0.00000000000E+00  0.13631222055E+04  0.17541795890E+04  0.11041032031E+04 0.  0.
        3    1    3    3  502    0 -0.59737575703E+02 -0.25970394126E+03 -0.86572396279E+02  0.28019547651E+03  0.10100000352E+00 0. -1.
       -3    1    3    3    0  502  0.59737575703E+02  0.25970394126E+03  0.14496946018E+04  0.14739841125E+04  0.10100000352E+00 0.  1.
</event>
<event>
 5   0  0.3621403E-04  0.1102806E+04  0.7818609E-02  0.9202461E-01
        1   -1    0    0  501    0  0.00000000000E+00  0.00000000000E+00  0.95631628533E+03  0.95631628534E+03  0.50400001928E-02 0. -1.
       -1   -1    0    0    0  501  0.00000000000E+00  0.00000000000E+00 -0.31793371473E+03  0.31793371477E+03  0.50400001928E-02 0.  1.
    10030    2    1    2    0    0  0.00000000000E+00  0.00000000000E+00  0.63838257060E+03  0.12742500001E+04  0.11028058561E+04 0.  0.
        3    1    3    3  502    0 -0.27644224932E+03  0.38617365947E+03  0.64291605409E+03  0.79930687179E+03  0.10100000352E+00 0. -1.
       -3    1    3    3    0  502  0.27644224932E+03 -0.38617365947E+03 -0.45334834967E+01  0.47494312833E+03  0.10100000352E+00 0.  1.
</event>
<event>
 5   0  0.3642161E-04  0.1103491E+04  0.7818609E-02  0.9201796E-01
       -1   -1    0    0    0  501  0.00000000000E+00  0.00000000000E+00  0.36906723625E+03  0.36906723628E+03  0.50400001928E-02 0.  1.
        1   -1    0    0  501    0  0.00000000000E+00  0.00000000000E+00 -0.82484485390E+03  0.82484485391E+03  0.50400001928E-02 0. -1.
    10030    2    1    2    0    0  0.00000000000E+00  0.00000000000E+00 -0.45577761765E+03  0.11939120902E+04  0.11034912063E+04 0.  0.
        2    1    3    3  502    0  0.46848446298E+03 -0.19724204195E+03  0.42652587975E+01  0.50833090365E+03  0.25500000920E-02 0.  1.
       -2    1    3    3    0  502 -0.46848446298E+03  0.19724204195E+03 -0.46004287645E+03  0.68558118654E+03  0.25500000920E-02 0. -1.
</event>
<event>
 5   0  0.6412712E-04  0.1102396E+04  0.7818609E-02  0.9202860E-01
        2   -1    0    0  501    0  0.00000000000E+00  0.00000000000E+00  0.58651135871E+03  0.58651135872E+03  0.25500000920E-02 0. -1.
       -2   -1    0    0    0  501  0.00000000000E+00  0.00000000000E+00 -0.51801102675E+03  0.51801102676E+03  0.25500000920E-02 0.  1.
    10030    2    1    2    0    0  0.00000000000E+00  0.00000000000E+00  0.68500331963E+02  0.11045223855E+04  0.11023962103E+04 0.  0.
        2    1    3    3  502    0 -0.15156448058E+03  0.21404533980E+03  0.51998634146E+03  0.58238560642E+03  0.25500000920E-02 0. -1.
       -2    1    3    3    0  502  0.15156448058E+03 -0.21404533980E+03 -0.45148600949E+03  0.52213677905E+03  0.25500000920E-02 0.  1.
</event>
<event>
 5   0  0.3523525E-04  0.1099690E+04  0.7818609E-02  0.9205494E-01
        1   -1    0    0  501    0  0.00000000000E+00  0.00000000000E+00  0.14127030234E+04  0.14127030234E+04  0.50400001928E-02 0. -1.
       -1   -1    0    0    0  501  0.00000000000E+00  0.00000000000E+00 -0.21400791476E+03  0.21400791482E+03  0.50400001928E-02 0.  1.
    10030    2    1    2    0    0  0.00000000000E+00  0.00000000000E+00  0.11986951086E+04  0.16267109382E+04  0.10996901896E+04 0.  0.
        5    1    3    3  502    0 -0.28978618462E+03  0.26289927903E+03  0.11707564122E+04  0.12344167572E+04  0.46999998093E+01 0. -1.
       -5    1    3    3    0  502  0.28978618462E+03 -0.26289927903E+03  0.27938696409E+02  0.39229418102E+03  0.46999998093E+01 0.  1.
</event>
<event>
 5   0  0.3423758E-04  0.1098171E+04  0.7818609E-02  0.9206977E-01
        1   -1    0    0  501    0  0.00000000000E+00  0.00000000000E+00  0.24302357281E+04  0.24302357281E+04  0.50400001928E-02 0. -1.
       -1   -1    0    0    0  501  0.00000000000E+00  0.00000000000E+00 -0.12405983525E+03  0.12405983535E+03  0.50400001928E-02 0.  1.
    10030    2    1    2    0    0  0.00000000000E+00  0.00000000000E+00  0.23061758928E+04  0.25542955634E+04  0.10981705590E+04 0.  0.
        1    1    3    3  502    0 -0.12609652676E+03  0.53132472490E+03  0.10197081165E+04  0.11567242282E+04  0.50400001928E-02 0.  1.
       -1    1    3    3    0  502  0.12609652676E+03 -0.53132472490E+03  0.12864677763E+04  0.13975713352E+04  0.50400001928E-02 0. -1.
</event>
<event>
 5   0  0.6264830E-04  0.1094753E+04  0.7818609E-02  0.9210322E-01
       -2   -1    0    0    0  501  0.00000000000E+00  0.00000000000E+00  0.11703495771E+04  0.11703495771E+04  0.25500000920E-02 0. -1.
        2   -1    0    0  501    0  0.00000000000E+00  0.00000000000E+00 -0.25600963207E+03  0.25600963208E+03  0.25500000920E-02 0.  1.
    10030    2    1    2    0    0  0.00000000000E+00  0.00000000000E+00  0.91433994502E+03  0.14263592092E+04  0.10947525102E+04 0.  0.
        4    1    3    3  502    0 -0.49411991819E+03  0.66745805634E+02  0.75143534278E+03  0.90181272080E+03  0.12699999809E+01 0. -1.
       -4    1    3    3    0  502  0.49411991819E+03 -0.66745805634E+02  0.16290460224E+03  0.52454648837E+03  0.12699999809E+01 0.  1.
</event>
<event>
 5   0  0.3423758E-04  0.1098994E+04  0.7818609E-02  0.9206173E-01
       -1   -1    0    0    0  501  0.00000000000E+00  0.00000000000E+00  0.24823721944E+03  0.24823721949E+03  0.50400001928E-02 0.  1.
        1   -1    0    0  501    0  0.00000000000E+00  0.00000000000E+00 -0.12163652671E+04  0.12163652671E+04  0.50400001928E-02 0. -1.
    10030    2    1    2    0    0  0.00000000000E+00  0.00000000000E+00 -0.96812804768E+03  0.14646024866E+04  0.10989943253E+04 0.  0.
        1    1    3    3  502    0 -0.20837157668E+03  0.38775757458E+03 -0.45752677856E+02  0.44256972125E+03  0.50400001928E-02 0.  1.
       -1    1    3    3    0  502  0.20837157668E+03 -0.38775757458E+03 -0.92237536983E+03  0.10220327654E+04  0.50400001928E-02 0. -1.
</event>
<event>
 5   0  0.6264830E-04  0.1098162E+04  0.7818609E-02  0.9206985E-01
       -2   -1    0    0    0  501  0.00000000000E+00  0.00000000000E+00  0.23756864027E+03  0.23756864028E+03  0.25500000920E-02 0.  1.
        2   -1    0    0  501    0  0.00000000000E+00  0.00000000000E+00 -0.12690646305E+04  0.12690646305E+04  0.25500000920E-02 0. -1.
    10030    2    1    2    0    0  0.00000000000E+00  0.00000000000E+00 -0.10314959902E+04  0.15066332708E+04  0.10981620257E+04 0.  0.
        4    1    3    3  502    0  0.36434072393E+03  0.42285616778E+02  0.44838059168E+02  0.36951901298E+03  0.12699999809E+01 0.  1.
       -4    1    3    3    0  502 -0.36434072393E+03 -0.42285616778E+02 -0.10763340494E+04  0.11371142578E+04  0.12699999809E+01 0. -1.
</event>
<event>
 5   0  0.6245176E-04  0.1099237E+04  0.7818609E-02  0.9205936E-01
       -2   -1    0    0    0  501  0.00000000000E+00  0.00000000000E+00  0.75442918375E+03  0.75442918375E+03  0.25500000920E-02 0. -1.
        2   -1    0    0  501    0  0.00000000000E+00  0.00000000000E+00 -0.40040915198E+03  0.40040915199E+03  0.25500000920E-02 0.  1.
    10030    2    1    2    0    0  0.00000000000E+00  0.00000000000E+00  0.35402003176E+03  0.11548383357E+04  0.10992367347E+04 0.  0.
        5    1    3    3  502    0  0.18875002889E+03  0.24991715719E+03 -0.29746834193E+03  0.43196604417E+03  0.46999998093E+01 0.  1.
       -5    1    3    3    0  502 -0.18875002889E+03 -0.24991715719E+03  0.65148837370E+03  0.72287229157E+03  0.46999998093E+01 0. -1.
</event>
<event>
 5   0  0.3657529E-04  0.1103020E+04  0.7818609E-02  0.9202254E-01
        1   -1    0    0  501    0  0.00000000000E+00  0.00000000000E+00  0.74332535946E+03  0.74332535948E+03  0.50400001928E-02 0. -1.
       -1   -1    0    0    0  501  0.00000000000E+00  0.00000000000E+00 -0.40919229150E+03  0.40919229153E+03  0.50400001928E-02 0.  1.
    10030    2    1    2    0    0  0.00000000000E+00  0.00000000000E+00  0.33413306797E+03  0.11525176510E+04  0.11030195052E+04 0.  0.
        4    1    3    3  502    0 -0.47018823031E+03  0.20349125388E+02  0.46749372907E+03  0.66335741380E+03  0.12699999809E+01 0. -1.
       -4    1    3    3    0  502  0.47018823031E+03 -0.20349125388E+02 -0.13336066111E+03  0.48916023720E+03  0.12699999809E+01 0.  1.
</event>
<event>
 5   0  0.6245176E-04  0.1100911E+04  0.7818609E-02  0.9204304E-01
       -2   -1    0    0    0  501  0.00000000000E+00  0.00000000000E+00  0.49835285986E+03  0.49835285986E+03  0.25500000920E-02 0. -1.
        2   -1    0    0  501    0  0.00000000000E+00  0.00000000000E+00 -0.60800565331E+03  0.60800565331E+03  0.25500000920E-02 0.  1.
    10030    2    1    2    0    0  0.00000000000E+00  0.00000000000E+00 -0.10965279345E+03  0.11063585132E+04  0.11009111792E+04 0.  0.
        5    1    3    3  502    0  0.67138567775E+02  0.27009530915E+03 -0.53206583619E+03  0.60047914813E+03  0.46999998093E+01 0.  1.
       -5    1    3    3    0  502 -0.67138567775E+02 -0.27009530915E+03  0.42241304274E+03  0.50587936505E+03  0.46999998093E+01 0. -1.
</event>
<event>
 5   0  0.2403875E-04  0.1101318E+04  0.7818609E-02  0.9203908E-01
        4   -1    0    0  501    0  0.00000000000E+00  0.00000000000E+00  0.12541977333E+04  0.12541983763E+04  0.12699999809E+01 0.  1.
       -4   -1    0    0    0  501  0.00000000000E+00  0.00000000000E+00 -0.24176607144E+03  0.24176940708E+03  0.12699999809E+01 0. -1.
    10030    2    1    2    0    0  0.00000000000E+00  0.00000000000E+00  0.10124316618E+04  0.14959677834E+04  0.11013181824E+04 0.  0.
        3    1    3    3  502    0  0.33925114759E+03  0.25828855286E+02 -0.81912082988E+02  0.34995438338E+03  0.10100000352E+00 0. -1.
       -3    1    3    3    0  502 -0.33925114759E+03 -0.25828855286E+02  0.10943437448E+04  0.11460134000E+04  0.10100000352E+00 0.  1.
</event>
<event>
 5   0  0.6412712E-04  0.1098922E+04  0.7818609E-02  0.9206243E-01
        2   -1    0    0  501    0  0.00000000000E+00  0.00000000000E+00  0.12685104912E+04  0.12685104912E+04  0.25500000920E-02 0. -1.
       -2   -1    0    0    0  501  0.00000000000E+00  0.00000000000E+00 -0.23800138815E+03  0.23800138816E+03  0.25500000920E-02 0.  1.
    10030    2    1    2    0    0  0.00000000000E+00  0.00000000000E+00  0.10305091031E+04  0.15065118794E+04  0.10989217585E+04 0.  0.
        2    1    3    3  502    0 -0.59811711541E+02  0.42090915290E+03  0.38060608434E+02  0.42683786823E+03  0.25500000920E-02 0.  1.
       -2    1    3    3    0  502  0.59811711541E+02 -0.42090915290E+03  0.99244849465E+03  0.10796740112E+04  0.25500000920E-02 0. -1.
</event>
<event>
 5   0  0.3621403E-04  0.1101251E+04  0.7818609E-02  0.9203973E-01
        1   -1    0    0  501    0  0.00000000000E+00  0.00000000000E+00  0.36747604369E+03  0.36747604372E+03  0.50400001928E-02 0.  1.
       -1   -1    0    0    0  501  0.00000000000E+00  0.00000000000E+00 -0.82505661271E+03  0.82505661272E+03  0.50400001928E-02 0. -1.
    10030    2    1    2    0    0  0.00000000000E+00  0.00000000000E+00 -0.45758056902E+03  0.11925326564E+04  0.11012511791E+04 0.  0.
        3    1    3    3  502    0 -0.81169648487E+02 -0.18713923265E+03  0.32505092866E+03  0.38375476630E+03  0.10100000352E+00 0.  1.
       -3    1    3    3    0  502  0.81169648487E+02  0.18713923265E+03 -0.78263149768E+03  0.80877789015E+03  0.10100000352E+00 0. -1.
</event>
</LesHouchesEvents>
