<LesHouchesEvents version="3.0">
<header>
<!--
#*********************************************************************
#                                                                    *
#                        MadGraph5_aMC@NLO                           *
#                                                                    *
#                           Going Beyond                             *
#                                                                    *
#                   http://madgraph.hep.uiuc.edu                     *
#                   http://madgraph.phys.ucl.ac.be                   *
#                   http://amcatnlo.cern.ch                          *
#                                                                    *
#                     The MadGraph5_aMC@NLO team                     *
#                                                                    *
#....................................................................*
#                                                                    *
# This file contains all the information necessary to reproduce      *
# the events generated:                                              *
#                                                                    *
# 1. software version                                                *
# 2. proc_card          : code generation info including model       *
# 3. param_card         : model primary parameters in the LH format  *
# 4. run_card           : running parameters (collider and cuts)     *
# 5. pythia_card        : present only if pythia has been run        *
# 6. pgs_card           : present only if pgs has been run           *
# 7. delphes_cards      : present only if delphes has been run       *
#                                                                    *
#                                                                    *
#*********************************************************************
-->
<MGVersion>
#5.2.2.3
</MGVersion>
<MG5ProcCard>
#************************************************************
#*                     MadGraph5_aMC@NLO                    *
#*                                                          *
#*                *                       *                 *
#*                  *        * *        *                   *
#*                    * * * * 5 * * * *                     *
#*                  *        * *        *                   *
#*                *                       *                 *
#*                                                          *
#*                                                          *
#*         VERSION 2.2.3                 2015-02-10         *
#*                                                          *
#*    The MadGraph5_aMC@NLO Development Team - Find us at   *
#*    https://server06.fynu.ucl.ac.be/projects/madgraph     *
#*                                                          *
#************************************************************
#*                                                          *
#*               Command File for MadGraph5_aMC@NLO         *
#*                                                          *
#*     run as ./bin/mg5_aMC  filename                       *
#*                                                          *
#************************************************************
set group_subprocesses Auto
set ignore_six_quark_processes False
set loop_optimized_output True
set gauge unitary
set complex_mass_scheme False
import model sm
define p = g u c d s u~ c~ d~ s~
define j = g u c d s u~ c~ d~ s~
define l+ = e+ mu+
define l- = e- mu-
define vl = ve vm vt
define vl~ = ve~ vm~ vt~
import model Zprime_UFO
generate p p > zph, zph > j j
add process p p > zph, zph > b b~
output Dijet_signal
</MG5ProcCard>
<MGProcCard>
#*********************************************************************
#                        MadGraph/MadEvent                           *
#                   http://madgraph.hep.uiuc.edu                     *
#                                                                    *
#                          proc_card.dat                             *
#*********************************************************************
#                                                                    *
#            This Files is generated by MADGRAPH 5                   *
#                                                                    *
# WARNING: This Files is generated for MADEVENT (compatibility issue)*
#          This files is NOT a valid MG4 proc_card.dat               *
#          Running this in MG4 will NEVER reproduce the result of MG5*
#                                                                    *
#*********************************************************************
#*********************************************************************
# Process(es) requested : mg2 input                                  *
#*********************************************************************
# Begin PROCESS # This is TAG. Do not modify this line
p p > zph , zph > j j           #Process
# Be carefull the coupling are here in MG5 convention
          
end_coup           # End the couplings input

done               # this tells MG there are no more procs
# End PROCESS  # This is TAG. Do not modify this line
#*********************************************************************
# Model information                                                  *
#*********************************************************************
# Begin MODEL  # This is TAG. Do not modify this line
Zprime_UFO
# End   MODEL  # This is TAG. Do not modify this line
#*********************************************************************
# Start multiparticle definitions                                    *
#*********************************************************************
# Begin MULTIPARTICLES # This is TAG. Do not modify this line

# End  MULTIPARTICLES # This is TAG. Do not modify this line
</MGProcCard>
<MGRunCard>
#*********************************************************************
#                       MadGraph5_aMC@NLO                            *
#                                                                    *
#                     run_card.dat MadEvent                          *
#                                                                    *
#  This file is used to set the parameters of the run.               *
#                                                                    *
#  Some notation/conventions:                                        *
#                                                                    *
#   Lines starting with a '# ' are info or comments                  *
#                                                                    *
#   mind the format:   value    = variable     ! comment             *
#*********************************************************************
#
#*******************                                                 
# Running parameters
#*******************                                                 
#                                                                    
#*********************************************************************
# Tag name for the run (one word)                                    *
#*********************************************************************
  tag_1     = run_tag ! name of the run 
#*********************************************************************
# Run to generate the grid pack                                      *
#*********************************************************************
  .false.     = gridpack  !True = setting up the grid pack
#*********************************************************************
# Number of events and rnd seed                                      *
# Warning: Do not generate more than 1M events in a single run       *
# If you want to run Pythia, avoid more than 50k events in a run.    *
#*********************************************************************
  2000 = nevents ! Number of unweighted events requested 
 885 = iseed   ! rnd seed (0=assigned automatically=default))
#*********************************************************************
# Collider type and energy                                           *
# lpp: 0=No PDF, 1=proton, -1=antiproton, 2=photon from proton,      *
#                                         3=photon from electron     *
#*********************************************************************
        1     = lpp1    ! beam 1 type 
        1     = lpp2    ! beam 2 type
     4000     = ebeam1  ! beam 1 total energy in GeV
     4000     = ebeam2  ! beam 2 total energy in GeV
#*********************************************************************
# Beam polarization from -100 (left-handed) to 100 (right-handed)    *
#*********************************************************************
        0     = polbeam1 ! beam polarization for beam 1
        0     = polbeam2 ! beam polarization for beam 2
#*********************************************************************
# PDF CHOICE: this automatically fixes also alpha_s and its evol.    *
#*********************************************************************
 'nn23lo1'    = pdlabel     ! PDF set                                     
 230000    = lhaid     ! if pdlabel=lhapdf, this is the lhapdf number
#*********************************************************************
# Renormalization and factorization scales                           *
#*********************************************************************
 F        = fixed_ren_scale  ! if .true. use fixed ren scale
 F        = fixed_fac_scale  ! if .true. use fixed fac scale
 91.1880  = scale            ! fixed ren scale
 91.1880  = dsqrt_q2fact1    ! fixed fact scale for pdf1
 91.1880  = dsqrt_q2fact2    ! fixed fact scale for pdf2
 1        = scalefact        ! scale factor for event-by-event scales
#*********************************************************************
# Matching - Warning! ickkw > 1 is still beta
#*********************************************************************
 0        = ickkw            ! 0 no matching, 1 MLM, 2 CKKW matching
 1        = highestmult      ! for ickkw=2, highest mult group
 1        = ktscheme         ! for ickkw=1, 1 Durham kT, 2 Pythia pTE
 1        = alpsfact         ! scale factor for QCD emission vx
 F        = chcluster        ! cluster only according to channel diag
 T        = pdfwgt           ! for ickkw=1, perform pdf reweighting
 5        = asrwgtflavor     ! highest quark flavor for a_s reweight
 T        = clusinfo         ! include clustering tag in output
 3.0      = lhe_version       ! Change the way clustering information pass to shower.        
#*********************************************************************
#**********************************************************
#
#**********************************************************
# Automatic ptj and mjj cuts if xqcut > 0
# (turn off for VBF and single top processes)
#**********************************************************
   T  = auto_ptj_mjj  ! Automatic setting of ptj and mjj
#**********************************************************
#                                                                    
#**********************************
# BW cutoff (M+/-bwcutoff*Gamma)
#**********************************
  15  = bwcutoff      ! (M+/-bwcutoff*Gamma)
#**********************************************************
# Apply pt/E/eta/dr/mij cuts on decay products or not
# (note that etmiss/ptll/ptheavy/ht/sorted cuts always apply)
#**********************************************************
   T  = cut_decays    ! Cut decay products 
#*************************************************************
# Number of helicities to sum per event (0 = all helicities)
# 0 gives more stable result, but longer run time (needed for
# long decay chains e.g.).
# Use >=2 if most helicities contribute, e.g. pure QCD.
#*************************************************************
   0  = nhel          ! Number of helicities used per event
#*******************                                                 
# Standard Cuts
#*******************                                                 
#                                                                    
#*********************************************************************
# Minimum and maximum pt's (for max, -1 means no cut)                *
#*********************************************************************
 20  = ptj       ! minimum pt for the jets 
  0  = ptb       ! minimum pt for the b 
 10  = pta       ! minimum pt for the photons 
 10  = ptl       ! minimum pt for the charged leptons 
  0  = misset    ! minimum missing Et (sum of neutrino's momenta)
  0  = ptheavy   ! minimum pt for one heavy final state
 1.0 = ptonium   ! minimum pt for the quarkonium states
 -1  = ptjmax    ! maximum pt for the jets
 -1  = ptbmax    ! maximum pt for the b
 -1  = ptamax    ! maximum pt for the photons
 -1  = ptlmax    ! maximum pt for the charged leptons
 -1  = missetmax ! maximum missing Et (sum of neutrino's momenta)
#*********************************************************************
# Minimum and maximum E's (in the center of mass frame)              *
#*********************************************************************
  0  = ej     ! minimum E for the jets 
  0  = eb     ! minimum E for the b 
  0  = ea     ! minimum E for the photons 
  0  = el     ! minimum E for the charged leptons 
 -1   = ejmax ! maximum E for the jets
 -1   = ebmax ! maximum E for the b
 -1   = eamax ! maximum E for the photons
 -1   = elmax ! maximum E for the charged leptons
#*********************************************************************
# Maximum and minimum absolute rapidity (for max, -1 means no cut)   *
#*********************************************************************
   5  = etaj    ! max rap for the jets 
  -1  = etab    ! max rap for the b
 2.5  = etaa    ! max rap for the photons 
 2.5  = etal    ! max rap for the charged leptons 
 0.6  = etaonium ! max rap for the quarkonium states
   0  = etajmin ! min rap for the jets
   0  = etabmin ! min rap for the b
   0  = etaamin ! min rap for the photons
   0  = etalmin ! main rap for the charged leptons
#*********************************************************************
# Minimum and maximum DeltaR distance                                *
#*********************************************************************
 0.4 = drjj    ! min distance between jets 
 0   = drbb    ! min distance between b's 
 0.4 = drll    ! min distance between leptons 
 0.4 = draa    ! min distance between gammas 
 0   = drbj    ! min distance between b and jet 
 0.4 = draj    ! min distance between gamma and jet 
 0.4 = drjl    ! min distance between jet and lepton 
 0   = drab    ! min distance between gamma and b 
 0   = drbl    ! min distance between b and lepton 
 0.4 = dral    ! min distance between gamma and lepton 
 -1  = drjjmax ! max distance between jets
 -1  = drbbmax ! max distance between b's
 -1  = drllmax ! max distance between leptons
 -1  = draamax ! max distance between gammas
 -1  = drbjmax ! max distance between b and jet
 -1  = drajmax ! max distance between gamma and jet
 -1  = drjlmax ! max distance between jet and lepton
 -1  = drabmax ! max distance between gamma and b
 -1  = drblmax ! max distance between b and lepton
 -1  = dralmax ! maxdistance between gamma and lepton
#*********************************************************************
# Minimum and maximum invariant mass for pairs                       *
# WARNING: for four lepton final state mmll cut require to have      *
#          different lepton masses for each flavor!                  *           
#*********************************************************************
 0   = mmjj    ! min invariant mass of a jet pair 
 0   = mmbb    ! min invariant mass of a b pair 
 0   = mmaa    ! min invariant mass of gamma gamma pair
 0   = mmll    ! min invariant mass of l+l- (same flavour) lepton pair
 -1  = mmjjmax ! max invariant mass of a jet pair
 -1  = mmbbmax ! max invariant mass of a b pair
 -1  = mmaamax ! max invariant mass of gamma gamma pair
 -1  = mmllmax ! max invariant mass of l+l- (same flavour) lepton pair
#*********************************************************************
# Minimum and maximum invariant mass for all letpons                 *
#*********************************************************************
 0   = mmnl    ! min invariant mass for all letpons (l+- and vl) 
 -1  = mmnlmax ! max invariant mass for all letpons (l+- and vl) 
#*********************************************************************
# Minimum and maximum pt for 4-momenta sum of leptons                *
#*********************************************************************
 0   = ptllmin  ! Minimum pt for 4-momenta sum of leptons(l and vl)
 -1  = ptllmax  ! Maximum pt for 4-momenta sum of leptons(l and vl)
#*********************************************************************
# Inclusive cuts                                                     *
#*********************************************************************
 0  = xptj ! minimum pt for at least one jet  
 0  = xptb ! minimum pt for at least one b 
 0  = xpta ! minimum pt for at least one photon 
 0  = xptl ! minimum pt for at least one charged lepton 
#*********************************************************************
# Control the pt's of the jets sorted by pt                          *
#*********************************************************************
 0   = ptj1min ! minimum pt for the leading jet in pt
 0   = ptj2min ! minimum pt for the second jet in pt
 0   = ptj3min ! minimum pt for the third jet in pt
 0   = ptj4min ! minimum pt for the fourth jet in pt
 -1  = ptj1max ! maximum pt for the leading jet in pt 
 -1  = ptj2max ! maximum pt for the second jet in pt
 -1  = ptj3max ! maximum pt for the third jet in pt
 -1  = ptj4max ! maximum pt for the fourth jet in pt
 0   = cutuse  ! reject event if fails any (0) / all (1) jet pt cuts
#*********************************************************************
# Control the pt's of leptons sorted by pt                           *
#*********************************************************************
 0   = ptl1min ! minimum pt for the leading lepton in pt
 0   = ptl2min ! minimum pt for the second lepton in pt
 0   = ptl3min ! minimum pt for the third lepton in pt
 0   = ptl4min ! minimum pt for the fourth lepton in pt
 -1  = ptl1max ! maximum pt for the leading lepton in pt 
 -1  = ptl2max ! maximum pt for the second lepton in pt
 -1  = ptl3max ! maximum pt for the third lepton in pt
 -1  = ptl4max ! maximum pt for the fourth lepton in pt
#*********************************************************************
# Control the Ht(k)=Sum of k leading jets                            *
#*********************************************************************
 0   = htjmin ! minimum jet HT=Sum(jet pt)
 -1  = htjmax ! maximum jet HT=Sum(jet pt)
 0   = ihtmin  !inclusive Ht for all partons (including b)
 -1  = ihtmax  !inclusive Ht for all partons (including b)
 0   = ht2min ! minimum Ht for the two leading jets
 0   = ht3min ! minimum Ht for the three leading jets
 0   = ht4min ! minimum Ht for the four leading jets
 -1  = ht2max ! maximum Ht for the two leading jets
 -1  = ht3max ! maximum Ht for the three leading jets
 -1  = ht4max ! maximum Ht for the four leading jets
#***********************************************************************
# Photon-isolation cuts, according to hep-ph/9801442                   *
# When ptgmin=0, all the other parameters are ignored                  *
# When ptgmin>0, pta and draj are not going to be used                 *
#***********************************************************************
   0 = ptgmin ! Min photon transverse momentum
 0.4 = R0gamma ! Radius of isolation code
 1.0 = xn ! n parameter of eq.(3.4) in hep-ph/9801442
 1.0 = epsgamma ! epsilon_gamma parameter of eq.(3.4) in hep-ph/9801442
 .true. = isoEM ! isolate photons from EM energy (photons and leptons)
#*********************************************************************
# WBF cuts                                                           *
#*********************************************************************
 0   = xetamin ! minimum rapidity for two jets in the WBF case  
 0   = deltaeta ! minimum rapidity for two jets in the WBF case 
#*********************************************************************
# KT DURHAM CUT                                                      *
#*********************************************************************
 -1    =  ktdurham        
 0.4  =  dparameter 
#*********************************************************************
# maximal pdg code for quark to be considered as a light jet         *
# (otherwise b cuts are applied)                                     *
#*********************************************************************
 4 = maxjetflavor    ! Maximum jet pdg code
#*********************************************************************
# Jet measure cuts                                                   *
#*********************************************************************
 0   = xqcut   ! minimum kt jet measure between partons
#*********************************************************************
#
#*********************************************************************
# Store info for systematics studies                                 *
# WARNING: If use_syst is T, matched Pythia output is                *
#          meaningful ONLY if plotted taking matchscale              *
#          reweighting into account!                                 *
#*********************************************************************
   F  = use_syst      ! Enable systematics studies
#
#**************************************
# Parameter of the systematics study
#  will be used by SysCalc (if installed)
#**************************************                                  
#
0.5 1 2 = sys_scalefact  # factorization/renormalization scale factor
0.5 1 2 = sys_alpsfact  # \alpha_s emission scale factors
30 50 = sys_matchscale # variation of merging scale
# PDF sets and number of members (0 or none for all members).
CT10nlo.LHgrid = sys_pdf # matching scales
# MSTW2008nlo68cl.LHgrid 1  = sys_pdf
</MGRunCard>
<slha>
######################################################################
## PARAM_CARD AUTOMATICALY GENERATED BY MG5 FOLLOWING UFO MODEL   ####
######################################################################
##                                                                  ##
##  Width set on Auto will be computed following the information    ##
##        present in the decay.py files of the model.               ##
##        See  arXiv:1402.1178 for more details.                    ##
##                                                                  ##
######################################################################

###################################
## INFORMATION FOR CKMBLOCK
###################################
Block ckmblock 
    1 2.277360e-01 # cabi 

###################################
## INFORMATION FOR FRBLOCK
###################################
Block frblock 
    1 4.000000e-01 # gz 

###################################
## INFORMATION FOR MASS
###################################
Block mass 
    1 5.040000e-03 # MD 
    2 2.550000e-03 # MU 
    3 1.010000e-01 # MS 
    4 1.270000e+00 # MC 
    5 4.700000e+00 # MB 
    6 1.720000e+02 # MT 
   11 5.110000e-04 # Me 
   13 1.056600e-01 # MM 
   15 1.777000e+00 # MTA 
   23 9.118760e+01 # MZ 
   25 1.200000e+02 # MH 
  10030 1.200000e+03 # MZph 
  10031 3.000000e+02 # MZpl 
## Dependent parameters, given by model restrictions.
## Those values should be edited following the 
## analytical expression. MG5 ignores those values 
## but they are important for interfacing the output of MG5
## to external program such as Pythia.
  12 0.000000 # ve : 0.0 
  14 0.000000 # vm : 0.0 
  16 0.000000 # vt : 0.0 
  21 0.000000 # g : 0.0 
  22 0.000000 # a : 0.0 
  24 79.824360 # w+ : cmath.sqrt(MZ__exp__2/2. + cmath.sqrt(MZ__exp__4/4. - (aEW*cmath.pi*MZ__exp__2)/(Gf*sqrt__2))) 

###################################
## INFORMATION FOR SMINPUTS
###################################
Block sminputs 
    1 1.279000e+02 # aEWM1 
    2 1.166370e-05 # Gf 
    3 1.184000e-01 # aS 

###################################
## INFORMATION FOR YUKAWA
###################################
Block yukawa 
    1 5.040000e-03 # ymdo 
    2 2.550000e-03 # ymup 
    3 1.010000e-01 # yms 
    4 1.270000e+00 # ymc 
    5 4.700000e+00 # ymb 
    6 1.720000e+02 # ymt 
   11 5.110000e-04 # yme 
   13 1.056600e-01 # ymm 
   15 1.777000e+00 # ymtau 

###################################
## INFORMATION FOR DECAY
###################################
DECAY   6 1.508336e+00 # WT 
DECAY  23 2.495200e+00 # WZ 
DECAY  24 2.085000e+00 # WW 
DECAY  25 5.753088e-03 # WH 
## Dependent parameters, given by model restrictions.
## Those values should be edited following the 
## analytical expression. MG5 ignores those values 
## but they are important for interfacing the output of MG5
## to external program such as Pythia.
DECAY  1 0.000000 # d : 0.0 
DECAY  2 0.000000 # u : 0.0 
DECAY  3 0.000000 # s : 0.0 
DECAY  4 0.000000 # c : 0.0 
DECAY  5 0.000000 # b : 0.0 
DECAY  11 0.000000 # e- : 0.0 
DECAY  12 0.000000 # ve : 0.0 
DECAY  13 0.000000 # mu- : 0.0 
DECAY  14 0.000000 # vm : 0.0 
DECAY  15 0.000000 # ta- : 0.0 
DECAY  16 0.000000 # vt : 0.0 
DECAY  21 0.000000 # g : 0.0 
DECAY  22 0.000000 # a : 0.0 
DECAY  10030 0.308725 # zph : (gz__exp__2*MZph*(5 + cmath.sqrt(1 - (4*MT__exp__2)/MZph__exp__2)))/(144.*cmath.pi) 
DECAY  10031 0.132629 # zpl : (5*gz__exp__2*MZpl)/(144.*cmath.pi) 
#===========================================================
# QUANTUM NUMBERS OF NEW STATE(S) (NON SM PDG CODE)
#===========================================================

Block QNUMBERS 10030  # zph 
        1 0  # 3 times electric charge
        2 3  # number of spin states (2S+1)
        3 1  # colour rep (1: singlet, 3: triplet, 8: octet)
        4 0  # Particle/Antiparticle distinction (0=own anti)
Block QNUMBERS 10031  # zpl 
        1 0  # 3 times electric charge
        2 3  # number of spin states (2S+1)
        3 1  # colour rep (1: singlet, 3: triplet, 8: octet)
        4 0  # Particle/Antiparticle distinction (0=own anti)
</slha>
## END BANNER##
<MGGenerationInfo>
#  Number of Events        :         4052
#  Integrated weight (pb)  :  0.12331E+00
#  Max wgt                 :  0.41230E-04
#  Average wgt             :  0.30432E-04
</MGGenerationInfo>
</header>
<init>
     2212     2212  0.40000000000E+04  0.40000000000E+04 0 0  247000  247000 2   1
  0.12341151019E+00  0.24896478205E-03  0.41229560000E-04   0
</init>
<event>
 5   0  0.4024486E-04  0.1200167E+04  0.7818609E-02  0.9112711E-01
        2   -1    0    0  501    0  0.00000000000E+00  0.00000000000E+00  0.63640334292E+03  0.63640334292E+03  0.25500000920E-02 0.  1.
       -2   -1    0    0    0  501  0.00000000000E+00  0.00000000000E+00 -0.56583611815E+03  0.56583611816E+03  0.25500000920E-02 0. -1.
    10030    2    1    2    0    0  0.00000000000E+00  0.00000000000E+00  0.70567224766E+02  0.12022394611E+04  0.12001666503E+04 0.  0.
        1    1    3    3  502    0 -0.55763937687E+03  0.74945972983E+02 -0.17369458109E+03  0.58885344614E+03  0.50400001928E-02 0.  1.
       -1    1    3    3    0  502  0.55763937687E+03 -0.74945972983E+02  0.24426180585E+03  0.61338601494E+03  0.50400001928E-02 0. -1.
</event>
<event>
 5   0  0.4024486E-04  0.1198362E+04  0.7818609E-02  0.9114291E-01
        2   -1    0    0  501    0  0.00000000000E+00  0.00000000000E+00  0.10568375654E+04  0.10568375654E+04  0.25500000920E-02 0. -1.
       -2   -1    0    0    0  501  0.00000000000E+00  0.00000000000E+00 -0.33970962700E+03  0.33970962701E+03  0.25500000920E-02 0.  1.
    10030    2    1    2    0    0  0.00000000000E+00  0.00000000000E+00  0.71712793845E+03  0.13965471925E+04  0.11983620407E+04 0.  0.
        1    1    3    3  502    0 -0.44405925451E+03  0.21896341673E+03 -0.34713885727E+02  0.49632514874E+03  0.50400001928E-02 0.  1.
       -1    1    3    3    0  502  0.44405925451E+03 -0.21896341673E+03  0.75184182418E+03  0.90022204372E+03  0.50400001928E-02 0. -1.
</event>
<event>
 5   0  0.3993723E-04  0.1200083E+04  0.7818609E-02  0.9112784E-01
        2   -1    0    0  501    0  0.00000000000E+00  0.00000000000E+00  0.55949301664E+03  0.55949301665E+03  0.25500000920E-02 0.  1.
       -2   -1    0    0    0  501  0.00000000000E+00  0.00000000000E+00 -0.64352871446E+03  0.64352871446E+03  0.25500000920E-02 0. -1.
    10030    2    1    2    0    0  0.00000000000E+00  0.00000000000E+00 -0.84035697817E+02  0.12030217311E+04  0.12000830334E+04 0.  0.
        3    1    3    3  502    0 -0.38110924015E+03  0.46919137766E+02 -0.50423712030E+03  0.63379866054E+03  0.10100000352E+00 0. -1.
       -3    1    3    3    0  502  0.38110924015E+03 -0.46919137766E+02  0.42020142248E+03  0.56922307057E+03  0.10100000352E+00 0.  1.
</event>
<event>
 5   0  0.4024486E-04  0.1200458E+04  0.7818609E-02  0.9112456E-01
        2   -1    0    0  501    0  0.00000000000E+00  0.00000000000E+00  0.13053813229E+04  0.13053813229E+04  0.25500000920E-02 0.  1.
       -2   -1    0    0    0  501  0.00000000000E+00  0.00000000000E+00 -0.27599194026E+03  0.27599194027E+03  0.25500000920E-02 0. -1.
    10030    2    1    2    0    0  0.00000000000E+00  0.00000000000E+00  0.10293893827E+04  0.15813732632E+04  0.12004577862E+04 0.  0.
        1    1    3    3  502    0  0.26376670006E+03 -0.46108796629E+03  0.14655529890E+03  0.55104758450E+03  0.50400001928E-02 0. -1.
       -1    1    3    3    0  502 -0.26376670006E+03  0.46108796629E+03  0.88283408377E+03  0.10303256787E+04  0.50400001928E-02 0.  1.
</event>
<event>
 5   0  0.3993723E-04  0.1187260E+04  0.7818609E-02  0.9124081E-01
        2   -1    0    0  501    0  0.00000000000E+00  0.00000000000E+00  0.60863958451E+03  0.60863958452E+03  0.25500000920E-02 0. -1.
       -2   -1    0    0    0  501  0.00000000000E+00  0.00000000000E+00 -0.57899102456E+03  0.57899102457E+03  0.25500000920E-02 0.  1.
    10030    2    1    2    0    0  0.00000000000E+00  0.00000000000E+00  0.29648559954E+02  0.11876306091E+04  0.11872604712E+04 0.  0.
        3    1    3    3  502    0  0.39421096782E+03 -0.97320719546E+02 -0.41835025617E+03  0.58300133502E+03  0.10100000352E+00 0.  1.
       -3    1    3    3    0  502 -0.39421096782E+03  0.97320719546E+02  0.44799881612E+03  0.60462927406E+03  0.10100000352E+00 0. -1.
</event>
<event>
 5   0  0.2315038E-04  0.1207495E+04  0.7818609E-02  0.9106322E-01
        1   -1    0    0  501    0  0.00000000000E+00  0.00000000000E+00  0.53909426222E+03  0.53909426224E+03  0.50400001928E-02 0.  1.
       -1   -1    0    0    0  501  0.00000000000E+00  0.00000000000E+00 -0.67615410527E+03  0.67615410529E+03  0.50400001928E-02 0. -1.
    10030    2    1    2    0    0  0.00000000000E+00  0.00000000000E+00 -0.13705984305E+03  0.12152483675E+04  0.12074945939E+04 0.  0.
        1    1    3    3  502    0  0.26977166174E+03 -0.39736573389E+03 -0.43671308790E+03  0.64914913319E+03  0.50400001928E-02 0. -1.
       -1    1    3    3    0  502 -0.26977166174E+03  0.39736573389E+03  0.29965324485E+03  0.56609923434E+03  0.50400001928E-02 0.  1.
</event>
<event>
 5   0  0.2340731E-04  0.1201254E+04  0.7818609E-02  0.9111759E-01
       -1   -1    0    0    0  501  0.00000000000E+00  0.00000000000E+00  0.14497989083E+03  0.14497989092E+03  0.50400001928E-02 0. -1.
        1   -1    0    0  501    0  0.00000000000E+00  0.00000000000E+00 -0.24882963282E+04  0.24882963282E+04  0.50400001928E-02 0.  1.
    10030    2    1    2    0    0  0.00000000000E+00  0.00000000000E+00 -0.23433164373E+04  0.26332762191E+04  0.12012542281E+04 0.  0.
        3    1    3    3  502    0 -0.26981185065E+03  0.46808197679E+03 -0.59644973701E+03  0.80476796080E+03  0.10100000352E+00 0. -1.
       -3    1    3    3    0  502  0.26981185065E+03 -0.46808197679E+03 -0.17468667003E+04  0.18285082583E+04  0.10100000352E+00 0.  1.
</event>
<event>
 5   0  0.4024486E-04  0.1198183E+04  0.7818609E-02  0.9114449E-01
       -2   -1    0    0    0  501  0.00000000000E+00  0.00000000000E+00  0.23544403955E+03  0.23544403956E+03  0.25500000920E-02 0. -1.
        2   -1    0    0  501    0  0.00000000000E+00  0.00000000000E+00 -0.15243981961E+04  0.15243981961E+04  0.25500000920E-02 0.  1.
    10030    2    1    2    0    0  0.00000000000E+00  0.00000000000E+00 -0.12889541566E+04  0.17598422357E+04  0.11981827393E+04 0.  0.
        1    1    3    3  502    0 -0.21213641583E+03  0.46891900808E+03 -0.10948466654E+04  0.12097834995E+04  0.50400001928E-02 0.  1.
       -1    1    3    3    0  502  0.21213641583E+03 -0.46891900808E+03 -0.19410749122E+03  0.55005873617E+03  0.50400001928E-02 0. -1.
</event>
<event>
 5   0  0.1541375E-04  0.1184447E+04  0.7818609E-02  0.9126580E-01
        4   -1    0    0  501    0  0.00000000000E+00  0.00000000000E+00  0.78060467081E+03  0.78060570392E+03  0.12699999809E+01 0.  1.
       -4   -1    0    0    0  501  0.00000000000E+00  0.00000000000E+00 -0.44930176546E+03  0.44930356035E+03  0.12699999809E+01 0. -1.
    10030    2    1    2    0    0  0.00000000000E+00  0.00000000000E+00  0.33130290536E+03  0.12299092643E+04  0.11844472058E+04 0.  0.
        3    1    3    3  502    0 -0.69820443255E+01  0.18357377216E+03  0.75027160246E+03  0.77243482989E+03  0.10100000352E+00 0.  1.
       -3    1    3    3    0  502  0.69820443255E+01 -0.18357377216E+03 -0.41896869710E+03  0.45747443438E+03  0.10100000352E+00 0. -1.
</event>
<event>
 5   0  0.4024486E-04  0.1199307E+04  0.7818609E-02  0.9113464E-01
        2   -1    0    0  501    0  0.00000000000E+00  0.00000000000E+00  0.16936016366E+04  0.16936016366E+04  0.25500000920E-02 0. -1.
       -2   -1    0    0    0  501  0.00000000000E+00  0.00000000000E+00 -0.21231918233E+03  0.21231918235E+03  0.25500000920E-02 0.  1.
    10030    2    1    2    0    0  0.00000000000E+00  0.00000000000E+00  0.14812824543E+04  0.19059208190E+04  0.11993066575E+04 0.  0.
        1    1    3    3  502    0 -0.19529290063E+03  0.11377051536E+03 -0.14203807921E+03  0.26694168497E+03  0.50400001928E-02 0.  1.
       -1    1    3    3    0  502  0.19529290063E+03 -0.11377051536E+03  0.16233205335E+04  0.16389791340E+04  0.50400001928E-02 0. -1.
</event>
<event>
 5   0  0.4122956E-04  0.1195093E+04  0.7818609E-02  0.9117163E-01
       -2   -1    0    0    0  501  0.00000000000E+00  0.00000000000E+00  0.34953909290E+03  0.34953909291E+03  0.25500000920E-02 0. -1.
        2   -1    0    0  501    0  0.00000000000E+00  0.00000000000E+00 -0.10215213045E+04  0.10215213045E+04  0.25500000920E-02 0.  1.
    10030    2    1    2    0    0  0.00000000000E+00  0.00000000000E+00 -0.67198221163E+03  0.13710603974E+04  0.11950926829E+04 0.  0.
        5    1    3    3  502    0 -0.29146197165E+03  0.52226656279E+02 -0.93141057430E+03  0.97735635899E+03  0.46999998093E+01 0.  1.
       -5    1    3    3    0  502  0.29146197165E+03 -0.52226656279E+02  0.25942836267E+03  0.39370403846E+03  0.46999998093E+01 0. -1.
</event>
<event>
 5   0  0.4122956E-04  0.1199222E+04  0.7818609E-02  0.9113538E-01
        2   -1    0    0  501    0  0.00000000000E+00  0.00000000000E+00  0.11295064469E+04  0.11295064470E+04  0.25500000920E-02 0. -1.
       -2   -1    0    0    0  501  0.00000000000E+00  0.00000000000E+00 -0.31830996432E+03  0.31830996433E+03  0.25500000920E-02 0.  1.
    10030    2    1    2    0    0  0.00000000000E+00  0.00000000000E+00  0.81119648263E+03  0.14478164113E+04  0.11992216756E+04 0.  0.
        5    1    3    3  502    0 -0.44661302195E+03 -0.39994977672E+03  0.39426947651E+03  0.71756081650E+03  0.46999998093E+01 0. -1.
       -5    1    3    3    0  502  0.44661302195E+03  0.39994977672E+03  0.41692700612E+03  0.73025559477E+03  0.46999998093E+01 0.  1.
</event>
<event>
 5   0  0.2244308E-04  0.1181867E+04  0.7818609E-02  0.9128878E-01
        1   -1    0    0  501    0  0.00000000000E+00  0.00000000000E+00  0.13989786295E+04  0.13989786295E+04  0.50400001928E-02 0. -1.
       -1   -1    0    0    0  501  0.00000000000E+00  0.00000000000E+00 -0.24961249860E+03  0.24961249865E+03  0.50400001928E-02 0.  1.
    10030    2    1    2    0    0  0.00000000000E+00  0.00000000000E+00  0.11493661309E+04  0.16485911281E+04  0.11818672535E+04 0.  0.
        5    1    3    3  502    0  0.12051003702E+03 -0.29285408432E+03 -0.12122475100E+03  0.33912197507E+03  0.46999998093E+01 0.  1.
       -5    1    3    3    0  502 -0.12051003702E+03  0.29285408432E+03  0.12705908819E+04  0.13094691531E+04  0.46999998093E+01 0. -1.
</event>
<event>
 5   0  0.1541375E-04  0.1199766E+04  0.7818609E-02  0.9113062E-01
        3   -1    0    0  501    0  0.00000000000E+00  0.00000000000E+00  0.57794070208E+03  0.57794071090E+03  0.10100000352E+00 0. -1.
       -3   -1    0    0    0  501  0.00000000000E+00  0.00000000000E+00 -0.62265798963E+03  0.62265799783E+03  0.10100000352E+00 0.  1.
    10030    2    1    2    0    0  0.00000000000E+00  0.00000000000E+00 -0.44717287558E+02  0.12005987087E+04  0.11997656536E+04 0.  0.
        4    1    3    3  502    0  0.49677522613E+03  0.33288438225E+03 -0.69932749272E+02  0.60207129110E+03  0.12699999809E+01 0. -1.
       -4    1    3    3    0  502 -0.49677522613E+03 -0.33288438225E+03  0.25215461714E+02  0.59852741763E+03  0.12699999809E+01 0.  1.
</event>
<event>
 5   0  0.2315038E-04  0.1199722E+04  0.7818609E-02  0.9113100E-01
        1   -1    0    0  501    0  0.00000000000E+00  0.00000000000E+00  0.76648142972E+03  0.76648142974E+03  0.50400001928E-02 0. -1.
       -1   -1    0    0    0  501  0.00000000000E+00  0.00000000000E+00 -0.46946075421E+03  0.46946075423E+03  0.50400001928E-02 0.  1.
    10030    2    1    2    0    0  0.00000000000E+00  0.00000000000E+00  0.29702067552E+03  0.12359421840E+04  0.11997215512E+04 0.  0.
        1    1    3    3  502    0  0.14565746736E+03 -0.55984224929E+03 -0.15006326385E+02  0.57867489296E+03  0.50400001928E-02 0.  1.
       -1    1    3    3    0  502 -0.14565746736E+03  0.55984224929E+03  0.31202700190E+03  0.65726729101E+03  0.50400001928E-02 0. -1.
</event>
<event>
 5   0  0.2340731E-04  0.1199843E+04  0.7818609E-02  0.9112994E-01
        1   -1    0    0  501    0  0.00000000000E+00  0.00000000000E+00  0.40563809147E+03  0.40563809150E+03  0.50400001928E-02 0.  1.
       -1   -1    0    0    0  501  0.00000000000E+00  0.00000000000E+00 -0.88725784045E+03  0.88725784046E+03  0.50400001928E-02 0. -1.
    10030    2    1    2    0    0  0.00000000000E+00  0.00000000000E+00 -0.48161974898E+03  0.12928959320E+04  0.11998426181E+04 0.  0.
        3    1    3    3  502    0 -0.51706441593E+03  0.15322289799E+03  0.42389638326E+02  0.54095263964E+03  0.10100000352E+00 0. -1.
       -3    1    3    3    0  502  0.51706441593E+03 -0.15322289799E+03 -0.52400938730E+03  0.75194329233E+03  0.10100000352E+00 0.  1.
</event>
<event>
 5   0  0.2340731E-04  0.1200789E+04  0.7818609E-02  0.9112166E-01
        1   -1    0    0  501    0  0.00000000000E+00  0.00000000000E+00  0.69986335767E+03  0.69986335769E+03  0.50400001928E-02 0.  1.
       -1   -1    0    0    0  501  0.00000000000E+00  0.00000000000E+00 -0.51506265495E+03  0.51506265497E+03  0.50400001928E-02 0. -1.
    10030    2    1    2    0    0  0.00000000000E+00  0.00000000000E+00  0.18480070272E+03  0.12149260127E+04  0.12007888726E+04 0.  0.
        3    1    3    3  502    0  0.53284575218E+03 -0.26021804499E+03 -0.27033293591E+01  0.59299691799E+03  0.10100000352E+00 0.  1.
       -3    1    3    3    0  502 -0.53284575218E+03  0.26021804499E+03  0.18750403208E+03  0.62192909467E+03  0.10100000352E+00 0. -1.
</event>
<event>
 5   0  0.4024486E-04  0.1200173E+04  0.7818609E-02  0.9112705E-01
        2   -1    0    0  501    0  0.00000000000E+00  0.00000000000E+00  0.46292038457E+03  0.46292038458E+03  0.25500000920E-02 0. -1.
       -2   -1    0    0    0  501  0.00000000000E+00  0.00000000000E+00 -0.77789595145E+03  0.77789595145E+03  0.25500000920E-02 0.  1.
    10030    2    1    2    0    0  0.00000000000E+00  0.00000000000E+00 -0.31497556687E+03  0.12408163360E+04  0.12001731425E+04 0.  0.
        1    1    3    3  502    0  0.31519312057E+03 -0.50410915296E+03 -0.24167731205E+03  0.64177929582E+03  0.50400001928E-02 0.  1.
       -1    1    3    3    0  502 -0.31519312057E+03  0.50410915296E+03 -0.73298254824E+02  0.59903704021E+03  0.50400001928E-02 0. -1.
</event>
<event>
 5   0  0.2304842E-04  0.1200691E+04  0.7818609E-02  0.9112252E-01
       -1   -1    0    0    0  501  0.00000000000E+00  0.00000000000E+00  0.36640918336E+03  0.36640918339E+03  0.50400001928E-02 0.  1.
        1   -1    0    0  501    0  0.00000000000E+00  0.00000000000E+00 -0.98363980933E+03  0.98363980934E+03  0.50400001928E-02 0. -1.
    10030    2    1    2    0    0  0.00000000000E+00  0.00000000000E+00 -0.61723062597E+03  0.13500489927E+04  0.12006908999E+04 0.  0.
        4    1    3    3  502    0 -0.15285705457E+03  0.48918365672E+03 -0.66015170343E+03  0.83574386840E+03  0.12699999809E+01 0. -1.
       -4    1    3    3    0  502  0.15285705457E+03 -0.48918365672E+03  0.42921077457E+02  0.51430512434E+03  0.12699999809E+01 0.  1.
</event>
<event>
 5   0  0.2315038E-04  0.1198950E+04  0.7818609E-02  0.9113776E-01
        1   -1    0    0  501    0  0.00000000000E+00  0.00000000000E+00  0.45842620142E+03  0.45842620144E+03  0.50400001928E-02 0. -1.
       -1   -1    0    0    0  501  0.00000000000E+00  0.00000000000E+00 -0.78392178183E+03  0.78392178184E+03  0.50400001928E-02 0.  1.
    10030    2    1    2    0    0  0.00000000000E+00  0.00000000000E+00 -0.32549558041E+03  0.12423479833E+04  0.11989500151E+04 0.  0.
        1    1    3    3  502    0  0.56890087928E+03  0.10864377369E+03 -0.32300224168E+03  0.66316071066E+03  0.50400001928E-02 0.  1.
       -1    1    3    3    0  502 -0.56890087928E+03 -0.10864377369E+03 -0.24933387287E+01  0.57918727262E+03  0.50400001928E-02 0. -1.
</event>
<event>
 5   0  0.3883890E-04  0.1196763E+04  0.7818609E-02  0.9115695E-01
        2   -1    0    0  501    0  0.00000000000E+00  0.00000000000E+00  0.97340368775E+03  0.97340368775E+03  0.25500000920E-02 0.  1.
       -2   -1    0    0    0  501  0.00000000000E+00  0.00000000000E+00 -0.36784369750E+03  0.36784369750E+03  0.25500000920E-02 0. -1.
    10030    2    1    2    0    0  0.00000000000E+00  0.00000000000E+00  0.60555999026E+03  0.13412473853E+04  0.11967629868E+04 0.  0.
        2    1    3    3  502    0 -0.30889224430E+03 -0.63940508252E+02 -0.26709473171E+03  0.41333086371E+03  0.25500000920E-02 0. -1.
       -2    1    3    3    0  502  0.30889224430E+03  0.63940508252E+02  0.87265472196E+03  0.92791652155E+03  0.25500000920E-02 0.  1.
</event>
<event>
 5   0  0.2340731E-04  0.1204177E+04  0.7818609E-02  0.9109208E-01
       -1   -1    0    0    0  501  0.00000000000E+00  0.00000000000E+00  0.79390227328E+03  0.79390227330E+03  0.50400001928E-02 0.  1.
        1   -1    0    0  501    0  0.00000000000E+00  0.00000000000E+00 -0.45661841607E+03  0.45661841610E+03  0.50400001928E-02 0. -1.
    10030    2    1    2    0    0  0.00000000000E+00  0.00000000000E+00  0.33728385721E+03  0.12505206894E+04  0.12041767288E+04 0.  0.
        3    1    3    3  502    0  0.39960030106E+03  0.16767886580E+03 -0.26543253615E+03  0.50818406517E+03  0.10100000352E+00 0. -1.
       -3    1    3    3    0  502 -0.39960030106E+03 -0.16767886580E+03  0.60271639336E+03  0.74233662423E+03  0.10100000352E+00 0.  1.
</event>
<event>
 5   0  0.1541375E-04  0.1201332E+04  0.7818609E-02  0.9111691E-01
        3   -1    0    0  501    0  0.00000000000E+00  0.00000000000E+00  0.21482670147E+03  0.21482672521E+03  0.10100000352E+00 0.  1.
       -3   -1    0    0    0  501  0.00000000000E+00  0.00000000000E+00 -0.16794913108E+04  0.16794913138E+04  0.10100000352E+00 0. -1.
    10030    2    1    2    0    0  0.00000000000E+00  0.00000000000E+00 -0.14646646093E+04  0.18943180391E+04  0.12013319338E+04 0.  0.
        1    1    3    3  502    0  0.56367660460E+03 -0.20216018030E+03 -0.65837912316E+03  0.88997928230E+03  0.50400001928E-02 0.  1.
       -1    1    3    3    0  502 -0.56367660460E+03  0.20216018030E+03 -0.80628548618E+03  0.10043387568E+04  0.50400001928E-02 0. -1.
</event>
<event>
 5   0  0.3993723E-04  0.1199901E+04  0.7818609E-02  0.9112944E-01
       -2   -1    0    0    0  501  0.00000000000E+00  0.00000000000E+00  0.45732378730E+03  0.45732378730E+03  0.25500000920E-02 0. -1.
        2   -1    0    0  501    0  0.00000000000E+00  0.00000000000E+00 -0.78705792180E+03  0.78705792180E+03  0.25500000920E-02 0.  1.
    10030    2    1    2    0    0  0.00000000000E+00  0.00000000000E+00 -0.32973413450E+03  0.12443817091E+04  0.11999005119E+04 0.  0.
        3    1    3    3  502    0 -0.37166315760E+03  0.95482392684E+02 -0.64314662984E+03  0.74892455408E+03  0.10100000352E+00 0.  1.
       -3    1    3    3    0  502  0.37166315760E+03 -0.95482392684E+02  0.31341249534E+03  0.49545715502E+03  0.10100000352E+00 0. -1.
</event>
<event>
 5   0  0.2315038E-04  0.1187849E+04  0.7818609E-02  0.9123559E-01
       -1   -1    0    0    0  501  0.00000000000E+00  0.00000000000E+00  0.13853691585E+04  0.13853691585E+04  0.50400001928E-02 0. -1.
        1   -1    0    0  501    0  0.00000000000E+00  0.00000000000E+00 -0.25462252027E+03  0.25462252032E+03  0.50400001928E-02 0.  1.
    10030    2    1    2    0    0  0.00000000000E+00  0.00000000000E+00  0.11307466383E+04  0.16399916788E+04  0.11878487895E+04 0.  0.
        1    1    3    3  502    0 -0.16233660971E+03 -0.47465795045E+03  0.12639740917E+03  0.51732934370E+03  0.50400001928E-02 0.  1.
       -1    1    3    3    0  502  0.16233660971E+03  0.47465795045E+03  0.10043492291E+04  0.11226623352E+04  0.50400001928E-02 0. -1.
</event>
<event>
 5   0  0.3883890E-04  0.1202722E+04  0.7818609E-02  0.9110477E-01
       -2   -1    0    0    0  501  0.00000000000E+00  0.00000000000E+00  0.48935346823E+03  0.48935346824E+03  0.25500000920E-02 0. -1.
        2   -1    0    0  501    0  0.00000000000E+00  0.00000000000E+00 -0.73900553732E+03  0.73900553733E+03  0.25500000920E-02 0.  1.
    10030    2    1    2    0    0  0.00000000000E+00  0.00000000000E+00 -0.24965206909E+03  0.12283590056E+04  0.12027217845E+04 0.  0.
        2    1    3    3  502    0 -0.30293759716E+03  0.45345063143E+03 -0.38369742816E+03  0.66679260592E+03  0.25500000920E-02 0.  1.
       -2    1    3    3    0  502  0.30293759716E+03 -0.45345063143E+03  0.13404535907E+03  0.56156639965E+03  0.25500000920E-02 0. -1.
</event>
<event>
 5   0  0.2204090E-04  0.1200091E+04  0.7818609E-02  0.9112777E-01
        1   -1    0    0  501    0  0.00000000000E+00  0.00000000000E+00  0.91879265707E+03  0.91879265709E+03  0.50400001928E-02 0.  1.
       -1   -1    0    0    0  501  0.00000000000E+00  0.00000000000E+00 -0.39187825444E+03  0.39187825447E+03  0.50400001928E-02 0. -1.
    10030    2    1    2    0    0  0.00000000000E+00  0.00000000000E+00  0.52691440263E+03  0.13106709116E+04  0.12000914343E+04 0.  0.
        2    1    3    3  502    0  0.17923432965E+03 -0.42577840924E+03 -0.15476732295E+03  0.48720131667E+03  0.25500000920E-02 0. -1.
       -2    1    3    3    0  502 -0.17923432965E+03  0.42577840924E+03  0.68168172559E+03  0.82346959489E+03  0.25500000920E-02 0.  1.
</event>
<event>
 5   0  0.3993723E-04  0.1203615E+04  0.7818609E-02  0.9109698E-01
       -2   -1    0    0    0  501  0.00000000000E+00  0.00000000000E+00  0.20858709860E+03  0.20858709861E+03  0.25500000920E-02 0. -1.
        2   -1    0    0  501    0  0.00000000000E+00  0.00000000000E+00 -0.17363120453E+04  0.17363120453E+04  0.25500000920E-02 0.  1.
    10030    2    1    2    0    0  0.00000000000E+00  0.00000000000E+00 -0.15277249467E+04  0.19448991439E+04  0.12036150411E+04 0.  0.
        3    1    3    3  502    0  0.54799039704E+03 -0.24736668801E+03 -0.80626290580E+03  0.10057552570E+04  0.10100000352E+00 0.  1.
       -3    1    3    3    0  502 -0.54799039704E+03  0.24736668801E+03 -0.72146204086E+03  0.93914388684E+03  0.10100000352E+00 0. -1.
</event>
<event>
 5   0  0.4122956E-04  0.1198661E+04  0.7818609E-02  0.9114030E-01
       -2   -1    0    0    0  501  0.00000000000E+00  0.00000000000E+00  0.39956617189E+03  0.39956617190E+03  0.25500000920E-02 0.  1.
        2   -1    0    0  501    0  0.00000000000E+00  0.00000000000E+00 -0.89896711556E+03  0.89896711556E+03  0.25500000920E-02 0. -1.
    10030    2    1    2    0    0  0.00000000000E+00  0.00000000000E+00 -0.49940094367E+03  0.12985332875E+04  0.11986606676E+04 0.  0.
        5    1    3    3  502    0 -0.14472535986E+03  0.57928193767E+03 -0.30559145685E+03  0.67076167272E+03  0.46999998093E+01 0. -1.
       -5    1    3    3    0  502  0.14472535986E+03 -0.57928193767E+03 -0.19380948682E+03  0.62777161474E+03  0.46999998093E+01 0.  1.
</event>
<event>
 5   0  0.2204090E-04  0.1192659E+04  0.7818609E-02  0.9119307E-01
        1   -1    0    0  501    0  0.00000000000E+00  0.00000000000E+00  0.12298389677E+04  0.12298389677E+04  0.50400001928E-02 0. -1.
       -1   -1    0    0    0  501  0.00000000000E+00  0.00000000000E+00 -0.28915068067E+03  0.28915068071E+03  0.50400001928E-02 0.  1.
    10030    2    1    2    0    0  0.00000000000E+00  0.00000000000E+00  0.94068828706E+03  0.15189896484E+04  0.11926588358E+04 0.  0.
        2    1    3    3  502    0  0.51962087928E+02  0.37779692192E+03  0.10542360029E+04  0.11210905952E+04  0.25500000920E-02 0. -1.
       -2    1    3    3    0  502 -0.51962087928E+02 -0.37779692192E+03 -0.11354771586E+03  0.39789905325E+03  0.25500000920E-02 0.  1.
</event>
<event>
 5   0  0.3993723E-04  0.1197495E+04  0.7818609E-02  0.9115052E-01
       -2   -1    0    0    0  501  0.00000000000E+00  0.00000000000E+00  0.48964877715E+03  0.48964877715E+03  0.25500000920E-02 0.  1.
        2   -1    0    0  501    0  0.00000000000E+00  0.00000000000E+00 -0.73215431817E+03  0.73215431818E+03  0.25500000920E-02 0. -1.
    10030    2    1    2    0    0  0.00000000000E+00  0.00000000000E+00 -0.24250554103E+03  0.12218030953E+04  0.11974948294E+04 0.  0.
        3    1    3    3  502    0 -0.52657759744E+03  0.20218726756E+03 -0.32616483233E+03  0.65157283963E+03  0.10100000352E+00 0. -1.
       -3    1    3    3    0  502  0.52657759744E+03 -0.20218726756E+03  0.83659291308E+02  0.57023025570E+03  0.10100000352E+00 0.  1.
</event>
<event>
 5   0  0.4024486E-04  0.1193197E+04  0.7818609E-02  0.9118832E-01
        2   -1    0    0  501    0  0.00000000000E+00  0.00000000000E+00  0.40378841444E+03  0.40378841445E+03  0.25500000920E-02 0.  1.
       -2   -1    0    0    0  501  0.00000000000E+00  0.00000000000E+00 -0.88147595719E+03  0.88147595719E+03  0.25500000920E-02 0. -1.
    10030    2    1    2    0    0  0.00000000000E+00  0.00000000000E+00 -0.47768754275E+03  0.12852643716E+04  0.11931970150E+04 0.  0.
        1    1    3    3  502    0  0.24666574198E+03 -0.20108065257E+03  0.30472458307E+03  0.44060695484E+03  0.50400001928E-02 0.  1.
       -1    1    3    3    0  502 -0.24666574198E+03  0.20108065257E+03 -0.78241212582E+03  0.84465741680E+03  0.50400001928E-02 0. -1.
</event>
<event>
 5   0  0.2340731E-04  0.1195413E+04  0.7818609E-02  0.9116881E-01
        1   -1    0    0  501    0  0.00000000000E+00  0.00000000000E+00  0.43345146388E+03  0.43345146390E+03  0.50400001928E-02 0. -1.
       -1   -1    0    0    0  501  0.00000000000E+00  0.00000000000E+00 -0.82420564254E+03  0.82420564256E+03  0.50400001928E-02 0.  1.
    10030    2    1    2    0    0  0.00000000000E+00  0.00000000000E+00 -0.39075417867E+03  0.12576571065E+04  0.11954131375E+04 0.  0.
        3    1    3    3  502    0  0.27467498215E+03 -0.28653346202E+03  0.27477577573E+03  0.48275201481E+03  0.10100000352E+00 0. -1.
       -3    1    3    3    0  502 -0.27467498215E+03  0.28653346202E+03 -0.66552995440E+03  0.77490509165E+03  0.10100000352E+00 0.  1.
</event>
<event>
 5   0  0.3993723E-04  0.1194630E+04  0.7818609E-02  0.9117570E-01
        2   -1    0    0  501    0  0.00000000000E+00  0.00000000000E+00  0.12942571687E+04  0.12942571687E+04  0.25500000920E-02 0.  1.
       -2   -1    0    0    0  501  0.00000000000E+00  0.00000000000E+00 -0.27566778584E+03  0.27566778585E+03  0.25500000920E-02 0. -1.
    10030    2    1    2    0    0  0.00000000000E+00  0.00000000000E+00  0.10185893828E+04  0.15699249545E+04  0.11946296631E+04 0.  0.
        3    1    3    3  502    0  0.23353042142E+03  0.53396946890E+03  0.33732071058E+03  0.67338334063E+03  0.10100000352E+00 0. -1.
       -3    1    3    3    0  502 -0.23353042142E+03 -0.53396946890E+03  0.68126867226E+03  0.89654161390E+03  0.10100000352E+00 0.  1.
</event>
<event>
 5   0  0.2304842E-04  0.1207950E+04  0.7818609E-02  0.9105926E-01
        1   -1    0    0  501    0  0.00000000000E+00  0.00000000000E+00  0.74248037640E+03  0.74248037642E+03  0.50400001928E-02 0. -1.
       -1   -1    0    0    0  501  0.00000000000E+00  0.00000000000E+00 -0.49130675585E+03  0.49130675588E+03  0.50400001928E-02 0.  1.
    10030    2    1    2    0    0  0.00000000000E+00  0.00000000000E+00  0.25117362055E+03  0.12337871323E+04  0.12079497093E+04 0.  0.
        4    1    3    3  502    0  0.54081814321E+02  0.44926949152E+03 -0.28298953063E+03  0.53371584761E+03  0.12699999809E+01 0. -1.
       -4    1    3    3    0  502 -0.54081814321E+02 -0.44926949152E+03  0.53416315118E+03  0.70007128468E+03  0.12699999809E+01 0.  1.
</event>
<event>
 5   0  0.2315038E-04  0.1191787E+04  0.7818609E-02  0.9120076E-01
       -1   -1    0    0    0  501  0.00000000000E+00  0.00000000000E+00  0.39824257664E+03  0.39824257667E+03  0.50400001928E-02 0. -1.
        1   -1    0    0  501    0  0.00000000000E+00  0.00000000000E+00 -0.89164010084E+03  0.89164010085E+03  0.50400001928E-02 0.  1.
    10030    2    1    2    0    0  0.00000000000E+00  0.00000000000E+00 -0.49339752420E+03  0.12898826775E+04  0.11917869797E+04 0.  0.
        1    1    3    3  502    0 -0.51480755128E+03 -0.24821929298E+03 -0.42925146785E+03  0.71477021128E+03  0.50400001928E-02 0.  1.
       -1    1    3    3    0  502  0.51480755128E+03  0.24821929298E+03 -0.64146056349E+02  0.57511246625E+03  0.50400001928E-02 0. -1.
</event>
<event>
 5   0  0.2340731E-04  0.1200283E+04  0.7818609E-02  0.9112609E-01
        1   -1    0    0  501    0  0.00000000000E+00  0.00000000000E+00  0.38242774411E+03  0.38242774415E+03  0.50400001928E-02 0. -1.
       -1   -1    0    0    0  501  0.00000000000E+00  0.00000000000E+00 -0.94179769175E+03  0.94179769176E+03  0.50400001928E-02 0.  1.
    10030    2    1    2    0    0  0.00000000000E+00  0.00000000000E+00 -0.55936994763E+03  0.13242254359E+04  0.12002825779E+04 0.  0.
        3    1    3    3  502    0  0.56853201517E+03 -0.13322772620E+03 -0.43252262767E+03  0.72667331928E+03  0.10100000352E+00 0. -1.
       -3    1    3    3    0  502 -0.56853201517E+03  0.13322772620E+03 -0.12684731996E+03  0.59755211663E+03  0.10100000352E+00 0.  1.
</event>
<event>
 5   0  0.3832662E-04  0.1201422E+04  0.7818609E-02  0.9111613E-01
       -2   -1    0    0    0  501  0.00000000000E+00  0.00000000000E+00  0.46180330503E+03  0.46180330503E+03  0.25500000920E-02 0.  1.
        2   -1    0    0  501    0  0.00000000000E+00  0.00000000000E+00 -0.78140146711E+03  0.78140146712E+03  0.25500000920E-02 0. -1.
    10030    2    1    2    0    0  0.00000000000E+00  0.00000000000E+00 -0.31959816208E+03  0.12432047722E+04  0.12014221241E+04 0.  0.
        4    1    3    3  502    0  0.16576300835E+03  0.73461088405E+02 -0.75240989550E+03  0.77394842864E+03  0.12699999809E+01 0. -1.
       -4    1    3    3    0  502 -0.16576300835E+03 -0.73461088405E+02  0.43281173341E+03  0.46925634351E+03  0.12699999809E+01 0.  1.
</event>
<event>
 5   0  0.3832662E-04  0.1199466E+04  0.7818609E-02  0.9113324E-01
        2   -1    0    0  501    0  0.00000000000E+00  0.00000000000E+00  0.59699811845E+03  0.59699811846E+03  0.25500000920E-02 0.  1.
       -2   -1    0    0    0  501  0.00000000000E+00  0.00000000000E+00 -0.60248024124E+03  0.60248024124E+03  0.25500000920E-02 0. -1.
    10030    2    1    2    0    0  0.00000000000E+00  0.00000000000E+00 -0.54821227851E+01  0.11994783597E+04  0.11994658318E+04 0.  0.
        4    1    3    3  502    0  0.44020773258E+03  0.59079636977E+02 -0.40573994316E+03  0.60158105497E+03  0.12699999809E+01 0. -1.
       -4    1    3    3    0  502 -0.44020773258E+03 -0.59079636977E+02  0.40025782038E+03  0.59789730472E+03  0.12699999809E+01 0.  1.
</event>
<event>
 5   0  0.1541375E-04  0.1203529E+04  0.7818609E-02  0.9109773E-01
        4   -1    0    0  501    0  0.00000000000E+00  0.00000000000E+00  0.76243610385E+03  0.76243716158E+03  0.12699999809E+01 0. -1.
       -4   -1    0    0    0  501  0.00000000000E+00  0.00000000000E+00 -0.47494973504E+03  0.47495143300E+03  0.12699999809E+01 0.  1.
    10030    2    1    2    0    0  0.00000000000E+00  0.00000000000E+00  0.28748636882E+03  0.12373885946E+04  0.12035290282E+04 0.  0.
        4    1    3    3  502    0 -0.26686261826E+03 -0.58058076581E+01  0.69823950783E+03  0.74752216530E+03  0.12699999809E+01 0. -1.
       -4    1    3    3    0  502  0.26686261826E+03  0.58058076581E+01 -0.41075313901E+03  0.48986642928E+03  0.12699999809E+01 0.  1.
</event>
<event>
 5   0  0.2340731E-04  0.1200887E+04  0.7818609E-02  0.9112080E-01
        1   -1    0    0  501    0  0.00000000000E+00  0.00000000000E+00  0.63767471560E+03  0.63767471562E+03  0.50400001928E-02 0. -1.
       -1   -1    0    0    0  501  0.00000000000E+00  0.00000000000E+00 -0.56538614865E+03  0.56538614868E+03  0.50400001928E-02 0.  1.
    10030    2    1    2    0    0  0.00000000000E+00  0.00000000000E+00  0.72288566951E+02  0.12030608643E+04  0.12008870914E+04 0.  0.
        3    1    3    3  502    0  0.13560972307E+03 -0.58361141194E+03 -0.31716816387E+01  0.59916804562E+03  0.10100000352E+00 0.  1.
       -3    1    3    3    0  502 -0.13560972307E+03  0.58361141194E+03  0.75460248589E+02  0.60389281868E+03  0.10100000352E+00 0. -1.
</event>
<event>
 5   0  0.2244308E-04  0.1201730E+04  0.7818609E-02  0.9111343E-01
        1   -1    0    0  501    0  0.00000000000E+00  0.00000000000E+00  0.90592213564E+03  0.90592213565E+03  0.50400001928E-02 0. -1.
       -1   -1    0    0    0  501  0.00000000000E+00  0.00000000000E+00 -0.39853206228E+03  0.39853206231E+03  0.50400001928E-02 0.  1.
    10030    2    1    2    0    0  0.00000000000E+00  0.00000000000E+00  0.50739007336E+03  0.13044541980E+04  0.12017304473E+04 0.  0.
        5    1    3    3  502    0 -0.36308586334E+03 -0.46499026733E+03  0.37731415240E+03  0.70031089701E+03  0.46999998093E+01 0. -1.
       -5    1    3    3    0  502  0.36308586334E+03  0.46499026733E+03  0.13007592095E+03  0.60414330095E+03  0.46999998093E+01 0.  1.
</event>
<event>
 5   0  0.3883890E-04  0.1199623E+04  0.7818609E-02  0.9113187E-01
        2   -1    0    0  501    0  0.00000000000E+00  0.00000000000E+00  0.56153833725E+03  0.56153833726E+03  0.25500000920E-02 0. -1.
       -2   -1    0    0    0  501  0.00000000000E+00  0.00000000000E+00 -0.64069328427E+03  0.64069328428E+03  0.25500000920E-02 0.  1.
    10030    2    1    2    0    0  0.00000000000E+00  0.00000000000E+00 -0.79154947018E+02  0.12022316215E+04  0.11996230100E+04 0.  0.
        2    1    3    3  502    0 -0.14832331745E+03  0.42360372781E+03  0.35919974245E+03  0.57486031321E+03  0.25500000920E-02 0. -1.
       -2    1    3    3    0  502  0.14832331745E+03 -0.42360372781E+03 -0.43835468947E+03  0.62737130832E+03  0.25500000920E-02 0.  1.
</event>
<event>
 5   0  0.3993723E-04  0.1198120E+04  0.7818609E-02  0.9114504E-01
       -2   -1    0    0    0  501  0.00000000000E+00  0.00000000000E+00  0.17686552717E+03  0.17686552719E+03  0.25500000920E-02 0.  1.
        2   -1    0    0  501    0  0.00000000000E+00  0.00000000000E+00 -0.20290726146E+04  0.20290726146E+04  0.25500000920E-02 0. -1.
    10030    2    1    2    0    0  0.00000000000E+00  0.00000000000E+00 -0.18522070875E+04  0.22059381418E+04  0.11981201904E+04 0.  0.
        3    1    3    3  502    0  0.35989581333E+03 -0.36135566937E+03 -0.15047397791E+04  0.15888186584E+04  0.10100000352E+00 0. -1.
       -3    1    3    3    0  502 -0.35989581333E+03  0.36135566937E+03 -0.34746730833E+03  0.61711948341E+03  0.10100000352E+00 0.  1.
</event>
<event>
 5   0  0.4024486E-04  0.1206949E+04  0.7818609E-02  0.9106796E-01
        2   -1    0    0  501    0  0.00000000000E+00  0.00000000000E+00  0.17543889912E+04  0.17543889912E+04  0.25500000920E-02 0.  1.
       -2   -1    0    0    0  501  0.00000000000E+00  0.00000000000E+00 -0.20758314479E+03  0.20758314480E+03  0.25500000920E-02 0. -1.
    10030    2    1    2    0    0  0.00000000000E+00  0.00000000000E+00  0.15468058464E+04  0.19619721360E+04  0.12069491853E+04 0.  0.
        1    1    3    3  502    0 -0.24042418307E+03 -0.37585134661E+03  0.14339369910E+04  0.15017467552E+04  0.50400001928E-02 0.  1.
       -1    1    3    3    0  502  0.24042418307E+03  0.37585134661E+03  0.11286885534E+03  0.46022538074E+03  0.50400001928E-02 0. -1.
</event>
<event>
 5   0  0.3883890E-04  0.1199998E+04  0.7818609E-02  0.9112858E-01
        2   -1    0    0  501    0  0.00000000000E+00  0.00000000000E+00  0.29252094937E+03  0.29252094938E+03  0.25500000920E-02 0. -1.
       -2   -1    0    0    0  501  0.00000000000E+00  0.00000000000E+00 -0.12306772827E+04  0.12306772827E+04  0.25500000920E-02 0.  1.
    10030    2    1    2    0    0  0.00000000000E+00  0.00000000000E+00 -0.93815633332E+03  0.15231982321E+04  0.11999981452E+04 0.  0.
        2    1    3    3  502    0  0.31566939811E+03 -0.26293882906E+03  0.85977711926E+02  0.41973344361E+03  0.25500000920E-02 0. -1.
       -2    1    3    3    0  502 -0.31566939811E+03  0.26293882906E+03 -0.10241340452E+04  0.11034647885E+04  0.25500000920E-02 0.  1.
</event>
<event>
 5   0  0.3993723E-04  0.1200184E+04  0.7818609E-02  0.9112696E-01
       -2   -1    0    0    0  501  0.00000000000E+00  0.00000000000E+00  0.32068919712E+03  0.32068919713E+03  0.25500000920E-02 0.  1.
        2   -1    0    0  501    0  0.00000000000E+00  0.00000000000E+00 -0.11229260112E+04  0.11229260112E+04  0.25500000920E-02 0. -1.
    10030    2    1    2    0    0  0.00000000000E+00  0.00000000000E+00 -0.80223681405E+03  0.14436152083E+04  0.12001837209E+04 0.  0.
        3    1    3    3  502    0  0.40598119608E+03  0.24737512488E+03  0.39345254737E+02  0.47703589304E+03  0.10100000352E+00 0.  1.
       -3    1    3    3    0  502 -0.40598119608E+03 -0.24737512488E+03 -0.84158206878E+03  0.96657931525E+03  0.10100000352E+00 0. -1.
</event>
<event>
 5   0  0.2340731E-04  0.1201388E+04  0.7818609E-02  0.9111643E-01
       -1   -1    0    0    0  501  0.00000000000E+00  0.00000000000E+00  0.22616699144E+03  0.22616699150E+03  0.50400001928E-02 0. -1.
        1   -1    0    0  501    0  0.00000000000E+00  0.00000000000E+00 -0.15954274880E+04  0.15954274881E+04  0.50400001928E-02 0.  1.
    10030    2    1    2    0    0  0.00000000000E+00  0.00000000000E+00 -0.13692604966E+04  0.18215944796E+04  0.12013875896E+04 0.  0.
        3    1    3    3  502    0  0.27730888688E+03 -0.18503670835E+03 -0.14422875398E+04  0.14803148853E+04  0.10100000352E+00 0.  1.
       -3    1    3    3    0  502 -0.27730888688E+03  0.18503670835E+03  0.73027043179E+02  0.34127959420E+03  0.10100000352E+00 0. -1.
</event>
<event>
 5   0  0.4122956E-04  0.1194418E+04  0.7818609E-02  0.9117757E-01
       -2   -1    0    0    0  501  0.00000000000E+00  0.00000000000E+00  0.14730512166E+03  0.14730512168E+03  0.25500000920E-02 0. -1.
        2   -1    0    0  501    0  0.00000000000E+00  0.00000000000E+00 -0.24212222155E+04  0.24212222155E+04  0.25500000920E-02 0.  1.
    10030    2    1    2    0    0  0.00000000000E+00  0.00000000000E+00 -0.22739170939E+04  0.25685273372E+04  0.11944177377E+04 0.  0.
        5    1    3    3  502    0  0.50250209868E+03  0.58609566562E+02 -0.45457683654E+03  0.68015118230E+03  0.46999998093E+01 0. -1.
       -5    1    3    3    0  502 -0.50250209868E+03 -0.58609566562E+02 -0.18193402573E+04  0.18883761549E+04  0.46999998093E+01 0.  1.
</event>
<event>
 5   0  0.2244308E-04  0.1200180E+04  0.7818609E-02  0.9112699E-01
       -1   -1    0    0    0  501  0.00000000000E+00  0.00000000000E+00  0.43987558002E+03  0.43987558005E+03  0.50400001928E-02 0.  1.
        1   -1    0    0  501    0  0.00000000000E+00  0.00000000000E+00 -0.81865882885E+03  0.81865882887E+03  0.50400001928E-02 0. -1.
    10030    2    1    2    0    0  0.00000000000E+00  0.00000000000E+00 -0.37878324883E+03  0.12585344089E+04  0.12001800318E+04 0.  0.
        5    1    3    3  502    0  0.11626441849E+03  0.22349699463E+03 -0.76049820811E+03  0.80115412759E+03  0.46999998093E+01 0. -1.
       -5    1    3    3    0  502 -0.11626441849E+03 -0.22349699463E+03  0.38171495927E+03  0.45738028133E+03  0.46999998093E+01 0.  1.
</event>
<event>
 5   0  0.2340731E-04  0.1199326E+04  0.7818609E-02  0.9113447E-01
        1   -1    0    0  501    0  0.00000000000E+00  0.00000000000E+00  0.11911588849E+04  0.11911588849E+04  0.50400001928E-02 0.  1.
       -1   -1    0    0    0  501  0.00000000000E+00  0.00000000000E+00 -0.30188709882E+03  0.30188709886E+03  0.50400001928E-02 0. -1.
    10030    2    1    2    0    0  0.00000000000E+00  0.00000000000E+00  0.88927178606E+03  0.14930459838E+04  0.11993256439E+04 0.  0.
        3    1    3    3  502    0 -0.41061035546E+03 -0.41728246905E+03  0.60632962257E+03  0.84282924984E+03  0.10100000352E+00 0.  1.
       -3    1    3    3    0  502  0.41061035546E+03  0.41728246905E+03  0.28294216349E+03  0.65021673392E+03  0.10100000352E+00 0. -1.
</event>
<event>
 5   0  0.3993723E-04  0.1199078E+04  0.7818609E-02  0.9113664E-01
       -2   -1    0    0    0  501  0.00000000000E+00  0.00000000000E+00  0.46273640604E+03  0.46273640605E+03  0.25500000920E-02 0.  1.
        2   -1    0    0  501    0  0.00000000000E+00  0.00000000000E+00 -0.77678572564E+03  0.77678572565E+03  0.25500000920E-02 0. -1.
    10030    2    1    2    0    0  0.00000000000E+00  0.00000000000E+00 -0.31404931960E+03  0.12395221317E+04  0.11990780374E+04 0.  0.
        3    1    3    3  502    0  0.58193871841E+03  0.14388431443E+03 -0.16692133330E+03  0.62226851892E+03  0.10100000352E+00 0. -1.
       -3    1    3    3    0  502 -0.58193871841E+03 -0.14388431443E+03 -0.14712798630E+03  0.61725361277E+03  0.10100000352E+00 0.  1.
</event>
<event>
 5   0  0.2315038E-04  0.1198263E+04  0.7818609E-02  0.9114378E-01
        1   -1    0    0  501    0  0.00000000000E+00  0.00000000000E+00  0.54305548295E+03  0.54305548297E+03  0.50400001928E-02 0. -1.
       -1   -1    0    0    0  501  0.00000000000E+00  0.00000000000E+00 -0.66099843228E+03  0.66099843230E+03  0.50400001928E-02 0.  1.
    10030    2    1    2    0    0  0.00000000000E+00  0.00000000000E+00 -0.11794294933E+03  0.12040539153E+04  0.11982634483E+04 0.  0.
        1    1    3    3  502    0 -0.19579274953E+03 -0.23312785216E+03  0.45954094944E+03  0.55123613856E+03  0.50400001928E-02 0. -1.
       -1    1    3    3    0  502  0.19579274953E+03  0.23312785216E+03 -0.57748389878E+03  0.65281777671E+03  0.50400001928E-02 0.  1.
</event>
<event>
 5   0  0.2340731E-04  0.1198898E+04  0.7818609E-02  0.9113821E-01
       -1   -1    0    0    0  501  0.00000000000E+00  0.00000000000E+00  0.38241516696E+03  0.38241516700E+03  0.50400001928E-02 0. -1.
        1   -1    0    0  501    0  0.00000000000E+00  0.00000000000E+00 -0.93965764217E+03  0.93965764219E+03  0.50400001928E-02 0.  1.
    10030    2    1    2    0    0  0.00000000000E+00  0.00000000000E+00 -0.55724247521E+03  0.13220728092E+04  0.11988983846E+04 0.  0.
        3    1    3    3  502    0  0.83864075140E+02  0.21183235162E+03 -0.89005353842E+03  0.91874993320E+03  0.10100000352E+00 0.  1.
       -3    1    3    3    0  502 -0.83864075140E+02 -0.21183235162E+03  0.33281106321E+03  0.40332287598E+03  0.10100000352E+00 0. -1.
</event>
<event>
 5   0  0.2204090E-04  0.1199993E+04  0.7818609E-02  0.9112863E-01
        1   -1    0    0  501    0  0.00000000000E+00  0.00000000000E+00  0.10947498651E+04  0.10947498651E+04  0.50400001928E-02 0.  1.
       -1   -1    0    0    0  501  0.00000000000E+00  0.00000000000E+00 -0.32883823027E+03  0.32883823031E+03  0.50400001928E-02 0. -1.
    10030    2    1    2    0    0  0.00000000000E+00  0.00000000000E+00  0.76591163483E+03  0.14235880954E+04  0.11999926804E+04 0.  0.
        2    1    3    3  502    0 -0.36981232352E+03 -0.63583405568E+02 -0.17245931516E+03  0.41297241976E+03  0.25500000920E-02 0. -1.
       -2    1    3    3    0  502  0.36981232352E+03  0.63583405568E+02  0.93837095000E+03  0.10106156757E+04  0.25500000920E-02 0.  1.
</event>
<event>
 5   0  0.2244308E-04  0.1209882E+04  0.7818609E-02  0.9104251E-01
        1   -1    0    0  501    0  0.00000000000E+00  0.00000000000E+00  0.11019235387E+04  0.11019235387E+04  0.50400001928E-02 0.  1.
       -1   -1    0    0    0  501  0.00000000000E+00  0.00000000000E+00 -0.33210412995E+03  0.33210412999E+03  0.50400001928E-02 0. -1.
    10030    2    1    2    0    0  0.00000000000E+00  0.00000000000E+00  0.76981940870E+03  0.14340276687E+04  0.12098815779E+04 0.  0.
        5    1    3    3  502    0  0.51522574595E+03 -0.29877853975E+03  0.25944481562E+03  0.64966136368E+03  0.46999998093E+01 0. -1.
       -5    1    3    3    0  502 -0.51522574595E+03  0.29877853975E+03  0.51037459308E+03  0.78436630497E+03  0.46999998093E+01 0.  1.
</event>
<event>
 5   0  0.3832662E-04  0.1203481E+04  0.7818609E-02  0.9109815E-01
        2   -1    0    0  501    0  0.00000000000E+00  0.00000000000E+00  0.11036156236E+04  0.11036156236E+04  0.25500000920E-02 0.  1.
       -2   -1    0    0    0  501  0.00000000000E+00  0.00000000000E+00 -0.32809591677E+03  0.32809591678E+03  0.25500000920E-02 0. -1.
    10030    2    1    2    0    0  0.00000000000E+00  0.00000000000E+00  0.77551970683E+03  0.14317115404E+04  0.12034812500E+04 0.  0.
        4    1    3    3  502    0 -0.25412482722E+03  0.74816069441E+02 -0.25499169951E+03  0.36769450877E+03  0.12699999809E+01 0. -1.
       -4    1    3    3    0  502  0.25412482722E+03 -0.74816069441E+02  0.10305114063E+04  0.10640170316E+04  0.12699999809E+01 0.  1.
</event>
<event>
 5   0  0.4024486E-04  0.1217281E+04  0.7818609E-02  0.9097864E-01
        2   -1    0    0  501    0  0.00000000000E+00  0.00000000000E+00  0.10363924700E+04  0.10363924700E+04  0.25500000920E-02 0. -1.
       -2   -1    0    0    0  501  0.00000000000E+00  0.00000000000E+00 -0.35743530147E+03  0.35743530148E+03  0.25500000920E-02 0.  1.
    10030    2    1    2    0    0  0.00000000000E+00  0.00000000000E+00  0.67895716854E+03  0.13938277715E+04  0.12172809946E+04 0.  0.
        1    1    3    3  502    0  0.27072384687E+03 -0.14039761892E+03 -0.26364053129E+03  0.40312432626E+03  0.50400001928E-02 0.  1.
       -1    1    3    3    0  502 -0.27072384687E+03  0.14039761892E+03  0.94259769982E+03  0.99070344523E+03  0.50400001928E-02 0. -1.
</event>
<event>
 5   0  0.2304842E-04  0.1200439E+04  0.7818609E-02  0.9112473E-01
       -1   -1    0    0    0  501  0.00000000000E+00  0.00000000000E+00  0.42274155953E+03  0.42274155956E+03  0.50400001928E-02 0.  1.
        1   -1    0    0  501    0  0.00000000000E+00  0.00000000000E+00 -0.85220694473E+03  0.85220694474E+03  0.50400001928E-02 0. -1.
    10030    2    1    2    0    0  0.00000000000E+00  0.00000000000E+00 -0.42946538520E+03  0.12749485043E+04  0.12004387413E+04 0.  0.
        4    1    3    3  502    0  0.18004959379E+03  0.10224009183E+03 -0.81307512052E+03  0.83902542102E+03  0.12699999809E+01 0. -1.
       -4    1    3    3    0  502 -0.18004959379E+03 -0.10224009183E+03  0.38360973532E+03  0.43592308328E+03  0.12699999809E+01 0.  1.
</event>
<event>
 5   0  0.3883890E-04  0.1200829E+04  0.7818609E-02  0.9112131E-01
       -2   -1    0    0    0  501  0.00000000000E+00  0.00000000000E+00  0.18023983986E+03  0.18023983988E+03  0.25500000920E-02 0. -1.
        2   -1    0    0  501    0  0.00000000000E+00  0.00000000000E+00 -0.20000983664E+04  0.20000983664E+04  0.25500000920E-02 0.  1.
    10030    2    1    2    0    0  0.00000000000E+00  0.00000000000E+00 -0.18198585266E+04  0.21803382063E+04  0.12008287293E+04 0.  0.
        2    1    3    3  502    0  0.18724791032E+03  0.50744441341E+03 -0.43667761889E+03  0.69516110037E+03  0.25500000920E-02 0. -1.
       -2    1    3    3    0  502 -0.18724791032E+03 -0.50744441341E+03 -0.13831809077E+04  0.14851771059E+04  0.25500000920E-02 0.  1.
</event>
<event>
 5   0  0.2244308E-04  0.1186106E+04  0.7818609E-02  0.9125106E-01
        1   -1    0    0  501    0  0.00000000000E+00  0.00000000000E+00  0.58562984258E+03  0.58562984260E+03  0.50400001928E-02 0.  1.
       -1   -1    0    0    0  501  0.00000000000E+00  0.00000000000E+00 -0.60057007926E+03  0.60057007928E+03  0.50400001928E-02 0. -1.
    10030    2    1    2    0    0  0.00000000000E+00  0.00000000000E+00 -0.14940236682E+02  0.11861999219E+04  0.11861058317E+04 0.  0.
        5    1    3    3  502    0  0.66372321498E+02  0.22295409124E+03 -0.55301853287E+03  0.59997116560E+03  0.46999998093E+01 0. -1.
       -5    1    3    3    0  502 -0.66372321498E+02 -0.22295409124E+03  0.53807829618E+03  0.58622875628E+03  0.46999998093E+01 0.  1.
</event>
<event>
 5   0  0.3883890E-04  0.1198860E+04  0.7818609E-02  0.9113855E-01
        2   -1    0    0  501    0  0.00000000000E+00  0.00000000000E+00  0.77303562388E+03  0.77303562388E+03  0.25500000920E-02 0.  1.
       -2   -1    0    0    0  501  0.00000000000E+00  0.00000000000E+00 -0.46481228961E+03  0.46481228962E+03  0.25500000920E-02 0. -1.
    10030    2    1    2    0    0  0.00000000000E+00  0.00000000000E+00  0.30822333427E+03  0.12378479135E+04  0.11988602225E+04 0.  0.
        2    1    3    3  502    0 -0.27552465692E+03  0.40618890671E+03  0.50941459441E+03  0.70739415711E+03  0.25500000920E-02 0.  1.
       -2    1    3    3    0  502  0.27552465692E+03 -0.40618890671E+03 -0.20119126014E+03  0.53045375639E+03  0.25500000920E-02 0. -1.
</event>
<event>
 5   0  0.2204090E-04  0.1201449E+04  0.7818609E-02  0.9111589E-01
        1   -1    0    0  501    0  0.00000000000E+00  0.00000000000E+00  0.15148650919E+04  0.15148650919E+04  0.50400001928E-02 0.  1.
       -1   -1    0    0    0  501  0.00000000000E+00  0.00000000000E+00 -0.23821905271E+03  0.23821905277E+03  0.50400001928E-02 0. -1.
    10030    2    1    2    0    0  0.00000000000E+00  0.00000000000E+00  0.12766460392E+04  0.17530841447E+04  0.12014486710E+04 0.  0.
        2    1    3    3  502    0 -0.59668860341E+03 -0.32312816421E+02  0.54851381481E+03  0.81114043950E+03  0.25500000920E-02 0. -1.
       -2    1    3    3    0  502  0.59668860341E+03  0.32312816421E+02  0.72813222440E+03  0.94194370520E+03  0.25500000920E-02 0.  1.
</event>
<event>
 5   0  0.2204090E-04  0.1200079E+04  0.7818609E-02  0.9112787E-01
        1   -1    0    0  501    0  0.00000000000E+00  0.00000000000E+00  0.10669033531E+04  0.10669033531E+04  0.50400001928E-02 0.  1.
       -1   -1    0    0    0  501  0.00000000000E+00  0.00000000000E+00 -0.33746969278E+03  0.33746969281E+03  0.50400001928E-02 0. -1.
    10030    2    1    2    0    0  0.00000000000E+00  0.00000000000E+00  0.72943366035E+03  0.14043730460E+04  0.12000792421E+04 0.  0.
        2    1    3    3  502    0 -0.15858988350E+01 -0.24068165717E+03  0.10079381200E+04  0.10362767145E+04  0.25500000920E-02 0.  1.
       -2    1    3    3    0  502  0.15858988350E+01  0.24068165717E+03 -0.27850445967E+03  0.36809633147E+03  0.25500000920E-02 0. -1.
</event>
<event>
 5   0  0.2204090E-04  0.1200377E+04  0.7818609E-02  0.9112527E-01
       -1   -1    0    0    0  501  0.00000000000E+00  0.00000000000E+00  0.20263208707E+03  0.20263208713E+03  0.50400001928E-02 0. -1.
        1   -1    0    0  501    0  0.00000000000E+00  0.00000000000E+00 -0.17777352516E+04  0.17777352516E+04  0.50400001928E-02 0.  1.
    10030    2    1    2    0    0  0.00000000000E+00  0.00000000000E+00 -0.15751031645E+04  0.19803673387E+04  0.12003769481E+04 0.  0.
        2    1    3    3  502    0  0.46791021406E+02 -0.49530010700E+03 -0.23366835729E+03  0.54964761155E+03  0.25500000920E-02 0. -1.
       -2    1    3    3    0  502 -0.46791021406E+02  0.49530010700E+03 -0.13414348072E+04  0.14307197272E+04  0.25500000920E-02 0.  1.
</event>
<event>
 5   0  0.3883890E-04  0.1212526E+04  0.7818609E-02  0.9101962E-01
       -2   -1    0    0    0  501  0.00000000000E+00  0.00000000000E+00  0.17359671602E+03  0.17359671604E+03  0.25500000920E-02 0.  1.
        2   -1    0    0  501    0  0.00000000000E+00  0.00000000000E+00 -0.21172925240E+04  0.21172925240E+04  0.25500000920E-02 0. -1.
    10030    2    1    2    0    0  0.00000000000E+00  0.00000000000E+00 -0.19436958080E+04  0.22908892401E+04  0.12125263363E+04 0.  0.
        2    1    3    3  502    0 -0.23600177982E+03  0.51789730085E+03 -0.13665397396E+04  0.14803193285E+04  0.25500000920E-02 0. -1.
       -2    1    3    3    0  502  0.23600177982E+03 -0.51789730085E+03 -0.57715606838E+03  0.81056991159E+03  0.25500000920E-02 0.  1.
</event>
<event>
 5   0  0.2244308E-04  0.1194647E+04  0.7818609E-02  0.9117555E-01
        1   -1    0    0  501    0  0.00000000000E+00  0.00000000000E+00  0.20931267715E+04  0.20931267715E+04  0.50400001928E-02 0.  1.
       -1   -1    0    0    0  501  0.00000000000E+00  0.00000000000E+00 -0.17046058649E+03  0.17046058657E+03  0.50400001928E-02 0. -1.
    10030    2    1    2    0    0  0.00000000000E+00  0.00000000000E+00  0.19226661850E+04  0.22635873581E+04  0.11946474244E+04 0.  0.
        5    1    3    3  502    0 -0.17755012870E+03  0.46588535942E+03  0.15845966911E+04  0.16611869190E+04  0.46999998093E+01 0.  1.
       -5    1    3    3    0  502  0.17755012870E+03 -0.46588535942E+03  0.33806949392E+03  0.60240043911E+03  0.46999998093E+01 0. -1.
</event>
<event>
 5   0  0.4122956E-04  0.1200929E+04  0.7818609E-02  0.9112044E-01
        2   -1    0    0  501    0  0.00000000000E+00  0.00000000000E+00  0.16463154051E+04  0.16463154051E+04  0.25500000920E-02 0. -1.
       -2   -1    0    0    0  501  0.00000000000E+00  0.00000000000E+00 -0.21900868840E+03  0.21900868841E+03  0.25500000920E-02 0.  1.
    10030    2    1    2    0    0  0.00000000000E+00  0.00000000000E+00  0.14273067167E+04  0.18653240935E+04  0.12009286033E+04 0.  0.
        5    1    3    3  502    0 -0.33805382800E+03  0.33494150542E+03  0.14492951838E+03  0.49748654050E+03  0.46999998093E+01 0.  1.
       -5    1    3    3    0  502  0.33805382800E+03 -0.33494150542E+03  0.12823771983E+04  0.13678375530E+04  0.46999998093E+01 0. -1.
</event>
<event>
 5   0  0.4122956E-04  0.1169410E+04  0.7818609E-02  0.9140061E-01
        2   -1    0    0  501    0  0.00000000000E+00  0.00000000000E+00  0.10181383678E+04  0.10181383679E+04  0.25500000920E-02 0. -1.
       -2   -1    0    0    0  501  0.00000000000E+00  0.00000000000E+00 -0.33578945997E+03  0.33578945997E+03  0.25500000920E-02 0.  1.
    10030    2    1    2    0    0  0.00000000000E+00  0.00000000000E+00  0.68234890788E+03  0.13539278278E+04  0.11694103347E+04 0.  0.
        5    1    3    3  502    0  0.18606303713E+03 -0.45101276017E+03  0.71423714077E+03  0.86497904419E+03  0.46999998093E+01 0. -1.
       -5    1    3    3    0  502 -0.18606303713E+03  0.45101276017E+03 -0.31888232890E+02  0.48894878364E+03  0.46999998093E+01 0.  1.
</event>
<event>
 5   0  0.3832662E-04  0.1200198E+04  0.7818609E-02  0.9112683E-01
        2   -1    0    0  501    0  0.00000000000E+00  0.00000000000E+00  0.76917134015E+03  0.76917134016E+03  0.25500000920E-02 0. -1.
       -2   -1    0    0    0  501  0.00000000000E+00  0.00000000000E+00 -0.46819056020E+03  0.46819056021E+03  0.25500000920E-02 0.  1.
    10030    2    1    2    0    0  0.00000000000E+00  0.00000000000E+00  0.30098077995E+03  0.12373619004E+04  0.12001979181E+04 0.  0.
        4    1    3    3  502    0  0.54128566202E+03 -0.67799641586E+02 -0.10731306848E+03  0.55597182202E+03  0.12699999809E+01 0.  1.
       -4    1    3    3    0  502 -0.54128566202E+03  0.67799641586E+02  0.40829384843E+03  0.68139007835E+03  0.12699999809E+01 0. -1.
</event>
<event>
 5   0  0.2304842E-04  0.1199400E+04  0.7818609E-02  0.9113382E-01
        1   -1    0    0  501    0  0.00000000000E+00  0.00000000000E+00  0.71036475760E+03  0.71036475762E+03  0.50400001928E-02 0. -1.
       -1   -1    0    0    0  501  0.00000000000E+00  0.00000000000E+00 -0.50627493359E+03  0.50627493362E+03  0.50400001928E-02 0.  1.
    10030    2    1    2    0    0  0.00000000000E+00  0.00000000000E+00  0.20408982401E+03  0.12166396912E+04  0.11993996340E+04 0.  0.
        4    1    3    3  502    0 -0.22491067914E+02 -0.40038456597E+03  0.55435173281E+03  0.68419376304E+03  0.12699999809E+01 0. -1.
       -4    1    3    3    0  502  0.22491067914E+02  0.40038456597E+03 -0.35026190880E+03  0.53244592821E+03  0.12699999809E+01 0.  1.
</event>
<event>
 5   0  0.2204090E-04  0.1205988E+04  0.7818609E-02  0.9107631E-01
       -1   -1    0    0    0  501  0.00000000000E+00  0.00000000000E+00  0.37927209561E+03  0.37927209564E+03  0.50400001928E-02 0.  1.
        1   -1    0    0  501    0  0.00000000000E+00  0.00000000000E+00 -0.95868327828E+03  0.95868327829E+03  0.50400001928E-02 0. -1.
    10030    2    1    2    0    0  0.00000000000E+00  0.00000000000E+00 -0.57941118267E+03  0.13379553739E+04  0.12059880862E+04 0.  0.
        2    1    3    3  502    0  0.16062401960E+03  0.29958059981E+03  0.26284370700E+03  0.42969224541E+03  0.25500000920E-02 0.  1.
       -2    1    3    3    0  502 -0.16062401960E+03 -0.29958059981E+03 -0.84225488967E+03  0.90826312852E+03  0.25500000920E-02 0. -1.
</event>
<event>
 5   0  0.1541375E-04  0.1218736E+04  0.7818609E-02  0.9096613E-01
        3   -1    0    0  501    0  0.00000000000E+00  0.00000000000E+00  0.71445729820E+03  0.71445730534E+03  0.10100000352E+00 0. -1.
       -3   -1    0    0    0  501  0.00000000000E+00  0.00000000000E+00 -0.51973600293E+03  0.51973601274E+03  0.10100000352E+00 0.  1.
    10030    2    1    2    0    0  0.00000000000E+00  0.00000000000E+00  0.19472129527E+03  0.12341933181E+04  0.12187357234E+04 0.  0.
        3    1    3    3  502    0 -0.11355861671E+03 -0.59719479277E+03  0.14022958741E+03  0.62386018252E+03  0.10100000352E+00 0.  1.
       -3    1    3    3    0  502  0.11355861671E+03  0.59719479277E+03  0.54491707864E+02  0.61033313557E+03  0.10100000352E+00 0. -1.
</event>
<event>
 5   0  0.3883890E-04  0.1202464E+04  0.7818609E-02  0.9110703E-01
        2   -1    0    0  501    0  0.00000000000E+00  0.00000000000E+00  0.35287247716E+03  0.35287247717E+03  0.25500000920E-02 0. -1.
       -2   -1    0    0    0  501  0.00000000000E+00  0.00000000000E+00 -0.10243922587E+04  0.10243922587E+04  0.25500000920E-02 0.  1.
    10030    2    1    2    0    0  0.00000000000E+00  0.00000000000E+00 -0.67151978155E+03  0.13772647359E+04  0.12024638605E+04 0.  0.
        2    1    3    3  502    0  0.58273704176E+03 -0.13568914253E+03 -0.26813625161E+03  0.65566077561E+03  0.25500000920E-02 0. -1.
       -2    1    3    3    0  502 -0.58273704176E+03  0.13568914253E+03 -0.40338352993E+03  0.72160396027E+03  0.25500000920E-02 0.  1.
</event>
<event>
 5   0  0.2204090E-04  0.1199822E+04  0.7818609E-02  0.9113012E-01
       -1   -1    0    0    0  501  0.00000000000E+00  0.00000000000E+00  0.48616347808E+03  0.48616347810E+03  0.50400001928E-02 0. -1.
        1   -1    0    0  501    0  0.00000000000E+00  0.00000000000E+00 -0.74027196318E+03  0.74027196319E+03  0.50400001928E-02 0.  1.
    10030    2    1    2    0    0  0.00000000000E+00  0.00000000000E+00 -0.25410848510E+03  0.12264354413E+04  0.11998219741E+04 0.  0.
        2    1    3    3  502    0 -0.17607146676E+03  0.56863009783E+03 -0.50890818391E+02  0.59743721425E+03  0.25500000920E-02 0. -1.
       -2    1    3    3    0  502  0.17607146676E+03 -0.56863009783E+03 -0.20321766671E+03  0.62899822705E+03  0.25500000920E-02 0.  1.
</event>
<event>
 5   0  0.3993723E-04  0.1200643E+04  0.7818609E-02  0.9112294E-01
        2   -1    0    0  501    0  0.00000000000E+00  0.00000000000E+00  0.72820603429E+03  0.72820603429E+03  0.25500000920E-02 0.  1.
       -2   -1    0    0    0  501  0.00000000000E+00  0.00000000000E+00 -0.49489568495E+03  0.49489568496E+03  0.25500000920E-02 0. -1.
    10030    2    1    2    0    0  0.00000000000E+00  0.00000000000E+00  0.23331034934E+03  0.12231017192E+04  0.12006432012E+04 0.  0.
        3    1    3    3  502    0 -0.53202672962E+03 -0.70466377028E+02 -0.15738995221E+03  0.55927592347E+03  0.10100000352E+00 0. -1.
       -3    1    3    3    0  502  0.53202672962E+03  0.70466377028E+02  0.39070030154E+03  0.66382579578E+03  0.10100000352E+00 0.  1.
</event>
<event>
 5   0  0.4122956E-04  0.1200154E+04  0.7818609E-02  0.9112722E-01
       -2   -1    0    0    0  501  0.00000000000E+00  0.00000000000E+00  0.58455642851E+03  0.58455642852E+03  0.25500000920E-02 0.  1.
        2   -1    0    0  501    0  0.00000000000E+00  0.00000000000E+00 -0.61600941053E+03  0.61600941053E+03  0.25500000920E-02 0. -1.
    10030    2    1    2    0    0  0.00000000000E+00  0.00000000000E+00 -0.31452982017E+02  0.12005658391E+04  0.12001537584E+04 0.  0.
        5    1    3    3  502    0  0.19876836227E+03 -0.41449544596E+03  0.37009342012E+03  0.59017503012E+03  0.46999998093E+01 0.  1.
       -5    1    3    3    0  502 -0.19876836227E+03  0.41449544596E+03 -0.40154640214E+03  0.61039080893E+03  0.46999998093E+01 0. -1.
</event>
<event>
 5   0  0.2244308E-04  0.1201148E+04  0.7818609E-02  0.9111852E-01
       -1   -1    0    0    0  501  0.00000000000E+00  0.00000000000E+00  0.18429491203E+03  0.18429491210E+03  0.50400001928E-02 0.  1.
        1   -1    0    0  501    0  0.00000000000E+00  0.00000000000E+00 -0.19571313251E+04  0.19571313251E+04  0.50400001928E-02 0. -1.
    10030    2    1    2    0    0  0.00000000000E+00  0.00000000000E+00 -0.17728364131E+04  0.21414262372E+04  0.12011483597E+04 0.  0.
        5    1    3    3  502    0 -0.59174623811E+03  0.89787006705E+02 -0.79831862696E+03  0.99777754888E+03  0.46999998093E+01 0.  1.
       -5    1    3    3    0  502  0.59174623811E+03 -0.89787006705E+02 -0.97451778615E+03  0.11436486884E+04  0.46999998093E+01 0. -1.
</event>
<event>
 5   0  0.2340731E-04  0.1199273E+04  0.7818609E-02  0.9113493E-01
        1   -1    0    0  501    0  0.00000000000E+00  0.00000000000E+00  0.11368864401E+04  0.11368864401E+04  0.50400001928E-02 0. -1.
       -1   -1    0    0    0  501  0.00000000000E+00  0.00000000000E+00 -0.31627059394E+03  0.31627059398E+03  0.50400001928E-02 0.  1.
    10030    2    1    2    0    0  0.00000000000E+00  0.00000000000E+00  0.82061584620E+03  0.14531570341E+04  0.11992726958E+04 0.  0.
        3    1    3    3  502    0  0.72440510339E+02  0.58896572663E+03  0.51479179254E+03  0.78558185732E+03  0.10100000352E+00 0.  1.
       -3    1    3    3    0  502 -0.72440510339E+02 -0.58896572663E+03  0.30582405366E+03  0.66757517680E+03  0.10100000352E+00 0. -1.
</event>
<event>
 5   0  0.3993723E-04  0.1201021E+04  0.7818609E-02  0.9111963E-01
       -2   -1    0    0    0  501  0.00000000000E+00  0.00000000000E+00  0.27283000470E+03  0.27283000472E+03  0.25500000920E-02 0. -1.
        2   -1    0    0  501    0  0.00000000000E+00  0.00000000000E+00 -0.13217495338E+04  0.13217495338E+04  0.25500000920E-02 0.  1.
    10030    2    1    2    0    0  0.00000000000E+00  0.00000000000E+00 -0.10489195291E+04  0.15945795385E+04  0.12010211181E+04 0.  0.
        3    1    3    3  502    0 -0.52654608666E+02  0.19992560637E+03  0.22408956734E+03  0.30489162056E+03  0.10100000352E+00 0. -1.
       -3    1    3    3    0  502  0.52654608666E+02 -0.19992560637E+03 -0.12730090964E+04  0.12896879179E+04  0.10100000352E+00 0.  1.
</event>
<event>
 5   0  0.3832662E-04  0.1199069E+04  0.7818609E-02  0.9113672E-01
        2   -1    0    0  501    0  0.00000000000E+00  0.00000000000E+00  0.11362353938E+04  0.11362353938E+04  0.25500000920E-02 0. -1.
       -2   -1    0    0    0  501  0.00000000000E+00  0.00000000000E+00 -0.31634430510E+03  0.31634430512E+03  0.25500000920E-02 0.  1.
    10030    2    1    2    0    0  0.00000000000E+00  0.00000000000E+00  0.81989108865E+03  0.14525796989E+04  0.11990689656E+04 0.  0.
        4    1    3    3  502    0  0.34266417250E+03  0.47080757539E+03  0.58280789935E+03  0.82385992050E+03  0.12699999809E+01 0.  1.
       -4    1    3    3    0  502 -0.34266417250E+03 -0.47080757539E+03  0.23708318929E+03  0.62871977837E+03  0.12699999809E+01 0. -1.
</event>
<event>
 5   0  0.4024486E-04  0.1197951E+04  0.7818609E-02  0.9114652E-01
        2   -1    0    0  501    0  0.00000000000E+00  0.00000000000E+00  0.89323962247E+03  0.89323962248E+03  0.25500000920E-02 0.  1.
       -2   -1    0    0    0  501  0.00000000000E+00  0.00000000000E+00 -0.40165213879E+03  0.40165213880E+03  0.25500000920E-02 0. -1.
    10030    2    1    2    0    0  0.00000000000E+00  0.00000000000E+00  0.49158748368E+03  0.12948917613E+04  0.11979509253E+04 0.  0.
        1    1    3    3  502    0 -0.41754788692E+00  0.50195151721E+03 -0.10748117988E+03  0.51333001474E+03  0.50400001928E-02 0. -1.
       -1    1    3    3    0  502  0.41754788692E+00 -0.50195151721E+03  0.59906866356E+03  0.78156174654E+03  0.50400001928E-02 0.  1.
</event>
<event>
 5   0  0.3883890E-04  0.1196714E+04  0.7818609E-02  0.9115738E-01
       -2   -1    0    0    0  501  0.00000000000E+00  0.00000000000E+00  0.42761376108E+03  0.42761376109E+03  0.25500000920E-02 0.  1.
        2   -1    0    0  501    0  0.00000000000E+00  0.00000000000E+00 -0.83727692997E+03  0.83727692998E+03  0.25500000920E-02 0. -1.
    10030    2    1    2    0    0  0.00000000000E+00  0.00000000000E+00 -0.40966316890E+03  0.12648906911E+04  0.11967140629E+04 0.  0.
        2    1    3    3  502    0  0.22310825870E+03  0.20787802865E+03  0.33931859656E+03  0.45621012688E+03  0.25500000920E-02 0.  1.
       -2    1    3    3    0  502 -0.22310825870E+03 -0.20787802865E+03 -0.74898176545E+03  0.80868056418E+03  0.25500000920E-02 0. -1.
</event>
<event>
 5   0  0.2315038E-04  0.1201191E+04  0.7818609E-02  0.9111815E-01
        1   -1    0    0  501    0  0.00000000000E+00  0.00000000000E+00  0.46449923361E+03  0.46449923364E+03  0.50400001928E-02 0. -1.
       -1   -1    0    0    0  501  0.00000000000E+00  0.00000000000E+00 -0.77656677956E+03  0.77656677958E+03  0.50400001928E-02 0.  1.
    10030    2    1    2    0    0  0.00000000000E+00  0.00000000000E+00 -0.31206754595E+03  0.12410660132E+04  0.12011905327E+04 0.  0.
        1    1    3    3  502    0 -0.10862942880E+02 -0.59693214641E+03 -0.88529706679E+02  0.60355902772E+03  0.50400001928E-02 0.  1.
       -1    1    3    3    0  502  0.10862942880E+02  0.59693214641E+03 -0.22353783927E+03  0.63750698550E+03  0.50400001928E-02 0. -1.
</event>
<event>
 5   0  0.3832662E-04  0.1200140E+04  0.7818609E-02  0.9112734E-01
       -2   -1    0    0    0  501  0.00000000000E+00  0.00000000000E+00  0.23308407543E+03  0.23308407545E+03  0.25500000920E-02 0.  1.
        2   -1    0    0  501    0  0.00000000000E+00  0.00000000000E+00 -0.15448673341E+04  0.15448673341E+04  0.25500000920E-02 0. -1.
    10030    2    1    2    0    0  0.00000000000E+00  0.00000000000E+00 -0.13117832586E+04  0.17779514095E+04  0.12001399489E+04 0.  0.
        4    1    3    3  502    0 -0.37500888931E+03 -0.24834693717E+03 -0.67445931259E+02  0.45481692449E+03  0.12699999809E+01 0.  1.
       -4    1    3    3    0  502  0.37500888931E+03  0.24834693717E+03 -0.12443373274E+04  0.13231344850E+04  0.12699999809E+01 0. -1.
</event>
<event>
 5   0  0.3832662E-04  0.1196604E+04  0.7818609E-02  0.9115834E-01
       -2   -1    0    0    0  501  0.00000000000E+00  0.00000000000E+00  0.32665067784E+03  0.32665067785E+03  0.25500000920E-02 0.  1.
        2   -1    0    0  501    0  0.00000000000E+00  0.00000000000E+00 -0.10958652218E+04  0.10958652218E+04  0.25500000920E-02 0. -1.
    10030    2    1    2    0    0  0.00000000000E+00  0.00000000000E+00 -0.76921454392E+03  0.14225158996E+04  0.11966037231E+04 0.  0.
        4    1    3    3  502    0  0.38482698489E+03  0.36501695012E+03 -0.71370011720E+03  0.88921237754E+03  0.12699999809E+01 0. -1.
       -4    1    3    3    0  502 -0.38482698489E+03 -0.36501695012E+03 -0.55514426724E+02  0.53330352207E+03  0.12699999809E+01 0.  1.
</event>
<event>
 5   0  0.3993723E-04  0.1181501E+04  0.7818609E-02  0.9129204E-01
       -2   -1    0    0    0  501  0.00000000000E+00  0.00000000000E+00  0.48217810083E+03  0.48217810084E+03  0.25500000920E-02 0.  1.
        2   -1    0    0  501    0  0.00000000000E+00  0.00000000000E+00 -0.72377034399E+03  0.72377034399E+03  0.25500000920E-02 0. -1.
    10030    2    1    2    0    0  0.00000000000E+00  0.00000000000E+00 -0.24159224315E+03  0.12059484448E+04  0.11815010959E+04 0.  0.
        3    1    3    3  502    0  0.50598570339E+03 -0.70113358519E+02  0.18207390510E+03  0.54229911691E+03  0.10100000352E+00 0.  1.
       -3    1    3    3    0  502 -0.50598570339E+03  0.70113358519E+02 -0.42366614825E+03  0.66364932792E+03  0.10100000352E+00 0. -1.
</event>
<event>
 5   0  0.2340731E-04  0.1196707E+04  0.7818609E-02  0.9115744E-01
       -1   -1    0    0    0  501  0.00000000000E+00  0.00000000000E+00  0.36612471022E+03  0.36612471025E+03  0.50400001928E-02 0. -1.
        1   -1    0    0  501    0  0.00000000000E+00  0.00000000000E+00 -0.97788250290E+03  0.97788250291E+03  0.50400001928E-02 0.  1.
    10030    2    1    2    0    0  0.00000000000E+00  0.00000000000E+00 -0.61175779268E+03  0.13440072132E+04  0.11967070620E+04 0.  0.
        3    1    3    3  502    0 -0.44148351578E+03 -0.40375065711E+03 -0.31736792728E+03  0.67723312034E+03  0.10100000352E+00 0.  1.
       -3    1    3    3    0  502  0.44148351578E+03  0.40375065711E+03 -0.29438986540E+03  0.66677409283E+03  0.10100000352E+00 0. -1.
</event>
<event>
 5   0  0.1541375E-04  0.1199609E+04  0.7818609E-02  0.9113199E-01
        4   -1    0    0  501    0  0.00000000000E+00  0.00000000000E+00  0.80384081203E+03  0.80384181527E+03  0.12699999809E+01 0. -1.
       -4   -1    0    0    0  501  0.00000000000E+00  0.00000000000E+00 -0.44755597800E+03  0.44755777990E+03  0.12699999809E+01 0.  1.
    10030    2    1    2    0    0  0.00000000000E+00  0.00000000000E+00  0.35628483402E+03  0.12513995952E+04  0.11996091296E+04 0.  0.
        4    1    3    3  502    0  0.27205599399E+02  0.59576200802E+03  0.24486787954E+03  0.64469714298E+03  0.12699999809E+01 0.  1.
       -4    1    3    3    0  502 -0.27205599399E+02 -0.59576200802E+03  0.11141695448E+03  0.60670245218E+03  0.12699999809E+01 0. -1.
</event>
<event>
 5   0  0.4024486E-04  0.1212068E+04  0.7818609E-02  0.9102358E-01
        2   -1    0    0  501    0  0.00000000000E+00  0.00000000000E+00  0.18190340833E+04  0.18190340833E+04  0.25500000920E-02 0. -1.
       -2   -1    0    0    0  501  0.00000000000E+00  0.00000000000E+00 -0.20190796523E+03  0.20190796524E+03  0.25500000920E-02 0.  1.
    10030    2    1    2    0    0  0.00000000000E+00  0.00000000000E+00  0.16171261181E+04  0.20209420485E+04  0.12120684312E+04 0.  0.
        1    1    3    3  502    0 -0.43868483514E+03  0.35782244040E+03  0.11692512752E+04  0.12990880755E+04  0.50400001928E-02 0. -1.
       -1    1    3    3    0  502  0.43868483514E+03 -0.35782244040E+03  0.44787484288E+03  0.72185397301E+03  0.50400001928E-02 0.  1.
</event>
<event>
 5   0  0.3832662E-04  0.1200246E+04  0.7818609E-02  0.9112641E-01
        2   -1    0    0  501    0  0.00000000000E+00  0.00000000000E+00  0.16524933275E+04  0.16524933275E+04  0.25500000920E-02 0. -1.
       -2   -1    0    0    0  501  0.00000000000E+00  0.00000000000E+00 -0.21794200533E+03  0.21794200534E+03  0.25500000920E-02 0.  1.
    10030    2    1    2    0    0  0.00000000000E+00  0.00000000000E+00  0.14345513222E+04  0.18704353328E+04  0.12002461574E+04 0.  0.
        4    1    3    3  502    0  0.24661404460E+03 -0.24386431960E+03  0.14804948827E+04  0.15205771944E+04  0.12699999809E+01 0. -1.
       -4    1    3    3    0  502 -0.24661404460E+03  0.24386431960E+03 -0.45943560588E+02  0.34985813843E+03  0.12699999809E+01 0.  1.
</event>
<event>
 5   0  0.3993723E-04  0.1195727E+04  0.7818609E-02  0.9116605E-01
        2   -1    0    0  501    0  0.00000000000E+00  0.00000000000E+00  0.46386546246E+03  0.46386546247E+03  0.25500000920E-02 0.  1.
       -2   -1    0    0    0  501  0.00000000000E+00  0.00000000000E+00 -0.77057005501E+03  0.77057005502E+03  0.25500000920E-02 0. -1.
    10030    2    1    2    0    0  0.00000000000E+00  0.00000000000E+00 -0.30670459255E+03  0.12344355175E+04  0.11957271176E+04 0.  0.
        3    1    3    3  502    0 -0.15771879078E+03  0.48514282192E+03 -0.47521751057E+03  0.69718754089E+03  0.10100000352E+00 0. -1.
       -3    1    3    3    0  502  0.15771879078E+03 -0.48514282192E+03  0.16851291801E+03  0.53724797660E+03  0.10100000352E+00 0.  1.
</event>
<event>
 5   0  0.2315038E-04  0.1199795E+04  0.7818609E-02  0.9113036E-01
        1   -1    0    0  501    0  0.00000000000E+00  0.00000000000E+00  0.19003568773E+04  0.19003568774E+04  0.50400001928E-02 0.  1.
       -1   -1    0    0    0  501  0.00000000000E+00  0.00000000000E+00 -0.18937344541E+03  0.18937344547E+03  0.50400001928E-02 0. -1.
    10030    2    1    2    0    0  0.00000000000E+00  0.00000000000E+00  0.17109834319E+04  0.20897303228E+04  0.11997951983E+04 0.  0.
        1    1    3    3  502    0 -0.13297686048E+01 -0.12954653625E+03 -0.16471714027E+03  0.20956099270E+03  0.50400001928E-02 0. -1.
       -1    1    3    3    0  502  0.13297686048E+01  0.12954653625E+03  0.18757005722E+04  0.18801693301E+04  0.50400001928E-02 0.  1.
</event>
<event>
 5   0  0.3883890E-04  0.1200228E+04  0.7818609E-02  0.9112657E-01
        2   -1    0    0  501    0  0.00000000000E+00  0.00000000000E+00  0.30678524924E+03  0.30678524925E+03  0.25500000920E-02 0. -1.
       -2   -1    0    0    0  501  0.00000000000E+00  0.00000000000E+00 -0.11739052940E+04  0.11739052940E+04  0.25500000920E-02 0.  1.
    10030    2    1    2    0    0  0.00000000000E+00  0.00000000000E+00 -0.86712004474E+03  0.14806905432E+04  0.12002280253E+04 0.  0.
        2    1    3    3  502    0  0.50218562844E+03  0.71452686044E+02 -0.37935183361E+02  0.50865997473E+03  0.25500000920E-02 0. -1.
       -2    1    3    3    0  502 -0.50218562844E+03 -0.71452686044E+02 -0.82918486138E+03  0.97203056850E+03  0.25500000920E-02 0.  1.
</event>
<event>
 5   0  0.2304842E-04  0.1204257E+04  0.7818609E-02  0.9109139E-01
        1   -1    0    0  501    0  0.00000000000E+00  0.00000000000E+00  0.11795096600E+04  0.11795096600E+04  0.50400001928E-02 0.  1.
       -1   -1    0    0    0  501  0.00000000000E+00  0.00000000000E+00 -0.30738065156E+03  0.30738065160E+03  0.50400001928E-02 0. -1.
    10030    2    1    2    0    0  0.00000000000E+00  0.00000000000E+00  0.87212900844E+03  0.14868903116E+04  0.12042565306E+04 0.  0.
        4    1    3    3  502    0  0.34491187518E+03  0.20243051928E+03  0.99183463460E+03  0.10694296948E+04  0.12699999809E+01 0.  1.
       -4    1    3    3    0  502 -0.34491187518E+03 -0.20243051928E+03 -0.11970562616E+03  0.41746061684E+03  0.12699999809E+01 0. -1.
</event>
<event>
 5   0  0.2204090E-04  0.1204159E+04  0.7818609E-02  0.9109224E-01
        1   -1    0    0  501    0  0.00000000000E+00  0.00000000000E+00  0.41370706252E+03  0.41370706255E+03  0.50400001928E-02 0.  1.
       -1   -1    0    0    0  501  0.00000000000E+00  0.00000000000E+00 -0.87622300590E+03  0.87622300592E+03  0.50400001928E-02 0. -1.
    10030    2    1    2    0    0  0.00000000000E+00  0.00000000000E+00 -0.46251594338E+03  0.12899300685E+04  0.12041588698E+04 0.  0.
        2    1    3    3  502    0  0.15399240388E+03  0.99356553080E+01  0.39216358163E+03  0.42143166998E+03  0.25500000920E-02 0.  1.
       -2    1    3    3    0  502 -0.15399240388E+03 -0.99356553080E+01 -0.85467952501E+03  0.86849839849E+03  0.25500000920E-02 0. -1.
</event>
<event>
 5   0  0.4122956E-04  0.1199413E+04  0.7818609E-02  0.9113371E-01
       -2   -1    0    0    0  501  0.00000000000E+00  0.00000000000E+00  0.65834382815E+03  0.65834382816E+03  0.25500000920E-02 0.  1.
        2   -1    0    0  501    0  0.00000000000E+00  0.00000000000E+00 -0.54629150388E+03  0.54629150388E+03  0.25500000920E-02 0. -1.
    10030    2    1    2    0    0  0.00000000000E+00  0.00000000000E+00  0.11205232427E+03  0.12046353320E+04  0.11994125895E+04 0.  0.
        5    1    3    3  502    0  0.12113873860E+03 -0.38927915121E+03 -0.38567596008E+03  0.56123158120E+03  0.46999998093E+01 0. -1.
       -5    1    3    3    0  502 -0.12113873860E+03  0.38927915121E+03  0.49772828435E+03  0.64340375084E+03  0.46999998093E+01 0.  1.
</event>
<event>
 5   0  0.2315038E-04  0.1200497E+04  0.7818609E-02  0.9112421E-01
        1   -1    0    0  501    0  0.00000000000E+00  0.00000000000E+00  0.14306883666E+04  0.14306883666E+04  0.50400001928E-02 0. -1.
       -1   -1    0    0    0  501  0.00000000000E+00  0.00000000000E+00 -0.25183572972E+03  0.25183572977E+03  0.50400001928E-02 0.  1.
    10030    2    1    2    0    0  0.00000000000E+00  0.00000000000E+00  0.11788526369E+04  0.16825240964E+04  0.12004973117E+04 0.  0.
        1    1    3    3  502    0  0.59938207562E+03 -0.16941891199E+02  0.55097888362E+03  0.81432403285E+03  0.50400001928E-02 0. -1.
       -1    1    3    3    0  502 -0.59938207562E+03  0.16941891199E+02  0.62787375328E+03  0.86820006355E+03  0.50400001928E-02 0.  1.
</event>
<event>
 5   0  0.3832662E-04  0.1199438E+04  0.7818609E-02  0.9113349E-01
        2   -1    0    0  501    0  0.00000000000E+00  0.00000000000E+00  0.62404135258E+03  0.62404135258E+03  0.25500000920E-02 0. -1.
       -2   -1    0    0    0  501  0.00000000000E+00  0.00000000000E+00 -0.57634454841E+03  0.57634454842E+03  0.25500000920E-02 0.  1.
    10030    2    1    2    0    0  0.00000000000E+00  0.00000000000E+00  0.47696804167E+02  0.12003859010E+04  0.11994379209E+04 0.  0.
        4    1    3    3  502    0 -0.22192396747E+03 -0.36590722932E+03 -0.39662991136E+03  0.58348543023E+03  0.12699999809E+01 0.  1.
       -4    1    3    3    0  502  0.22192396747E+03  0.36590722932E+03  0.44432671553E+03  0.61690047077E+03  0.12699999809E+01 0. -1.
</event>
<event>
 5   0  0.2244308E-04  0.1197714E+04  0.7818609E-02  0.9114860E-01
        1   -1    0    0  501    0  0.00000000000E+00  0.00000000000E+00  0.20447755744E+04  0.20447755744E+04  0.50400001928E-02 0.  1.
       -1   -1    0    0    0  501  0.00000000000E+00  0.00000000000E+00 -0.17538835766E+03  0.17538835773E+03  0.50400001928E-02 0. -1.
    10030    2    1    2    0    0  0.00000000000E+00  0.00000000000E+00  0.18693872167E+04  0.22201639321E+04  0.11977142061E+04 0.  0.
        5    1    3    3  502    0 -0.59821684662E+03 -0.27257678865E+02  0.93685790430E+03  0.11119043122E+04  0.46999998093E+01 0.  1.
       -5    1    3    3    0  502  0.59821684662E+03  0.27257678865E+02  0.93252931244E+03  0.11082596199E+04  0.46999998093E+01 0. -1.
</event>
<event>
 5   0  0.3993723E-04  0.1198524E+04  0.7818609E-02  0.9114150E-01
       -2   -1    0    0    0  501  0.00000000000E+00  0.00000000000E+00  0.47363582709E+03  0.47363582709E+03  0.25500000920E-02 0.  1.
        2   -1    0    0  501    0  0.00000000000E+00  0.00000000000E+00 -0.75820850732E+03  0.75820850732E+03  0.25500000920E-02 0. -1.
    10030    2    1    2    0    0  0.00000000000E+00  0.00000000000E+00 -0.28457268023E+03  0.12318443344E+04  0.11985236142E+04 0.  0.
        3    1    3    3  502    0  0.28909544478E+03  0.46641268903E+03 -0.38980887004E+03  0.67310321500E+03  0.10100000352E+00 0. -1.
       -3    1    3    3    0  502 -0.28909544478E+03 -0.46641268903E+03  0.10523618981E+03  0.55874111942E+03  0.10100000352E+00 0.  1.
</event>
<event>
 5   0  0.3993723E-04  0.1201010E+04  0.7818609E-02  0.9111973E-01
       -2   -1    0    0    0  501  0.00000000000E+00  0.00000000000E+00  0.46964634010E+03  0.46964634011E+03  0.25500000920E-02 0.  1.
        2   -1    0    0  501    0  0.00000000000E+00  0.00000000000E+00 -0.76782466695E+03  0.76782466695E+03  0.25500000920E-02 0. -1.
    10030    2    1    2    0    0  0.00000000000E+00  0.00000000000E+00 -0.29817832685E+03  0.12374710071E+04  0.12010096497E+04 0.  0.
        3    1    3    3  502    0  0.33945341781E+03 -0.25063928377E+03 -0.58932785630E+03  0.72481446304E+03  0.10100000352E+00 0. -1.
       -3    1    3    3    0  502 -0.33945341781E+03  0.25063928377E+03  0.29114952945E+03  0.51265654402E+03  0.10100000352E+00 0.  1.
</event>
<event>
 5   0  0.2340731E-04  0.1200745E+04  0.7818609E-02  0.9112205E-01
        1   -1    0    0  501    0  0.00000000000E+00  0.00000000000E+00  0.59347719238E+03  0.59347719241E+03  0.50400001928E-02 0. -1.
       -1   -1    0    0    0  501  0.00000000000E+00  0.00000000000E+00 -0.60734754111E+03  0.60734754113E+03  0.50400001928E-02 0.  1.
    10030    2    1    2    0    0  0.00000000000E+00  0.00000000000E+00 -0.13870348726E+02  0.12008247335E+04  0.12007446248E+04 0.  0.
        3    1    3    3  502    0 -0.80279871047E+02 -0.58540725667E+03 -0.11324555648E+03  0.60164032455E+03  0.10100000352E+00 0.  1.
       -3    1    3    3    0  502  0.80279871047E+02  0.58540725667E+03  0.99375207758E+02  0.59918440899E+03  0.10100000352E+00 0. -1.
</event>
<event>
 5   0  0.3883890E-04  0.1196772E+04  0.7818609E-02  0.9115686E-01
       -2   -1    0    0    0  501  0.00000000000E+00  0.00000000000E+00  0.41358569574E+03  0.41358569575E+03  0.25500000920E-02 0. -1.
        2   -1    0    0  501    0  0.00000000000E+00  0.00000000000E+00 -0.86576006749E+03  0.86576006749E+03  0.25500000920E-02 0.  1.
    10030    2    1    2    0    0  0.00000000000E+00  0.00000000000E+00 -0.45217437175E+03  0.12793457632E+04  0.11967722922E+04 0.  0.
        2    1    3    3  502    0  0.17086499341E+03  0.57342874211E+03 -0.21848214648E+03  0.63698494220E+03  0.25500000920E-02 0. -1.
       -2    1    3    3    0  502 -0.17086499341E+03 -0.57342874211E+03 -0.23369222526E+03  0.64236082104E+03  0.25500000920E-02 0.  1.
</event>
<event>
 5   0  0.3832662E-04  0.1201579E+04  0.7818609E-02  0.9111475E-01
        2   -1    0    0  501    0  0.00000000000E+00  0.00000000000E+00  0.85845444453E+03  0.85845444454E+03  0.25500000920E-02 0.  1.
       -2   -1    0    0    0  501  0.00000000000E+00  0.00000000000E+00 -0.42046269443E+03  0.42046269444E+03  0.25500000920E-02 0. -1.
    10030    2    1    2    0    0  0.00000000000E+00  0.00000000000E+00  0.43799175010E+03  0.12789171390E+04  0.12015790757E+04 0.  0.
        4    1    3    3  502    0 -0.30077180781E+02 -0.48842405234E+03 -0.15198299202E+03  0.51240914753E+03  0.12699999809E+01 0. -1.
       -4    1    3    3    0  502  0.30077180781E+02  0.48842405234E+03  0.58997474213E+03  0.76650799145E+03  0.12699999809E+01 0.  1.
</event>
<event>
 5   0  0.3832662E-04  0.1199500E+04  0.7818609E-02  0.9113295E-01
        2   -1    0    0  501    0  0.00000000000E+00  0.00000000000E+00  0.19957798402E+04  0.19957798402E+04  0.25500000920E-02 0. -1.
       -2   -1    0    0    0  501  0.00000000000E+00  0.00000000000E+00 -0.18023018560E+03  0.18023018562E+03  0.25500000920E-02 0.  1.
    10030    2    1    2    0    0  0.00000000000E+00  0.00000000000E+00  0.18155496546E+04  0.21760100258E+04  0.11994995140E+04 0.  0.
        4    1    3    3  502    0  0.27081627549E+03  0.53388277459E+03  0.97383107782E+03  0.11431189147E+04  0.12699999809E+01 0.  1.
       -4    1    3    3    0  502 -0.27081627549E+03 -0.53388277459E+03  0.84171857677E+03  0.10328911111E+04  0.12699999809E+01 0. -1.
</event>
<event>
 5   0  0.2204090E-04  0.1206209E+04  0.7818609E-02  0.9107439E-01
        1   -1    0    0  501    0  0.00000000000E+00  0.00000000000E+00  0.20568470962E+04  0.20568470962E+04  0.50400001928E-02 0. -1.
       -1   -1    0    0    0  501  0.00000000000E+00  0.00000000000E+00 -0.17684106206E+03  0.17684106214E+03  0.50400001928E-02 0.  1.
    10030    2    1    2    0    0  0.00000000000E+00  0.00000000000E+00  0.18800060341E+04  0.22336881583E+04  0.12062089787E+04 0.  0.
        2    1    3    3  502    0  0.11723209029E+03 -0.39347104360E+03  0.17581078601E+04  0.18054102229E+04  0.25500000920E-02 0. -1.
       -2    1    3    3    0  502 -0.11723209029E+03  0.39347104360E+03  0.12189817401E+03  0.42827793543E+03  0.25500000920E-02 0.  1.
</event>
<event>
 5   0  0.2340731E-04  0.1200263E+04  0.7818609E-02  0.9112627E-01
       -1   -1    0    0    0  501  0.00000000000E+00  0.00000000000E+00  0.30861683123E+03  0.30861683127E+03  0.50400001928E-02 0. -1.
        1   -1    0    0  501    0  0.00000000000E+00  0.00000000000E+00 -0.11670060163E+04  0.11670060164E+04  0.50400001928E-02 0.  1.
    10030    2    1    2    0    0  0.00000000000E+00  0.00000000000E+00 -0.85838918511E+03  0.14756228476E+04  0.12002628026E+04 0.  0.
        3    1    3    3  502    0  0.75921543659E+02 -0.31220105330E+03  0.19396811329E+03  0.37530949581E+03  0.10100000352E+00 0. -1.
       -3    1    3    3    0  502 -0.75921543659E+02  0.31220105330E+03 -0.10523572984E+04  0.11003133518E+04  0.10100000352E+00 0.  1.
</event>
<event>
 5   0  0.2315038E-04  0.1205458E+04  0.7818609E-02  0.9108093E-01
       -1   -1    0    0    0  501  0.00000000000E+00  0.00000000000E+00  0.43397314745E+03  0.43397314748E+03  0.50400001928E-02 0. -1.
        1   -1    0    0  501    0  0.00000000000E+00  0.00000000000E+00 -0.83710754959E+03  0.83710754960E+03  0.50400001928E-02 0.  1.
    10030    2    1    2    0    0  0.00000000000E+00  0.00000000000E+00 -0.40313440214E+03  0.12710806971E+04  0.12054579181E+04 0.  0.
        1    1    3    3  502    0 -0.44256862331E+02 -0.23362761667E+03 -0.78555994993E+03  0.82075877583E+03  0.50400001928E-02 0.  1.
       -1    1    3    3    0  502  0.44256862331E+02  0.23362761667E+03  0.38242554780E+03  0.45032192126E+03  0.50400001928E-02 0. -1.
</event>
<event>
 5   0  0.2204090E-04  0.1202222E+04  0.7818609E-02  0.9110914E-01
        1   -1    0    0  501    0  0.00000000000E+00  0.00000000000E+00  0.67860559783E+03  0.67860559784E+03  0.50400001928E-02 0.  1.
       -1   -1    0    0    0  501  0.00000000000E+00  0.00000000000E+00 -0.53246632652E+03  0.53246632654E+03  0.50400001928E-02 0. -1.
    10030    2    1    2    0    0  0.00000000000E+00  0.00000000000E+00  0.14613927131E+03  0.12110719244E+04  0.12022223253E+04 0.  0.
        2    1    3    3  502    0 -0.11895678543E+03 -0.53600161034E+03 -0.17344827479E+03  0.57578880427E+03  0.25500000920E-02 0. -1.
       -2    1    3    3    0  502  0.11895678543E+03  0.53600161034E+03  0.31958754610E+03  0.63528312012E+03  0.25500000920E-02 0.  1.
</event>
<event>
 5   0  0.2315038E-04  0.1198186E+04  0.7818609E-02  0.9114446E-01
        1   -1    0    0  501    0  0.00000000000E+00  0.00000000000E+00  0.14989842318E+04  0.14989842318E+04  0.50400001928E-02 0.  1.
       -1   -1    0    0    0  501  0.00000000000E+00  0.00000000000E+00 -0.23943700422E+03  0.23943700427E+03  0.50400001928E-02 0. -1.
    10030    2    1    2    0    0  0.00000000000E+00  0.00000000000E+00  0.12595472275E+04  0.17384212360E+04  0.11981857850E+04 0.  0.
        1    1    3    3  502    0  0.34252074832E+03  0.11829671379E+03  0.13219468577E+04  0.13707144379E+04  0.50400001928E-02 0.  1.
       -1    1    3    3    0  502 -0.34252074832E+03 -0.11829671379E+03 -0.62399630202E+02  0.36770679814E+03  0.50400001928E-02 0. -1.
</event>
<event>
 5   0  0.3883890E-04  0.1195874E+04  0.7818609E-02  0.9116476E-01
       -2   -1    0    0    0  501  0.00000000000E+00  0.00000000000E+00  0.19211365432E+03  0.19211365433E+03  0.25500000920E-02 0. -1.
        2   -1    0    0  501    0  0.00000000000E+00  0.00000000000E+00 -0.18610256906E+04  0.18610256906E+04  0.25500000920E-02 0.  1.
    10030    2    1    2    0    0  0.00000000000E+00  0.00000000000E+00 -0.16689120363E+04  0.20531393449E+04  0.11958736492E+04 0.  0.
        2    1    3    3  502    0  0.12573508098E+03 -0.16041936046E+03 -0.17995424296E+04  0.18110484912E+04  0.25500000920E-02 0.  1.
       -2    1    3    3    0  502 -0.12573508098E+03  0.16041936046E+03  0.13063039327E+03  0.24209085371E+03  0.25500000920E-02 0. -1.
</event>
<event>
 5   0  0.2304842E-04  0.1198941E+04  0.7818609E-02  0.9113784E-01
       -1   -1    0    0    0  501  0.00000000000E+00  0.00000000000E+00  0.40766650191E+03  0.40766650195E+03  0.50400001928E-02 0. -1.
        1   -1    0    0  501    0  0.00000000000E+00  0.00000000000E+00 -0.88151658014E+03  0.88151658016E+03  0.50400001928E-02 0.  1.
    10030    2    1    2    0    0  0.00000000000E+00  0.00000000000E+00 -0.47385007823E+03  0.12891830821E+04  0.11989408336E+04 0.  0.
        4    1    3    3  502    0  0.49893387126E+03 -0.13459846658E+03  0.89771508048E+02  0.52451147905E+03  0.12699999809E+01 0. -1.
       -4    1    3    3    0  502 -0.49893387126E+03  0.13459846658E+03 -0.56362158627E+03  0.76467160305E+03  0.12699999809E+01 0.  1.
</event>
<event>
 5   0  0.3883890E-04  0.1199945E+04  0.7818609E-02  0.9112904E-01
        2   -1    0    0  501    0  0.00000000000E+00  0.00000000000E+00  0.46436958457E+03  0.46436958457E+03  0.25500000920E-02 0.  1.
       -2   -1    0    0    0  501  0.00000000000E+00  0.00000000000E+00 -0.77517414397E+03  0.77517414397E+03  0.25500000920E-02 0. -1.
    10030    2    1    2    0    0  0.00000000000E+00  0.00000000000E+00 -0.31080455940E+03  0.12395437285E+04  0.11999454908E+04 0.  0.
        2    1    3    3  502    0 -0.32593574820E+03 -0.47369114673E+03 -0.33237385019E+03  0.66414591073E+03  0.25500000920E-02 0. -1.
       -2    1    3    3    0  502  0.32593574820E+03  0.47369114673E+03  0.21569290790E+02  0.57539781782E+03  0.25500000920E-02 0.  1.
</event>
<event>
 5   0  0.2304842E-04  0.1201510E+04  0.7818609E-02  0.9111536E-01
       -1   -1    0    0    0  501  0.00000000000E+00  0.00000000000E+00  0.54101814643E+03  0.54101814645E+03  0.50400001928E-02 0.  1.
        1   -1    0    0  501    0  0.00000000000E+00  0.00000000000E+00 -0.66708794409E+03  0.66708794411E+03  0.50400001928E-02 0. -1.
    10030    2    1    2    0    0  0.00000000000E+00  0.00000000000E+00 -0.12606979766E+03  0.12081060906E+04  0.12015101881E+04 0.  0.
        4    1    3    3  502    0 -0.13874854939E+02  0.16550575545E+03 -0.64354337514E+03  0.66463099180E+03  0.12699999809E+01 0. -1.
       -4    1    3    3    0  502  0.13874854939E+02 -0.16550575545E+03  0.51747357747E+03  0.54347509876E+03  0.12699999809E+01 0.  1.
</event>
<event>
 5   0  0.2340731E-04  0.1200478E+04  0.7818609E-02  0.9112438E-01
       -1   -1    0    0    0  501  0.00000000000E+00  0.00000000000E+00  0.57801464364E+03  0.57801464366E+03  0.50400001928E-02 0. -1.
        1   -1    0    0  501    0  0.00000000000E+00  0.00000000000E+00 -0.62331829931E+03  0.62331829933E+03  0.50400001928E-02 0.  1.
    10030    2    1    2    0    0  0.00000000000E+00  0.00000000000E+00 -0.45303655672E+02  0.12013329430E+04  0.12004784124E+04 0.  0.
        3    1    3    3  502    0 -0.25028516493E+03 -0.26873728642E+03 -0.49777890735E+03  0.61858406357E+03  0.10100000352E+00 0.  1.
       -3    1    3    3    0  502  0.25028516493E+03  0.26873728642E+03  0.45247525168E+03  0.58274887943E+03  0.10100000352E+00 0. -1.
</event>
<event>
 5   0  0.3883890E-04  0.1199942E+04  0.7818609E-02  0.9112907E-01
       -2   -1    0    0    0  501  0.00000000000E+00  0.00000000000E+00  0.53096882054E+03  0.53096882054E+03  0.25500000920E-02 0. -1.
        2   -1    0    0  501    0  0.00000000000E+00  0.00000000000E+00 -0.67794052121E+03  0.67794052122E+03  0.25500000920E-02 0.  1.
    10030    2    1    2    0    0  0.00000000000E+00  0.00000000000E+00 -0.14697170068E+03  0.12089093418E+04  0.11999421302E+04 0.  0.
        2    1    3    3  502    0  0.78075717913E+02 -0.14354752198E+02 -0.67262609457E+03  0.67729442619E+03  0.25500000920E-02 0.  1.
       -2    1    3    3    0  502 -0.78075717913E+02  0.14354752198E+02  0.52565439389E+03  0.53161491558E+03  0.25500000920E-02 0. -1.
</event>
<event>
 5   0  0.4024486E-04  0.1204398E+04  0.7818609E-02  0.9109015E-01
        2   -1    0    0  501    0  0.00000000000E+00  0.00000000000E+00  0.78041245771E+03  0.78041245771E+03  0.25500000920E-02 0. -1.
       -2   -1    0    0    0  501  0.00000000000E+00  0.00000000000E+00 -0.46468234432E+03  0.46468234433E+03  0.25500000920E-02 0.  1.
    10030    2    1    2    0    0  0.00000000000E+00  0.00000000000E+00  0.31573011338E+03  0.12450948020E+04  0.12043984231E+04 0.  0.
        1    1    3    3  502    0 -0.49613166263E+03 -0.99129479165E+02 -0.17977551837E+03  0.53692878236E+03  0.50400001928E-02 0.  1.
       -1    1    3    3    0  502  0.49613166263E+03  0.99129479165E+02  0.49550563176E+03  0.70816601968E+03  0.50400001928E-02 0. -1.
</event>
<event>
 5   0  0.4122956E-04  0.1215619E+04  0.7818609E-02  0.9099294E-01
       -2   -1    0    0    0  501  0.00000000000E+00  0.00000000000E+00  0.44848138571E+03  0.44848138572E+03  0.25500000920E-02 0. -1.
        2   -1    0    0  501    0  0.00000000000E+00  0.00000000000E+00 -0.82374020930E+03  0.82374020931E+03  0.25500000920E-02 0.  1.
    10030    2    1    2    0    0  0.00000000000E+00  0.00000000000E+00 -0.37525882359E+03  0.12722215950E+04  0.12156186088E+04 0.  0.
        5    1    3    3  502    0  0.60143933152E+03  0.70157834694E+02 -0.13266074005E+03  0.61989705050E+03  0.46999998093E+01 0. -1.
       -5    1    3    3    0  502 -0.60143933152E+03 -0.70157834694E+02 -0.24259808354E+03  0.65232454453E+03  0.46999998093E+01 0.  1.
</event>
<event>
 5   0  0.2304842E-04  0.1205771E+04  0.7818609E-02  0.9107820E-01
       -1   -1    0    0    0  501  0.00000000000E+00  0.00000000000E+00  0.39568642802E+03  0.39568642805E+03  0.50400001928E-02 0.  1.
        1   -1    0    0  501    0  0.00000000000E+00  0.00000000000E+00 -0.91858336682E+03  0.91858336683E+03  0.50400001928E-02 0. -1.
    10030    2    1    2    0    0  0.00000000000E+00  0.00000000000E+00 -0.52289693880E+03  0.13142697949E+04  0.12057710749E+04 0.  0.
        4    1    3    3  502    0 -0.25030861629E+03 -0.52911975535E+03 -0.10407049789E+03  0.59452031111E+03  0.12699999809E+01 0. -1.
       -4    1    3    3    0  502  0.25030861629E+03  0.52911975535E+03 -0.41882644091E+03  0.71974948377E+03  0.12699999809E+01 0.  1.
</event>
<event>
 5   0  0.2315038E-04  0.1200300E+04  0.7818609E-02  0.9112594E-01
        1   -1    0    0  501    0  0.00000000000E+00  0.00000000000E+00  0.37050421235E+03  0.37050421238E+03  0.50400001928E-02 0.  1.
       -1   -1    0    0    0  501  0.00000000000E+00  0.00000000000E+00 -0.97213491396E+03  0.97213491397E+03  0.50400001928E-02 0. -1.
    10030    2    1    2    0    0  0.00000000000E+00  0.00000000000E+00 -0.60163070161E+03  0.13426391264E+04  0.12003000968E+04 0.  0.
        1    1    3    3  502    0 -0.36738121486E+03 -0.38812425008E+03 -0.60627478209E+03  0.80819459411E+03  0.50400001928E-02 0. -1.
       -1    1    3    3    0  502  0.36738121486E+03  0.38812425008E+03  0.46440804820E+01  0.53444453224E+03  0.50400001928E-02 0.  1.
</event>
<event>
 5   0  0.2340731E-04  0.1199914E+04  0.7818609E-02  0.9112932E-01
        1   -1    0    0  501    0  0.00000000000E+00  0.00000000000E+00  0.11278113799E+04  0.11278113800E+04  0.50400001928E-02 0. -1.
       -1   -1    0    0    0  501  0.00000000000E+00  0.00000000000E+00 -0.31915655001E+03  0.31915655005E+03  0.50400001928E-02 0.  1.
    10030    2    1    2    0    0  0.00000000000E+00  0.00000000000E+00  0.80865482993E+03  0.14469679300E+04  0.11999139788E+04 0.  0.
        3    1    3    3  502    0 -0.82260005971E+01  0.12950178629E+03 -0.30203158053E+03  0.32872703809E+03  0.10100000352E+00 0.  1.
       -3    1    3    3    0  502  0.82260005971E+01 -0.12950178629E+03  0.11106864105E+04  0.11182408919E+04  0.10100000352E+00 0. -1.
</event>
<event>
 5   0  0.3993723E-04  0.1199446E+04  0.7818609E-02  0.9113341E-01
        2   -1    0    0  501    0  0.00000000000E+00  0.00000000000E+00  0.14579576105E+04  0.14579576105E+04  0.25500000920E-02 0.  1.
       -2   -1    0    0    0  501  0.00000000000E+00  0.00000000000E+00 -0.24669295011E+03  0.24669295013E+03  0.25500000920E-02 0. -1.
    10030    2    1    2    0    0  0.00000000000E+00  0.00000000000E+00  0.12112646604E+04  0.17046505607E+04  0.11994463124E+04 0.  0.
        3    1    3    3  502    0  0.76442577529E+02  0.55950529990E+03  0.31864111198E+03  0.64839942684E+03  0.10100000352E+00 0.  1.
       -3    1    3    3    0  502 -0.76442577529E+02 -0.55950529990E+03  0.89262354845E+03  0.10562511338E+04  0.10100000352E+00 0. -1.
</event>
<event>
 5   0  0.3883890E-04  0.1199417E+04  0.7818609E-02  0.9113367E-01
        2   -1    0    0  501    0  0.00000000000E+00  0.00000000000E+00  0.90919211506E+03  0.90919211507E+03  0.25500000920E-02 0. -1.
       -2   -1    0    0    0  501  0.00000000000E+00  0.00000000000E+00 -0.39557149043E+03  0.39557149044E+03  0.25500000920E-02 0.  1.
    10030    2    1    2    0    0  0.00000000000E+00  0.00000000000E+00  0.51362062463E+03  0.13047636055E+04  0.11994173253E+04 0.  0.
        2    1    3    3  502    0 -0.47306251436E+03  0.11729057801E+03 -0.12331667085E+03  0.50274469017E+03  0.25500000920E-02 0. -1.
       -2    1    3    3    0  502  0.47306251436E+03 -0.11729057801E+03  0.63693729548E+03  0.80201891534E+03  0.25500000920E-02 0.  1.
</event>
<event>
 5   0  0.1541375E-04  0.1200236E+04  0.7818609E-02  0.9112650E-01
        4   -1    0    0  501    0  0.00000000000E+00  0.00000000000E+00  0.63249858913E+03  0.63249986415E+03  0.12699999809E+01 0. -1.
       -4   -1    0    0    0  501  0.00000000000E+00  0.00000000000E+00 -0.56939230436E+03  0.56939372069E+03  0.12699999809E+01 0.  1.
    10030    2    1    2    0    0  0.00000000000E+00  0.00000000000E+00  0.63106284772E+02  0.12018935848E+04  0.12002357211E+04 0.  0.
        4    1    3    3  502    0  0.44335692485E+03  0.28059871954E+03  0.32322652811E+03  0.61626131275E+03  0.12699999809E+01 0. -1.
       -4    1    3    3    0  502 -0.44335692485E+03 -0.28059871954E+03 -0.26012024334E+03  0.58563227209E+03  0.12699999809E+01 0.  1.
</event>
<event>
 5   0  0.2204090E-04  0.1202854E+04  0.7818609E-02  0.9110363E-01
       -1   -1    0    0    0  501  0.00000000000E+00  0.00000000000E+00  0.30551350448E+03  0.30551350453E+03  0.50400001928E-02 0. -1.
        1   -1    0    0  501    0  0.00000000000E+00  0.00000000000E+00 -0.11839547279E+04  0.11839547279E+04  0.50400001928E-02 0.  1.
    10030    2    1    2    0    0  0.00000000000E+00  0.00000000000E+00 -0.87844122344E+03  0.14894682325E+04  0.12028535374E+04 0.  0.
        2    1    3    3  502    0  0.58471181145E+03 -0.93677658387E+02 -0.56939166269E+03  0.82150488232E+03  0.25500000920E-02 0.  1.
       -2    1    3    3    0  502 -0.58471181145E+03  0.93677658387E+02 -0.30904956075E+03  0.66796335014E+03  0.25500000920E-02 0. -1.
</event>
<event>
 5   0  0.3832662E-04  0.1200114E+04  0.7818609E-02  0.9112757E-01
       -2   -1    0    0    0  501  0.00000000000E+00  0.00000000000E+00  0.52036003594E+03  0.52036003595E+03  0.25500000920E-02 0. -1.
        2   -1    0    0  501    0  0.00000000000E+00  0.00000000000E+00 -0.69196014844E+03  0.69196014844E+03  0.25500000920E-02 0.  1.
    10030    2    1    2    0    0  0.00000000000E+00  0.00000000000E+00 -0.17160011249E+03  0.12123201844E+04  0.12001140075E+04 0.  0.
        4    1    3    3  502    0 -0.10220421039E+03 -0.59083290391E+03 -0.10922151281E+03  0.60947532577E+03  0.12699999809E+01 0.  1.
       -4    1    3    3    0  502  0.10220421039E+03  0.59083290391E+03 -0.62378599686E+02  0.60284485862E+03  0.12699999809E+01 0. -1.
</event>
<event>
 5   0  0.2340731E-04  0.1197990E+04  0.7818609E-02  0.9114618E-01
        1   -1    0    0  501    0  0.00000000000E+00  0.00000000000E+00  0.48709001009E+03  0.48709001012E+03  0.50400001928E-02 0.  1.
       -1   -1    0    0    0  501  0.00000000000E+00  0.00000000000E+00 -0.73660933404E+03  0.73660933405E+03  0.50400001928E-02 0. -1.
    10030    2    1    2    0    0  0.00000000000E+00  0.00000000000E+00 -0.24951932395E+03  0.12236993442E+04  0.11979900634E+04 0.  0.
        3    1    3    3  502    0 -0.14756485898E+01  0.45088604356E+03 -0.52755016052E+03  0.69398096795E+03  0.10100000352E+00 0. -1.
       -3    1    3    3    0  502  0.14756485898E+01 -0.45088604356E+03  0.27803083658E+03  0.52971837622E+03  0.10100000352E+00 0.  1.
</event>
<event>
 5   0  0.4024486E-04  0.1202764E+04  0.7818609E-02  0.9110441E-01
       -2   -1    0    0    0  501  0.00000000000E+00  0.00000000000E+00  0.20966949077E+03  0.20966949078E+03  0.25500000920E-02 0.  1.
        2   -1    0    0  501    0  0.00000000000E+00  0.00000000000E+00 -0.17249069301E+04  0.17249069301E+04  0.25500000920E-02 0. -1.
    10030    2    1    2    0    0  0.00000000000E+00  0.00000000000E+00 -0.15152374393E+04  0.19345764208E+04  0.12027640794E+04 0.  0.
        1    1    3    3  502    0  0.50502785035E+03  0.48225676341E+02 -0.12770272775E+04  0.13741097165E+04  0.50400001928E-02 0. -1.
       -1    1    3    3    0  502 -0.50502785035E+03 -0.48225676341E+02 -0.23821016184E+03  0.56046670438E+03  0.50400001928E-02 0.  1.
</event>
<event>
 5   0  0.1541375E-04  0.1201283E+04  0.7818609E-02  0.9111734E-01
       -4   -1    0    0    0  501  0.00000000000E+00  0.00000000000E+00  0.12327479464E+04  0.12327486006E+04  0.12699999809E+01 0. -1.
        4   -1    0    0  501    0  0.00000000000E+00  0.00000000000E+00 -0.29265330926E+03  0.29265606490E+03  0.12699999809E+01 0.  1.
    10030    2    1    2    0    0  0.00000000000E+00  0.00000000000E+00  0.94009463710E+03  0.15254046655E+04  0.12012832583E+04 0.  0.
        1    1    3    3  502    0  0.42534893947E+03  0.32458909598E+03  0.12347786606E+03  0.54911436420E+03  0.50400001928E-02 0.  1.
       -1    1    3    3    0  502 -0.42534893947E+03 -0.32458909598E+03  0.81661677105E+03  0.97629030125E+03  0.50400001928E-02 0. -1.
</event>
<event>
 5   0  0.2304842E-04  0.1201053E+04  0.7818609E-02  0.9111935E-01
       -1   -1    0    0    0  501  0.00000000000E+00  0.00000000000E+00  0.34793735370E+03  0.34793735374E+03  0.50400001928E-02 0. -1.
        1   -1    0    0  501    0  0.00000000000E+00  0.00000000000E+00 -0.10364856559E+04  0.10364856559E+04  0.50400001928E-02 0.  1.
    10030    2    1    2    0    0  0.00000000000E+00  0.00000000000E+00 -0.68854830220E+03  0.13844230097E+04  0.12010529985E+04 0.  0.
        4    1    3    3  502    0 -0.32516083556E+03  0.30126480906E+03 -0.81127147617E+03  0.92447448591E+03  0.12699999809E+01 0.  1.
       -4    1    3    3    0  502  0.32516083556E+03 -0.30126480906E+03  0.12272317397E+03  0.45994852374E+03  0.12699999809E+01 0. -1.
</event>
<event>
 5   0  0.3832662E-04  0.1199446E+04  0.7818609E-02  0.9113342E-01
        2   -1    0    0  501    0  0.00000000000E+00  0.00000000000E+00  0.12009739122E+04  0.12009739122E+04  0.25500000920E-02 0. -1.
       -2   -1    0    0    0  501  0.00000000000E+00  0.00000000000E+00 -0.29947980612E+03  0.29947980614E+03  0.25500000920E-02 0.  1.
    10030    2    1    2    0    0  0.00000000000E+00  0.00000000000E+00  0.90149410605E+03  0.15004537183E+04  0.11994455959E+04 0.  0.
        4    1    3    3  502    0  0.31768534677E+03 -0.49714087333E+03  0.58543728758E+03  0.83115068314E+03  0.12699999809E+01 0.  1.
       -4    1    3    3    0  502 -0.31768534677E+03  0.49714087333E+03  0.31605681847E+03  0.66930303518E+03  0.12699999809E+01 0. -1.
</event>
<event>
 5   0  0.3883890E-04  0.1203748E+04  0.7818609E-02  0.9109582E-01
       -2   -1    0    0    0  501  0.00000000000E+00  0.00000000000E+00  0.83319712896E+03  0.83319712897E+03  0.25500000920E-02 0.  1.
        2   -1    0    0  501    0  0.00000000000E+00  0.00000000000E+00 -0.43477406974E+03  0.43477406975E+03  0.25500000920E-02 0. -1.
    10030    2    1    2    0    0  0.00000000000E+00  0.00000000000E+00  0.39842305922E+03  0.12679711987E+04  0.12037483236E+04 0.  0.
        2    1    3    3  502    0  0.53896941809E+03  0.21456764634E+03  0.36815953078E+03  0.68707259340E+03  0.25500000920E-02 0.  1.
       -2    1    3    3    0  502 -0.53896941809E+03 -0.21456764634E+03  0.30263528442E+02  0.58089860531E+03  0.25500000920E-02 0. -1.
</event>
<event>
 5   0  0.2244308E-04  0.1199489E+04  0.7818609E-02  0.9113304E-01
       -1   -1    0    0    0  501  0.00000000000E+00  0.00000000000E+00  0.69968800130E+03  0.69968800132E+03  0.50400001928E-02 0. -1.
        1   -1    0    0  501    0  0.00000000000E+00  0.00000000000E+00 -0.51407722847E+03  0.51407722850E+03  0.50400001928E-02 0.  1.
    10030    2    1    2    0    0  0.00000000000E+00  0.00000000000E+00  0.18561077283E+03  0.12137652298E+04  0.11994893389E+04 0.  0.
        5    1    3    3  502    0 -0.11775618646E+03  0.64807711737E+02  0.68423139860E+03  0.69732435479E+03  0.46999998093E+01 0. -1.
       -5    1    3    3    0  502  0.11775618646E+03 -0.64807711737E+02 -0.49862062578E+03  0.51644087503E+03  0.46999998093E+01 0.  1.
</event>
<event>
 5   0  0.4122956E-04  0.1198669E+04  0.7818609E-02  0.9114022E-01
       -2   -1    0    0    0  501  0.00000000000E+00  0.00000000000E+00  0.34916396594E+03  0.34916396595E+03  0.25500000920E-02 0. -1.
        2   -1    0    0  501    0  0.00000000000E+00  0.00000000000E+00 -0.10287489015E+04  0.10287489015E+04  0.25500000920E-02 0.  1.
    10030    2    1    2    0    0  0.00000000000E+00  0.00000000000E+00 -0.67958493559E+03  0.13779128675E+04  0.11986693396E+04 0.  0.
        5    1    3    3  502    0  0.94976724718E+02 -0.42902149116E+03 -0.80828977018E+03  0.92001872845E+03  0.46999998093E+01 0.  1.
       -5    1    3    3    0  502 -0.94976724718E+02  0.42902149116E+03  0.12870483459E+03  0.45789413904E+03  0.46999998093E+01 0. -1.
</event>
<event>
 5   0  0.3883890E-04  0.1195311E+04  0.7818609E-02  0.9116971E-01
        2   -1    0    0  501    0  0.00000000000E+00  0.00000000000E+00  0.10028346344E+04  0.10028346344E+04  0.25500000920E-02 0. -1.
       -2   -1    0    0    0  501  0.00000000000E+00  0.00000000000E+00 -0.35618245188E+03  0.35618245188E+03  0.25500000920E-02 0.  1.
    10030    2    1    2    0    0  0.00000000000E+00  0.00000000000E+00  0.64665218252E+03  0.13590170863E+04  0.11953110037E+04 0.  0.
        2    1    3    3  502    0  0.15876058675E+03  0.54613923965E+03  0.11454939321E+03  0.58016769687E+03  0.25500000920E-02 0.  1.
       -2    1    3    3    0  502 -0.15876058675E+03 -0.54613923965E+03  0.53210278931E+03  0.77884938942E+03  0.25500000920E-02 0. -1.
</event>
<event>
 5   0  0.4122956E-04  0.1210651E+04  0.7818609E-02  0.9103584E-01
       -2   -1    0    0    0  501  0.00000000000E+00  0.00000000000E+00  0.37561692148E+03  0.37561692149E+03  0.25500000920E-02 0. -1.
        2   -1    0    0  501    0  0.00000000000E+00  0.00000000000E+00 -0.97551252580E+03  0.97551252581E+03  0.25500000920E-02 0.  1.
    10030    2    1    2    0    0  0.00000000000E+00  0.00000000000E+00 -0.59989560433E+03  0.13511294473E+04  0.12106510840E+04 0.  0.
        5    1    3    3  502    0  0.40885074076E+03 -0.22521639751E+03  0.13014676255E+03  0.48460460555E+03  0.46999998093E+01 0. -1.
       -5    1    3    3    0  502 -0.40885074076E+03  0.22521639751E+03 -0.73004236687E+03  0.86652484174E+03  0.46999998093E+01 0.  1.
</event>
<event>
 5   0  0.2340731E-04  0.1199317E+04  0.7818609E-02  0.9113454E-01
       -1   -1    0    0    0  501  0.00000000000E+00  0.00000000000E+00  0.11724093425E+04  0.11724093425E+04  0.50400001928E-02 0.  1.
        1   -1    0    0  501    0  0.00000000000E+00  0.00000000000E+00 -0.30671062171E+03  0.30671062175E+03  0.50400001928E-02 0. -1.
    10030    2    1    2    0    0  0.00000000000E+00  0.00000000000E+00  0.86569872078E+03  0.14791199642E+04  0.11993171363E+04 0.  0.
        3    1    3    3  502    0 -0.40140509542E+03  0.21629513023E+03 -0.47474984981E+02  0.45843594797E+03  0.10100000352E+00 0. -1.
       -3    1    3    3    0  502  0.40140509542E+03 -0.21629513023E+03  0.91317370576E+03  0.10206840163E+04  0.10100000352E+00 0.  1.
</event>
<event>
 5   0  0.4024486E-04  0.1200213E+04  0.7818609E-02  0.9112670E-01
       -2   -1    0    0    0  501  0.00000000000E+00  0.00000000000E+00  0.24868564634E+03  0.24868564635E+03  0.25500000920E-02 0.  1.
        2   -1    0    0  501    0  0.00000000000E+00  0.00000000000E+00 -0.14481248033E+04  0.14481248033E+04  0.25500000920E-02 0. -1.
    10030    2    1    2    0    0  0.00000000000E+00  0.00000000000E+00 -0.11994391570E+04  0.16968104497E+04  0.12002130689E+04 0.  0.
        1    1    3    3  502    0 -0.50556215013E+02  0.22001624453E+02 -0.14445363278E+04  0.14455881865E+04  0.50400001928E-02 0. -1.
       -1    1    3    3    0  502  0.50556215013E+02 -0.22001624453E+02  0.24509717085E+03  0.25122226323E+03  0.50400001928E-02 0.  1.
</event>
<event>
 5   0  0.2340731E-04  0.1201079E+04  0.7818609E-02  0.9111912E-01
        1   -1    0    0  501    0  0.00000000000E+00  0.00000000000E+00  0.66825605660E+03  0.66825605662E+03  0.50400001928E-02 0.  1.
       -1   -1    0    0    0  501  0.00000000000E+00  0.00000000000E+00 -0.53968504418E+03  0.53968504420E+03  0.50400001928E-02 0. -1.
    10030    2    1    2    0    0  0.00000000000E+00  0.00000000000E+00  0.12857101243E+03  0.12079411008E+04  0.12010791805E+04 0.  0.
        3    1    3    3  502    0 -0.10544089969E+03 -0.21847104141E+03  0.61678773252E+03  0.66277786358E+03  0.10100000352E+00 0.  1.
       -3    1    3    3    0  502  0.10544089969E+03  0.21847104141E+03 -0.48821672010E+03  0.54516323725E+03  0.10100000352E+00 0. -1.
</event>
<event>
 5   0  0.3883890E-04  0.1221341E+04  0.7818609E-02  0.9094379E-01
        2   -1    0    0  501    0  0.00000000000E+00  0.00000000000E+00  0.65995072615E+03  0.65995072616E+03  0.25500000920E-02 0. -1.
       -2   -1    0    0    0  501  0.00000000000E+00  0.00000000000E+00 -0.56507059841E+03  0.56507059842E+03  0.25500000920E-02 0.  1.
    10030    2    1    2    0    0  0.00000000000E+00  0.00000000000E+00  0.94880127739E+02  0.12250213246E+04  0.12213414785E+04 0.  0.
        2    1    3    3  502    0 -0.25118741298E+03  0.24720668172E+03  0.54765348669E+03  0.65125310089E+03  0.25500000920E-02 0. -1.
       -2    1    3    3    0  502  0.25118741298E+03 -0.24720668172E+03 -0.45277335895E+03  0.57376822368E+03  0.25500000920E-02 0.  1.
</event>
<event>
 5   0  0.3993723E-04  0.1197858E+04  0.7818609E-02  0.9114733E-01
        2   -1    0    0  501    0  0.00000000000E+00  0.00000000000E+00  0.83875663831E+03  0.83875663831E+03  0.25500000920E-02 0. -1.
       -2   -1    0    0    0  501  0.00000000000E+00  0.00000000000E+00 -0.42767601044E+03  0.42767601045E+03  0.25500000920E-02 0.  1.
    10030    2    1    2    0    0  0.00000000000E+00  0.00000000000E+00  0.41108062786E+03  0.12664326488E+04  0.11978582434E+04 0.  0.
        3    1    3    3  502    0 -0.44621273005E+03 -0.37378204073E+03  0.56407435964E+02  0.58480819374E+03  0.10100000352E+00 0.  1.
       -3    1    3    3    0  502  0.44621273005E+03  0.37378204073E+03  0.35467319190E+03  0.68162445502E+03  0.10100000352E+00 0. -1.
</event>
<event>
 5   0  0.4024486E-04  0.1203497E+04  0.7818609E-02  0.9109801E-01
       -2   -1    0    0    0  501  0.00000000000E+00  0.00000000000E+00  0.18469811763E+03  0.18469811765E+03  0.25500000920E-02 0.  1.
        2   -1    0    0  501    0  0.00000000000E+00  0.00000000000E+00 -0.19605026601E+04  0.19605026602E+04  0.25500000920E-02 0. -1.
    10030    2    1    2    0    0  0.00000000000E+00  0.00000000000E+00 -0.17758045425E+04  0.21452007778E+04  0.12034968234E+04 0.  0.
        1    1    3    3  502    0 -0.18457725163E+03 -0.31050598980E+03 -0.17457486934E+04  0.17827285918E+04  0.50400001928E-02 0. -1.
       -1    1    3    3    0  502  0.18457725163E+03  0.31050598980E+03 -0.30055849111E+02  0.36247218599E+03  0.50400001928E-02 0.  1.
</event>
<event>
 5   0  0.4122956E-04  0.1202871E+04  0.7818609E-02  0.9110347E-01
        2   -1    0    0  501    0  0.00000000000E+00  0.00000000000E+00  0.39979501489E+03  0.39979501490E+03  0.25500000920E-02 0.  1.
       -2   -1    0    0    0  501  0.00000000000E+00  0.00000000000E+00 -0.90477586174E+03  0.90477586175E+03  0.25500000920E-02 0. -1.
    10030    2    1    2    0    0  0.00000000000E+00  0.00000000000E+00 -0.50498084685E+03  0.13045708766E+04  0.12028713632E+04 0.  0.
        5    1    3    3  502    0 -0.27718202263E+03 -0.12829355671E+03 -0.81437979269E+03  0.86978482805E+03  0.46999998093E+01 0. -1.
       -5    1    3    3    0  502  0.27718202263E+03  0.12829355671E+03  0.30939894584E+03  0.43478604859E+03  0.46999998093E+01 0.  1.
</event>
<event>
 5   0  0.2304842E-04  0.1202131E+04  0.7818609E-02  0.9110993E-01
       -1   -1    0    0    0  501  0.00000000000E+00  0.00000000000E+00  0.55439361730E+03  0.55439361732E+03  0.50400001928E-02 0.  1.
        1   -1    0    0  501    0  0.00000000000E+00  0.00000000000E+00 -0.65166670542E+03  0.65166670544E+03  0.50400001928E-02 0. -1.
    10030    2    1    2    0    0  0.00000000000E+00  0.00000000000E+00 -0.97273088122E+02  0.12060603228E+04  0.12021312110E+04 0.  0.
        4    1    3    3  502    0  0.19624189190E+03 -0.13141803995E+03  0.50588751821E+03  0.55830580808E+03  0.12699999809E+01 0.  1.
       -4    1    3    3    0  502 -0.19624189190E+03  0.13141803995E+03 -0.60316060633E+03  0.64775451468E+03  0.12699999809E+01 0. -1.
</event>
<event>
 5   0  0.2244308E-04  0.1199236E+04  0.7818609E-02  0.9113525E-01
       -1   -1    0    0    0  501  0.00000000000E+00  0.00000000000E+00  0.37015279339E+03  0.37015279342E+03  0.50400001928E-02 0. -1.
        1   -1    0    0  501    0  0.00000000000E+00  0.00000000000E+00 -0.97133386600E+03  0.97133386601E+03  0.50400001928E-02 0.  1.
    10030    2    1    2    0    0  0.00000000000E+00  0.00000000000E+00 -0.60118107261E+03  0.13414866594E+04  0.11992363301E+04 0.  0.
        5    1    3    3  502    0  0.86593596702E+02 -0.20692232119E+03  0.32142971381E+03  0.39198781730E+03  0.46999998093E+01 0. -1.
       -5    1    3    3    0  502 -0.86593596702E+02  0.20692232119E+03 -0.92261078642E+03  0.94949884214E+03  0.46999998093E+01 0.  1.
</event>
<event>
 5   0  0.1541375E-04  0.1200183E+04  0.7818609E-02  0.9112696E-01
        3   -1    0    0  501    0  0.00000000000E+00  0.00000000000E+00  0.50250994101E+03  0.50250995116E+03  0.10100000352E+00 0.  1.
       -3   -1    0    0    0  501  0.00000000000E+00  0.00000000000E+00 -0.71662224164E+03  0.71662224876E+03  0.10100000352E+00 0. -1.
    10030    2    1    2    0    0  0.00000000000E+00  0.00000000000E+00 -0.21411230063E+03  0.12191321999E+04  0.12001830042E+04 0.  0.
        3    1    3    3  502    0  0.79245949779E+02 -0.59029669727E+03 -0.18156055146E+03  0.62265107035E+03  0.10100000352E+00 0.  1.
       -3    1    3    3    0  502 -0.79245949779E+02  0.59029669727E+03 -0.32551749168E+02  0.59648112957E+03  0.10100000352E+00 0. -1.
</event>
<event>
 5   0  0.3832662E-04  0.1202127E+04  0.7818609E-02  0.9110997E-01
       -2   -1    0    0    0  501  0.00000000000E+00  0.00000000000E+00  0.49517041848E+03  0.49517041849E+03  0.25500000920E-02 0. -1.
        2   -1    0    0  501    0  0.00000000000E+00  0.00000000000E+00 -0.72960196882E+03  0.72960196882E+03  0.25500000920E-02 0.  1.
    10030    2    1    2    0    0  0.00000000000E+00  0.00000000000E+00 -0.23443155033E+03  0.12247723873E+04  0.12021269687E+04 0.  0.
        4    1    3    3  502    0 -0.18181283540E+03 -0.56884161823E+03 -0.47822482653E+02  0.59910374435E+03  0.12699999809E+01 0. -1.
       -4    1    3    3    0  502  0.18181283540E+03  0.56884161823E+03 -0.18660906768E+03  0.62566864296E+03  0.12699999809E+01 0.  1.
</event>
<event>
 5   0  0.2304842E-04  0.1199065E+04  0.7818609E-02  0.9113675E-01
        1   -1    0    0  501    0  0.00000000000E+00  0.00000000000E+00  0.92143329609E+03  0.92143329611E+03  0.50400001928E-02 0. -1.
       -1   -1    0    0    0  501  0.00000000000E+00  0.00000000000E+00 -0.39008730080E+03  0.39008730083E+03  0.50400001928E-02 0.  1.
    10030    2    1    2    0    0  0.00000000000E+00  0.00000000000E+00  0.53134599530E+03  0.13115205969E+04  0.11990653483E+04 0.  0.
        4    1    3    3  502    0 -0.23340849304E+03  0.55222357420E+03  0.26865121885E+03  0.65696688715E+03  0.12699999809E+01 0.  1.
       -4    1    3    3    0  502  0.23340849304E+03 -0.55222357420E+03  0.26269477645E+03  0.65455370979E+03  0.12699999809E+01 0. -1.
</event>
<event>
 5   0  0.1541375E-04  0.1200309E+04  0.7818609E-02  0.9112587E-01
       -3   -1    0    0    0  501  0.00000000000E+00  0.00000000000E+00  0.73082043143E+03  0.73082043841E+03  0.10100000352E+00 0. -1.
        3   -1    0    0  501    0  0.00000000000E+00  0.00000000000E+00 -0.49285039422E+03  0.49285040457E+03  0.10100000352E+00 0.  1.
    10030    2    1    2    0    0  0.00000000000E+00  0.00000000000E+00  0.23797003721E+03  0.12236708430E+04  0.12003085409E+04 0.  0.
        3    1    3    3  502    0 -0.38169024245E+03  0.25803135887E+03  0.51107118195E+03  0.68808530472E+03  0.10100000352E+00 0. -1.
       -3    1    3    3    0  502  0.38169024245E+03 -0.25803135887E+03 -0.27310114474E+03  0.53558553827E+03  0.10100000352E+00 0.  1.
</event>
<event>
 5   0  0.2315038E-04  0.1201282E+04  0.7818609E-02  0.9111735E-01
        1   -1    0    0  501    0  0.00000000000E+00  0.00000000000E+00  0.17883416668E+04  0.17883416668E+04  0.50400001928E-02 0. -1.
       -1   -1    0    0    0  501  0.00000000000E+00  0.00000000000E+00 -0.20173430719E+03  0.20173430725E+03  0.50400001928E-02 0.  1.
    10030    2    1    2    0    0  0.00000000000E+00  0.00000000000E+00  0.15866073596E+04  0.19900759741E+04  0.12012824268E+04 0.  0.
        1    1    3    3  502    0 -0.16718897047E+03  0.50667686509E+03  0.33631418508E+03  0.63069868287E+03  0.50400001928E-02 0.  1.
       -1    1    3    3    0  502  0.16718897047E+03 -0.50667686509E+03  0.12502931745E+04  0.13593772912E+04  0.50400001928E-02 0. -1.
</event>
<event>
 5   0  0.4024486E-04  0.1204540E+04  0.7818609E-02  0.9108892E-01
       -2   -1    0    0    0  501  0.00000000000E+00  0.00000000000E+00  0.32329193775E+03  0.32329193776E+03  0.25500000920E-02 0. -1.
        2   -1    0    0  501    0  0.00000000000E+00  0.00000000000E+00 -0.11219867004E+04  0.11219867004E+04  0.25500000920E-02 0.  1.
    10030    2    1    2    0    0  0.00000000000E+00  0.00000000000E+00 -0.79869476266E+03  0.14452786382E+04  0.12045401687E+04 0.  0.
        1    1    3    3  502    0 -0.11258425771E+03  0.50309364065E+03 -0.77294668484E+03  0.92909902808E+03  0.50400001928E-02 0.  1.
       -1    1    3    3    0  502  0.11258425771E+03 -0.50309364065E+03 -0.25748077822E+02  0.51617961010E+03  0.50400001928E-02 0. -1.
</event>
<event>
 5   0  0.2244308E-04  0.1198645E+04  0.7818609E-02  0.9114044E-01
       -1   -1    0    0    0  501  0.00000000000E+00  0.00000000000E+00  0.22837345569E+03  0.22837345575E+03  0.50400001928E-02 0. -1.
        1   -1    0    0  501    0  0.00000000000E+00  0.00000000000E+00 -0.15728066316E+04  0.15728066316E+04  0.50400001928E-02 0.  1.
    10030    2    1    2    0    0  0.00000000000E+00  0.00000000000E+00 -0.13444331759E+04  0.18011800874E+04  0.11986447108E+04 0.  0.
        5    1    3    3  502    0  0.10721811415E+03 -0.47622351348E+03 -0.11946669488E+04  0.12905563790E+04  0.46999998093E+01 0.  1.
       -5    1    3    3    0  502 -0.10721811415E+03  0.47622351348E+03 -0.14976622714E+03  0.51062370840E+03  0.46999998093E+01 0. -1.
</event>
<event>
 5   0  0.3832662E-04  0.1199283E+04  0.7818609E-02  0.9113484E-01
       -2   -1    0    0    0  501  0.00000000000E+00  0.00000000000E+00  0.38148176208E+03  0.38148176209E+03  0.25500000920E-02 0. -1.
        2   -1    0    0  501    0  0.00000000000E+00  0.00000000000E+00 -0.94256127871E+03  0.94256127872E+03  0.25500000920E-02 0.  1.
    10030    2    1    2    0    0  0.00000000000E+00  0.00000000000E+00 -0.56107951663E+03  0.13240430408E+04  0.11992830149E+04 0.  0.
        4    1    3    3  502    0  0.33066513629E+03 -0.39052293733E+03  0.64583132978E+02  0.51577145220E+03  0.12699999809E+01 0.  1.
       -4    1    3    3    0  502 -0.33066513629E+03  0.39052293733E+03 -0.62566264961E+03  0.80827158861E+03  0.12699999809E+01 0. -1.
</event>
<event>
 5   0  0.4024486E-04  0.1198257E+04  0.7818609E-02  0.9114384E-01
        2   -1    0    0  501    0  0.00000000000E+00  0.00000000000E+00  0.12288906123E+04  0.12288906123E+04  0.25500000920E-02 0. -1.
       -2   -1    0    0    0  501  0.00000000000E+00  0.00000000000E+00 -0.29209668353E+03  0.29209668354E+03  0.25500000920E-02 0.  1.
    10030    2    1    2    0    0  0.00000000000E+00  0.00000000000E+00  0.93679392877E+03  0.15209872958E+04  0.11982568544E+04 0.  0.
        1    1    3    3  502    0  0.51678922454E+03  0.35277361176E+02  0.86246948472E+02  0.52512296747E+03  0.50400001928E-02 0.  1.
       -1    1    3    3    0  502 -0.51678922454E+03 -0.35277361176E+02  0.85054698029E+03  0.99586432837E+03  0.50400001928E-02 0. -1.
</event>
<event>
 5   0  0.3993723E-04  0.1204319E+04  0.7818609E-02  0.9109085E-01
        2   -1    0    0  501    0  0.00000000000E+00  0.00000000000E+00  0.10761197518E+04  0.10761197518E+04  0.25500000920E-02 0.  1.
       -2   -1    0    0    0  501  0.00000000000E+00  0.00000000000E+00 -0.33694751865E+03  0.33694751866E+03  0.25500000920E-02 0. -1.
    10030    2    1    2    0    0  0.00000000000E+00  0.00000000000E+00  0.73917223314E+03  0.14130672705E+04  0.12043186956E+04 0.  0.
        3    1    3    3  502    0  0.44336938299E+03  0.37566565664E+03  0.55471556545E+03  0.80337442335E+03  0.10100000352E+00 0.  1.
       -3    1    3    3    0  502 -0.44336938299E+03 -0.37566565664E+03  0.18445666770E+03  0.60969284710E+03  0.10100000352E+00 0. -1.
</event>
<event>
 5   0  0.3883890E-04  0.1199081E+04  0.7818609E-02  0.9113662E-01
       -2   -1    0    0    0  501  0.00000000000E+00  0.00000000000E+00  0.47884385258E+03  0.47884385259E+03  0.25500000920E-02 0. -1.
        2   -1    0    0  501    0  0.00000000000E+00  0.00000000000E+00 -0.75065948712E+03  0.75065948713E+03  0.25500000920E-02 0.  1.
    10030    2    1    2    0    0  0.00000000000E+00  0.00000000000E+00 -0.27181563454E+03  0.12295033397E+04  0.11990807826E+04 0.  0.
        2    1    3    3  502    0  0.17499501768E+03 -0.45044565487E+02  0.45025721862E+03  0.48516371672E+03  0.25500000920E-02 0. -1.
       -2    1    3    3    0  502 -0.17499501768E+03  0.45044565487E+02 -0.72207285316E+03  0.74433962300E+03  0.25500000920E-02 0.  1.
</event>
<event>
 5   0  0.4024486E-04  0.1201842E+04  0.7818609E-02  0.9111246E-01
       -2   -1    0    0    0  501  0.00000000000E+00  0.00000000000E+00  0.30699821681E+03  0.30699821682E+03  0.25500000920E-02 0.  1.
        2   -1    0    0  501    0  0.00000000000E+00  0.00000000000E+00 -0.11762474056E+04  0.11762474056E+04  0.25500000920E-02 0. -1.
    10030    2    1    2    0    0  0.00000000000E+00  0.00000000000E+00 -0.86924918875E+03  0.14832456224E+04  0.12018416802E+04 0.  0.
        1    1    3    3  502    0 -0.20301708665E+03 -0.34844496157E+03 -0.98444372036E+03  0.10638417492E+04  0.50400001928E-02 0. -1.
       -1    1    3    3    0  502  0.20301708665E+03  0.34844496157E+03  0.11519453161E+03  0.41940387320E+03  0.50400001928E-02 0.  1.
</event>
<event>
 5   0  0.3993723E-04  0.1195354E+04  0.7818609E-02  0.9116933E-01
       -2   -1    0    0    0  501  0.00000000000E+00  0.00000000000E+00  0.62704214355E+03  0.62704214355E+03  0.25500000920E-02 0. -1.
        2   -1    0    0  501    0  0.00000000000E+00  0.00000000000E+00 -0.56968673247E+03  0.56968673247E+03  0.25500000920E-02 0.  1.
    10030    2    1    2    0    0  0.00000000000E+00  0.00000000000E+00  0.57355411079E+02  0.11967288760E+04  0.11953536546E+04 0.  0.
        3    1    3    3  502    0  0.22328954334E+03 -0.17194886797E+02 -0.52609309258E+03  0.57177603706E+03  0.10100000352E+00 0.  1.
       -3    1    3    3    0  502 -0.22328954334E+03  0.17194886797E+02  0.58344850366E+03  0.62495283896E+03  0.10100000352E+00 0. -1.
</event>
<event>
 5   0  0.3883890E-04  0.1201094E+04  0.7818609E-02  0.9111900E-01
       -2   -1    0    0    0  501  0.00000000000E+00  0.00000000000E+00  0.46731627262E+03  0.46731627262E+03  0.25500000920E-02 0. -1.
        2   -1    0    0  501    0  0.00000000000E+00  0.00000000000E+00 -0.77176093930E+03  0.77176093930E+03  0.25500000920E-02 0.  1.
    10030    2    1    2    0    0  0.00000000000E+00  0.00000000000E+00 -0.30444466668E+03  0.12390772119E+04  0.12010935776E+04 0.  0.
        2    1    3    3  502    0 -0.58968881985E+03 -0.12038589290E+02 -0.26883974408E+03  0.64819182337E+03  0.25500000920E-02 0.  1.
       -2    1    3    3    0  502  0.58968881985E+03  0.12038589290E+02 -0.35604922607E+02  0.59088538855E+03  0.25500000920E-02 0. -1.
</event>
<event>
 5   0  0.2340731E-04  0.1203604E+04  0.7818609E-02  0.9109707E-01
       -1   -1    0    0    0  501  0.00000000000E+00  0.00000000000E+00  0.34350983592E+03  0.34350983596E+03  0.50400001928E-02 0.  1.
        1   -1    0    0  501    0  0.00000000000E+00  0.00000000000E+00 -0.10543100696E+04  0.10543100696E+04  0.50400001928E-02 0. -1.
    10030    2    1    2    0    0  0.00000000000E+00  0.00000000000E+00 -0.71080023365E+03  0.13978199055E+04  0.12036043852E+04 0.  0.
        3    1    3    3  502    0 -0.59297155552E+03 -0.43484010998E+02 -0.24732642552E+03  0.64395379946E+03  0.10100000352E+00 0. -1.
       -3    1    3    3    0  502  0.59297155552E+03  0.43484010998E+02 -0.46347380813E+03  0.75386610608E+03  0.10100000352E+00 0.  1.
</event>
<event>
 5   0  0.2315038E-04  0.1197219E+04  0.7818609E-02  0.9115294E-01
       -1   -1    0    0    0  501  0.00000000000E+00  0.00000000000E+00  0.82639214011E+03  0.82639214013E+03  0.50400001928E-02 0.  1.
        1   -1    0    0  501    0  0.00000000000E+00  0.00000000000E+00 -0.43361189413E+03  0.43361189415E+03  0.50400001928E-02 0. -1.
    10030    2    1    2    0    0  0.00000000000E+00  0.00000000000E+00  0.39278024598E+03  0.12600040343E+04  0.11972192133E+04 0.  0.
        1    1    3    3  502    0  0.39221944337E+03 -0.40504379149E+03  0.40802496355E+03  0.69597480966E+03  0.50400001928E-02 0.  1.
       -1    1    3    3    0  502 -0.39221944337E+03  0.40504379149E+03 -0.15244717565E+02  0.56402922462E+03  0.50400001928E-02 0. -1.
</event>
<event>
 5   0  0.3883890E-04  0.1200210E+04  0.7818609E-02  0.9112673E-01
        2   -1    0    0  501    0  0.00000000000E+00  0.00000000000E+00  0.59159127817E+03  0.59159127817E+03  0.25500000920E-02 0.  1.
       -2   -1    0    0    0  501  0.00000000000E+00  0.00000000000E+00 -0.60874088523E+03  0.60874088523E+03  0.25500000920E-02 0. -1.
    10030    2    1    2    0    0  0.00000000000E+00  0.00000000000E+00 -0.17149607058E+02  0.12003321634E+04  0.12002096456E+04 0.  0.
        2    1    3    3  502    0  0.21424694219E+03  0.37463357747E+02  0.55078591358E+03  0.59217428010E+03  0.25500000920E-02 0.  1.
       -2    1    3    3    0  502 -0.21424694219E+03 -0.37463357747E+02 -0.56793552064E+03  0.60815788330E+03  0.25500000920E-02 0. -1.
</event>
<event>
 5   0  0.4122956E-04  0.1198926E+04  0.7818609E-02  0.9113797E-01
       -2   -1    0    0    0  501  0.00000000000E+00  0.00000000000E+00  0.44142798913E+03  0.44142798913E+03  0.25500000920E-02 0. -1.
        2   -1    0    0  501    0  0.00000000000E+00  0.00000000000E+00 -0.81407598176E+03  0.81407598177E+03  0.25500000920E-02 0.  1.
    10030    2    1    2    0    0  0.00000000000E+00  0.00000000000E+00 -0.37264799264E+03  0.12555039709E+04  0.11989260588E+04 0.  0.
        5    1    3    3  502    0  0.21444601555E+02 -0.40259895707E+02  0.43958860621E+03  0.44197393910E+03  0.46999998093E+01 0. -1.
       -5    1    3    3    0  502 -0.21444601555E+02  0.40259895707E+02 -0.81223659884E+03  0.81353003180E+03  0.46999998093E+01 0.  1.
</event>
<event>
 5   0  0.4122956E-04  0.1199091E+04  0.7818609E-02  0.9113653E-01
       -2   -1    0    0    0  501  0.00000000000E+00  0.00000000000E+00  0.82946702812E+03  0.82946702812E+03  0.25500000920E-02 0.  1.
        2   -1    0    0  501    0  0.00000000000E+00  0.00000000000E+00 -0.43335613779E+03  0.43335613780E+03  0.25500000920E-02 0. -1.
    10030    2    1    2    0    0  0.00000000000E+00  0.00000000000E+00  0.39611089033E+03  0.12628231659E+04  0.11990907017E+04 0.  0.
        5    1    3    3  502    0 -0.33265379184E+03 -0.21203286545E+03 -0.27739986494E+03  0.48227508366E+03  0.46999998093E+01 0. -1.
       -5    1    3    3    0  502  0.33265379184E+03  0.21203286545E+03  0.67351075527E+03  0.78054808226E+03  0.46999998093E+01 0.  1.
</event>
<event>
 5   0  0.2304842E-04  0.1230347E+04  0.7818609E-02  0.9086701E-01
        1   -1    0    0  501    0  0.00000000000E+00  0.00000000000E+00  0.69672235934E+03  0.69672235936E+03  0.50400001928E-02 0. -1.
       -1   -1    0    0    0  501  0.00000000000E+00  0.00000000000E+00 -0.54316965891E+03  0.54316965894E+03  0.50400001928E-02 0.  1.
    10030    2    1    2    0    0  0.00000000000E+00  0.00000000000E+00  0.15355270043E+03  0.12398920183E+04  0.12303470182E+04 0.  0.
        4    1    3    3  502    0  0.43713631779E+03  0.25349387930E+03 -0.27678663595E+03  0.57615949347E+03  0.12699999809E+01 0.  1.
       -4    1    3    3    0  502 -0.43713631779E+03 -0.25349387930E+03  0.43033933638E+03  0.66373252482E+03  0.12699999809E+01 0. -1.
</event>
<event>
 5   0  0.2244308E-04  0.1201859E+04  0.7818609E-02  0.9111231E-01
       -1   -1    0    0    0  501  0.00000000000E+00  0.00000000000E+00  0.31767714102E+03  0.31767714106E+03  0.50400001928E-02 0.  1.
        1   -1    0    0  501    0  0.00000000000E+00  0.00000000000E+00 -0.11367400383E+04  0.11367400383E+04  0.50400001928E-02 0. -1.
    10030    2    1    2    0    0  0.00000000000E+00  0.00000000000E+00 -0.81906289727E+03  0.14544171794E+04  0.12018591024E+04 0.  0.
        5    1    3    3  502    0  0.55274172003E+03  0.61588223832E+02 -0.68489527506E+03  0.88228121717E+03  0.46999998093E+01 0.  1.
       -5    1    3    3    0  502 -0.55274172003E+03 -0.61588223832E+02 -0.13416762221E+03  0.57213596219E+03  0.46999998093E+01 0. -1.
</event>
<event>
 5   0  0.4024486E-04  0.1184006E+04  0.7818609E-02  0.9126972E-01
       -2   -1    0    0    0  501  0.00000000000E+00  0.00000000000E+00  0.25605857827E+03  0.25605857828E+03  0.25500000920E-02 0.  1.
        2   -1    0    0  501    0  0.00000000000E+00  0.00000000000E+00 -0.13687007426E+04  0.13687007426E+04  0.25500000920E-02 0. -1.
    10030    2    1    2    0    0  0.00000000000E+00  0.00000000000E+00 -0.11126421643E+04  0.16247593209E+04  0.11840060240E+04 0.  0.
        1    1    3    3  502    0  0.25690936777E+03 -0.32552865695E+03 -0.11360829625E+04  0.12094030873E+04  0.50400001928E-02 0. -1.
       -1    1    3    3    0  502 -0.25690936777E+03  0.32552865695E+03  0.23440798213E+02  0.41535623360E+03  0.50400001928E-02 0.  1.
</event>
<event>
 5   0  0.3832662E-04  0.1198195E+04  0.7818609E-02  0.9114438E-01
       -2   -1    0    0    0  501  0.00000000000E+00  0.00000000000E+00  0.30839035926E+03  0.30839035927E+03  0.25500000920E-02 0.  1.
        2   -1    0    0  501    0  0.00000000000E+00  0.00000000000E+00 -0.11638427060E+04  0.11638427060E+04  0.25500000920E-02 0. -1.
    10030    2    1    2    0    0  0.00000000000E+00  0.00000000000E+00 -0.85545234670E+03  0.14722330652E+04  0.11981950930E+04 0.  0.
        4    1    3    3  502    0  0.12395520177E+03  0.31407974181E+03  0.18033616581E+03  0.38279723335E+03  0.12699999809E+01 0.  1.
       -4    1    3    3    0  502 -0.12395520177E+03 -0.31407974181E+03 -0.10357885125E+04  0.10894358319E+04  0.12699999809E+01 0. -1.
</event>
<event>
 5   0  0.3883890E-04  0.1170811E+04  0.7818609E-02  0.9138796E-01
       -2   -1    0    0    0  501  0.00000000000E+00  0.00000000000E+00  0.41442153841E+03  0.41442153841E+03  0.25500000920E-02 0.  1.
        2   -1    0    0  501    0  0.00000000000E+00  0.00000000000E+00 -0.82693480650E+03  0.82693480650E+03  0.25500000920E-02 0. -1.
    10030    2    1    2    0    0  0.00000000000E+00  0.00000000000E+00 -0.41251326809E+03  0.12413563449E+04  0.11708109919E+04 0.  0.
        2    1    3    3  502    0  0.32167779397E+03 -0.44876605170E+03 -0.41248075272E+03  0.68920820052E+03  0.25500000920E-02 0.  1.
       -2    1    3    3    0  502 -0.32167779397E+03  0.44876605170E+03 -0.32515370575E-01  0.55214814439E+03  0.25500000920E-02 0. -1.
</event>
<event>
 5   0  0.3883890E-04  0.1197367E+04  0.7818609E-02  0.9115164E-01
       -2   -1    0    0    0  501  0.00000000000E+00  0.00000000000E+00  0.51741065166E+03  0.51741065166E+03  0.25500000920E-02 0.  1.
        2   -1    0    0  501    0  0.00000000000E+00  0.00000000000E+00 -0.69272221952E+03  0.69272221952E+03  0.25500000920E-02 0. -1.
    10030    2    1    2    0    0  0.00000000000E+00  0.00000000000E+00 -0.17531156786E+03  0.12101328712E+04  0.11973668695E+04 0.  0.
        2    1    3    3  502    0  0.49152806259E+03 -0.31229568987E+03 -0.22803746506E+03  0.62540348552E+03  0.25500000920E-02 0. -1.
       -2    1    3    3    0  502 -0.49152806259E+03  0.31229568987E+03  0.52725897203E+02  0.58472938567E+03  0.25500000920E-02 0.  1.
</event>
<event>
 5   0  0.1541375E-04  0.1199142E+04  0.7818609E-02  0.9113608E-01
        4   -1    0    0  501    0  0.00000000000E+00  0.00000000000E+00  0.82347870068E+03  0.82347968000E+03  0.12699999809E+01 0. -1.
       -4   -1    0    0    0  501  0.00000000000E+00  0.00000000000E+00 -0.43654260964E+03  0.43654445699E+03  0.12699999809E+01 0.  1.
    10030    2    1    2    0    0  0.00000000000E+00  0.00000000000E+00  0.38693609104E+03  0.12600241370E+04  0.11991418962E+04 0.  0.
        4    1    3    3  502    0  0.20934959698E+03 -0.55489814724E+03  0.10099715982E+03  0.60161553068E+03  0.12699999809E+01 0.  1.
       -4    1    3    3    0  502 -0.20934959698E+03  0.55489814724E+03  0.28593893122E+03  0.65840860631E+03  0.12699999809E+01 0. -1.
</event>
<event>
 5   0  0.2315038E-04  0.1195108E+04  0.7818609E-02  0.9117150E-01
       -1   -1    0    0    0  501  0.00000000000E+00  0.00000000000E+00  0.22842320404E+03  0.22842320410E+03  0.50400001928E-02 0. -1.
        1   -1    0    0  501    0  0.00000000000E+00  0.00000000000E+00 -0.15631976940E+04  0.15631976940E+04  0.50400001928E-02 0.  1.
    10030    2    1    2    0    0  0.00000000000E+00  0.00000000000E+00 -0.13347744900E+04  0.17916208981E+04  0.11951077372E+04 0.  0.
        1    1    3    3  502    0  0.38149360569E+03 -0.44554609259E+03 -0.83845840778E+03  0.10232600810E+04  0.50400001928E-02 0. -1.
       -1    1    3    3    0  502 -0.38149360569E+03  0.44554609259E+03 -0.49631608221E+03  0.76836081712E+03  0.50400001928E-02 0.  1.
</event>
<event>
 5   0  0.4122956E-04  0.1201780E+04  0.7818609E-02  0.9111300E-01
        2   -1    0    0  501    0  0.00000000000E+00  0.00000000000E+00  0.37115996755E+03  0.37115996756E+03  0.25500000920E-02 0. -1.
       -2   -1    0    0    0  501  0.00000000000E+00  0.00000000000E+00 -0.97281103737E+03  0.97281103738E+03  0.25500000920E-02 0.  1.
    10030    2    1    2    0    0  0.00000000000E+00  0.00000000000E+00 -0.60165106982E+03  0.13439710049E+04  0.12017795356E+04 0.  0.
        5    1    3    3  502    0 -0.34001755134E+03 -0.33742892096E+03 -0.70647768577E+03  0.85358246374E+03  0.46999998093E+01 0.  1.
       -5    1    3    3    0  502  0.34001755134E+03  0.33742892096E+03  0.10482661595E+03  0.49038854119E+03  0.46999998093E+01 0. -1.
</event>
<event>
 5   0  0.4024486E-04  0.1202617E+04  0.7818609E-02  0.9110569E-01
       -2   -1    0    0    0  501  0.00000000000E+00  0.00000000000E+00  0.21628776068E+03  0.21628776070E+03  0.25500000920E-02 0.  1.
        2   -1    0    0  501    0  0.00000000000E+00  0.00000000000E+00 -0.16717157214E+04  0.16717157214E+04  0.25500000920E-02 0. -1.
    10030    2    1    2    0    0  0.00000000000E+00  0.00000000000E+00 -0.14554279607E+04  0.18880034821E+04  0.12026165638E+04 0.  0.
        1    1    3    3  502    0  0.46367860099E+03 -0.19081458741E+03 -0.20664566493E+03  0.54231953924E+03  0.50400001928E-02 0.  1.
       -1    1    3    3    0  502 -0.46367860099E+03  0.19081458741E+03 -0.12487822958E+04  0.13456839429E+04  0.50400001928E-02 0. -1.
</event>
<event>
 5   0  0.2304842E-04  0.1198262E+04  0.7818609E-02  0.9114379E-01
        1   -1    0    0  501    0  0.00000000000E+00  0.00000000000E+00  0.16987615030E+04  0.16987615030E+04  0.50400001928E-02 0.  1.
       -1   -1    0    0    0  501  0.00000000000E+00  0.00000000000E+00 -0.21130576049E+03  0.21130576055E+03  0.50400001928E-02 0. -1.
    10030    2    1    2    0    0  0.00000000000E+00  0.00000000000E+00  0.14874557425E+04  0.19100672635E+04  0.11982622273E+04 0.  0.
        4    1    3    3  502    0  0.44599411781E+03 -0.23229443789E+03  0.12629148863E+04  0.13593480356E+04  0.12699999809E+01 0.  1.
       -4    1    3    3    0  502 -0.44599411781E+03  0.23229443789E+03  0.22454085617E+03  0.55071922790E+03  0.12699999809E+01 0. -1.
</event>
<event>
 5   0  0.2340731E-04  0.1199813E+04  0.7818609E-02  0.9113020E-01
        1   -1    0    0  501    0  0.00000000000E+00  0.00000000000E+00  0.47264586642E+03  0.47264586645E+03  0.50400001928E-02 0.  1.
       -1   -1    0    0    0  501  0.00000000000E+00  0.00000000000E+00 -0.76143257237E+03  0.76143257239E+03  0.50400001928E-02 0. -1.
    10030    2    1    2    0    0  0.00000000000E+00  0.00000000000E+00 -0.28878670595E+03  0.12340784388E+04  0.11998132487E+04 0.  0.
        3    1    3    3  502    0 -0.10629345779E+02 -0.28791681494E+03 -0.68561358134E+03  0.74369016965E+03  0.10100000352E+00 0. -1.
       -3    1    3    3    0  502  0.10629345779E+02  0.28791681494E+03  0.39682687539E+03  0.49038826919E+03  0.10100000352E+00 0.  1.
</event>
<event>
 5   0  0.4122956E-04  0.1169800E+04  0.7818609E-02  0.9139709E-01
        2   -1    0    0  501    0  0.00000000000E+00  0.00000000000E+00  0.18806123006E+04  0.18806123006E+04  0.25500000920E-02 0. -1.
       -2   -1    0    0    0  501  0.00000000000E+00  0.00000000000E+00 -0.18191316879E+03  0.18191316880E+03  0.25500000920E-02 0.  1.
    10030    2    1    2    0    0  0.00000000000E+00  0.00000000000E+00  0.16986991318E+04  0.20625254694E+04  0.11698002272E+04 0.  0.
        5    1    3    3  502    0 -0.12732402610E+02 -0.47546075108E+03  0.14494946865E+04  0.15255431741E+04  0.46999998093E+01 0. -1.
       -5    1    3    3    0  502  0.12732402610E+02  0.47546075108E+03  0.24920444531E+03  0.53698229529E+03  0.46999998093E+01 0.  1.
</event>
<event>
 5   0  0.4122956E-04  0.1203345E+04  0.7818609E-02  0.9109934E-01
       -2   -1    0    0    0  501  0.00000000000E+00  0.00000000000E+00  0.55856437285E+03  0.55856437285E+03  0.25500000920E-02 0. -1.
        2   -1    0    0  501    0  0.00000000000E+00  0.00000000000E+00 -0.64810757201E+03  0.64810757202E+03  0.25500000920E-02 0.  1.
    10030    2    1    2    0    0  0.00000000000E+00  0.00000000000E+00 -0.89543199166E+02  0.12066719449E+04  0.12033450037E+04 0.  0.
        5    1    3    3  502    0 -0.48436197982E+03  0.34909875726E+03 -0.11921457210E+03  0.60886014323E+03  0.46999998093E+01 0.  1.
       -5    1    3    3    0  502  0.48436197982E+03 -0.34909875726E+03  0.29671372936E+02  0.59781180164E+03  0.46999998093E+01 0. -1.
</event>
<event>
 5   0  0.3883890E-04  0.1199957E+04  0.7818609E-02  0.9112894E-01
       -2   -1    0    0    0  501  0.00000000000E+00  0.00000000000E+00  0.40710390715E+03  0.40710390716E+03  0.25500000920E-02 0. -1.
        2   -1    0    0  501    0  0.00000000000E+00  0.00000000000E+00 -0.88423206203E+03  0.88423206204E+03  0.25500000920E-02 0.  1.
    10030    2    1    2    0    0  0.00000000000E+00  0.00000000000E+00 -0.47712815488E+03  0.12913359692E+04  0.11999572114E+04 0.  0.
        2    1    3    3  502    0  0.26035481852E+03  0.15536974402E+03 -0.79572589180E+03  0.85153043620E+03  0.25500000920E-02 0.  1.
       -2    1    3    3    0  502 -0.26035481852E+03 -0.15536974402E+03  0.31859773692E+03  0.43980553300E+03  0.25500000920E-02 0. -1.
</event>
<event>
 5   0  0.3832662E-04  0.1199731E+04  0.7818609E-02  0.9113092E-01
        2   -1    0    0  501    0  0.00000000000E+00  0.00000000000E+00  0.61967707036E+03  0.61967707036E+03  0.25500000920E-02 0. -1.
       -2   -1    0    0    0  501  0.00000000000E+00  0.00000000000E+00 -0.58068753450E+03  0.58068753451E+03  0.25500000920E-02 0.  1.
    10030    2    1    2    0    0  0.00000000000E+00  0.00000000000E+00  0.38989535854E+02  0.12003646049E+04  0.11997312202E+04 0.  0.
        4    1    3    3  502    0  0.22186125808E+02  0.21406157927E+03 -0.54073168826E+03  0.58198535677E+03  0.12699999809E+01 0.  1.
       -4    1    3    3    0  502 -0.22186125808E+02 -0.21406157927E+03  0.57972122412E+03  0.61837924811E+03  0.12699999809E+01 0. -1.
</event>
<event>
 5   0  0.2315038E-04  0.1201752E+04  0.7818609E-02  0.9111325E-01
        1   -1    0    0  501    0  0.00000000000E+00  0.00000000000E+00  0.36191045451E+03  0.36191045455E+03  0.50400001928E-02 0.  1.
       -1   -1    0    0    0  501  0.00000000000E+00  0.00000000000E+00 -0.99762716355E+03  0.99762716356E+03  0.50400001928E-02 0. -1.
    10030    2    1    2    0    0  0.00000000000E+00  0.00000000000E+00 -0.63571670904E+03  0.13595376181E+04  0.12017515554E+04 0.  0.
        1    1    3    3  502    0  0.25678319374E+03 -0.51460716217E+03 -0.12095564406E+03  0.58769754789E+03  0.50400001928E-02 0.  1.
       -1    1    3    3    0  502 -0.25678319374E+03  0.51460716217E+03 -0.51476106498E+03  0.77184007021E+03  0.50400001928E-02 0. -1.
</event>
<event>
 5   0  0.2315038E-04  0.1200436E+04  0.7818609E-02  0.9112475E-01
        1   -1    0    0  501    0  0.00000000000E+00  0.00000000000E+00  0.92619601319E+03  0.92619601320E+03  0.50400001928E-02 0. -1.
       -1   -1    0    0    0  501  0.00000000000E+00  0.00000000000E+00 -0.38896907675E+03  0.38896907678E+03  0.50400001928E-02 0.  1.
    10030    2    1    2    0    0  0.00000000000E+00  0.00000000000E+00  0.53722693644E+03  0.13151650900E+04  0.12004359344E+04 0.  0.
        1    1    3    3  502    0 -0.28191624063E+03 -0.18621047800E+02  0.84878951098E+03  0.89457651664E+03  0.50400001928E-02 0. -1.
       -1    1    3    3    0  502  0.28191624063E+03  0.18621047800E+02 -0.31156257454E+03  0.42058857335E+03  0.50400001928E-02 0.  1.
</event>
<event>
 5   0  0.2340731E-04  0.1199889E+04  0.7818609E-02  0.9112954E-01
       -1   -1    0    0    0  501  0.00000000000E+00  0.00000000000E+00  0.45686001874E+03  0.45686001877E+03  0.50400001928E-02 0. -1.
        1   -1    0    0  501    0  0.00000000000E+00  0.00000000000E+00 -0.78784160306E+03  0.78784160308E+03  0.50400001928E-02 0.  1.
    10030    2    1    2    0    0  0.00000000000E+00  0.00000000000E+00 -0.33098158432E+03  0.12447016219E+04  0.11998888775E+04 0.  0.
        3    1    3    3  502    0 -0.34205259905E+03  0.46422129330E+03  0.63207782176E+01  0.57666398545E+03  0.10100000352E+00 0. -1.
       -3    1    3    3    0  502  0.34205259905E+03 -0.46422129330E+03 -0.33730236254E+03  0.66803763640E+03  0.10100000352E+00 0.  1.
</event>
<event>
 5   0  0.4024486E-04  0.1202477E+04  0.7818609E-02  0.9110691E-01
       -2   -1    0    0    0  501  0.00000000000E+00  0.00000000000E+00  0.53926819220E+03  0.53926819220E+03  0.25500000920E-02 0.  1.
        2   -1    0    0  501    0  0.00000000000E+00  0.00000000000E+00 -0.67032981654E+03  0.67032981654E+03  0.25500000920E-02 0. -1.
    10030    2    1    2    0    0  0.00000000000E+00  0.00000000000E+00 -0.13106162434E+03  0.12095980087E+04  0.12024766914E+04 0.  0.
        1    1    3    3  502    0  0.12730967744E+03 -0.29226032421E+03  0.44725641970E+03  0.54923779555E+03  0.50400001928E-02 0.  1.
       -1    1    3    3    0  502 -0.12730967744E+03  0.29226032421E+03 -0.57831804404E+03  0.66036021319E+03  0.50400001928E-02 0. -1.
</event>
<event>
 5   0  0.1541375E-04  0.1191736E+04  0.7818609E-02  0.9120121E-01
        3   -1    0    0  501    0  0.00000000000E+00  0.00000000000E+00  0.10705529900E+04  0.10705529948E+04  0.10100000352E+00 0. -1.
       -3   -1    0    0    0  501  0.00000000000E+00  0.00000000000E+00 -0.33165888705E+03  0.33165890243E+03  0.10100000352E+00 0.  1.
    10030    2    1    2    0    0  0.00000000000E+00  0.00000000000E+00  0.73889410294E+03  0.14022118972E+04  0.11917355870E+04 0.  0.
        4    1    3    3  502    0 -0.36446045092E+03  0.34726449973E+03 -0.56560043041E+01  0.50344578292E+03  0.12699999809E+01 0.  1.
       -4    1    3    3    0  502  0.36446045092E+03 -0.34726449973E+03  0.74455010724E+03  0.89876611426E+03  0.12699999809E+01 0. -1.
</event>
<event>
 5   0  0.3883890E-04  0.1199268E+04  0.7818609E-02  0.9113498E-01
       -2   -1    0    0    0  501  0.00000000000E+00  0.00000000000E+00  0.25542054127E+03  0.25542054129E+03  0.25500000920E-02 0.  1.
        2   -1    0    0  501    0  0.00000000000E+00  0.00000000000E+00 -0.14077204099E+04  0.14077204099E+04  0.25500000920E-02 0. -1.
    10030    2    1    2    0    0  0.00000000000E+00  0.00000000000E+00 -0.11522998686E+04  0.16631409511E+04  0.11992676249E+04 0.  0.
        2    1    3    3  502    0 -0.99927556355E+02  0.27860861641E+03  0.14705173592E+03  0.33050338984E+03  0.25500000920E-02 0.  1.
       -2    1    3    3    0  502  0.99927556355E+02 -0.27860861641E+03 -0.12993516045E+04  0.13326375613E+04  0.25500000920E-02 0. -1.
</event>
<event>
 5   0  0.2304842E-04  0.1198888E+04  0.7818609E-02  0.9113830E-01
        1   -1    0    0  501    0  0.00000000000E+00  0.00000000000E+00  0.54987465471E+03  0.54987465473E+03  0.50400001928E-02 0.  1.
       -1   -1    0    0    0  501  0.00000000000E+00  0.00000000000E+00 -0.65348236731E+03  0.65348236733E+03  0.50400001928E-02 0. -1.
    10030    2    1    2    0    0  0.00000000000E+00  0.00000000000E+00 -0.10360771260E+03  0.12033570221E+04  0.11988884704E+04 0.  0.
        4    1    3    3  502    0 -0.19836817773E+03  0.49351608032E+03 -0.32928265621E+03  0.62556912971E+03  0.12699999809E+01 0.  1.
       -4    1    3    3    0  502  0.19836817773E+03 -0.49351608032E+03  0.22567494361E+03  0.57778789235E+03  0.12699999809E+01 0. -1.
</event>
<event>
 5   0  0.2244308E-04  0.1175169E+04  0.7818609E-02  0.9134873E-01
        1   -1    0    0  501    0  0.00000000000E+00  0.00000000000E+00  0.11557169925E+04  0.11557169925E+04  0.50400001928E-02 0.  1.
       -1   -1    0    0    0  501  0.00000000000E+00  0.00000000000E+00 -0.29873725117E+03  0.29873725121E+03  0.50400001928E-02 0. -1.
    10030    2    1    2    0    0  0.00000000000E+00  0.00000000000E+00  0.85697974136E+03  0.14544542438E+04  0.11751692942E+04 0.  0.
        5    1    3    3  502    0 -0.30033592287E+03 -0.47419902660E+03  0.64345471809E+03  0.85388667141E+03  0.46999998093E+01 0. -1.
       -5    1    3    3    0  502  0.30033592287E+03  0.47419902660E+03  0.21352502327E+03  0.60056757234E+03  0.46999998093E+01 0.  1.
</event>
<event>
 5   0  0.4024486E-04  0.1199594E+04  0.7818609E-02  0.9113212E-01
       -2   -1    0    0    0  501  0.00000000000E+00  0.00000000000E+00  0.20296165422E+03  0.20296165423E+03  0.25500000920E-02 0.  1.
        2   -1    0    0  501    0  0.00000000000E+00  0.00000000000E+00 -0.17725352678E+04  0.17725352678E+04  0.25500000920E-02 0. -1.
    10030    2    1    2    0    0  0.00000000000E+00  0.00000000000E+00 -0.15695736136E+04  0.19754969220E+04  0.11995944150E+04 0.  0.
        1    1    3    3  502    0  0.16331417945E+03 -0.23611272051E+02  0.16484624393E+03  0.23324514473E+03  0.50400001928E-02 0.  1.
       -1    1    3    3    0  502 -0.16331417945E+03  0.23611272051E+02 -0.17344198575E+04  0.17422517773E+04  0.50400001928E-02 0. -1.
</event>
<event>
 5   0  0.2340731E-04  0.1200661E+04  0.7818609E-02  0.9112278E-01
       -1   -1    0    0    0  501  0.00000000000E+00  0.00000000000E+00  0.47643637876E+03  0.47643637879E+03  0.50400001928E-02 0. -1.
        1   -1    0    0  501    0  0.00000000000E+00  0.00000000000E+00 -0.75644301175E+03  0.75644301177E+03  0.50400001928E-02 0.  1.
    10030    2    1    2    0    0  0.00000000000E+00  0.00000000000E+00 -0.28000663299E+03  0.12328793906E+04  0.12006614332E+04 0.  0.
        3    1    3    3  502    0  0.22601677205E+03 -0.48036271082E+03 -0.42781916907E+03  0.68180727983E+03  0.10100000352E+00 0.  1.
       -3    1    3    3    0  502 -0.22601677205E+03  0.48036271082E+03  0.14781253608E+03  0.55107211073E+03  0.10100000352E+00 0. -1.
</event>
<event>
 5   0  0.3883890E-04  0.1200828E+04  0.7818609E-02  0.9112133E-01
       -2   -1    0    0    0  501  0.00000000000E+00  0.00000000000E+00  0.71241099232E+03  0.71241099233E+03  0.25500000920E-02 0.  1.
        2   -1    0    0  501    0  0.00000000000E+00  0.00000000000E+00 -0.50602348219E+03  0.50602348219E+03  0.25500000920E-02 0. -1.
    10030    2    1    2    0    0  0.00000000000E+00  0.00000000000E+00  0.20638751014E+03  0.12184344745E+04  0.12008275331E+04 0.  0.
        2    1    3    3  502    0  0.17745394719E+03  0.20584522728E+03  0.64642631834E+03  0.70123401658E+03  0.25500000920E-02 0.  1.
       -2    1    3    3    0  502 -0.17745394719E+03 -0.20584522728E+03 -0.44003880820E+03  0.51720045794E+03  0.25500000920E-02 0. -1.
</event>
<event>
 5   0  0.3883890E-04  0.1184547E+04  0.7818609E-02  0.9126491E-01
        2   -1    0    0  501    0  0.00000000000E+00  0.00000000000E+00  0.10872739500E+04  0.10872739500E+04  0.25500000920E-02 0.  1.
       -2   -1    0    0    0  501  0.00000000000E+00  0.00000000000E+00 -0.32263080002E+03  0.32263080003E+03  0.25500000920E-02 0. -1.
    10030    2    1    2    0    0  0.00000000000E+00  0.00000000000E+00  0.76464314997E+03  0.14099047500E+04  0.11845472795E+04 0.  0.
        2    1    3    3  502    0 -0.33595030190E+03 -0.47080576826E+03  0.53413014201E+03  0.78728373880E+03  0.25500000920E-02 0. -1.
       -2    1    3    3    0  502  0.33595030190E+03  0.47080576826E+03  0.23051300796E+03  0.62262101122E+03  0.25500000920E-02 0.  1.
</event>
<event>
 5   0  0.3832662E-04  0.1201033E+04  0.7818609E-02  0.9111953E-01
       -2   -1    0    0    0  501  0.00000000000E+00  0.00000000000E+00  0.27874353029E+03  0.27874353030E+03  0.25500000920E-02 0.  1.
        2   -1    0    0  501    0  0.00000000000E+00  0.00000000000E+00 -0.12937345166E+04  0.12937345166E+04  0.25500000920E-02 0. -1.
    10030    2    1    2    0    0  0.00000000000E+00  0.00000000000E+00 -0.10149909863E+04  0.15724780469E+04  0.12010330993E+04 0.  0.
        4    1    3    3  502    0  0.50073771919E+03  0.13010981955E+03 -0.90666581860E+03  0.10438924025E+04  0.12699999809E+01 0. -1.
       -4    1    3    3    0  502 -0.50073771919E+03 -0.13010981955E+03 -0.10832516770E+03  0.52858564436E+03  0.12699999809E+01 0.  1.
</event>
<event>
 5   0  0.3993723E-04  0.1199968E+04  0.7818609E-02  0.9112885E-01
        2   -1    0    0  501    0  0.00000000000E+00  0.00000000000E+00  0.41912102840E+03  0.41912102841E+03  0.25500000920E-02 0. -1.
       -2   -1    0    0    0  501  0.00000000000E+00  0.00000000000E+00 -0.85889468872E+03  0.85889468872E+03  0.25500000920E-02 0.  1.
    10030    2    1    2    0    0  0.00000000000E+00  0.00000000000E+00 -0.43977366032E+03  0.12780157171E+04  0.11999680416E+04 0.  0.
        3    1    3    3  502    0 -0.32064740661E+03 -0.50289586420E+03 -0.15035825581E+03  0.61508261631E+03  0.10100000352E+00 0. -1.
       -3    1    3    3    0  502  0.32064740661E+03  0.50289586420E+03 -0.28941540451E+03  0.66293310082E+03  0.10100000352E+00 0.  1.
</event>
<event>
 5   0  0.4024486E-04  0.1198356E+04  0.7818609E-02  0.9114297E-01
        2   -1    0    0  501    0  0.00000000000E+00  0.00000000000E+00  0.69802401995E+03  0.69802401995E+03  0.25500000920E-02 0.  1.
       -2   -1    0    0    0  501  0.00000000000E+00  0.00000000000E+00 -0.51432906778E+03  0.51432906778E+03  0.25500000920E-02 0. -1.
    10030    2    1    2    0    0  0.00000000000E+00  0.00000000000E+00  0.18369495217E+03  0.12123530877E+04  0.11983556124E+04 0.  0.
        1    1    3    3  502    0 -0.35543586820E+03  0.32883301483E+03  0.44888363211E+03  0.66027443026E+03  0.50400001928E-02 0.  1.
       -1    1    3    3    0  502  0.35543586820E+03 -0.32883301483E+03 -0.26518867994E+03  0.55207865748E+03  0.50400001928E-02 0. -1.
</event>
<event>
 5   0  0.4122956E-04  0.1201468E+04  0.7818609E-02  0.9111573E-01
        2   -1    0    0  501    0  0.00000000000E+00  0.00000000000E+00  0.90223904757E+03  0.90223904758E+03  0.25500000920E-02 0. -1.
       -2   -1    0    0    0  501  0.00000000000E+00  0.00000000000E+00 -0.39998402286E+03  0.39998402286E+03  0.25500000920E-02 0.  1.
    10030    2    1    2    0    0  0.00000000000E+00  0.00000000000E+00  0.50225502472E+03  0.13022230704E+04  0.12014677754E+04 0.  0.
        5    1    3    3  502    0 -0.16354530971E+03 -0.19997975299E+03  0.83893571602E+03  0.87782355604E+03  0.46999998093E+01 0. -1.
       -5    1    3    3    0  502  0.16354530971E+03  0.19997975299E+03 -0.33668069130E+03  0.42439951440E+03  0.46999998093E+01 0.  1.
</event>
<event>
 5   0  0.2304842E-04  0.1205790E+04  0.7818609E-02  0.9107803E-01
        1   -1    0    0  501    0  0.00000000000E+00  0.00000000000E+00  0.46894784226E+03  0.46894784229E+03  0.50400001928E-02 0.  1.
       -1   -1    0    0    0  501  0.00000000000E+00  0.00000000000E+00 -0.77510241278E+03  0.77510241280E+03  0.50400001928E-02 0. -1.
    10030    2    1    2    0    0  0.00000000000E+00  0.00000000000E+00 -0.30615457052E+03  0.12440502551E+04  0.12057903699E+04 0.  0.
        4    1    3    3  502    0  0.35951255588E+03  0.25837194708E+03  0.26914577575E+03  0.51811813554E+03  0.12699999809E+01 0.  1.
       -4    1    3    3    0  502 -0.35951255588E+03 -0.25837194708E+03 -0.57530034626E+03  0.72593211954E+03  0.12699999809E+01 0. -1.
</event>
<event>
 5   0  0.2244308E-04  0.1200681E+04  0.7818609E-02  0.9112260E-01
       -1   -1    0    0    0  501  0.00000000000E+00  0.00000000000E+00  0.55796839858E+03  0.55796839861E+03  0.50400001928E-02 0. -1.
        1   -1    0    0  501    0  0.00000000000E+00  0.00000000000E+00 -0.64593067301E+03  0.64593067303E+03  0.50400001928E-02 0.  1.
    10030    2    1    2    0    0  0.00000000000E+00  0.00000000000E+00 -0.87962274424E+02  0.12038990716E+04  0.12006813120E+04 0.  0.
        5    1    3    3  502    0 -0.35385003989E+03 -0.31607829480E+03  0.32479723223E+03  0.57500493149E+03  0.46999998093E+01 0. -1.
       -5    1    3    3    0  502  0.35385003989E+03  0.31607829480E+03 -0.41275950665E+03  0.62889414014E+03  0.46999998093E+01 0.  1.
</event>
<event>
 5   0  0.3832662E-04  0.1200763E+04  0.7818609E-02  0.9112189E-01
       -2   -1    0    0    0  501  0.00000000000E+00  0.00000000000E+00  0.64351206933E+03  0.64351206934E+03  0.25500000920E-02 0. -1.
        2   -1    0    0  501    0  0.00000000000E+00  0.00000000000E+00 -0.56014142061E+03  0.56014142061E+03  0.25500000920E-02 0.  1.
    10030    2    1    2    0    0  0.00000000000E+00  0.00000000000E+00  0.83370648729E+02  0.12036534900E+04  0.12007626988E+04 0.  0.
        4    1    3    3  502    0  0.55068851910E+03 -0.20140150459E+03  0.17097545137E+03  0.61078198156E+03  0.12699999809E+01 0.  1.
       -4    1    3    3    0  502 -0.55068851910E+03  0.20140150459E+03 -0.87604802644E+02  0.59287150840E+03  0.12699999809E+01 0. -1.
</event>
<event>
 5   0  0.3883890E-04  0.1180123E+04  0.7818609E-02  0.9130435E-01
       -2   -1    0    0    0  501  0.00000000000E+00  0.00000000000E+00  0.35984394520E+03  0.35984394521E+03  0.25500000920E-02 0.  1.
        2   -1    0    0  501    0  0.00000000000E+00  0.00000000000E+00 -0.96756516623E+03  0.96756516623E+03  0.25500000920E-02 0. -1.
    10030    2    1    2    0    0  0.00000000000E+00  0.00000000000E+00 -0.60772122103E+03  0.13274091114E+04  0.11801228185E+04 0.  0.
        2    1    3    3  502    0  0.15703450374E+03  0.30069118293E+03  0.23919754726E+03  0.41507889549E+03  0.25500000920E-02 0.  1.
       -2    1    3    3    0  502 -0.15703450374E+03 -0.30069118293E+03 -0.84691876829E+03  0.91233021596E+03  0.25500000920E-02 0. -1.
</event>
<event>
 5   0  0.2244308E-04  0.1200135E+04  0.7818609E-02  0.9112738E-01
       -1   -1    0    0    0  501  0.00000000000E+00  0.00000000000E+00  0.19569782949E+03  0.19569782955E+03  0.50400001928E-02 0. -1.
        1   -1    0    0  501    0  0.00000000000E+00  0.00000000000E+00 -0.18399856782E+04  0.18399856782E+04  0.50400001928E-02 0.  1.
    10030    2    1    2    0    0  0.00000000000E+00  0.00000000000E+00 -0.16442878487E+04  0.20356835078E+04  0.12001353317E+04 0.  0.
        5    1    3    3  502    0  0.62231324755E+02  0.36821676982E+02  0.18824955024E+03  0.20171404721E+03  0.46999998093E+01 0. -1.
       -5    1    3    3    0  502 -0.62231324755E+02 -0.36821676982E+02 -0.18325373990E+04  0.18339694606E+04  0.46999998093E+01 0.  1.
</event>
<event>
 5   0  0.2204090E-04  0.1198895E+04  0.7818609E-02  0.9113824E-01
        1   -1    0    0  501    0  0.00000000000E+00  0.00000000000E+00  0.57072629938E+03  0.57072629940E+03  0.50400001928E-02 0. -1.
       -1   -1    0    0    0  501  0.00000000000E+00  0.00000000000E+00 -0.62961426049E+03  0.62961426051E+03  0.50400001928E-02 0.  1.
    10030    2    1    2    0    0  0.00000000000E+00  0.00000000000E+00 -0.58887961114E+02  0.12003405599E+04  0.11988951863E+04 0.  0.
        2    1    3    3  502    0  0.24329832276E+03 -0.19667030526E+03  0.48250811696E+03  0.57505422855E+03  0.25500000920E-02 0. -1.
       -2    1    3    3    0  502 -0.24329832276E+03  0.19667030526E+03 -0.54139607808E+03  0.62528633136E+03  0.25500000920E-02 0.  1.
</event>
<event>
 5   0  0.4122956E-04  0.1198601E+04  0.7818609E-02  0.9114082E-01
        2   -1    0    0  501    0  0.00000000000E+00  0.00000000000E+00  0.10809052245E+04  0.10809052245E+04  0.25500000920E-02 0.  1.
       -2   -1    0    0    0  501  0.00000000000E+00  0.00000000000E+00 -0.33227826104E+03  0.33227826105E+03  0.25500000920E-02 0. -1.
    10030    2    1    2    0    0  0.00000000000E+00  0.00000000000E+00  0.74862696350E+03  0.14131834856E+04  0.11986013656E+04 0.  0.
        5    1    3    3  502    0  0.33743750143E+03  0.36047819440E+03  0.77471535749E+03  0.91870265654E+03  0.46999998093E+01 0.  1.
       -5    1    3    3    0  502 -0.33743750143E+03 -0.36047819440E+03 -0.26088393994E+02  0.49448082906E+03  0.46999998093E+01 0. -1.
</event>
<event>
 5   0  0.2204090E-04  0.1200507E+04  0.7818609E-02  0.9112412E-01
       -1   -1    0    0    0  501  0.00000000000E+00  0.00000000000E+00  0.84032875829E+03  0.84032875831E+03  0.50400001928E-02 0.  1.
        1   -1    0    0  501    0  0.00000000000E+00  0.00000000000E+00 -0.42876619226E+03  0.42876619229E+03  0.50400001928E-02 0. -1.
    10030    2    1    2    0    0  0.00000000000E+00  0.00000000000E+00  0.41156256603E+03  0.12690949506E+04  0.12005074960E+04 0.  0.
        2    1    3    3  502    0 -0.95330990362E+02 -0.13583198624E+03 -0.40403479012E+03  0.43678649000E+03  0.25500000920E-02 0. -1.
       -2    1    3    3    0  502  0.95330990362E+02  0.13583198624E+03  0.81559735616E+03  0.83230846060E+03  0.25500000920E-02 0.  1.
</event>
<event>
 5   0  0.2340731E-04  0.1198998E+04  0.7818609E-02  0.9113734E-01
       -1   -1    0    0    0  501  0.00000000000E+00  0.00000000000E+00  0.34908068545E+03  0.34908068549E+03  0.50400001928E-02 0. -1.
        1   -1    0    0  501    0  0.00000000000E+00  0.00000000000E+00 -0.10295589853E+04  0.10295589854E+04  0.50400001928E-02 0.  1.
    10030    2    1    2    0    0  0.00000000000E+00  0.00000000000E+00 -0.68047829989E+03  0.13786396708E+04  0.11989981757E+04 0.  0.
        3    1    3    3  502    0 -0.56151157916E+03 -0.15247825316E+03 -0.50628567692E+03  0.77127820407E+03  0.10100000352E+00 0.  1.
       -3    1    3    3    0  502  0.56151157916E+03  0.15247825316E+03 -0.17419262297E+03  0.60736146677E+03  0.10100000352E+00 0. -1.
</event>
<event>
 5   0  0.2315038E-04  0.1194143E+04  0.7818609E-02  0.9117998E-01
        1   -1    0    0  501    0  0.00000000000E+00  0.00000000000E+00  0.12249813081E+04  0.12249813082E+04  0.50400001928E-02 0.  1.
       -1   -1    0    0    0  501  0.00000000000E+00  0.00000000000E+00 -0.29102038351E+03  0.29102038355E+03  0.50400001928E-02 0. -1.
    10030    2    1    2    0    0  0.00000000000E+00  0.00000000000E+00  0.93396092464E+03  0.15160016917E+04  0.11941432580E+04 0.  0.
        1    1    3    3  502    0 -0.32084225806E+03 -0.40305705088E+03  0.85015967536E+03  0.99406549807E+03  0.50400001928E-02 0.  1.
       -1    1    3    3    0  502  0.32084225806E+03  0.40305705088E+03  0.83801249279E+02  0.52193619364E+03  0.50400001928E-02 0. -1.
</event>
<event>
 5   0  0.4024486E-04  0.1202896E+04  0.7818609E-02  0.9110325E-01
        2   -1    0    0  501    0  0.00000000000E+00  0.00000000000E+00  0.53832604528E+03  0.53832604529E+03  0.25500000920E-02 0. -1.
       -2   -1    0    0    0  501  0.00000000000E+00  0.00000000000E+00 -0.67197152838E+03  0.67197152839E+03  0.25500000920E-02 0.  1.
    10030    2    1    2    0    0  0.00000000000E+00  0.00000000000E+00 -0.13364548310E+03  0.12102975737E+04  0.12028961309E+04 0.  0.
        1    1    3    3  502    0 -0.23113680550E+03 -0.40818013955E+03  0.31193009658E+03  0.56332551368E+03  0.50400001928E-02 0. -1.
       -1    1    3    3    0  502  0.23113680550E+03  0.40818013955E+03 -0.44557557968E+03  0.64697206000E+03  0.50400001928E-02 0.  1.
</event>
<event>
 5   0  0.1541375E-04  0.1200285E+04  0.7818609E-02  0.9112607E-01
        3   -1    0    0  501    0  0.00000000000E+00  0.00000000000E+00  0.22363517599E+03  0.22363519879E+03  0.10100000352E+00 0.  1.
       -3   -1    0    0    0  501  0.00000000000E+00  0.00000000000E+00 -0.16105292016E+04  0.16105292048E+04  0.10100000352E+00 0. -1.
    10030    2    1    2    0    0  0.00000000000E+00  0.00000000000E+00 -0.13868940256E+04  0.18341644036E+04  0.12002849749E+04 0.  0.
        4    1    3    3  502    0  0.41673403008E+02 -0.29530084952E+03 -0.14892816838E+04  0.15188485148E+04  0.12699999809E+01 0. -1.
       -4    1    3    3    0  502 -0.41673403008E+02  0.29530084952E+03  0.10238765822E+03  0.31531588875E+03  0.12699999809E+01 0.  1.
</event>
<event>
 5   0  0.3993723E-04  0.1199343E+04  0.7818609E-02  0.9113432E-01
        2   -1    0    0  501    0  0.00000000000E+00  0.00000000000E+00  0.11151935459E+04  0.11151935459E+04  0.25500000920E-02 0.  1.
       -2   -1    0    0    0  501  0.00000000000E+00  0.00000000000E+00 -0.32246038154E+03  0.32246038155E+03  0.25500000920E-02 0. -1.
    10030    2    1    2    0    0  0.00000000000E+00  0.00000000000E+00  0.79273316439E+03  0.14376539275E+04  0.11993427139E+04 0.  0.
        3    1    3    3  502    0  0.59796004851E+03 -0.18386695927E+02  0.34677689421E+03  0.69148283765E+03  0.10100000352E+00 0. -1.
       -3    1    3    3    0  502 -0.59796004851E+03  0.18386695927E+02  0.44595627018E+03  0.74617108984E+03  0.10100000352E+00 0.  1.
</event>
<event>
 5   0  0.4122956E-04  0.1199583E+04  0.7818609E-02  0.9113222E-01
        2   -1    0    0  501    0  0.00000000000E+00  0.00000000000E+00  0.10429263668E+04  0.10429263668E+04  0.25500000920E-02 0. -1.
       -2   -1    0    0    0  501  0.00000000000E+00  0.00000000000E+00 -0.34494270171E+03  0.34494270172E+03  0.25500000920E-02 0.  1.
    10030    2    1    2    0    0  0.00000000000E+00  0.00000000000E+00  0.69798366508E+03  0.13878690685E+04  0.11995829920E+04 0.  0.
        5    1    3    3  502    0  0.89914200943E+02 -0.17263408495E+03 -0.30736294502E+03  0.36384221963E+03  0.46999998093E+01 0.  1.
       -5    1    3    3    0  502 -0.89914200943E+02  0.17263408495E+03  0.10053466101E+04  0.10240268489E+04  0.46999998093E+01 0. -1.
</event>
<event>
 5   0  0.3832662E-04  0.1199243E+04  0.7818609E-02  0.9113520E-01
       -2   -1    0    0    0  501  0.00000000000E+00  0.00000000000E+00  0.63676879740E+03  0.63676879740E+03  0.25500000920E-02 0. -1.
        2   -1    0    0  501    0  0.00000000000E+00  0.00000000000E+00 -0.56464081749E+03  0.56464081750E+03  0.25500000920E-02 0.  1.
    10030    2    1    2    0    0  0.00000000000E+00  0.00000000000E+00  0.72127979906E+02  0.12014096149E+04  0.11992425181E+04 0.  0.
        4    1    3    3  502    0 -0.12934607432E+02  0.39674454048E+03 -0.41415941011E+03  0.57367513834E+03  0.12699999809E+01 0.  1.
       -4    1    3    3    0  502  0.12934607432E+02 -0.39674454048E+03  0.48628739002E+03  0.62773447656E+03  0.12699999809E+01 0. -1.
</event>
<event>
 5   0  0.4024486E-04  0.1201365E+04  0.7818609E-02  0.9111662E-01
        2   -1    0    0  501    0  0.00000000000E+00  0.00000000000E+00  0.54487514999E+03  0.54487515000E+03  0.25500000920E-02 0.  1.
       -2   -1    0    0    0  501  0.00000000000E+00  0.00000000000E+00 -0.66220623816E+03  0.66220623817E+03  0.25500000920E-02 0. -1.
    10030    2    1    2    0    0  0.00000000000E+00  0.00000000000E+00 -0.11733108817E+03  0.12070813882E+04  0.12013654288E+04 0.  0.
        1    1    3    3  502    0  0.18309602121E+03  0.11846994961E+02 -0.63336177629E+03  0.65940249011E+03  0.50400001928E-02 0. -1.
       -1    1    3    3    0  502 -0.18309602121E+03 -0.11846994961E+02  0.51603068811E+03  0.54767889806E+03  0.50400001928E-02 0.  1.
</event>
<event>
 5   0  0.2204090E-04  0.1200907E+04  0.7818609E-02  0.9112063E-01
       -1   -1    0    0    0  501  0.00000000000E+00  0.00000000000E+00  0.29001830407E+03  0.29001830411E+03  0.50400001928E-02 0.  1.
        1   -1    0    0  501    0  0.00000000000E+00  0.00000000000E+00 -0.12431773245E+04  0.12431773245E+04  0.50400001928E-02 0. -1.
    10030    2    1    2    0    0  0.00000000000E+00  0.00000000000E+00 -0.95315902046E+03  0.15331956287E+04  0.12009066231E+04 0.  0.
        2    1    3    3  502    0  0.46340469123E+03 -0.17680081792E+03 -0.44493480594E+02  0.49797801848E+03  0.25500000920E-02 0.  1.
       -2    1    3    3    0  502 -0.46340469123E+03  0.17680081792E+03 -0.90866553986E+03  0.10352176102E+04  0.25500000920E-02 0. -1.
</event>
<event>
 5   0  0.2340731E-04  0.1205305E+04  0.7818609E-02  0.9108225E-01
        1   -1    0    0  501    0  0.00000000000E+00  0.00000000000E+00  0.65586801480E+03  0.65586801482E+03  0.50400001928E-02 0.  1.
       -1   -1    0    0    0  501  0.00000000000E+00  0.00000000000E+00 -0.55375512682E+03  0.55375512684E+03  0.50400001928E-02 0. -1.
    10030    2    1    2    0    0  0.00000000000E+00  0.00000000000E+00  0.10211288798E+03  0.12096231417E+04  0.12053053982E+04 0.  0.
        3    1    3    3  502    0 -0.42736943934E+03 -0.13598618378E+03 -0.35294418350E+03  0.57070700603E+03  0.10100000352E+00 0. -1.
       -3    1    3    3    0  502  0.42736943934E+03  0.13598618378E+03  0.45505707148E+03  0.63891613563E+03  0.10100000352E+00 0.  1.
</event>
<event>
 5   0  0.1541375E-04  0.1200190E+04  0.7818609E-02  0.9112690E-01
       -3   -1    0    0    0  501  0.00000000000E+00  0.00000000000E+00  0.83015197199E+03  0.83015197814E+03  0.10100000352E+00 0. -1.
        3   -1    0    0  501    0  0.00000000000E+00  0.00000000000E+00 -0.43379302688E+03  0.43379303863E+03  0.10100000352E+00 0.  1.
    10030    2    1    2    0    0  0.00000000000E+00  0.00000000000E+00  0.39635894511E+03  0.12639450168E+04  0.12001902316E+04 0.  0.
        5    1    3    3  502    0  0.16941507779E+02  0.11107662257E+03 -0.42259649232E+03  0.43730414597E+03  0.46999998093E+01 0.  1.
       -5    1    3    3    0  502 -0.16941507779E+02 -0.11107662257E+03  0.81895543743E+03  0.82664087080E+03  0.46999998093E+01 0. -1.
</event>
<event>
 5   0  0.3993723E-04  0.1199165E+04  0.7818609E-02  0.9113588E-01
       -2   -1    0    0    0  501  0.00000000000E+00  0.00000000000E+00  0.29469998367E+03  0.29469998368E+03  0.25500000920E-02 0. -1.
        2   -1    0    0  501    0  0.00000000000E+00  0.00000000000E+00 -0.12198815104E+04  0.12198815104E+04  0.25500000920E-02 0.  1.
    10030    2    1    2    0    0  0.00000000000E+00  0.00000000000E+00 -0.92518152672E+03  0.15145814941E+04  0.11991648114E+04 0.  0.
        3    1    3    3  502    0 -0.12886063489E+03 -0.38351545186E+03 -0.10214868611E+04  0.10986922147E+04  0.10100000352E+00 0.  1.
       -3    1    3    3    0  502  0.12886063489E+03  0.38351545186E+03  0.96305334402E+02  0.41588927935E+03  0.10100000352E+00 0. -1.
</event>
<event>
 5   0  0.3993723E-04  0.1197962E+04  0.7818609E-02  0.9114642E-01
        2   -1    0    0  501    0  0.00000000000E+00  0.00000000000E+00  0.30498767651E+03  0.30498767652E+03  0.25500000920E-02 0.  1.
       -2   -1    0    0    0  501  0.00000000000E+00  0.00000000000E+00 -0.11763700774E+04  0.11763700774E+04  0.25500000920E-02 0. -1.
    10030    2    1    2    0    0  0.00000000000E+00  0.00000000000E+00 -0.87138240093E+03  0.14813577540E+04  0.11979622309E+04 0.  0.
        3    1    3    3  502    0  0.55092414852E+03  0.91185861831E+02 -0.16776416936E+03  0.58307555732E+03  0.10100000352E+00 0.  1.
       -3    1    3    3    0  502 -0.55092414852E+03 -0.91185861831E+02 -0.70361823157E+03  0.89828219665E+03  0.10100000352E+00 0. -1.
</event>
<event>
 5   0  0.2204090E-04  0.1199765E+04  0.7818609E-02  0.9113062E-01
        1   -1    0    0  501    0  0.00000000000E+00  0.00000000000E+00  0.11639381892E+04  0.11639381892E+04  0.50400001928E-02 0. -1.
       -1   -1    0    0    0  501  0.00000000000E+00  0.00000000000E+00 -0.30917360775E+03  0.30917360779E+03  0.50400001928E-02 0.  1.
    10030    2    1    2    0    0  0.00000000000E+00  0.00000000000E+00  0.85476458145E+03  0.14731117970E+04  0.11997649256E+04 0.  0.
        2    1    3    3  502    0 -0.39277476497E+02 -0.14508988867E+03  0.11404410097E+04  0.11503040870E+04  0.25500000920E-02 0. -1.
       -2    1    3    3    0  502  0.39277476497E+02  0.14508988867E+03 -0.28567642827E+03  0.32280770999E+03  0.25500000920E-02 0.  1.
</event>
<event>
 5   0  0.2315038E-04  0.1202779E+04  0.7818609E-02  0.9110428E-01
       -1   -1    0    0    0  501  0.00000000000E+00  0.00000000000E+00  0.31394792396E+03  0.31394792400E+03  0.50400001928E-02 0.  1.
        1   -1    0    0  501    0  0.00000000000E+00  0.00000000000E+00 -0.11520038567E+04  0.11520038567E+04  0.50400001928E-02 0. -1.
    10030    2    1    2    0    0  0.00000000000E+00  0.00000000000E+00 -0.83805593273E+03  0.14659517807E+04  0.12027788146E+04 0.  0.
        1    1    3    3  502    0  0.19158690593E+03 -0.55910765784E+03 -0.28351413675E+03  0.65550528704E+03  0.50400001928E-02 0.  1.
       -1    1    3    3    0  502 -0.19158690593E+03  0.55910765784E+03 -0.55454179598E+03  0.81044649366E+03  0.50400001928E-02 0. -1.
</event>
<event>
 5   0  0.4122956E-04  0.1198641E+04  0.7818609E-02  0.9114047E-01
       -2   -1    0    0    0  501  0.00000000000E+00  0.00000000000E+00  0.66423862722E+03  0.66423862723E+03  0.25500000920E-02 0. -1.
        2   -1    0    0  501    0  0.00000000000E+00  0.00000000000E+00 -0.54074741711E+03  0.54074741712E+03  0.25500000920E-02 0.  1.
    10030    2    1    2    0    0  0.00000000000E+00  0.00000000000E+00  0.12349121011E+03  0.12049860443E+04  0.11986414343E+04 0.  0.
        5    1    3    3  502    0  0.11537134045E+03  0.23956075293E+03 -0.47818511556E+03  0.54715902193E+03  0.46999998093E+01 0.  1.
       -5    1    3    3    0  502 -0.11537134045E+03 -0.23956075293E+03  0.60167632567E+03  0.65782702241E+03  0.46999998093E+01 0. -1.
</event>
<event>
 5   0  0.2304842E-04  0.1198977E+04  0.7818609E-02  0.9113752E-01
       -1   -1    0    0    0  501  0.00000000000E+00  0.00000000000E+00  0.11723540943E+03  0.11723540954E+03  0.50400001928E-02 0. -1.
        1   -1    0    0  501    0  0.00000000000E+00  0.00000000000E+00 -0.30655117636E+04  0.30655117636E+04  0.50400001928E-02 0.  1.
    10030    2    1    2    0    0  0.00000000000E+00  0.00000000000E+00 -0.29482763542E+04  0.31827471731E+04  0.11989771089E+04 0.  0.
        4    1    3    3  502    0 -0.38014298683E+03  0.33187248566E+03 -0.61504343848E+03  0.79556777291E+03  0.12699999809E+01 0. -1.
       -4    1    3    3    0  502  0.38014298683E+03 -0.33187248566E+03 -0.23332329157E+04  0.23871794002E+04  0.12699999809E+01 0.  1.
</event>
<event>
 5   0  0.2315038E-04  0.1200450E+04  0.7818609E-02  0.9112462E-01
        1   -1    0    0  501    0  0.00000000000E+00  0.00000000000E+00  0.10107117591E+04  0.10107117591E+04  0.50400001928E-02 0.  1.
       -1   -1    0    0    0  501  0.00000000000E+00  0.00000000000E+00 -0.35645204760E+03  0.35645204763E+03  0.50400001928E-02 0. -1.
    10030    2    1    2    0    0  0.00000000000E+00  0.00000000000E+00  0.65425971150E+03  0.13671638067E+04  0.12004503756E+04 0.  0.
        1    1    3    3  502    0  0.11748983094E+03 -0.57669319757E+03  0.19290006756E+03  0.61934589737E+03  0.50400001928E-02 0.  1.
       -1    1    3    3    0  502 -0.11748983094E+03  0.57669319757E+03  0.46135964394E+03  0.74781790937E+03  0.50400001928E-02 0. -1.
</event>
<event>
 5   0  0.3832662E-04  0.1198795E+04  0.7818609E-02  0.9113912E-01
        2   -1    0    0  501    0  0.00000000000E+00  0.00000000000E+00  0.14435448559E+04  0.14435448559E+04  0.25500000920E-02 0. -1.
       -2   -1    0    0    0  501  0.00000000000E+00  0.00000000000E+00 -0.24888564377E+03  0.24888564378E+03  0.25500000920E-02 0.  1.
    10030    2    1    2    0    0  0.00000000000E+00  0.00000000000E+00  0.11946592121E+04  0.16924304996E+04  0.11987953800E+04 0.  0.
        4    1    3    3  502    0 -0.44114439612E+03  0.38287250170E+02  0.11676620839E+04  0.12488036862E+04  0.12699999809E+01 0. -1.
       -4    1    3    3    0  502  0.44114439612E+03 -0.38287250170E+02  0.26997128241E+02  0.44362681342E+03  0.12699999809E+01 0.  1.
</event>
<event>
 5   0  0.2315038E-04  0.1201192E+04  0.7818609E-02  0.9111813E-01
        1   -1    0    0  501    0  0.00000000000E+00  0.00000000000E+00  0.10986098674E+04  0.10986098674E+04  0.50400001928E-02 0.  1.
       -1   -1    0    0    0  501  0.00000000000E+00  0.00000000000E+00 -0.32833837585E+03  0.32833837589E+03  0.50400001928E-02 0. -1.
    10030    2    1    2    0    0  0.00000000000E+00  0.00000000000E+00  0.77027149153E+03  0.14269482433E+04  0.12011923736E+04 0.  0.
        1    1    3    3  502    0 -0.39334316242E+03 -0.55711458233E+02  0.92022886731E+03  0.10023191998E+04  0.50400001928E-02 0.  1.
       -1    1    3    3    0  502  0.39334316242E+03  0.55711458233E+02 -0.14995737579E+03  0.42462904349E+03  0.50400001928E-02 0. -1.
</event>
<event>
 5   0  0.2315038E-04  0.1200385E+04  0.7818609E-02  0.9112519E-01
       -1   -1    0    0    0  501  0.00000000000E+00  0.00000000000E+00  0.28822355683E+03  0.28822355687E+03  0.50400001928E-02 0.  1.
        1   -1    0    0  501    0  0.00000000000E+00  0.00000000000E+00 -0.12498323804E+04  0.12498323804E+04  0.50400001928E-02 0. -1.
    10030    2    1    2    0    0  0.00000000000E+00  0.00000000000E+00 -0.96160882359E+03  0.15380559373E+04  0.12003851618E+04 0.  0.
        1    1    3    3  502    0  0.46601987716E+03 -0.37778403621E+03 -0.50428513095E+03  0.78370836237E+03  0.50400001928E-02 0.  1.
       -1    1    3    3    0  502 -0.46601987716E+03  0.37778403621E+03 -0.45732369263E+03  0.75434757492E+03  0.50400001928E-02 0. -1.
</event>
<event>
 5   0  0.2315038E-04  0.1200775E+04  0.7818609E-02  0.9112178E-01
        1   -1    0    0  501    0  0.00000000000E+00  0.00000000000E+00  0.56127492143E+03  0.56127492146E+03  0.50400001928E-02 0.  1.
       -1   -1    0    0    0  501  0.00000000000E+00  0.00000000000E+00 -0.64222598459E+03  0.64222598461E+03  0.50400001928E-02 0. -1.
    10030    2    1    2    0    0  0.00000000000E+00  0.00000000000E+00 -0.80951063156E+02  0.12035009061E+04  0.12007753147E+04 0.  0.
        1    1    3    3  502    0  0.12199420321E+03  0.17353048801E+03 -0.60341752986E+03  0.63961561211E+03  0.50400001928E-02 0. -1.
       -1    1    3    3    0  502 -0.12199420321E+03 -0.17353048801E+03  0.52246646670E+03  0.56388529396E+03  0.50400001928E-02 0.  1.
</event>
<event>
 5   0  0.2244308E-04  0.1199228E+04  0.7818609E-02  0.9113533E-01
        1   -1    0    0  501    0  0.00000000000E+00  0.00000000000E+00  0.18231045250E+04  0.18231045250E+04  0.50400001928E-02 0.  1.
       -1   -1    0    0    0  501  0.00000000000E+00  0.00000000000E+00 -0.19721137525E+03  0.19721137531E+03  0.50400001928E-02 0. -1.
    10030    2    1    2    0    0  0.00000000000E+00  0.00000000000E+00  0.16258931497E+04  0.20203159003E+04  0.11992280028E+04 0.  0.
        5    1    3    3  502    0 -0.51831083470E+03  0.45046820668E+02  0.13150817329E+04  0.14142621368E+04  0.46999998093E+01 0.  1.
       -5    1    3    3    0  502  0.51831083470E+03 -0.45046820668E+02  0.31081141686E+03  0.60605376351E+03  0.46999998093E+01 0. -1.
</event>
<event>
 5   0  0.2244308E-04  0.1200029E+04  0.7818609E-02  0.9112831E-01
        1   -1    0    0  501    0  0.00000000000E+00  0.00000000000E+00  0.22576834650E+04  0.22576834651E+04  0.50400001928E-02 0.  1.
       -1   -1    0    0    0  501  0.00000000000E+00  0.00000000000E+00 -0.15946316859E+03  0.15946316866E+03  0.50400001928E-02 0. -1.
    10030    2    1    2    0    0  0.00000000000E+00  0.00000000000E+00  0.20982202965E+04  0.24171466337E+04  0.12000289315E+04 0.  0.
        5    1    3    3  502    0 -0.19779591791E+03  0.14677808091E+03  0.21511191091E+04  0.21651795633E+04  0.46999998093E+01 0.  1.
       -5    1    3    3    0  502  0.19779591791E+03 -0.14677808091E+03 -0.52898812596E+02  0.25196707037E+03  0.46999998093E+01 0. -1.
</event>
<event>
 5   0  0.2204090E-04  0.1193273E+04  0.7818609E-02  0.9118765E-01
        1   -1    0    0  501    0  0.00000000000E+00  0.00000000000E+00  0.72726233437E+03  0.72726233438E+03  0.50400001928E-02 0. -1.
       -1   -1    0    0    0  501  0.00000000000E+00  0.00000000000E+00 -0.48947273675E+03  0.48947273677E+03  0.50400001928E-02 0.  1.
    10030    2    1    2    0    0  0.00000000000E+00  0.00000000000E+00  0.23778959762E+03  0.12167350712E+04  0.11932729531E+04 0.  0.
        2    1    3    3  502    0 -0.29669892674E+03  0.89779275941E+02 -0.40091735529E+03  0.50677933788E+03  0.25500000920E-02 0.  1.
       -2    1    3    3    0  502  0.29669892674E+03 -0.89779275941E+02  0.63870695291E+03  0.70995573328E+03  0.25500000920E-02 0. -1.
</event>
<event>
 5   0  0.2204090E-04  0.1209969E+04  0.7818609E-02  0.9104175E-01
        1   -1    0    0  501    0  0.00000000000E+00  0.00000000000E+00  0.54978111970E+03  0.54978111973E+03  0.50400001928E-02 0.  1.
       -1   -1    0    0    0  501  0.00000000000E+00  0.00000000000E+00 -0.66573115796E+03  0.66573115798E+03  0.50400001928E-02 0. -1.
    10030    2    1    2    0    0  0.00000000000E+00  0.00000000000E+00 -0.11595003825E+03  0.12155122777E+04  0.12099692913E+04 0.  0.
        2    1    3    3  502    0  0.22174650289E+03 -0.27211536135E+03  0.43701761438E+03  0.56053784592E+03  0.25500000920E-02 0.  1.
       -2    1    3    3    0  502 -0.22174650289E+03  0.27211536135E+03 -0.55296765263E+03  0.65497443178E+03  0.25500000920E-02 0. -1.
</event>
<event>
 5   0  0.2204090E-04  0.1199191E+04  0.7818609E-02  0.9113565E-01
        1   -1    0    0  501    0  0.00000000000E+00  0.00000000000E+00  0.94059367809E+03  0.94059367810E+03  0.50400001928E-02 0. -1.
       -1   -1    0    0    0  501  0.00000000000E+00  0.00000000000E+00 -0.38222093236E+03  0.38222093239E+03  0.50400001928E-02 0.  1.
    10030    2    1    2    0    0  0.00000000000E+00  0.00000000000E+00  0.55837274573E+03  0.13228146105E+04  0.11991907148E+04 0.  0.
        2    1    3    3  502    0 -0.53271763622E+03 -0.27347193151E+03  0.24537321119E+03  0.64713444510E+03  0.25500000920E-02 0.  1.
       -2    1    3    3    0  502  0.53271763622E+03  0.27347193151E+03  0.31299953455E+03  0.67568016539E+03  0.25500000920E-02 0. -1.
</event>
<event>
 5   0  0.3993723E-04  0.1200067E+04  0.7818609E-02  0.9112798E-01
        2   -1    0    0  501    0  0.00000000000E+00  0.00000000000E+00  0.67802484689E+03  0.67802484689E+03  0.25500000920E-02 0. -1.
       -2   -1    0    0    0  501  0.00000000000E+00  0.00000000000E+00 -0.53101308486E+03  0.53101308486E+03  0.25500000920E-02 0.  1.
    10030    2    1    2    0    0  0.00000000000E+00  0.00000000000E+00  0.14701176203E+03  0.12090379318E+04  0.12000667741E+04 0.  0.
        3    1    3    3  502    0 -0.57108417945E+03 -0.14077177446E+03  0.19307851392E+03  0.61905828097E+03  0.10100000352E+00 0. -1.
       -3    1    3    3    0  502  0.57108417945E+03  0.14077177446E+03 -0.46066751887E+02  0.58997965078E+03  0.10100000352E+00 0.  1.
</event>
<event>
 5   0  0.2315038E-04  0.1199761E+04  0.7818609E-02  0.9113066E-01
        1   -1    0    0  501    0  0.00000000000E+00  0.00000000000E+00  0.66468888154E+03  0.66468888156E+03  0.50400001928E-02 0. -1.
       -1   -1    0    0    0  501  0.00000000000E+00  0.00000000000E+00 -0.54139061305E+03  0.54139061307E+03  0.50400001928E-02 0.  1.
    10030    2    1    2    0    0  0.00000000000E+00  0.00000000000E+00  0.12329826849E+03  0.12060794946E+04  0.11997605113E+04 0.  0.
        1    1    3    3  502    0 -0.16709989785E+02  0.65528221848E+02  0.66084481659E+03  0.66429590037E+03  0.50400001928E-02 0. -1.
       -1    1    3    3    0  502  0.16709989785E+02 -0.65528221848E+02 -0.53754654809E+03  0.54178359426E+03  0.50400001928E-02 0.  1.
</event>
<event>
 5   0  0.2244308E-04  0.1199679E+04  0.7818609E-02  0.9113138E-01
       -1   -1    0    0    0  501  0.00000000000E+00  0.00000000000E+00  0.78299131520E+03  0.78299131522E+03  0.50400001928E-02 0.  1.
        1   -1    0    0  501    0  0.00000000000E+00  0.00000000000E+00 -0.45952917826E+03  0.45952917829E+03  0.50400001928E-02 0. -1.
    10030    2    1    2    0    0  0.00000000000E+00  0.00000000000E+00  0.32346213694E+03  0.12425204935E+04  0.11996788832E+04 0.  0.
        5    1    3    3  502    0 -0.56647493354E+03  0.26053117598E+02  0.36419241770E+03  0.67396648461E+03  0.46999998093E+01 0. -1.
       -5    1    3    3    0  502  0.56647493354E+03 -0.26053117598E+02 -0.40730280763E+02  0.56855400890E+03  0.46999998093E+01 0.  1.
</event>
<event>
 5   0  0.3993723E-04  0.1201264E+04  0.7818609E-02  0.9111750E-01
       -2   -1    0    0    0  501  0.00000000000E+00  0.00000000000E+00  0.16687423582E+03  0.16687423584E+03  0.25500000920E-02 0. -1.
        2   -1    0    0  501    0  0.00000000000E+00  0.00000000000E+00 -0.21618620336E+04  0.21618620336E+04  0.25500000920E-02 0.  1.
    10030    2    1    2    0    0  0.00000000000E+00  0.00000000000E+00 -0.19949877978E+04  0.23287362694E+04  0.12012644585E+04 0.  0.
        3    1    3    3  502    0  0.53239215249E+03 -0.10718934235E+03 -0.14948727989E+04  0.15904639745E+04  0.10100000352E+00 0.  1.
       -3    1    3    3    0  502 -0.53239215249E+03  0.10718934235E+03 -0.50011499885E+03  0.73827229490E+03  0.10100000352E+00 0. -1.
</event>
<event>
 5   0  0.2304842E-04  0.1199346E+04  0.7818609E-02  0.9113429E-01
        1   -1    0    0  501    0  0.00000000000E+00  0.00000000000E+00  0.10163058391E+04  0.10163058391E+04  0.50400001928E-02 0. -1.
       -1   -1    0    0    0  501  0.00000000000E+00  0.00000000000E+00 -0.35383789382E+03  0.35383789386E+03  0.50400001928E-02 0.  1.
    10030    2    1    2    0    0  0.00000000000E+00  0.00000000000E+00  0.66246794528E+03  0.13701437330E+04  0.11993456843E+04 0.  0.
        4    1    3    3  502    0 -0.35961983805E+03  0.47310290069E+03  0.23946271247E+03  0.64070023109E+03  0.12699999809E+01 0. -1.
       -4    1    3    3    0  502  0.35961983805E+03 -0.47310290069E+03  0.42300523281E+03  0.72944350188E+03  0.12699999809E+01 0.  1.
</event>
<event>
 5   0  0.3832662E-04  0.1199093E+04  0.7818609E-02  0.9113651E-01
       -2   -1    0    0    0  501  0.00000000000E+00  0.00000000000E+00  0.64127675593E+03  0.64127675594E+03  0.25500000920E-02 0.  1.
        2   -1    0    0  501    0  0.00000000000E+00  0.00000000000E+00 -0.56053203800E+03  0.56053203801E+03  0.25500000920E-02 0. -1.
    10030    2    1    2    0    0  0.00000000000E+00  0.00000000000E+00  0.80744717929E+02  0.12018087939E+04  0.11990932690E+04 0.  0.
        4    1    3    3  502    0 -0.22239972140E+03  0.36606724046E+03 -0.38008655291E+03  0.57265544721E+03  0.12699999809E+01 0. -1.
       -4    1    3    3    0  502  0.22239972140E+03 -0.36606724046E+03  0.46083127084E+03  0.62915334673E+03  0.12699999809E+01 0.  1.
</event>
<event>
 5   0  0.4024486E-04  0.1200043E+04  0.7818609E-02  0.9112819E-01
       -2   -1    0    0    0  501  0.00000000000E+00  0.00000000000E+00  0.48653720140E+03  0.48653720141E+03  0.25500000920E-02 0. -1.
        2   -1    0    0  501    0  0.00000000000E+00  0.00000000000E+00 -0.73997530878E+03  0.73997530878E+03  0.25500000920E-02 0.  1.
    10030    2    1    2    0    0  0.00000000000E+00  0.00000000000E+00 -0.25343810738E+03  0.12265125102E+04  0.12000425257E+04 0.  0.
        1    1    3    3  502    0 -0.51079349702E+03  0.22969173810E+02 -0.44763199704E+03  0.67956749800E+03  0.50400001928E-02 0.  1.
       -1    1    3    3    0  502  0.51079349702E+03 -0.22969173810E+02  0.19419388967E+03  0.54694501218E+03  0.50400001928E-02 0. -1.
</event>
<event>
 5   0  0.2340731E-04  0.1201451E+04  0.7818609E-02  0.9111588E-01
        1   -1    0    0  501    0  0.00000000000E+00  0.00000000000E+00  0.66042046938E+03  0.66042046939E+03  0.50400001928E-02 0. -1.
       -1   -1    0    0    0  501  0.00000000000E+00  0.00000000000E+00 -0.54642620660E+03  0.54642620662E+03  0.50400001928E-02 0.  1.
    10030    2    1    2    0    0  0.00000000000E+00  0.00000000000E+00  0.11399426277E+03  0.12068466760E+04  0.12014508760E+04 0.  0.
        3    1    3    3  502    0  0.35971077082E+03  0.34201383918E+03  0.39690381408E+03  0.63552966309E+03  0.10100000352E+00 0. -1.
       -3    1    3    3    0  502 -0.35971077082E+03 -0.34201383918E+03 -0.28290955131E+03  0.57131701293E+03  0.10100000352E+00 0.  1.
</event>
<event>
 5   0  0.3993723E-04  0.1200986E+04  0.7818609E-02  0.9111994E-01
        2   -1    0    0  501    0  0.00000000000E+00  0.00000000000E+00  0.13961410261E+04  0.13961410261E+04  0.25500000920E-02 0. -1.
       -2   -1    0    0    0  501  0.00000000000E+00  0.00000000000E+00 -0.25827751524E+03  0.25827751525E+03  0.25500000920E-02 0.  1.
    10030    2    1    2    0    0  0.00000000000E+00  0.00000000000E+00  0.11378635108E+04  0.16544185413E+04  0.12009859869E+04 0.  0.
        3    1    3    3  502    0 -0.64728736933E+02  0.36539534399E+03  0.12192875944E+04  0.12745061062E+04  0.10100000352E+00 0. -1.
       -3    1    3    3    0  502  0.64728736933E+02 -0.36539534399E+03 -0.81424083513E+02  0.37991243514E+03  0.10100000352E+00 0.  1.
</event>
<event>
 5   0  0.2304842E-04  0.1196207E+04  0.7818609E-02  0.9116183E-01
        1   -1    0    0  501    0  0.00000000000E+00  0.00000000000E+00  0.13425229739E+04  0.13425229740E+04  0.50400001928E-02 0.  1.
       -1   -1    0    0    0  501  0.00000000000E+00  0.00000000000E+00 -0.26645919073E+03  0.26645919078E+03  0.50400001928E-02 0. -1.
    10030    2    1    2    0    0  0.00000000000E+00  0.00000000000E+00  0.10760637832E+04  0.16089821647E+04  0.11962066464E+04 0.  0.
        4    1    3    3  502    0 -0.29665041725E+03 -0.11152729638E+03 -0.14423333238E+03  0.34820206054E+03  0.12699999809E+01 0. -1.
       -4    1    3    3    0  502  0.29665041725E+03  0.11152729638E+03  0.12202971156E+04  0.12607801042E+04  0.12699999809E+01 0.  1.
</event>
<event>
 5   0  0.3883890E-04  0.1202170E+04  0.7818609E-02  0.9110959E-01
        2   -1    0    0  501    0  0.00000000000E+00  0.00000000000E+00  0.11832193944E+04  0.11832193944E+04  0.25500000920E-02 0.  1.
       -2   -1    0    0    0  501  0.00000000000E+00  0.00000000000E+00 -0.30535626356E+03  0.30535626357E+03  0.25500000920E-02 0. -1.
    10030    2    1    2    0    0  0.00000000000E+00  0.00000000000E+00  0.87786313087E+03  0.14885756580E+04  0.12021704592E+04 0.  0.
        2    1    3    3  502    0  0.97612757732E+02  0.58470794853E+03  0.56208397489E+03  0.81691494684E+03  0.25500000920E-02 0.  1.
       -2    1    3    3    0  502 -0.97612757732E+02 -0.58470794853E+03  0.31577915598E+03  0.67166071115E+03  0.25500000920E-02 0. -1.
</event>
<event>
 5   0  0.2304842E-04  0.1199361E+04  0.7818609E-02  0.9113416E-01
        1   -1    0    0  501    0  0.00000000000E+00  0.00000000000E+00  0.20976206029E+04  0.20976206029E+04  0.50400001928E-02 0. -1.
       -1   -1    0    0    0  501  0.00000000000E+00  0.00000000000E+00 -0.17144016803E+03  0.17144016810E+03  0.50400001928E-02 0.  1.
    10030    2    1    2    0    0  0.00000000000E+00  0.00000000000E+00  0.19261804349E+04  0.22690607710E+04  0.11993605441E+04 0.  0.
        4    1    3    3  502    0 -0.23835176446E+03  0.18175343355E+03  0.19457254775E+04  0.19686785215E+04  0.12699999809E+01 0. -1.
       -4    1    3    3    0  502  0.23835176446E+03 -0.18175343355E+03 -0.19545042646E+02  0.30038224951E+03  0.12699999809E+01 0.  1.
</event>
<event>
 5   0  0.2304842E-04  0.1186015E+04  0.7818609E-02  0.9125186E-01
        1   -1    0    0  501    0  0.00000000000E+00  0.00000000000E+00  0.62136633768E+03  0.62136633770E+03  0.50400001928E-02 0.  1.
       -1   -1    0    0    0  501  0.00000000000E+00  0.00000000000E+00 -0.56594294168E+03  0.56594294170E+03  0.50400001928E-02 0. -1.
    10030    2    1    2    0    0  0.00000000000E+00  0.00000000000E+00  0.55423396002E+02  0.11873092794E+04  0.11860149966E+04 0.  0.
        4    1    3    3  502    0  0.10322589700E+03  0.22813785503E+03 -0.51041916030E+03  0.56853478241E+03  0.12699999809E+01 0. -1.
       -4    1    3    3    0  502 -0.10322589700E+03 -0.22813785503E+03  0.56584255630E+03  0.61877449699E+03  0.12699999809E+01 0.  1.
</event>
<event>
 5   0  0.2204090E-04  0.1188149E+04  0.7818609E-02  0.9123294E-01
       -1   -1    0    0    0  501  0.00000000000E+00  0.00000000000E+00  0.60601896609E+03  0.60601896611E+03  0.50400001928E-02 0. -1.
        1   -1    0    0  501    0  0.00000000000E+00  0.00000000000E+00 -0.58236524689E+03  0.58236524691E+03  0.50400001928E-02 0.  1.
    10030    2    1    2    0    0  0.00000000000E+00  0.00000000000E+00  0.23653719203E+02  0.11883842130E+04  0.11881487867E+04 0.  0.
        2    1    3    3  502    0 -0.43110869446E+03  0.31398113667E+03  0.27357610427E+03  0.59940198987E+03  0.25500000920E-02 0. -1.
       -2    1    3    3    0  502  0.43110869446E+03 -0.31398113667E+03 -0.24992238507E+03  0.58898222315E+03  0.25500000920E-02 0.  1.
</event>
<event>
 5   0  0.3883890E-04  0.1203689E+04  0.7818609E-02  0.9109634E-01
       -2   -1    0    0    0  501  0.00000000000E+00  0.00000000000E+00  0.38174912455E+03  0.38174912456E+03  0.25500000920E-02 0.  1.
        2   -1    0    0  501    0  0.00000000000E+00  0.00000000000E+00 -0.94883410871E+03  0.94883410871E+03  0.25500000920E-02 0. -1.
    10030    2    1    2    0    0  0.00000000000E+00  0.00000000000E+00 -0.56708498416E+03  0.13305832333E+04  0.12036886480E+04 0.  0.
        2    1    3    3  502    0 -0.43689821768E+03  0.82255526977E+02 -0.73198209906E+03  0.85641334511E+03  0.25500000920E-02 0. -1.
       -2    1    3    3    0  502  0.43689821768E+03 -0.82255526977E+02  0.16489711490E+03  0.47416988816E+03  0.25500000920E-02 0.  1.
</event>
<event>
 5   0  0.4024486E-04  0.1199544E+04  0.7818609E-02  0.9113256E-01
        2   -1    0    0  501    0  0.00000000000E+00  0.00000000000E+00  0.13742594022E+04  0.13742594022E+04  0.25500000920E-02 0. -1.
       -2   -1    0    0    0  501  0.00000000000E+00  0.00000000000E+00 -0.26176008368E+03  0.26176008369E+03  0.25500000920E-02 0.  1.
    10030    2    1    2    0    0  0.00000000000E+00  0.00000000000E+00  0.11124993185E+04  0.16360194859E+04  0.11995436734E+04 0.  0.
        1    1    3    3  502    0  0.47839754394E+03  0.29366613527E+03  0.84435288816E+03  0.10139210072E+04  0.50400001928E-02 0.  1.
       -1    1    3    3    0  502 -0.47839754394E+03 -0.29366613527E+03  0.26814643034E+03  0.62209847868E+03  0.50400001928E-02 0. -1.
</event>
<event>
 5   0  0.4122956E-04  0.1197721E+04  0.7818609E-02  0.9114854E-01
       -2   -1    0    0    0  501  0.00000000000E+00  0.00000000000E+00  0.62724689988E+03  0.62724689988E+03  0.25500000920E-02 0.  1.
        2   -1    0    0  501    0  0.00000000000E+00  0.00000000000E+00 -0.57175871702E+03  0.57175871703E+03  0.25500000920E-02 0. -1.
    10030    2    1    2    0    0  0.00000000000E+00  0.00000000000E+00  0.55488182856E+02  0.11990056169E+04  0.11977209737E+04 0.  0.
        5    1    3    3  502    0 -0.20874331792E+03  0.34188488283E+02  0.58858526635E+03  0.62545769743E+03  0.46999998093E+01 0.  1.
       -5    1    3    3    0  502  0.20874331792E+03 -0.34188488283E+02 -0.53309708350E+03  0.57354791948E+03  0.46999998093E+01 0. -1.
</event>
<event>
 5   0  0.4024486E-04  0.1200218E+04  0.7818609E-02  0.9112666E-01
        2   -1    0    0  501    0  0.00000000000E+00  0.00000000000E+00  0.11297143149E+04  0.11297143149E+04  0.25500000920E-02 0. -1.
       -2   -1    0    0    0  501  0.00000000000E+00  0.00000000000E+00 -0.31878052021E+03  0.31878052022E+03  0.25500000920E-02 0.  1.
    10030    2    1    2    0    0  0.00000000000E+00  0.00000000000E+00  0.81093379472E+03  0.14484948352E+04  0.12002181752E+04 0.  0.
        1    1    3    3  502    0 -0.37635927715E+03  0.16995401244E+03  0.93097110675E+03  0.10184487584E+04  0.50400001928E-02 0. -1.
       -1    1    3    3    0  502  0.37635927715E+03 -0.16995401244E+03 -0.12003731203E+03  0.43004607677E+03  0.50400001928E-02 0.  1.
</event>
<event>
 5   0  0.2315038E-04  0.1198065E+04  0.7818609E-02  0.9114552E-01
       -1   -1    0    0    0  501  0.00000000000E+00  0.00000000000E+00  0.57315481680E+03  0.57315481682E+03  0.50400001928E-02 0.  1.
        1   -1    0    0  501    0  0.00000000000E+00  0.00000000000E+00 -0.62607833708E+03  0.62607833710E+03  0.50400001928E-02 0. -1.
    10030    2    1    2    0    0  0.00000000000E+00  0.00000000000E+00 -0.52923520283E+02  0.11992331539E+04  0.11980647973E+04 0.  0.
        1    1    3    3  502    0 -0.52036618341E+03  0.11052007488E+03 -0.30212851889E+03  0.61178206392E+03  0.50400001928E-02 0. -1.
       -1    1    3    3    0  502  0.52036618341E+03 -0.11052007488E+03  0.24920499861E+03  0.58745109000E+03  0.50400001928E-02 0.  1.
</event>
<event>
 5   0  0.4122956E-04  0.1200782E+04  0.7818609E-02  0.9112173E-01
        2   -1    0    0  501    0  0.00000000000E+00  0.00000000000E+00  0.13659057805E+04  0.13659057805E+04  0.25500000920E-02 0. -1.
       -2   -1    0    0    0  501  0.00000000000E+00  0.00000000000E+00 -0.26390485082E+03  0.26390485083E+03  0.25500000920E-02 0.  1.
    10030    2    1    2    0    0  0.00000000000E+00  0.00000000000E+00  0.11020009297E+04  0.16298106313E+04  0.12007816808E+04 0.  0.
        5    1    3    3  502    0  0.46132095840E+03  0.38365339781E+03  0.52252596244E+03  0.79565220274E+03  0.46999998093E+01 0.  1.
       -5    1    3    3    0  502 -0.46132095840E+03 -0.38365339781E+03  0.57947496723E+03  0.83415842857E+03  0.46999998093E+01 0. -1.
</event>
<event>
 5   0  0.1541375E-04  0.1199516E+04  0.7818609E-02  0.9113280E-01
        3   -1    0    0  501    0  0.00000000000E+00  0.00000000000E+00  0.28629504249E+03  0.28629506030E+03  0.10100000352E+00 0. -1.
       -3   -1    0    0    0  501  0.00000000000E+00  0.00000000000E+00 -0.12564305220E+04  0.12564305261E+04  0.10100000352E+00 0.  1.
    10030    2    1    2    0    0  0.00000000000E+00  0.00000000000E+00 -0.97013547954E+03  0.15427255864E+04  0.11995163135E+04 0.  0.
        2    1    3    3  502    0 -0.49375944367E+03  0.21762942670E+03 -0.14833701886E+03  0.55961131757E+03  0.25500000920E-02 0. -1.
       -2    1    3    3    0  502  0.49375944367E+03 -0.21762942670E+03 -0.82179846067E+03  0.98311426882E+03  0.25500000920E-02 0.  1.
</event>
<event>
 5   0  0.3832662E-04  0.1198835E+04  0.7818609E-02  0.9113877E-01
       -2   -1    0    0    0  501  0.00000000000E+00  0.00000000000E+00  0.33828317985E+03  0.33828317986E+03  0.25500000920E-02 0.  1.
        2   -1    0    0  501    0  0.00000000000E+00  0.00000000000E+00 -0.10621318173E+04  0.10621318173E+04  0.25500000920E-02 0. -1.
    10030    2    1    2    0    0  0.00000000000E+00  0.00000000000E+00 -0.72384863742E+03  0.14004149971E+04  0.11988349821E+04 0.  0.
        4    1    3    3  502    0 -0.47556090071E+03  0.22594574448E+02 -0.78734629223E+03  0.92010025642E+03  0.12699999809E+01 0. -1.
       -4    1    3    3    0  502  0.47556090071E+03 -0.22594574448E+02  0.63497654813E+02  0.48031474071E+03  0.12699999809E+01 0.  1.
</event>
<event>
 5   0  0.3832662E-04  0.1200415E+04  0.7818609E-02  0.9112493E-01
        2   -1    0    0  501    0  0.00000000000E+00  0.00000000000E+00  0.16363419941E+04  0.16363419941E+04  0.25500000920E-02 0.  1.
       -2   -1    0    0    0  501  0.00000000000E+00  0.00000000000E+00 -0.22015521386E+03  0.22015521388E+03  0.25500000920E-02 0. -1.
    10030    2    1    2    0    0  0.00000000000E+00  0.00000000000E+00  0.14161867803E+04  0.18564972080E+04  0.12004152976E+04 0.  0.
        4    1    3    3  502    0 -0.50685365565E+03  0.39100790455E+02  0.21460687244E+03  0.55180360878E+03  0.12699999809E+01 0.  1.
       -4    1    3    3    0  502  0.50685365565E+03 -0.39100790455E+02  0.12015799078E+04  0.13046935992E+04  0.12699999809E+01 0. -1.
</event>
<event>
 5   0  0.1541375E-04  0.1199283E+04  0.7818609E-02  0.9113484E-01
        4   -1    0    0  501    0  0.00000000000E+00  0.00000000000E+00  0.33149520549E+03  0.33149763825E+03  0.12699999809E+01 0.  1.
       -4   -1    0    0    0  501  0.00000000000E+00  0.00000000000E+00 -0.10846850277E+04  0.10846857712E+04  0.12699999809E+01 0. -1.
    10030    2    1    2    0    0  0.00000000000E+00  0.00000000000E+00 -0.75318982225E+03  0.14161834095E+04  0.11992833447E+04 0.  0.
        5    1    3    3  502    0 -0.13637864623E+03  0.56486637803E+03 -0.55124571535E+03  0.80097883172E+03  0.46999998093E+01 0. -1.
       -5    1    3    3    0  502  0.13637864623E+03 -0.56486637803E+03 -0.20194410690E+03  0.61520457776E+03  0.46999998093E+01 0.  1.
</event>
<event>
 5   0  0.2315038E-04  0.1199534E+04  0.7818609E-02  0.9113265E-01
       -1   -1    0    0    0  501  0.00000000000E+00  0.00000000000E+00  0.74050401841E+03  0.74050401843E+03  0.50400001928E-02 0.  1.
        1   -1    0    0  501    0  0.00000000000E+00  0.00000000000E+00 -0.48577772425E+03  0.48577772427E+03  0.50400001928E-02 0. -1.
    10030    2    1    2    0    0  0.00000000000E+00  0.00000000000E+00  0.25472629417E+03  0.12262817427E+04  0.11995338376E+04 0.  0.
        1    1    3    3  502    0  0.38071990177E+03  0.40738291470E+03 -0.98497464598E+02  0.56622454323E+03  0.50400001928E-02 0. -1.
       -1    1    3    3    0  502 -0.38071990177E+03 -0.40738291470E+03  0.35322375877E+03  0.66005719948E+03  0.50400001928E-02 0.  1.
</event>
<event>
 5   0  0.2244308E-04  0.1197547E+04  0.7818609E-02  0.9115006E-01
        1   -1    0    0  501    0  0.00000000000E+00  0.00000000000E+00  0.17901275094E+04  0.17901275094E+04  0.50400001928E-02 0. -1.
       -1   -1    0    0    0  501  0.00000000000E+00  0.00000000000E+00 -0.20028165268E+03  0.20028165275E+03  0.50400001928E-02 0.  1.
    10030    2    1    2    0    0  0.00000000000E+00  0.00000000000E+00  0.15898458567E+04  0.19904091621E+04  0.11975469864E+04 0.  0.
        5    1    3    3  502    0 -0.44790178823E+03  0.33061210012E+03  0.42856053642E+03  0.70257141702E+03  0.46999998093E+01 0.  1.
       -5    1    3    3    0  502  0.44790178823E+03 -0.33061210012E+03  0.11612853203E+04  0.12878377451E+04  0.46999998093E+01 0. -1.
</event>
<event>
 5   0  0.3832662E-04  0.1201299E+04  0.7818609E-02  0.9111721E-01
        2   -1    0    0  501    0  0.00000000000E+00  0.00000000000E+00  0.53784639904E+03  0.53784639905E+03  0.25500000920E-02 0. -1.
       -2   -1    0    0    0  501  0.00000000000E+00  0.00000000000E+00 -0.67078569066E+03  0.67078569067E+03  0.25500000920E-02 0.  1.
    10030    2    1    2    0    0  0.00000000000E+00  0.00000000000E+00 -0.13293929162E+03  0.12086320897E+04  0.12012987443E+04 0.  0.
        4    1    3    3  502    0  0.53717551752E+02 -0.57853460094E+03  0.86743243510E+02  0.58746392489E+03  0.12699999809E+01 0. -1.
       -4    1    3    3    0  502 -0.53717551752E+02  0.57853460094E+03 -0.21968253513E+03  0.62116816483E+03  0.12699999809E+01 0.  1.
</event>
<event>
 5   0  0.4122956E-04  0.1200721E+04  0.7818609E-02  0.9112226E-01
        2   -1    0    0  501    0  0.00000000000E+00  0.00000000000E+00  0.67294106804E+03  0.67294106804E+03  0.25500000920E-02 0.  1.
       -2   -1    0    0    0  501  0.00000000000E+00  0.00000000000E+00 -0.53560795540E+03  0.53560795540E+03  0.25500000920E-02 0. -1.
    10030    2    1    2    0    0  0.00000000000E+00  0.00000000000E+00  0.13733311264E+03  0.12085490234E+04  0.12007207661E+04 0.  0.
        5    1    3    3  502    0  0.43907034075E+03 -0.35016856409E+03 -0.14487154057E+03  0.58000917292E+03  0.46999998093E+01 0. -1.
       -5    1    3    3    0  502 -0.43907034075E+03  0.35016856409E+03  0.28220465321E+03  0.62853985052E+03  0.46999998093E+01 0.  1.
</event>
<event>
 5   0  0.4024486E-04  0.1208994E+04  0.7818609E-02  0.9105021E-01
       -2   -1    0    0    0  501  0.00000000000E+00  0.00000000000E+00  0.30089786986E+03  0.30089786987E+03  0.25500000920E-02 0. -1.
        2   -1    0    0  501    0  0.00000000000E+00  0.00000000000E+00 -0.12144200586E+04  0.12144200586E+04  0.25500000920E-02 0.  1.
    10030    2    1    2    0    0  0.00000000000E+00  0.00000000000E+00 -0.91352218874E+03  0.15153179285E+04  0.12089936456E+04 0.  0.
        1    1    3    3  502    0  0.24207597333E+03  0.35689070394E+03  0.74178372735E+02  0.43757763018E+03  0.50400001928E-02 0. -1.
       -1    1    3    3    0  502 -0.24207597333E+03 -0.35689070394E+03 -0.98770056148E+03  0.10777402983E+04  0.50400001928E-02 0.  1.
</event>
<event>
 5   0  0.4024486E-04  0.1196802E+04  0.7818609E-02  0.9115661E-01
       -2   -1    0    0    0  501  0.00000000000E+00  0.00000000000E+00  0.69305001409E+03  0.69305001410E+03  0.25500000920E-02 0.  1.
        2   -1    0    0  501    0  0.00000000000E+00  0.00000000000E+00 -0.51667781294E+03  0.51667781295E+03  0.25500000920E-02 0. -1.
    10030    2    1    2    0    0  0.00000000000E+00  0.00000000000E+00  0.17637220115E+03  0.12097278270E+04  0.11968016804E+04 0.  0.
        1    1    3    3  502    0  0.25956821852E+03  0.31513035351E+03 -0.35403281566E+03  0.54039063126E+03  0.50400001928E-02 0. -1.
       -1    1    3    3    0  502 -0.25956821852E+03 -0.31513035351E+03  0.53040501681E+03  0.66933719578E+03  0.50400001928E-02 0.  1.
</event>
<event>
 5   0  0.2244308E-04  0.1200682E+04  0.7818609E-02  0.9112260E-01
        1   -1    0    0  501    0  0.00000000000E+00  0.00000000000E+00  0.62522046368E+03  0.62522046370E+03  0.50400001928E-02 0. -1.
       -1   -1    0    0    0  501  0.00000000000E+00  0.00000000000E+00 -0.57645171801E+03  0.57645171803E+03  0.50400001928E-02 0.  1.
    10030    2    1    2    0    0  0.00000000000E+00  0.00000000000E+00  0.48768745673E+02  0.12016721817E+04  0.12006821569E+04 0.  0.
        5    1    3    3  502    0  0.44790031995E+03  0.96748406622E+02  0.41253449528E+03  0.61658880187E+03  0.46999998093E+01 0. -1.
       -5    1    3    3    0  502 -0.44790031995E+03 -0.96748406622E+02 -0.36376574961E+03  0.58508337986E+03  0.46999998093E+01 0.  1.
</event>
<event>
 5   0  0.2244308E-04  0.1200328E+04  0.7818609E-02  0.9112570E-01
        1   -1    0    0  501    0  0.00000000000E+00  0.00000000000E+00  0.20210628970E+04  0.20210628970E+04  0.50400001928E-02 0. -1.
       -1   -1    0    0    0  501  0.00000000000E+00  0.00000000000E+00 -0.17822136172E+03  0.17822136179E+03  0.50400001928E-02 0.  1.
    10030    2    1    2    0    0  0.00000000000E+00  0.00000000000E+00  0.18428415353E+04  0.21992842588E+04  0.12003275915E+04 0.  0.
        5    1    3    3  502    0  0.50997397766E+03 -0.20113292264E+03  0.47394002023E+03  0.72468554783E+03  0.46999998093E+01 0.  1.
       -5    1    3    3    0  502 -0.50997397766E+03  0.20113292264E+03  0.13689015151E+04  0.14745987110E+04  0.46999998093E+01 0. -1.
</event>
<event>
 5   0  0.3832662E-04  0.1179226E+04  0.7818609E-02  0.9131237E-01
       -2   -1    0    0    0  501  0.00000000000E+00  0.00000000000E+00  0.36167225940E+03  0.36167225940E+03  0.25500000920E-02 0.  1.
        2   -1    0    0  501    0  0.00000000000E+00  0.00000000000E+00 -0.96121151855E+03  0.96121151855E+03  0.25500000920E-02 0. -1.
    10030    2    1    2    0    0  0.00000000000E+00  0.00000000000E+00 -0.59953925916E+03  0.13228837780E+04  0.11792260880E+04 0.  0.
        4    1    3    3  502    0 -0.17090591628E+03 -0.53995195175E+03 -0.11582821476E+03  0.57807848140E+03  0.12699999809E+01 0. -1.
       -4    1    3    3    0  502  0.17090591628E+03  0.53995195175E+03 -0.48371104439E+03  0.74480529656E+03  0.12699999809E+01 0.  1.
</event>
<event>
 5   0  0.2304842E-04  0.1201995E+04  0.7818609E-02  0.9111112E-01
        1   -1    0    0  501    0  0.00000000000E+00  0.00000000000E+00  0.54939408727E+03  0.54939408730E+03  0.50400001928E-02 0.  1.
       -1   -1    0    0    0  501  0.00000000000E+00  0.00000000000E+00 -0.65744751350E+03  0.65744751352E+03  0.50400001928E-02 0. -1.
    10030    2    1    2    0    0  0.00000000000E+00  0.00000000000E+00 -0.10805342623E+03  0.12068416008E+04  0.12019946367E+04 0.  0.
        4    1    3    3  502    0  0.29182935496E+03  0.13999738354E+03 -0.56246037462E+03  0.64894292949E+03  0.12699999809E+01 0. -1.
       -4    1    3    3    0  502 -0.29182935496E+03 -0.13999738354E+03  0.45440694839E+03  0.55789867133E+03  0.12699999809E+01 0.  1.
</event>
<event>
 5   0  0.3832662E-04  0.1193161E+04  0.7818609E-02  0.9118864E-01
        2   -1    0    0  501    0  0.00000000000E+00  0.00000000000E+00  0.94802527263E+03  0.94802527263E+03  0.25500000920E-02 0. -1.
       -2   -1    0    0    0  501  0.00000000000E+00  0.00000000000E+00 -0.37542047458E+03  0.37542047459E+03  0.25500000920E-02 0.  1.
    10030    2    1    2    0    0  0.00000000000E+00  0.00000000000E+00  0.57260479805E+03  0.13234457472E+04  0.11931606728E+04 0.  0.
        4    1    3    3  502    0  0.22029263106E+03 -0.39827356579E+02  0.89966863054E+03  0.92710318698E+03  0.12699999809E+01 0. -1.
       -4    1    3    3    0  502 -0.22029263106E+03  0.39827356579E+02 -0.32706383249E+03  0.39634256024E+03  0.12699999809E+01 0.  1.
</event>
<event>
 5   0  0.2340731E-04  0.1192541E+04  0.7818609E-02  0.9119411E-01
       -1   -1    0    0    0  501  0.00000000000E+00  0.00000000000E+00  0.13068661156E+04  0.13068661156E+04  0.50400001928E-02 0. -1.
        1   -1    0    0  501    0  0.00000000000E+00  0.00000000000E+00 -0.27205425395E+03  0.27205425400E+03  0.50400001928E-02 0.  1.
    10030    2    1    2    0    0  0.00000000000E+00  0.00000000000E+00  0.10348118617E+04  0.15789203696E+04  0.11925409614E+04 0.  0.
        3    1    3    3  502    0 -0.38428729628E+03  0.41124145286E+03  0.25680308204E+03  0.61866314887E+03  0.10100000352E+00 0.  1.
       -3    1    3    3    0  502  0.38428729628E+03 -0.41124145286E+03  0.77800877963E+03  0.96025722076E+03  0.10100000352E+00 0. -1.
</event>
<event>
 5   0  0.2304842E-04  0.1200312E+04  0.7818609E-02  0.9112583E-01
        1   -1    0    0  501    0  0.00000000000E+00  0.00000000000E+00  0.77351895650E+03  0.77351895651E+03  0.50400001928E-02 0.  1.
       -1   -1    0    0    0  501  0.00000000000E+00  0.00000000000E+00 -0.46564762757E+03  0.46564762760E+03  0.50400001928E-02 0. -1.
    10030    2    1    2    0    0  0.00000000000E+00  0.00000000000E+00  0.30787132893E+03  0.12391665841E+04  0.12003120711E+04 0.  0.
        4    1    3    3  502    0 -0.29274805294E+03 -0.43932063324E+03 -0.14075428766E+03  0.54636748044E+03  0.12699999809E+01 0. -1.
       -4    1    3    3    0  502  0.29274805294E+03  0.43932063324E+03  0.44862561659E+03  0.69279910367E+03  0.12699999809E+01 0.  1.
</event>
<event>
 5   0  0.2204090E-04  0.1199535E+04  0.7818609E-02  0.9113264E-01
        1   -1    0    0  501    0  0.00000000000E+00  0.00000000000E+00  0.50808811694E+03  0.50808811697E+03  0.50400001928E-02 0.  1.
       -1   -1    0    0    0  501  0.00000000000E+00  0.00000000000E+00 -0.70798919550E+03  0.70798919552E+03  0.50400001928E-02 0. -1.
    10030    2    1    2    0    0  0.00000000000E+00  0.00000000000E+00 -0.19990107856E+03  0.12160773125E+04  0.11995347384E+04 0.  0.
        2    1    3    3  502    0 -0.14966191606E+03 -0.84304192524E+02 -0.68251872311E+03  0.70380231131E+03  0.25500000920E-02 0. -1.
       -2    1    3    3    0  502  0.14966191606E+03  0.84304192524E+02  0.48261764455E+03  0.51227500118E+03  0.25500000920E-02 0.  1.
</event>
<event>
 5   0  0.4024486E-04  0.1200065E+04  0.7818609E-02  0.9112800E-01
        2   -1    0    0  501    0  0.00000000000E+00  0.00000000000E+00  0.18511438174E+04  0.18511438174E+04  0.25500000920E-02 0. -1.
       -2   -1    0    0    0  501  0.00000000000E+00  0.00000000000E+00 -0.19449535259E+03  0.19449535261E+03  0.25500000920E-02 0.  1.
    10030    2    1    2    0    0  0.00000000000E+00  0.00000000000E+00  0.16566484648E+04  0.20456391700E+04  0.12000647807E+04 0.  0.
        1    1    3    3  502    0  0.12962882844E+03  0.32568975037E+03 -0.18062552874E+01  0.35054344843E+03  0.50400001928E-02 0.  1.
       -1    1    3    3    0  502 -0.12962882844E+03 -0.32568975037E+03  0.16584547201E+04  0.16950957216E+04  0.50400001928E-02 0. -1.
</event>
<event>
 5   0  0.2315038E-04  0.1199034E+04  0.7818609E-02  0.9113703E-01
        1   -1    0    0  501    0  0.00000000000E+00  0.00000000000E+00  0.23494362724E+03  0.23494362730E+03  0.50400001928E-02 0.  1.
       -1   -1    0    0    0  501  0.00000000000E+00  0.00000000000E+00 -0.15298160964E+04  0.15298160964E+04  0.50400001928E-02 0. -1.
    10030    2    1    2    0    0  0.00000000000E+00  0.00000000000E+00 -0.12948724692E+04  0.17647597237E+04  0.11990338490E+04 0.  0.
        1    1    3    3  502    0  0.56259408209E+03 -0.20682455058E+03 -0.66434913553E+03  0.89478951147E+03  0.50400001928E-02 0. -1.
       -1    1    3    3    0  502 -0.56259408209E+03  0.20682455058E+03 -0.63052333366E+03  0.86997021227E+03  0.50400001928E-02 0.  1.
</event>
<event>
 5   0  0.4024486E-04  0.1200049E+04  0.7818609E-02  0.9112813E-01
        2   -1    0    0  501    0  0.00000000000E+00  0.00000000000E+00  0.12450468634E+04  0.12450468634E+04  0.25500000920E-02 0. -1.
       -2   -1    0    0    0  501  0.00000000000E+00  0.00000000000E+00 -0.28916956410E+03  0.28916956411E+03  0.25500000920E-02 0.  1.
    10030    2    1    2    0    0  0.00000000000E+00  0.00000000000E+00  0.95587729928E+03  0.15342164275E+04  0.12000494303E+04 0.  0.
        1    1    3    3  502    0  0.17840696797E+02  0.48372078779E+03  0.93125282121E+03  0.10495408082E+04  0.50400001928E-02 0. -1.
       -1    1    3    3    0  502 -0.17840696797E+02 -0.48372078779E+03  0.24624478068E+02  0.48467561930E+03  0.50400001928E-02 0.  1.
</event>
<event>
 5   0  0.3883890E-04  0.1199183E+04  0.7818609E-02  0.9113572E-01
        2   -1    0    0  501    0  0.00000000000E+00  0.00000000000E+00  0.97609367113E+03  0.97609367114E+03  0.25500000920E-02 0. -1.
       -2   -1    0    0    0  501  0.00000000000E+00  0.00000000000E+00 -0.36831497200E+03  0.36831497201E+03  0.25500000920E-02 0.  1.
    10030    2    1    2    0    0  0.00000000000E+00  0.00000000000E+00  0.60777869913E+03  0.13444086431E+04  0.11991829104E+04 0.  0.
        2    1    3    3  502    0  0.14235704443E+03  0.14373203941E+03 -0.32889955899E+03  0.38613384618E+03  0.25500000920E-02 0.  1.
       -2    1    3    3    0  502 -0.14235704443E+03 -0.14373203941E+03  0.93667825813E+03  0.95827479697E+03  0.25500000920E-02 0. -1.
</event>
<event>
 5   0  0.3832662E-04  0.1200697E+04  0.7818609E-02  0.9112247E-01
        2   -1    0    0  501    0  0.00000000000E+00  0.00000000000E+00  0.10190067114E+04  0.10190067114E+04  0.25500000920E-02 0. -1.
       -2   -1    0    0    0  501  0.00000000000E+00  0.00000000000E+00 -0.35369570904E+03  0.35369570905E+03  0.25500000920E-02 0.  1.
    10030    2    1    2    0    0  0.00000000000E+00  0.00000000000E+00  0.66531100238E+03  0.13727024205E+04  0.12006969665E+04 0.  0.
        4    1    3    3  502    0  0.38548894068E+03 -0.21703064797E+03 -0.13133221207E+03  0.46146916297E+03  0.12699999809E+01 0.  1.
       -4    1    3    3    0  502 -0.38548894068E+03  0.21703064797E+03  0.79664321445E+03  0.91123325750E+03  0.12699999809E+01 0. -1.
</event>
<event>
 5   0  0.2204090E-04  0.1201044E+04  0.7818609E-02  0.9111943E-01
        1   -1    0    0  501    0  0.00000000000E+00  0.00000000000E+00  0.19415200868E+03  0.19415200875E+03  0.50400001928E-02 0.  1.
       -1   -1    0    0    0  501  0.00000000000E+00  0.00000000000E+00 -0.18574443683E+04  0.18574443683E+04  0.50400001928E-02 0. -1.
    10030    2    1    2    0    0  0.00000000000E+00  0.00000000000E+00 -0.16632923596E+04  0.20515963770E+04  0.12010438047E+04 0.  0.
        2    1    3    3  502    0  0.42834207775E+03 -0.11413516878E+03 -0.15236643730E+04  0.15868386477E+04  0.25500000920E-02 0.  1.
       -2    1    3    3    0  502 -0.42834207775E+03  0.11413516878E+03 -0.13962798662E+03  0.46475772934E+03  0.25500000920E-02 0. -1.
</event>
<event>
 5   0  0.2315038E-04  0.1199753E+04  0.7818609E-02  0.9113073E-01
       -1   -1    0    0    0  501  0.00000000000E+00  0.00000000000E+00  0.90685410555E+03  0.90685410557E+03  0.50400001928E-02 0. -1.
        1   -1    0    0  501    0  0.00000000000E+00  0.00000000000E+00 -0.39681348569E+03  0.39681348573E+03  0.50400001928E-02 0.  1.
    10030    2    1    2    0    0  0.00000000000E+00  0.00000000000E+00  0.51004061986E+03  0.13036675913E+04  0.11997532057E+04 0.  0.
        1    1    3    3  502    0 -0.38096433707E+03  0.11826335278E+03 -0.23181619865E+03  0.46136622841E+03  0.50400001928E-02 0.  1.
       -1    1    3    3    0  502  0.38096433707E+03 -0.11826335278E+03  0.74185681851E+03  0.84230136289E+03  0.50400001928E-02 0. -1.
</event>
<event>
 5   0  0.3832662E-04  0.1193497E+04  0.7818609E-02  0.9118568E-01
       -2   -1    0    0    0  501  0.00000000000E+00  0.00000000000E+00  0.25061995302E+03  0.25061995303E+03  0.25500000920E-02 0. -1.
        2   -1    0    0  501    0  0.00000000000E+00  0.00000000000E+00 -0.14209114851E+04  0.14209114851E+04  0.25500000920E-02 0.  1.
    10030    2    1    2    0    0  0.00000000000E+00  0.00000000000E+00 -0.11702915321E+04  0.16715314382E+04  0.11934969957E+04 0.  0.
        4    1    3    3  502    0  0.59334745396E+03  0.43069784598E+02 -0.65070130350E+03  0.88166320483E+03  0.12699999809E+01 0. -1.
       -4    1    3    3    0  502 -0.59334745396E+03 -0.43069784598E+02 -0.51959022862E+03  0.78986823334E+03  0.12699999809E+01 0.  1.
</event>
<event>
 5   0  0.3993723E-04  0.1199871E+04  0.7818609E-02  0.9112970E-01
        2   -1    0    0  501    0  0.00000000000E+00  0.00000000000E+00  0.14163451288E+04  0.14163451288E+04  0.25500000920E-02 0.  1.
       -2   -1    0    0    0  501  0.00000000000E+00  0.00000000000E+00 -0.25412059372E+03  0.25412059373E+03  0.25500000920E-02 0. -1.
    10030    2    1    2    0    0  0.00000000000E+00  0.00000000000E+00  0.11622245351E+04  0.16704657226E+04  0.11998707682E+04 0.  0.
        3    1    3    3  502    0  0.44329707618E+03  0.33887655163E+03  0.27428083807E+03  0.62175526000E+03  0.10100000352E+00 0. -1.
       -3    1    3    3    0  502 -0.44329707618E+03 -0.33887655163E+03  0.88794369704E+03  0.10487104626E+04  0.10100000352E+00 0.  1.
</event>
<event>
 5   0  0.1541375E-04  0.1199613E+04  0.7818609E-02  0.9113196E-01
        4   -1    0    0  501    0  0.00000000000E+00  0.00000000000E+00  0.69399042361E+03  0.69399158566E+03  0.12699999809E+01 0.  1.
       -4   -1    0    0    0  501  0.00000000000E+00  0.00000000000E+00 -0.51840207003E+03  0.51840362567E+03  0.12699999809E+01 0. -1.
    10030    2    1    2    0    0  0.00000000000E+00  0.00000000000E+00  0.17558835359E+03  0.12123952113E+04  0.11996128036E+04 0.  0.
        5    1    3    3  502    0  0.53821954606E+03  0.25088973695E+03  0.17307151870E+03  0.61854812299E+03  0.46999998093E+01 0. -1.
       -5    1    3    3    0  502 -0.53821954606E+03 -0.25088973695E+03  0.25168348852E+01  0.59384708834E+03  0.46999998093E+01 0.  1.
</event>
<event>
 5   0  0.1541375E-04  0.1198877E+04  0.7818609E-02  0.9113840E-01
       -3   -1    0    0    0  501  0.00000000000E+00  0.00000000000E+00  0.30354791348E+03  0.30354793028E+03  0.10100000352E+00 0. -1.
        3   -1    0    0  501    0  0.00000000000E+00  0.00000000000E+00 -0.11837554256E+04  0.11837554299E+04  0.10100000352E+00 0.  1.
    10030    2    1    2    0    0  0.00000000000E+00  0.00000000000E+00 -0.88020751212E+03  0.14873033602E+04  0.11988769832E+04 0.  0.
        4    1    3    3  502    0 -0.35029660213E+03  0.46030551818E+03 -0.24498914838E+03  0.62818005003E+03  0.12699999809E+01 0.  1.
       -4    1    3    3    0  502  0.35029660213E+03 -0.46030551818E+03 -0.63521836374E+03  0.85912331016E+03  0.12699999809E+01 0. -1.
</event>
<event>
 5   0  0.2340731E-04  0.1209839E+04  0.7818609E-02  0.9104287E-01
       -1   -1    0    0    0  501  0.00000000000E+00  0.00000000000E+00  0.33683014249E+03  0.33683014252E+03  0.50400001928E-02 0.  1.
        1   -1    0    0  501    0  0.00000000000E+00  0.00000000000E+00 -0.10863869107E+04  0.10863869107E+04  0.50400001928E-02 0. -1.
    10030    2    1    2    0    0  0.00000000000E+00  0.00000000000E+00 -0.74955676818E+03  0.14232170532E+04  0.12098394240E+04 0.  0.
        3    1    3    3  502    0 -0.21403377206E+03 -0.54271458891E+03 -0.18663932575E+03  0.61252251283E+03  0.10100000352E+00 0.  1.
       -3    1    3    3    0  502  0.21403377206E+03  0.54271458891E+03 -0.56291744243E+03  0.81069454038E+03  0.10100000352E+00 0. -1.
</event>
<event>
 5   0  0.3883890E-04  0.1234456E+04  0.7818609E-02  0.9083220E-01
        2   -1    0    0  501    0  0.00000000000E+00  0.00000000000E+00  0.39490384778E+03  0.39490384779E+03  0.25500000920E-02 0.  1.
       -2   -1    0    0    0  501  0.00000000000E+00  0.00000000000E+00 -0.96471742570E+03  0.96471742571E+03  0.25500000920E-02 0. -1.
    10030    2    1    2    0    0  0.00000000000E+00  0.00000000000E+00 -0.56981357792E+03  0.13596212735E+04  0.12344563556E+04 0.  0.
        2    1    3    3  502    0  0.77226032635E+02 -0.54983195294E+03 -0.58185744289E+03  0.80426184818E+03  0.25500000920E-02 0. -1.
       -2    1    3    3    0  502 -0.77226032635E+02  0.54983195294E+03  0.12043864971E+02  0.55535942531E+03  0.25500000920E-02 0.  1.
</event>
<event>
 5   0  0.3832662E-04  0.1201664E+04  0.7818609E-02  0.9111401E-01
        2   -1    0    0  501    0  0.00000000000E+00  0.00000000000E+00  0.11687693701E+04  0.11687693702E+04  0.25500000920E-02 0. -1.
       -2   -1    0    0    0  501  0.00000000000E+00  0.00000000000E+00 -0.30887113717E+03  0.30887113718E+03  0.25500000920E-02 0.  1.
    10030    2    1    2    0    0  0.00000000000E+00  0.00000000000E+00  0.85989823297E+03  0.14776405073E+04  0.12016640537E+04 0.  0.
        4    1    3    3  502    0  0.48186263532E+03 -0.23711663990E+03  0.98666215258E+02  0.54603345609E+03  0.12699999809E+01 0. -1.
       -4    1    3    3    0  502 -0.48186263532E+03  0.23711663990E+03  0.76123201772E+03  0.93160705125E+03  0.12699999809E+01 0.  1.
</event>
<event>
 5   0  0.2315038E-04  0.1200098E+04  0.7818609E-02  0.9112771E-01
       -1   -1    0    0    0  501  0.00000000000E+00  0.00000000000E+00  0.42537549611E+03  0.42537549614E+03  0.50400001928E-02 0. -1.
        1   -1    0    0  501    0  0.00000000000E+00  0.00000000000E+00 -0.84644970851E+03  0.84644970852E+03  0.50400001928E-02 0.  1.
    10030    2    1    2    0    0  0.00000000000E+00  0.00000000000E+00 -0.42107421239E+03  0.12718252047E+04  0.12000982705E+04 0.  0.
        1    1    3    3  502    0  0.22553116352E+03 -0.26557346897E+03  0.30719529021E+03  0.46450244294E+03  0.50400001928E-02 0. -1.
       -1    1    3    3    0  502 -0.22553116352E+03  0.26557346897E+03 -0.72826950261E+03  0.80732276172E+03  0.50400001928E-02 0.  1.
</event>
<event>
 5   0  0.2315038E-04  0.1200543E+04  0.7818609E-02  0.9112381E-01
       -1   -1    0    0    0  501  0.00000000000E+00  0.00000000000E+00  0.53151229628E+03  0.53151229630E+03  0.50400001928E-02 0. -1.
        1   -1    0    0  501    0  0.00000000000E+00  0.00000000000E+00 -0.67792614083E+03  0.67792614085E+03  0.50400001928E-02 0.  1.
    10030    2    1    2    0    0  0.00000000000E+00  0.00000000000E+00 -0.14641384455E+03  0.12094384371E+04  0.12005433434E+04 0.  0.
        1    1    3    3  502    0 -0.61236515542E+02 -0.16872302149E+02  0.52811723331E+03  0.53192330045E+03  0.50400001928E-02 0. -1.
       -1    1    3    3    0  502  0.61236515542E+02  0.16872302149E+02 -0.67453107787E+03  0.67751513670E+03  0.50400001928E-02 0.  1.
</event>
<event>
 5   0  0.3993723E-04  0.1199256E+04  0.7818609E-02  0.9113508E-01
        2   -1    0    0  501    0  0.00000000000E+00  0.00000000000E+00  0.14171166184E+04  0.14171166184E+04  0.25500000920E-02 0. -1.
       -2   -1    0    0    0  501  0.00000000000E+00  0.00000000000E+00 -0.25372198130E+03  0.25372198131E+03  0.25500000920E-02 0.  1.
    10030    2    1    2    0    0  0.00000000000E+00  0.00000000000E+00  0.11633946371E+04  0.16708385997E+04  0.11992558295E+04 0.  0.
        3    1    3    3  502    0  0.54925819302E+02 -0.76488861975E+02 -0.24335601027E+03  0.26093974317E+03  0.10100000352E+00 0.  1.
       -3    1    3    3    0  502 -0.54925819302E+02  0.76488861975E+02  0.14067506474E+04  0.14098988566E+04  0.10100000352E+00 0. -1.
</event>
<event>
 5   0  0.2304842E-04  0.1199865E+04  0.7818609E-02  0.9112975E-01
        1   -1    0    0  501    0  0.00000000000E+00  0.00000000000E+00  0.85169429720E+03  0.85169429722E+03  0.50400001928E-02 0.  1.
       -1   -1    0    0    0  501  0.00000000000E+00  0.00000000000E+00 -0.42259191791E+03  0.42259191794E+03  0.50400001928E-02 0. -1.
    10030    2    1    2    0    0  0.00000000000E+00  0.00000000000E+00  0.42910237929E+03  0.12742862152E+04  0.11998652034E+04 0.  0.
        4    1    3    3  502    0 -0.18479134386E+03 -0.33740169488E+03  0.70346297802E+03  0.80177897130E+03  0.12699999809E+01 0.  1.
       -4    1    3    3    0  502  0.18479134386E+03  0.33740169488E+03 -0.27436059872E+03  0.47250724387E+03  0.12699999809E+01 0. -1.
</event>
<event>
 5   0  0.2315038E-04  0.1205022E+04  0.7818609E-02  0.9108472E-01
        1   -1    0    0  501    0  0.00000000000E+00  0.00000000000E+00  0.86193842361E+03  0.86193842363E+03  0.50400001928E-02 0.  1.
       -1   -1    0    0    0  501  0.00000000000E+00  0.00000000000E+00 -0.42116652273E+03  0.42116652276E+03  0.50400001928E-02 0. -1.
    10030    2    1    2    0    0  0.00000000000E+00  0.00000000000E+00  0.44077190088E+03  0.12831049464E+04  0.12050221719E+04 0.  0.
        1    1    3    3  502    0  0.13472499021E+03 -0.52368848285E+03 -0.62576241360E+02  0.54434936949E+03  0.50400001928E-02 0. -1.
       -1    1    3    3    0  502 -0.13472499021E+03  0.52368848285E+03  0.50334814224E+03  0.73875557689E+03  0.50400001928E-02 0.  1.
</event>
<event>
 5   0  0.1541375E-04  0.1203130E+04  0.7818609E-02  0.9110121E-01
        3   -1    0    0  501    0  0.00000000000E+00  0.00000000000E+00  0.16013404190E+04  0.16013404222E+04  0.10100000352E+00 0. -1.
       -3   -1    0    0    0  501  0.00000000000E+00  0.00000000000E+00 -0.22598600996E+03  0.22598603253E+03  0.10100000352E+00 0.  1.
    10030    2    1    2    0    0  0.00000000000E+00  0.00000000000E+00  0.13753544090E+04  0.18273264547E+04  0.12031301765E+04 0.  0.
        3    1    3    3  502    0 -0.29110296065E+03 -0.35634293276E+03  0.99132201499E+02  0.47068930623E+03  0.10100000352E+00 0.  1.
       -3    1    3    3    0  502  0.29110296065E+03  0.35634293276E+03  0.12762222075E+04  0.13566371485E+04  0.10100000352E+00 0. -1.
</event>
<event>
 5   0  0.2315038E-04  0.1195601E+04  0.7818609E-02  0.9116716E-01
        1   -1    0    0  501    0  0.00000000000E+00  0.00000000000E+00  0.68526422769E+03  0.68526422771E+03  0.50400001928E-02 0. -1.
       -1   -1    0    0    0  501  0.00000000000E+00  0.00000000000E+00 -0.52149986189E+03  0.52149986191E+03  0.50400001928E-02 0.  1.
    10030    2    1    2    0    0  0.00000000000E+00  0.00000000000E+00  0.16376436580E+03  0.12067640896E+04  0.11956006024E+04 0.  0.
        1    1    3    3  502    0  0.44794414955E+03  0.28707517425E+03 -0.19324150270E+03  0.56604628360E+03  0.50400001928E-02 0.  1.
       -1    1    3    3    0  502 -0.44794414955E+03 -0.28707517425E+03  0.35700586850E+03  0.64071780602E+03  0.50400001928E-02 0. -1.
</event>
<event>
 5   0  0.2340731E-04  0.1205249E+04  0.7818609E-02  0.9108274E-01
       -1   -1    0    0    0  501  0.00000000000E+00  0.00000000000E+00  0.49493265314E+03  0.49493265316E+03  0.50400001928E-02 0. -1.
        1   -1    0    0  501    0  0.00000000000E+00  0.00000000000E+00 -0.73374885790E+03  0.73374885792E+03  0.50400001928E-02 0.  1.
    10030    2    1    2    0    0  0.00000000000E+00  0.00000000000E+00 -0.23881620476E+03  0.12286815111E+04  0.12052489685E+04 0.  0.
        3    1    3    3  502    0  0.75549841954E+02  0.56440989278E+03 -0.32044754176E+03  0.65341636259E+03  0.10100000352E+00 0.  1.
       -3    1    3    3    0  502 -0.75549841954E+02 -0.56440989278E+03  0.81631336992E+02  0.57526514849E+03  0.10100000352E+00 0. -1.
</event>
<event>
 5   0  0.4122956E-04  0.1200636E+04  0.7818609E-02  0.9112300E-01
        2   -1    0    0  501    0  0.00000000000E+00  0.00000000000E+00  0.32141024926E+03  0.32141024927E+03  0.25500000920E-02 0.  1.
       -2   -1    0    0    0  501  0.00000000000E+00  0.00000000000E+00 -0.11212507424E+04  0.11212507424E+04  0.25500000920E-02 0. -1.
    10030    2    1    2    0    0  0.00000000000E+00  0.00000000000E+00 -0.79984049318E+03  0.14426609917E+04  0.12006356327E+04 0.  0.
        5    1    3    3  502    0  0.52402468042E+03 -0.11227998994E+03 -0.72490455308E+03  0.90150838205E+03  0.46999998093E+01 0. -1.
       -5    1    3    3    0  502 -0.52402468042E+03  0.11227998994E+03 -0.74935940108E+02  0.54115260967E+03  0.46999998093E+01 0.  1.
</event>
<event>
 5   0  0.2304842E-04  0.1205952E+04  0.7818609E-02  0.9107662E-01
       -1   -1    0    0    0  501  0.00000000000E+00  0.00000000000E+00  0.82095581126E+03  0.82095581128E+03  0.50400001928E-02 0. -1.
        1   -1    0    0  501    0  0.00000000000E+00  0.00000000000E+00 -0.44287430684E+03  0.44287430686E+03  0.50400001928E-02 0.  1.
    10030    2    1    2    0    0  0.00000000000E+00  0.00000000000E+00  0.37808150443E+03  0.12638301181E+04  0.12059522974E+04 0.  0.
        4    1    3    3  502    0 -0.19362932648E+03  0.30348852602E+03 -0.31789029182E+03  0.48026393997E+03  0.12699999809E+01 0.  1.
       -4    1    3    3    0  502  0.19362932648E+03 -0.30348852602E+03  0.69597179625E+03  0.78356617817E+03  0.12699999809E+01 0. -1.
</event>
<event>
 5   0  0.2315038E-04  0.1203300E+04  0.7818609E-02  0.9109973E-01
        1   -1    0    0  501    0  0.00000000000E+00  0.00000000000E+00  0.14116817103E+04  0.14116817103E+04  0.50400001928E-02 0.  1.
       -1   -1    0    0    0  501  0.00000000000E+00  0.00000000000E+00 -0.25641931059E+03  0.25641931064E+03  0.50400001928E-02 0. -1.
    10030    2    1    2    0    0  0.00000000000E+00  0.00000000000E+00  0.11552623997E+04  0.16681010210E+04  0.12032995487E+04 0.  0.
        1    1    3    3  502    0  0.12022043683E+03 -0.42236814872E+03  0.75130307366E+01  0.43920866583E+03  0.50400001928E-02 0. -1.
       -1    1    3    3    0  502 -0.12022043683E+03  0.42236814872E+03  0.11477493690E+04  0.12288923551E+04  0.50400001928E-02 0.  1.
</event>
<event>
 5   0  0.2315038E-04  0.1202750E+04  0.7818609E-02  0.9110453E-01
       -1   -1    0    0    0  501  0.00000000000E+00  0.00000000000E+00  0.84589921262E+03  0.84589921263E+03  0.50400001928E-02 0.  1.
        1   -1    0    0  501    0  0.00000000000E+00  0.00000000000E+00 -0.42753554101E+03  0.42753554104E+03  0.50400001928E-02 0. -1.
    10030    2    1    2    0    0  0.00000000000E+00  0.00000000000E+00  0.41836367161E+03  0.12734347537E+04  0.12027501445E+04 0.  0.
        1    1    3    3  502    0  0.18277500651E+03 -0.52274182826E+03  0.45745418478E+03  0.71828271120E+03  0.50400001928E-02 0.  1.
       -1    1    3    3    0  502 -0.18277500651E+03  0.52274182826E+03 -0.39090513165E+02  0.55515204247E+03  0.50400001928E-02 0. -1.
</event>
<event>
 5   0  0.4122956E-04  0.1181350E+04  0.7818609E-02  0.9129340E-01
        2   -1    0    0  501    0  0.00000000000E+00  0.00000000000E+00  0.45442863066E+03  0.45442863067E+03  0.25500000920E-02 0. -1.
       -2   -1    0    0    0  501  0.00000000000E+00  0.00000000000E+00 -0.76777005412E+03  0.76777005412E+03  0.25500000920E-02 0.  1.
    10030    2    1    2    0    0  0.00000000000E+00  0.00000000000E+00 -0.31334142346E+03  0.12221986848E+04  0.11813495577E+04 0.  0.
        5    1    3    3  502    0  0.49445685268E+03  0.17556402700E+03 -0.43727670036E+03  0.68303975683E+03  0.46999998093E+01 0.  1.
       -5    1    3    3    0  502 -0.49445685268E+03 -0.17556402700E+03  0.12393527690E+03  0.53915892796E+03  0.46999998093E+01 0. -1.
</event>
<event>
 5   0  0.3832662E-04  0.1192288E+04  0.7818609E-02  0.9119634E-01
        2   -1    0    0  501    0  0.00000000000E+00  0.00000000000E+00  0.92279268727E+03  0.92279268727E+03  0.25500000920E-02 0. -1.
       -2   -1    0    0    0  501  0.00000000000E+00  0.00000000000E+00 -0.38512198189E+03  0.38512198190E+03  0.25500000920E-02 0.  1.
    10030    2    1    2    0    0  0.00000000000E+00  0.00000000000E+00  0.53767070538E+03  0.13079146692E+04  0.11922881340E+04 0.  0.
        4    1    3    3  502    0  0.37775083954E+03 -0.45585682633E+03  0.19216452467E+03  0.62243872014E+03  0.12699999809E+01 0.  1.
       -4    1    3    3    0  502 -0.37775083954E+03  0.45585682633E+03  0.34550618071E+03  0.68547594903E+03  0.12699999809E+01 0. -1.
</event>
<event>
 5   0  0.2244308E-04  0.1200240E+04  0.7818609E-02  0.9112646E-01
       -1   -1    0    0    0  501  0.00000000000E+00  0.00000000000E+00  0.74089295609E+03  0.74089295611E+03  0.50400001928E-02 0. -1.
        1   -1    0    0  501    0  0.00000000000E+00  0.00000000000E+00 -0.48609456322E+03  0.48609456324E+03  0.50400001928E-02 0.  1.
    10030    2    1    2    0    0  0.00000000000E+00  0.00000000000E+00  0.25479839288E+03  0.12269875194E+04  0.12002400392E+04 0.  0.
        5    1    3    3  502    0  0.36064966398E+03 -0.55660565556E+02 -0.35961604461E+03  0.51235931554E+03  0.46999998093E+01 0.  1.
       -5    1    3    3    0  502 -0.36064966398E+03  0.55660565556E+02  0.61441443749E+03  0.71462820381E+03  0.46999998093E+01 0. -1.
</event>
<event>
 5   0  0.3832662E-04  0.1186264E+04  0.7818609E-02  0.9124966E-01
       -2   -1    0    0    0  501  0.00000000000E+00  0.00000000000E+00  0.38996766333E+03  0.38996766334E+03  0.25500000920E-02 0. -1.
        2   -1    0    0  501    0  0.00000000000E+00  0.00000000000E+00 -0.90213985967E+03  0.90213985968E+03  0.25500000920E-02 0.  1.
    10030    2    1    2    0    0  0.00000000000E+00  0.00000000000E+00 -0.51217219635E+03  0.12921075230E+04  0.11862636690E+04 0.  0.
        4    1    3    3  502    0  0.58474476580E+03  0.22768808646E+02 -0.15071297844E+03  0.60428542473E+03  0.12699999809E+01 0.  1.
       -4    1    3    3    0  502 -0.58474476580E+03 -0.22768808646E+02 -0.36145921791E+03  0.68782209828E+03  0.12699999809E+01 0. -1.
</event>
<event>
 5   0  0.2340731E-04  0.1199882E+04  0.7818609E-02  0.9112960E-01
        1   -1    0    0  501    0  0.00000000000E+00  0.00000000000E+00  0.72774236693E+03  0.72774236695E+03  0.50400001928E-02 0.  1.
       -1   -1    0    0    0  501  0.00000000000E+00  0.00000000000E+00 -0.49458289309E+03  0.49458289312E+03  0.50400001928E-02 0. -1.
    10030    2    1    2    0    0  0.00000000000E+00  0.00000000000E+00  0.23315947383E+03  0.12223252601E+04  0.11998815363E+04 0.  0.
        3    1    3    3  502    0 -0.12750487466E+02  0.31381188583E+03  0.63730484008E+03  0.71049133986E+03  0.10100000352E+00 0.  1.
       -3    1    3    3    0  502  0.12750487466E+02 -0.31381188583E+03 -0.40414536625E+03  0.51183392021E+03  0.10100000352E+00 0. -1.
</event>
<event>
 5   0  0.3883890E-04  0.1198216E+04  0.7818609E-02  0.9114420E-01
        2   -1    0    0  501    0  0.00000000000E+00  0.00000000000E+00  0.11716931833E+04  0.11716931833E+04  0.25500000920E-02 0. -1.
       -2   -1    0    0    0  501  0.00000000000E+00  0.00000000000E+00 -0.30633463634E+03  0.30633463635E+03  0.25500000920E-02 0.  1.
    10030    2    1    2    0    0  0.00000000000E+00  0.00000000000E+00  0.86535854692E+03  0.14780278196E+04  0.11982156821E+04 0.  0.
        2    1    3    3  502    0 -0.14753457127E+03  0.18846944670E+03  0.11101557990E+04  0.11356641582E+04  0.25500000920E-02 0. -1.
       -2    1    3    3    0  502  0.14753457127E+03 -0.18846944670E+03 -0.24479725208E+03  0.34236366146E+03  0.25500000920E-02 0.  1.
</event>
<event>
 5   0  0.4024486E-04  0.1199505E+04  0.7818609E-02  0.9113290E-01
       -2   -1    0    0    0  501  0.00000000000E+00  0.00000000000E+00  0.36577345247E+03  0.36577345248E+03  0.25500000920E-02 0. -1.
        2   -1    0    0  501    0  0.00000000000E+00  0.00000000000E+00 -0.98340356825E+03  0.98340356825E+03  0.25500000920E-02 0.  1.
    10030    2    1    2    0    0  0.00000000000E+00  0.00000000000E+00 -0.61763011578E+03  0.13491770207E+04  0.11995047617E+04 0.  0.
        1    1    3    3  502    0  0.25411696641E+03 -0.54081276409E+03 -0.36670607887E+03  0.70109002754E+03  0.50400001928E-02 0.  1.
       -1    1    3    3    0  502 -0.25411696641E+03  0.54081276409E+03 -0.25092403691E+03  0.64808699319E+03  0.50400001928E-02 0. -1.
</event>
<event>
 5   0  0.2304842E-04  0.1198211E+04  0.7818609E-02  0.9114424E-01
        1   -1    0    0  501    0  0.00000000000E+00  0.00000000000E+00  0.69871439830E+03  0.69871439831E+03  0.50400001928E-02 0. -1.
       -1   -1    0    0    0  501  0.00000000000E+00  0.00000000000E+00 -0.51369674136E+03  0.51369674138E+03  0.50400001928E-02 0.  1.
    10030    2    1    2    0    0  0.00000000000E+00  0.00000000000E+00  0.18501765694E+03  0.12124111397E+04  0.11982108488E+04 0.  0.
        4    1    3    3  502    0 -0.39009722153E+03  0.37358162529E+02  0.55103960291E+03  0.67617877180E+03  0.12699999809E+01 0. -1.
       -4    1    3    3    0  502  0.39009722153E+03 -0.37358162529E+02 -0.36602194597E+03  0.53623236790E+03  0.12699999809E+01 0.  1.
</event>
<event>
 5   0  0.4024486E-04  0.1207061E+04  0.7818609E-02  0.9106699E-01
       -2   -1    0    0    0  501  0.00000000000E+00  0.00000000000E+00  0.88843275116E+03  0.88843275116E+03  0.25500000920E-02 0.  1.
        2   -1    0    0  501    0  0.00000000000E+00  0.00000000000E+00 -0.40999032743E+03  0.40999032743E+03  0.25500000920E-02 0. -1.
    10030    2    1    2    0    0  0.00000000000E+00  0.00000000000E+00  0.47844242373E+03  0.12984230786E+04  0.12070606191E+04 0.  0.
        1    1    3    3  502    0  0.23257271670E+03 -0.32535390990E+03  0.72543263049E+03  0.82837053101E+03  0.50400001928E-02 0.  1.
       -1    1    3    3    0  502 -0.23257271670E+03  0.32535390990E+03 -0.24699020675E+03  0.47005254759E+03  0.50400001928E-02 0. -1.
</event>
<event>
 5   0  0.1541375E-04  0.1204237E+04  0.7818609E-02  0.9109156E-01
       -4   -1    0    0    0  501  0.00000000000E+00  0.00000000000E+00  0.14729274433E+04  0.14729279908E+04  0.12699999809E+01 0.  1.
        4   -1    0    0  501    0  0.00000000000E+00  0.00000000000E+00 -0.24613807168E+03  0.24614134807E+03  0.12699999809E+01 0. -1.
    10030    2    1    2    0    0  0.00000000000E+00  0.00000000000E+00  0.12267893716E+04  0.17190693388E+04  0.12042371982E+04 0.  0.
        1    1    3    3  502    0  0.10748153637E+03 -0.29555658057E+03  0.13463672094E+04  0.13826100808E+04  0.50400001928E-02 0.  1.
       -1    1    3    3    0  502 -0.10748153637E+03  0.29555658057E+03 -0.11957783783E+03  0.33645925802E+03  0.50400001928E-02 0. -1.
</event>
<event>
 5   0  0.3832662E-04  0.1201081E+04  0.7818609E-02  0.9111911E-01
       -2   -1    0    0    0  501  0.00000000000E+00  0.00000000000E+00  0.76596401427E+03  0.76596401428E+03  0.25500000920E-02 0.  1.
        2   -1    0    0  501    0  0.00000000000E+00  0.00000000000E+00 -0.47084335616E+03  0.47084335617E+03  0.25500000920E-02 0. -1.
    10030    2    1    2    0    0  0.00000000000E+00  0.00000000000E+00  0.29512065811E+03  0.12368073704E+04  0.12010812915E+04 0.  0.
        4    1    3    3  502    0  0.19715865669E+03  0.27890763109E+03  0.65620268005E+03  0.73977332528E+03  0.12699999809E+01 0.  1.
       -4    1    3    3    0  502 -0.19715865669E+03 -0.27890763109E+03 -0.36108202194E+03  0.49703404517E+03  0.12699999809E+01 0. -1.
</event>
<event>
 5   0  0.3993723E-04  0.1199786E+04  0.7818609E-02  0.9113044E-01
        2   -1    0    0  501    0  0.00000000000E+00  0.00000000000E+00  0.15204213199E+04  0.15204213199E+04  0.25500000920E-02 0. -1.
       -2   -1    0    0    0  501  0.00000000000E+00  0.00000000000E+00 -0.23669190878E+03  0.23669190879E+03  0.25500000920E-02 0.  1.
    10030    2    1    2    0    0  0.00000000000E+00  0.00000000000E+00  0.12837294111E+04  0.17571132287E+04  0.11997856881E+04 0.  0.
        3    1    3    3  502    0  0.14202101245E+03  0.32898581842E+03 -0.62736234701E+02  0.36378219039E+03  0.10100000352E+00 0.  1.
       -3    1    3    3    0  502 -0.14202101245E+03 -0.32898581842E+03  0.13464656458E+04  0.13933310383E+04  0.10100000352E+00 0. -1.
</event>
<event>
 5   0  0.2204090E-04  0.1199040E+04  0.7818609E-02  0.9113697E-01
       -1   -1    0    0    0  501  0.00000000000E+00  0.00000000000E+00  0.39552502028E+03  0.39552502031E+03  0.50400001928E-02 0.  1.
        1   -1    0    0  501    0  0.00000000000E+00  0.00000000000E+00 -0.90872673133E+03  0.90872673134E+03  0.50400001928E-02 0. -1.
    10030    2    1    2    0    0  0.00000000000E+00  0.00000000000E+00 -0.51320171105E+03  0.13042517517E+04  0.11990398807E+04 0.  0.
        2    1    3    3  502    0  0.36085874478E+03  0.40225447260E+03 -0.53898893365E+03  0.76324096130E+03  0.25500000920E-02 0. -1.
       -2    1    3    3    0  502 -0.36085874478E+03 -0.40225447260E+03  0.25787222600E+02  0.54101079035E+03  0.25500000920E-02 0.  1.
</event>
<event>
 5   0  0.2304842E-04  0.1195235E+04  0.7818609E-02  0.9117038E-01
        1   -1    0    0  501    0  0.00000000000E+00  0.00000000000E+00  0.41545407310E+03  0.41545407313E+03  0.50400001928E-02 0.  1.
       -1   -1    0    0    0  501  0.00000000000E+00  0.00000000000E+00 -0.85965364465E+03  0.85965364466E+03  0.50400001928E-02 0. -1.
    10030    2    1    2    0    0  0.00000000000E+00  0.00000000000E+00 -0.44419957154E+03  0.12751077178E+04  0.11952348860E+04 0.  0.
        4    1    3    3  502    0 -0.13499765595E+03  0.13240924591E+03 -0.82689552911E+03  0.84824194925E+03  0.12699999809E+01 0. -1.
       -4    1    3    3    0  502  0.13499765595E+03 -0.13240924591E+03  0.38269595757E+03  0.42686576854E+03  0.12699999809E+01 0.  1.
</event>
<event>
 5   0  0.2340731E-04  0.1200231E+04  0.7818609E-02  0.9112654E-01
        1   -1    0    0  501    0  0.00000000000E+00  0.00000000000E+00  0.36791922881E+03  0.36791922884E+03  0.50400001928E-02 0.  1.
       -1   -1    0    0    0  501  0.00000000000E+00  0.00000000000E+00 -0.97885265383E+03  0.97885265384E+03  0.50400001928E-02 0. -1.
    10030    2    1    2    0    0  0.00000000000E+00  0.00000000000E+00 -0.61093342502E+03  0.13467718827E+04  0.12002311670E+04 0.  0.
        3    1    3    3  502    0  0.47758263960E+03 -0.34832727761E+03 -0.18927915641E+03  0.62068001356E+03  0.10100000352E+00 0. -1.
       -3    1    3    3    0  502 -0.47758263960E+03  0.34832727761E+03 -0.42165426861E+03  0.72609186913E+03  0.10100000352E+00 0.  1.
</event>
<event>
 5   0  0.2340731E-04  0.1201398E+04  0.7818609E-02  0.9111634E-01
       -1   -1    0    0    0  501  0.00000000000E+00  0.00000000000E+00  0.19054682561E+03  0.19054682568E+03  0.50400001928E-02 0.  1.
        1   -1    0    0  501    0  0.00000000000E+00  0.00000000000E+00 -0.18937037062E+04  0.18937037062E+04  0.50400001928E-02 0. -1.
    10030    2    1    2    0    0  0.00000000000E+00  0.00000000000E+00 -0.17031568806E+04  0.20842505319E+04  0.12013979023E+04 0.  0.
        3    1    3    3  502    0 -0.32133206536E+03  0.80617006436E+02 -0.17208873816E+04  0.17524858882E+04  0.10100000352E+00 0. -1.
       -3    1    3    3    0  502  0.32133206536E+03 -0.80617006436E+02  0.17730500984E+02  0.33176464372E+03  0.10100000352E+00 0.  1.
</event>
<event>
 5   0  0.4024486E-04  0.1202888E+04  0.7818609E-02  0.9110332E-01
       -2   -1    0    0    0  501  0.00000000000E+00  0.00000000000E+00  0.10803037994E+04  0.10803037994E+04  0.25500000920E-02 0.  1.
        2   -1    0    0  501    0  0.00000000000E+00  0.00000000000E+00 -0.33484555345E+03  0.33484555346E+03  0.25500000920E-02 0. -1.
    10030    2    1    2    0    0  0.00000000000E+00  0.00000000000E+00  0.74545824590E+03  0.14151493528E+04  0.12028880639E+04 0.  0.
        1    1    3    3  502    0 -0.50220029171E+03  0.31893515956E+02 -0.14811412310E+02  0.50342994281E+03  0.50400001928E-02 0. -1.
       -1    1    3    3    0  502  0.50220029171E+03 -0.31893515956E+02  0.76026965821E+03  0.91171941000E+03  0.50400001928E-02 0.  1.
</event>
<event>
 5   0  0.3993723E-04  0.1201211E+04  0.7818609E-02  0.9111797E-01
        2   -1    0    0  501    0  0.00000000000E+00  0.00000000000E+00  0.12520645869E+04  0.12520645869E+04  0.25500000920E-02 0. -1.
       -2   -1    0    0    0  501  0.00000000000E+00  0.00000000000E+00 -0.28810558764E+03  0.28810558765E+03  0.25500000920E-02 0.  1.
    10030    2    1    2    0    0  0.00000000000E+00  0.00000000000E+00  0.96395899928E+03  0.15401701746E+04  0.12012107285E+04 0.  0.
        3    1    3    3  502    0  0.33221553169E+03 -0.45033681994E+03  0.76159028050E+03  0.94508739090E+03  0.10100000352E+00 0. -1.
       -3    1    3    3    0  502 -0.33221553169E+03  0.45033681994E+03  0.20236871878E+03  0.59508278368E+03  0.10100000352E+00 0.  1.
</event>
<event>
 5   0  0.3883890E-04  0.1201078E+04  0.7818609E-02  0.9111913E-01
       -2   -1    0    0    0  501  0.00000000000E+00  0.00000000000E+00  0.32709143194E+03  0.32709143195E+03  0.25500000920E-02 0. -1.
        2   -1    0    0  501    0  0.00000000000E+00  0.00000000000E+00 -0.11025882402E+04  0.11025882402E+04  0.25500000920E-02 0.  1.
    10030    2    1    2    0    0  0.00000000000E+00  0.00000000000E+00 -0.77549680828E+03  0.14296796722E+04  0.12010781263E+04 0.  0.
        2    1    3    3  502    0  0.27931094401E+03 -0.13157659423E+03  0.22538166024E+03  0.38226155492E+03  0.25500000920E-02 0. -1.
       -2    1    3    3    0  502 -0.27931094401E+03  0.13157659423E+03 -0.10008784685E+04  0.10474181173E+04  0.25500000920E-02 0.  1.
</event>
<event>
 5   0  0.2315038E-04  0.1199254E+04  0.7818609E-02  0.9113510E-01
       -1   -1    0    0    0  501  0.00000000000E+00  0.00000000000E+00  0.47609703891E+03  0.47609703894E+03  0.50400001928E-02 0.  1.
        1   -1    0    0  501    0  0.00000000000E+00  0.00000000000E+00 -0.75520857232E+03  0.75520857233E+03  0.50400001928E-02 0. -1.
    10030    2    1    2    0    0  0.00000000000E+00  0.00000000000E+00 -0.27911153340E+03  0.12313056113E+04  0.11992540433E+04 0.  0.
        1    1    3    3  502    0  0.99377989495E+02  0.58036512810E+02 -0.74376331245E+03  0.75261416847E+03  0.50400001928E-02 0. -1.
       -1    1    3    3    0  502 -0.99377989495E+02 -0.58036512810E+02  0.46465177905E+03  0.47869144280E+03  0.50400001928E-02 0.  1.
</event>
<event>
 5   0  0.3883890E-04  0.1200446E+04  0.7818609E-02  0.9112466E-01
        2   -1    0    0  501    0  0.00000000000E+00  0.00000000000E+00  0.53575723227E+03  0.53575723227E+03  0.25500000920E-02 0.  1.
       -2   -1    0    0    0  501  0.00000000000E+00  0.00000000000E+00 -0.67244614496E+03  0.67244614497E+03  0.25500000920E-02 0. -1.
    10030    2    1    2    0    0  0.00000000000E+00  0.00000000000E+00 -0.13668891270E+03  0.12082033772E+04  0.12004463928E+04 0.  0.
        2    1    3    3  502    0  0.28478753217E+03  0.48898869045E+03  0.13308373930E+03  0.58131330583E+03  0.25500000920E-02 0.  1.
       -2    1    3    3    0  502 -0.28478753217E+03 -0.48898869045E+03 -0.26977265200E+03  0.62689007141E+03  0.25500000920E-02 0. -1.
</event>
<event>
 5   0  0.2315038E-04  0.1200553E+04  0.7818609E-02  0.9112373E-01
       -1   -1    0    0    0  501  0.00000000000E+00  0.00000000000E+00  0.23570715115E+03  0.23570715121E+03  0.50400001928E-02 0.  1.
        1   -1    0    0  501    0  0.00000000000E+00  0.00000000000E+00 -0.15287267504E+04  0.15287267504E+04  0.50400001928E-02 0. -1.
    10030    2    1    2    0    0  0.00000000000E+00  0.00000000000E+00 -0.12930195992E+04  0.17644339016E+04  0.12005529181E+04 0.  0.
        1    1    3    3  502    0 -0.50877085686E+03 -0.11685045060E+03 -0.10820673670E+04  0.12014040117E+04  0.50400001928E-02 0. -1.
       -1    1    3    3    0  502  0.50877085686E+03  0.11685045060E+03 -0.21095223223E+03  0.56302988989E+03  0.50400001928E-02 0.  1.
</event>
<event>
 5   0  0.2244308E-04  0.1170742E+04  0.7818609E-02  0.9138858E-01
       -1   -1    0    0    0  501  0.00000000000E+00  0.00000000000E+00  0.57669405515E+03  0.57669405517E+03  0.50400001928E-02 0. -1.
        1   -1    0    0  501    0  0.00000000000E+00  0.00000000000E+00 -0.59417868140E+03  0.59417868142E+03  0.50400001928E-02 0.  1.
    10030    2    1    2    0    0  0.00000000000E+00  0.00000000000E+00 -0.17484626256E+02  0.11708727366E+04  0.11707421805E+04 0.  0.
        5    1    3    3  502    0 -0.34727572713E+02  0.65530497015E+02  0.57195741070E+03  0.57676478741E+03  0.46999998093E+01 0. -1.
       -5    1    3    3    0  502  0.34727572713E+02 -0.65530497015E+02 -0.58944203696E+03  0.59410794918E+03  0.46999998093E+01 0.  1.
</event>
<event>
 5   0  0.3832662E-04  0.1202422E+04  0.7818609E-02  0.9110739E-01
       -2   -1    0    0    0  501  0.00000000000E+00  0.00000000000E+00  0.26971342020E+03  0.26971342021E+03  0.25500000920E-02 0. -1.
        2   -1    0    0  501    0  0.00000000000E+00  0.00000000000E+00 -0.13401441221E+04  0.13401441221E+04  0.25500000920E-02 0.  1.
    10030    2    1    2    0    0  0.00000000000E+00  0.00000000000E+00 -0.10704307019E+04  0.16098575423E+04  0.12024223131E+04 0.  0.
        4    1    3    3  502    0  0.37251545779E+03 -0.15242540470E+02  0.96250240082E+02  0.38505301317E+03  0.12699999809E+01 0. -1.
       -4    1    3    3    0  502 -0.37251545779E+03  0.15242540470E+02 -0.11666809420E+04  0.12248045291E+04  0.12699999809E+01 0.  1.
</event>
<event>
 5   0  0.2315038E-04  0.1200160E+04  0.7818609E-02  0.9112717E-01
       -1   -1    0    0    0  501  0.00000000000E+00  0.00000000000E+00  0.23136497950E+03  0.23136497955E+03  0.50400001928E-02 0. -1.
        1   -1    0    0  501    0  0.00000000000E+00  0.00000000000E+00 -0.15563972100E+04  0.15563972100E+04  0.50400001928E-02 0.  1.
    10030    2    1    2    0    0  0.00000000000E+00  0.00000000000E+00 -0.13250322305E+04  0.17877621896E+04  0.12001596705E+04 0.  0.
        1    1    3    3  502    0 -0.36044488730E+03 -0.41626433765E+03 -0.30719243289E+03  0.63052653111E+03  0.50400001928E-02 0. -1.
       -1    1    3    3    0  502  0.36044488730E+03  0.41626433765E+03 -0.10178397976E+04  0.11572356585E+04  0.50400001928E-02 0.  1.
</event>
<event>
 5   0  0.2244308E-04  0.1201395E+04  0.7818609E-02  0.9111636E-01
       -1   -1    0    0    0  501  0.00000000000E+00  0.00000000000E+00  0.32194587165E+03  0.32194587169E+03  0.50400001928E-02 0.  1.
        1   -1    0    0  501    0  0.00000000000E+00  0.00000000000E+00 -0.11208024875E+04  0.11208024875E+04  0.50400001928E-02 0. -1.
    10030    2    1    2    0    0  0.00000000000E+00  0.00000000000E+00 -0.79885661586E+03  0.14427483592E+04  0.12013954117E+04 0.  0.
        5    1    3    3  502    0  0.16721279333E+03 -0.25381206347E+03 -0.10216199312E+04  0.10658846352E+04  0.46999998093E+01 0. -1.
       -5    1    3    3    0  502 -0.16721279333E+03  0.25381206347E+03  0.22276331531E+03  0.37686372399E+03  0.46999998093E+01 0.  1.
</event>
<event>
 5   0  0.2315038E-04  0.1200607E+04  0.7818609E-02  0.9112326E-01
        1   -1    0    0  501    0  0.00000000000E+00  0.00000000000E+00  0.50870348907E+03  0.50870348909E+03  0.50400001928E-02 0.  1.
       -1   -1    0    0    0  501  0.00000000000E+00  0.00000000000E+00 -0.70839694303E+03  0.70839694304E+03  0.50400001928E-02 0. -1.
    10030    2    1    2    0    0  0.00000000000E+00  0.00000000000E+00 -0.19969345396E+03  0.12171004321E+04  0.12006065077E+04 0.  0.
        1    1    3    3  502    0  0.57420334150E+03  0.30891234107E+02  0.74858453083E+02  0.57988579372E+03  0.50400001928E-02 0.  1.
       -1    1    3    3    0  502 -0.57420334150E+03 -0.30891234107E+02 -0.27455190704E+03  0.63721463842E+03  0.50400001928E-02 0. -1.
</event>
<event>
 5   0  0.2204090E-04  0.1198587E+04  0.7818609E-02  0.9114094E-01
       -1   -1    0    0    0  501  0.00000000000E+00  0.00000000000E+00  0.17834670530E+03  0.17834670537E+03  0.50400001928E-02 0.  1.
        1   -1    0    0  501    0  0.00000000000E+00  0.00000000000E+00 -0.20137885373E+04  0.20137885373E+04  0.50400001928E-02 0. -1.
    10030    2    1    2    0    0  0.00000000000E+00  0.00000000000E+00 -0.18354418320E+04  0.21921352427E+04  0.11985867526E+04 0.  0.
        2    1    3    3  502    0 -0.31037622313E+03  0.40656167641E+03 -0.34655832328E+03  0.61784178238E+03  0.25500000920E-02 0.  1.
       -2    1    3    3    0  502  0.31037622313E+03 -0.40656167641E+03 -0.14888835088E+04  0.15742934603E+04  0.25500000920E-02 0. -1.
</event>
<event>
 5   0  0.2204090E-04  0.1197041E+04  0.7818609E-02  0.9115451E-01
       -1   -1    0    0    0  501  0.00000000000E+00  0.00000000000E+00  0.29319285804E+03  0.29319285808E+03  0.50400001928E-02 0. -1.
        1   -1    0    0  501    0  0.00000000000E+00  0.00000000000E+00 -0.12218118075E+04  0.12218118076E+04  0.50400001928E-02 0.  1.
    10030    2    1    2    0    0  0.00000000000E+00  0.00000000000E+00 -0.92861894951E+03  0.15150046656E+04  0.11970405104E+04 0.  0.
        2    1    3    3  502    0 -0.33276472577E+03  0.39673097173E+03 -0.84413833738E+02  0.52464609212E+03  0.25500000920E-02 0. -1.
       -2    1    3    3    0  502  0.33276472577E+03 -0.39673097173E+03 -0.84420511577E+03  0.99035857352E+03  0.25500000920E-02 0.  1.
</event>
<event>
 5   0  0.2244308E-04  0.1204865E+04  0.7818609E-02  0.9108609E-01
       -1   -1    0    0    0  501  0.00000000000E+00  0.00000000000E+00  0.69124095141E+03  0.69124095143E+03  0.50400001928E-02 0.  1.
        1   -1    0    0  501    0  0.00000000000E+00  0.00000000000E+00 -0.52503378693E+03  0.52503378696E+03  0.50400001928E-02 0. -1.
    10030    2    1    2    0    0  0.00000000000E+00  0.00000000000E+00  0.16620716447E+03  0.12162747384E+04  0.12048648960E+04 0.  0.
        5    1    3    3  502    0 -0.38190990893E+03 -0.42919061291E+03  0.26604614972E+03  0.63313695559E+03  0.46999998093E+01 0.  1.
       -5    1    3    3    0  502  0.38190990893E+03  0.42919061291E+03 -0.99838985245E+02  0.58313778280E+03  0.46999998093E+01 0. -1.
</event>
<event>
 5   0  0.4024486E-04  0.1198058E+04  0.7818609E-02  0.9114558E-01
        2   -1    0    0  501    0  0.00000000000E+00  0.00000000000E+00  0.18518557263E+04  0.18518557263E+04  0.25500000920E-02 0. -1.
       -2   -1    0    0    0  501  0.00000000000E+00  0.00000000000E+00 -0.19377078566E+03  0.19377078567E+03  0.25500000920E-02 0.  1.
    10030    2    1    2    0    0  0.00000000000E+00  0.00000000000E+00  0.16580849406E+04  0.20456265119E+04  0.11980576597E+04 0.  0.
        1    1    3    3  502    0  0.90799891710E+01  0.59174752851E+03  0.67081076409E+03  0.89455836307E+03  0.50400001928E-02 0.  1.
       -1    1    3    3    0  502 -0.90799891710E+01 -0.59174752851E+03  0.98727417651E+03  0.11510681489E+04  0.50400001928E-02 0. -1.
</event>
<event>
 5   0  0.2204090E-04  0.1198921E+04  0.7818609E-02  0.9113802E-01
       -1   -1    0    0    0  501  0.00000000000E+00  0.00000000000E+00  0.78897033929E+03  0.78897033931E+03  0.50400001928E-02 0.  1.
        1   -1    0    0  501    0  0.00000000000E+00  0.00000000000E+00 -0.45547071848E+03  0.45547071850E+03  0.50400001928E-02 0. -1.
    10030    2    1    2    0    0  0.00000000000E+00  0.00000000000E+00  0.33349962081E+03  0.12444410578E+04  0.11989209938E+04 0.  0.
        2    1    3    3  502    0 -0.24169987471E+03 -0.14808927095E+03 -0.38151287618E+03  0.47529079131E+03  0.25500000920E-02 0. -1.
       -2    1    3    3    0  502  0.24169987471E+03  0.14808927095E+03  0.71501249699E+03  0.76915026650E+03  0.25500000920E-02 0.  1.
</event>
<event>
 5   0  0.3993723E-04  0.1198253E+04  0.7818609E-02  0.9114387E-01
        2   -1    0    0  501    0  0.00000000000E+00  0.00000000000E+00  0.62479402085E+03  0.62479402085E+03  0.25500000920E-02 0. -1.
       -2   -1    0    0    0  501  0.00000000000E+00  0.00000000000E+00 -0.57451298189E+03  0.57451298189E+03  0.25500000920E-02 0.  1.
    10030    2    1    2    0    0  0.00000000000E+00  0.00000000000E+00  0.50281038959E+02  0.11993070027E+04  0.11982525209E+04 0.  0.
        3    1    3    3  502    0  0.25590197424E+03 -0.53366815272E+03 -0.68026025469E+02  0.59574748676E+03  0.10100000352E+00 0. -1.
       -3    1    3    3    0  502 -0.25590197424E+03  0.53366815272E+03  0.11830706443E+03  0.60355951598E+03  0.10100000352E+00 0.  1.
</event>
<event>
 5   0  0.2304842E-04  0.1197934E+04  0.7818609E-02  0.9114667E-01
       -1   -1    0    0    0  501  0.00000000000E+00  0.00000000000E+00  0.47345547846E+03  0.47345547849E+03  0.50400001928E-02 0. -1.
        1   -1    0    0  501    0  0.00000000000E+00  0.00000000000E+00 -0.75775145783E+03  0.75775145784E+03  0.50400001928E-02 0.  1.
    10030    2    1    2    0    0  0.00000000000E+00  0.00000000000E+00 -0.28429597936E+03  0.12312069363E+04  0.11979341869E+04 0.  0.
        4    1    3    3  502    0 -0.29195286891E+03  0.14307368201E+03 -0.65916423744E+03  0.73498684408E+03  0.12699999809E+01 0.  1.
       -4    1    3    3    0  502  0.29195286891E+03 -0.14307368201E+03  0.37486825807E+03  0.49622009226E+03  0.12699999809E+01 0. -1.
</event>
<event>
 5   0  0.4024486E-04  0.1201245E+04  0.7818609E-02  0.9111768E-01
        2   -1    0    0  501    0  0.00000000000E+00  0.00000000000E+00  0.14430446772E+04  0.14430446772E+04  0.25500000920E-02 0. -1.
       -2   -1    0    0    0  501  0.00000000000E+00  0.00000000000E+00 -0.24999024329E+03  0.24999024330E+03  0.25500000920E-02 0.  1.
    10030    2    1    2    0    0  0.00000000000E+00  0.00000000000E+00  0.11930544339E+04  0.16930349205E+04  0.12012445046E+04 0.  0.
        1    1    3    3  502    0 -0.59733532120E+03  0.16461497392E+02  0.51118426989E+03  0.78637766032E+03  0.50400001928E-02 0.  1.
       -1    1    3    3    0  502  0.59733532120E+03 -0.16461497392E+02  0.68187016406E+03  0.90665726022E+03  0.50400001928E-02 0. -1.
</event>
<event>
 5   0  0.2340731E-04  0.1199244E+04  0.7818609E-02  0.9113519E-01
        1   -1    0    0  501    0  0.00000000000E+00  0.00000000000E+00  0.12427204361E+04  0.12427204361E+04  0.50400001928E-02 0. -1.
       -1   -1    0    0    0  501  0.00000000000E+00  0.00000000000E+00 -0.28932193742E+03  0.28932193747E+03  0.50400001928E-02 0.  1.
    10030    2    1    2    0    0  0.00000000000E+00  0.00000000000E+00  0.95339849871E+03  0.15320423736E+04  0.11992435688E+04 0.  0.
        3    1    3    3  502    0  0.17080856142E+03  0.16919338461E+03  0.11784500591E+04  0.12027246227E+04  0.10100000352E+00 0. -1.
       -3    1    3    3    0  502 -0.17080856142E+03 -0.16919338461E+03 -0.22505156038E+03  0.32931775093E+03  0.10100000352E+00 0.  1.
</event>
<event>
 5   0  0.3832662E-04  0.1206858E+04  0.7818609E-02  0.9106875E-01
        2   -1    0    0  501    0  0.00000000000E+00  0.00000000000E+00  0.65751410012E+03  0.65751410013E+03  0.25500000920E-02 0.  1.
       -2   -1    0    0    0  501  0.00000000000E+00  0.00000000000E+00 -0.55379263067E+03  0.55379263068E+03  0.25500000920E-02 0. -1.
    10030    2    1    2    0    0  0.00000000000E+00  0.00000000000E+00  0.10372146945E+03  0.12113067308E+04  0.12068578429E+04 0.  0.
        4    1    3    3  502    0 -0.27163624320E+02 -0.17036055176E+03  0.63223473009E+03  0.65534948456E+03  0.12699999809E+01 0.  1.
       -4    1    3    3    0  502  0.27163624320E+02  0.17036055176E+03 -0.52851326064E+03  0.55595724625E+03  0.12699999809E+01 0. -1.
</event>
<event>
 5   0  0.1541375E-04  0.1182222E+04  0.7818609E-02  0.9128562E-01
       -3   -1    0    0    0  501  0.00000000000E+00  0.00000000000E+00  0.53548636237E+03  0.53548637189E+03  0.10100000352E+00 0.  1.
        3   -1    0    0  501    0  0.00000000000E+00  0.00000000000E+00 -0.65251345743E+03  0.65251346525E+03  0.10100000352E+00 0. -1.
    10030    2    1    2    0    0  0.00000000000E+00  0.00000000000E+00 -0.11702709507E+03  0.11879998371E+04  0.11822217525E+04 0.  0.
        4    1    3    3  502    0  0.33048685183E+03  0.31576054567E+03  0.31813052390E+03  0.55689758894E+03  0.12699999809E+01 0.  1.
       -4    1    3    3    0  502 -0.33048685183E+03 -0.31576054567E+03 -0.43515761897E+03  0.63110224820E+03  0.12699999809E+01 0. -1.
</event>
<event>
 5   0  0.3883890E-04  0.1199412E+04  0.7818609E-02  0.9113372E-01
       -2   -1    0    0    0  501  0.00000000000E+00  0.00000000000E+00  0.48337259201E+03  0.48337259202E+03  0.25500000920E-02 0.  1.
        2   -1    0    0  501    0  0.00000000000E+00  0.00000000000E+00 -0.74403714146E+03  0.74403714146E+03  0.25500000920E-02 0. -1.
    10030    2    1    2    0    0  0.00000000000E+00  0.00000000000E+00 -0.26066454945E+03  0.12274097335E+04  0.11994117919E+04 0.  0.
        2    1    3    3  502    0  0.33983051738E+03 -0.33815850095E+03 -0.49903584803E+03  0.69200630773E+03  0.25500000920E-02 0. -1.
       -2    1    3    3    0  502 -0.33983051738E+03  0.33815850095E+03  0.23837129859E+03  0.53540342575E+03  0.25500000920E-02 0.  1.
</event>
<event>
 5   0  0.4122956E-04  0.1200298E+04  0.7818609E-02  0.9112596E-01
        2   -1    0    0  501    0  0.00000000000E+00  0.00000000000E+00  0.11659010034E+04  0.11659010034E+04  0.25500000920E-02 0. -1.
       -2   -1    0    0    0  501  0.00000000000E+00  0.00000000000E+00 -0.30892757792E+03  0.30892757793E+03  0.25500000920E-02 0.  1.
    10030    2    1    2    0    0  0.00000000000E+00  0.00000000000E+00  0.85697342550E+03  0.14748285814E+04  0.12002982514E+04 0.  0.
        5    1    3    3  502    0  0.11426126081E+03  0.48485937773E+02  0.11499342196E+04  0.11566232408E+04  0.46999998093E+01 0. -1.
       -5    1    3    3    0  502 -0.11426126081E+03 -0.48485937773E+02 -0.29296079407E+03  0.31820534053E+03  0.46999998093E+01 0.  1.
</event>
<event>
 5   0  0.3883890E-04  0.1203056E+04  0.7818609E-02  0.9110186E-01
        2   -1    0    0  501    0  0.00000000000E+00  0.00000000000E+00  0.25035207723E+03  0.25035207725E+03  0.25500000920E-02 0.  1.
       -2   -1    0    0    0  501  0.00000000000E+00  0.00000000000E+00 -0.14453072268E+04  0.14453072268E+04  0.25500000920E-02 0. -1.
    10030    2    1    2    0    0  0.00000000000E+00  0.00000000000E+00 -0.11949551496E+04  0.16956593040E+04  0.12030555540E+04 0.  0.
        2    1    3    3  502    0 -0.10048692464E+03 -0.15825347542E+03 -0.14030849167E+04  0.14155525664E+04  0.25500000920E-02 0. -1.
       -2    1    3    3    0  502  0.10048692464E+03  0.15825347542E+03  0.20812976718E+03  0.28010673769E+03  0.25500000920E-02 0.  1.
</event>
<event>
 5   0  0.3993723E-04  0.1200766E+04  0.7818609E-02  0.9112186E-01
        2   -1    0    0  501    0  0.00000000000E+00  0.00000000000E+00  0.71532863958E+03  0.71532863959E+03  0.25500000920E-02 0. -1.
       -2   -1    0    0    0  501  0.00000000000E+00  0.00000000000E+00 -0.50390784102E+03  0.50390784102E+03  0.25500000920E-02 0.  1.
    10030    2    1    2    0    0  0.00000000000E+00  0.00000000000E+00  0.21142079857E+03  0.12192364806E+04  0.12007659396E+04 0.  0.
        3    1    3    3  502    0 -0.50516418856E+03  0.22150201539E+03 -0.13501380991E+03  0.56787563717E+03  0.10100000352E+00 0. -1.
       -3    1    3    3    0  502  0.50516418856E+03 -0.22150201539E+03  0.34643460848E+03  0.65136084344E+03  0.10100000352E+00 0.  1.
</event>
<event>
 5   0  0.3993723E-04  0.1198816E+04  0.7818609E-02  0.9113894E-01
       -2   -1    0    0    0  501  0.00000000000E+00  0.00000000000E+00  0.10964847591E+04  0.10964847591E+04  0.25500000920E-02 0. -1.
        2   -1    0    0  501    0  0.00000000000E+00  0.00000000000E+00 -0.32767430306E+03  0.32767430307E+03  0.25500000920E-02 0.  1.
    10030    2    1    2    0    0  0.00000000000E+00  0.00000000000E+00  0.76881045607E+03  0.14241590622E+04  0.11988158812E+04 0.  0.
        3    1    3    3  502    0 -0.29809280437E+03 -0.44114610399E+03  0.71151973277E+03  0.88866728611E+03  0.10100000352E+00 0. -1.
       -3    1    3    3    0  502  0.29809280437E+03  0.44114610399E+03  0.57290723303E+02  0.53549177609E+03  0.10100000352E+00 0.  1.
</event>
<event>
 5   0  0.3883890E-04  0.1200189E+04  0.7818609E-02  0.9112691E-01
       -2   -1    0    0    0  501  0.00000000000E+00  0.00000000000E+00  0.45561170294E+03  0.45561170294E+03  0.25500000920E-02 0.  1.
        2   -1    0    0  501    0  0.00000000000E+00  0.00000000000E+00 -0.79039519836E+03  0.79039519836E+03  0.25500000920E-02 0. -1.
    10030    2    1    2    0    0  0.00000000000E+00  0.00000000000E+00 -0.33478349543E+03  0.12460069013E+04  0.12001888224E+04 0.  0.
        2    1    3    3  502    0  0.38740302524E+02  0.59854018497E+03 -0.18714815958E+03  0.62831170425E+03  0.25500000920E-02 0.  1.
       -2    1    3    3    0  502 -0.38740302524E+02 -0.59854018497E+03 -0.14763533585E+03  0.61769519705E+03  0.25500000920E-02 0. -1.
</event>
<event>
 5   0  0.1541375E-04  0.1201935E+04  0.7818609E-02  0.9111165E-01
        3   -1    0    0  501    0  0.00000000000E+00  0.00000000000E+00  0.53578641496E+03  0.53578642448E+03  0.10100000352E+00 0. -1.
       -3   -1    0    0    0  501  0.00000000000E+00  0.00000000000E+00 -0.67407797366E+03  0.67407798122E+03  0.10100000352E+00 0.  1.
    10030    2    1    2    0    0  0.00000000000E+00  0.00000000000E+00 -0.13829155870E+03  0.12098644057E+04  0.12019348256E+04 0.  0.
        2    1    3    3  502    0 -0.52609495327E+03 -0.36916080066E+02  0.22089251588E+03  0.57177985310E+03  0.25500000920E-02 0.  1.
       -2    1    3    3    0  502  0.52609495327E+03  0.36916080066E+02 -0.35918407458E+03  0.63808455260E+03  0.25500000920E-02 0. -1.
</event>
<event>
 5   0  0.4122956E-04  0.1204025E+04  0.7818609E-02  0.9109341E-01
        2   -1    0    0  501    0  0.00000000000E+00  0.00000000000E+00  0.18690085142E+04  0.18690085142E+04  0.25500000920E-02 0. -1.
       -2   -1    0    0    0  501  0.00000000000E+00  0.00000000000E+00 -0.19390981580E+03  0.19390981581E+03  0.25500000920E-02 0.  1.
    10030    2    1    2    0    0  0.00000000000E+00  0.00000000000E+00  0.16750986984E+04  0.20629183300E+04  0.12040250774E+04 0.  0.
        5    1    3    3  502    0  0.41836553853E+01  0.55020578574E+03  0.41908062923E+03  0.69166073579E+03  0.46999998093E+01 0.  1.
       -5    1    3    3    0  502 -0.41836553853E+01 -0.55020578574E+03  0.12560180692E+04  0.13712575942E+04  0.46999998093E+01 0. -1.
</event>
<event>
 5   0  0.3993723E-04  0.1201072E+04  0.7818609E-02  0.9111918E-01
       -2   -1    0    0    0  501  0.00000000000E+00  0.00000000000E+00  0.38910803738E+03  0.38910803739E+03  0.25500000920E-02 0. -1.
        2   -1    0    0  501    0  0.00000000000E+00  0.00000000000E+00 -0.92684723145E+03  0.92684723146E+03  0.25500000920E-02 0.  1.
    10030    2    1    2    0    0  0.00000000000E+00  0.00000000000E+00 -0.53773919407E+03  0.13159552688E+04  0.12010723662E+04 0.  0.
        3    1    3    3  502    0  0.53557580476E+03  0.22632931846E+03 -0.10424000728E+03  0.59070499605E+03  0.10100000352E+00 0. -1.
       -3    1    3    3    0  502 -0.53557580476E+03 -0.22632931846E+03 -0.43349918679E+03  0.72525027280E+03  0.10100000352E+00 0.  1.
</event>
<event>
 5   0  0.2304842E-04  0.1195242E+04  0.7818609E-02  0.9117032E-01
        1   -1    0    0  501    0  0.00000000000E+00  0.00000000000E+00  0.66140353674E+03  0.66140353676E+03  0.50400001928E-02 0. -1.
       -1   -1    0    0    0  501  0.00000000000E+00  0.00000000000E+00 -0.53998909191E+03  0.53998909193E+03  0.50400001928E-02 0.  1.
    10030    2    1    2    0    0  0.00000000000E+00  0.00000000000E+00  0.12141444483E+03  0.12013926287E+04  0.11952417249E+04 0.  0.
        4    1    3    3  502    0  0.47810041599E+03 -0.11814391025E+03 -0.27957757011E+03  0.56630665007E+03  0.12699999809E+01 0.  1.
       -4    1    3    3    0  502 -0.47810041599E+03  0.11814391025E+03  0.40099201494E+03  0.63508597863E+03  0.12699999809E+01 0. -1.
</event>
<event>
 5   0  0.4024486E-04  0.1200789E+04  0.7818609E-02  0.9112166E-01
        2   -1    0    0  501    0  0.00000000000E+00  0.00000000000E+00  0.51151176838E+03  0.51151176839E+03  0.25500000920E-02 0.  1.
       -2   -1    0    0    0  501  0.00000000000E+00  0.00000000000E+00 -0.70472215040E+03  0.70472215040E+03  0.25500000920E-02 0. -1.
    10030    2    1    2    0    0  0.00000000000E+00  0.00000000000E+00 -0.19321038201E+03  0.12162339188E+04  0.12007891961E+04 0.  0.
        1    1    3    3  502    0  0.14726506884E+03  0.57766653466E+03 -0.24357175718E+02  0.59663967167E+03  0.50400001928E-02 0.  1.
       -1    1    3    3    0  502 -0.14726506884E+03 -0.57766653466E+03 -0.16885320629E+03  0.61959424713E+03  0.50400001928E-02 0. -1.
</event>
<event>
 5   0  0.3883890E-04  0.1189616E+04  0.7818609E-02  0.9121994E-01
       -2   -1    0    0    0  501  0.00000000000E+00  0.00000000000E+00  0.29786432710E+03  0.29786432711E+03  0.25500000920E-02 0.  1.
        2   -1    0    0  501    0  0.00000000000E+00  0.00000000000E+00 -0.11877781115E+04  0.11877781115E+04  0.25500000920E-02 0. -1.
    10030    2    1    2    0    0  0.00000000000E+00  0.00000000000E+00 -0.88991378439E+03  0.14856424386E+04  0.11896162876E+04 0.  0.
        2    1    3    3  502    0 -0.53229863266E+03 -0.26006642062E+03 -0.51127909377E+03  0.78254884142E+03  0.25500000920E-02 0.  1.
       -2    1    3    3    0  502  0.53229863266E+03  0.26006642062E+03 -0.37863469062E+03  0.70309359720E+03  0.25500000920E-02 0. -1.
</event>
<event>
 5   0  0.2204090E-04  0.1199784E+04  0.7818609E-02  0.9113046E-01
        1   -1    0    0  501    0  0.00000000000E+00  0.00000000000E+00  0.46124614193E+03  0.46124614196E+03  0.50400001928E-02 0.  1.
       -1   -1    0    0    0  501  0.00000000000E+00  0.00000000000E+00 -0.78021342467E+03  0.78021342469E+03  0.50400001928E-02 0. -1.
    10030    2    1    2    0    0  0.00000000000E+00  0.00000000000E+00 -0.31896728274E+03  0.12414595667E+04  0.11997840340E+04 0.  0.
        2    1    3    3  502    0  0.45887437530E+03  0.38562030093E+03 -0.18486576148E+03  0.62725119256E+03  0.25500000920E-02 0.  1.
       -2    1    3    3    0  502 -0.45887437530E+03 -0.38562030093E+03 -0.13410152127E+03  0.61420837409E+03  0.25500000920E-02 0. -1.
</event>
<event>
 5   0  0.4122956E-04  0.1201765E+04  0.7818609E-02  0.9111313E-01
        2   -1    0    0  501    0  0.00000000000E+00  0.00000000000E+00  0.13182255237E+04  0.13182255237E+04  0.25500000920E-02 0.  1.
       -2   -1    0    0    0  501  0.00000000000E+00  0.00000000000E+00 -0.27389829092E+03  0.27389829093E+03  0.25500000920E-02 0. -1.
    10030    2    1    2    0    0  0.00000000000E+00  0.00000000000E+00  0.10443272327E+04  0.15921238146E+04  0.12017648988E+04 0.  0.
        5    1    3    3  502    0  0.53325363842E+03 -0.15617971643E+03  0.82509925623E+03  0.99476752025E+03  0.46999998093E+01 0.  1.
       -5    1    3    3    0  502 -0.53325363842E+03  0.15617971643E+03  0.21922797651E+03  0.59735629435E+03  0.46999998093E+01 0. -1.
</event>
<event>
 5   0  0.2340731E-04  0.1204458E+04  0.7818609E-02  0.9108964E-01
        1   -1    0    0  501    0  0.00000000000E+00  0.00000000000E+00  0.10457400632E+04  0.10457400632E+04  0.50400001928E-02 0. -1.
       -1   -1    0    0    0  501  0.00000000000E+00  0.00000000000E+00 -0.34681615460E+03  0.34681615463E+03  0.50400001928E-02 0.  1.
    10030    2    1    2    0    0  0.00000000000E+00  0.00000000000E+00  0.69892390859E+03  0.13925562178E+04  0.12044576331E+04 0.  0.
        3    1    3    3  502    0  0.10455201573E+03  0.33005594345E+03 -0.22025064393E+03  0.41033937924E+03  0.10100000352E+00 0.  1.
       -3    1    3    3    0  502 -0.10455201573E+03 -0.33005594345E+03  0.91917455252E+03  0.98221683859E+03  0.10100000352E+00 0. -1.
</event>
<event>
 5   0  0.2340731E-04  0.1200984E+04  0.7818609E-02  0.9111995E-01
        1   -1    0    0  501    0  0.00000000000E+00  0.00000000000E+00  0.88321951973E+03  0.88321951974E+03  0.50400001928E-02 0. -1.
       -1   -1    0    0    0  501  0.00000000000E+00  0.00000000000E+00 -0.40826856905E+03  0.40826856908E+03  0.50400001928E-02 0.  1.
    10030    2    1    2    0    0  0.00000000000E+00  0.00000000000E+00  0.47495095068E+03  0.12914880888E+04  0.12009842122E+04 0.  0.
        3    1    3    3  502    0  0.50508570581E+03 -0.30540700225E+02  0.58517793410E+03  0.77361329444E+03  0.10100000352E+00 0. -1.
       -3    1    3    3    0  502 -0.50508570581E+03  0.30540700225E+02 -0.11022698341E+03  0.51787479438E+03  0.10100000352E+00 0.  1.
</event>
<event>
 5   0  0.2304842E-04  0.1198272E+04  0.7818609E-02  0.9114370E-01
       -1   -1    0    0    0  501  0.00000000000E+00  0.00000000000E+00  0.31214027105E+03  0.31214027109E+03  0.50400001928E-02 0. -1.
        1   -1    0    0  501    0  0.00000000000E+00  0.00000000000E+00 -0.11500088598E+04  0.11500088598E+04  0.50400001928E-02 0.  1.
    10030    2    1    2    0    0  0.00000000000E+00  0.00000000000E+00 -0.83786858878E+03  0.14621491309E+04  0.11982722182E+04 0.  0.
        4    1    3    3  502    0 -0.96206158335E+02 -0.24951075061E+03  0.23527733776E+03  0.35618573545E+03  0.12699999809E+01 0. -1.
       -4    1    3    3    0  502  0.96206158335E+02  0.24951075061E+03 -0.10731459265E+04  0.11059633955E+04  0.12699999809E+01 0.  1.
</event>
<event>
 5   0  0.3832662E-04  0.1214389E+04  0.7818609E-02  0.9100355E-01
       -2   -1    0    0    0  501  0.00000000000E+00  0.00000000000E+00  0.91521934444E+03  0.91521934444E+03  0.25500000920E-02 0.  1.
        2   -1    0    0  501    0  0.00000000000E+00  0.00000000000E+00 -0.40283776992E+03  0.40283776992E+03  0.25500000920E-02 0. -1.
    10030    2    1    2    0    0  0.00000000000E+00  0.00000000000E+00  0.51238157452E+03  0.13180571144E+04  0.12143886029E+04 0.  0.
        4    1    3    3  502    0  0.11048685159E+03  0.54885293376E+03  0.11032113652E+01  0.55986580289E+03  0.12699999809E+01 0. -1.
       -4    1    3    3    0  502 -0.11048685159E+03 -0.54885293376E+03  0.51127836315E+03  0.75819131148E+03  0.12699999809E+01 0.  1.
</event>
<event>
 5   0  0.3883890E-04  0.1200492E+04  0.7818609E-02  0.9112426E-01
       -2   -1    0    0    0  501  0.00000000000E+00  0.00000000000E+00  0.40900366801E+03  0.40900366802E+03  0.25500000920E-02 0.  1.
        2   -1    0    0  501    0  0.00000000000E+00  0.00000000000E+00 -0.88091009298E+03  0.88091009299E+03  0.25500000920E-02 0. -1.
    10030    2    1    2    0    0  0.00000000000E+00  0.00000000000E+00 -0.47190642497E+03  0.12899137610E+04  0.12004923310E+04 0.  0.
        2    1    3    3  502    0  0.22684608933E+03 -0.31637252934E+03 -0.72687131810E+03  0.82455602517E+03  0.25500000920E-02 0. -1.
       -2    1    3    3    0  502 -0.22684608933E+03  0.31637252934E+03  0.25496489313E+03  0.46535773583E+03  0.25500000920E-02 0.  1.
</event>
<event>
 5   0  0.3832662E-04  0.1199651E+04  0.7818609E-02  0.9113162E-01
       -2   -1    0    0    0  501  0.00000000000E+00  0.00000000000E+00  0.24720294020E+03  0.24720294021E+03  0.25500000920E-02 0.  1.
        2   -1    0    0  501    0  0.00000000000E+00  0.00000000000E+00 -0.14554469176E+04  0.14554469176E+04  0.25500000920E-02 0. -1.
    10030    2    1    2    0    0  0.00000000000E+00  0.00000000000E+00 -0.12082439774E+04  0.17026498578E+04  0.11996512116E+04 0.  0.
        4    1    3    3  502    0  0.13414803270E+03 -0.34633956329E+03 -0.12726084016E+04  0.13257000206E+04  0.12699999809E+01 0. -1.
       -4    1    3    3    0  502 -0.13414803270E+03  0.34633956329E+03  0.64364424233E+02  0.37694983723E+03  0.12699999809E+01 0.  1.
</event>
<event>
 5   0  0.4024486E-04  0.1201057E+04  0.7818609E-02  0.9111931E-01
       -2   -1    0    0    0  501  0.00000000000E+00  0.00000000000E+00  0.38094168261E+03  0.38094168262E+03  0.25500000920E-02 0. -1.
        2   -1    0    0  501    0  0.00000000000E+00  0.00000000000E+00 -0.94669277766E+03  0.94669277767E+03  0.25500000920E-02 0.  1.
    10030    2    1    2    0    0  0.00000000000E+00  0.00000000000E+00 -0.56575109506E+03  0.13276344603E+04  0.12010574335E+04 0.  0.
        1    1    3    3  502    0  0.46084583930E+02 -0.46598985047E+03  0.13273329923E+03  0.48671188435E+03  0.50400001928E-02 0.  1.
       -1    1    3    3    0  502 -0.46084583930E+02  0.46598985047E+03 -0.69848439429E+03  0.84092257593E+03  0.50400001928E-02 0. -1.
</event>
<event>
 5   0  0.3993723E-04  0.1195628E+04  0.7818609E-02  0.9116692E-01
        2   -1    0    0  501    0  0.00000000000E+00  0.00000000000E+00  0.51413907329E+03  0.51413907330E+03  0.25500000920E-02 0. -1.
       -2   -1    0    0    0  501  0.00000000000E+00  0.00000000000E+00 -0.69510722142E+03  0.69510722143E+03  0.25500000920E-02 0.  1.
    10030    2    1    2    0    0  0.00000000000E+00  0.00000000000E+00 -0.18096814813E+03  0.12092462947E+04  0.11956283414E+04 0.  0.
        3    1    3    3  502    0  0.14320574828E+03 -0.41097552977E+03 -0.50499721555E+03  0.66665656100E+03  0.10100000352E+00 0.  1.
       -3    1    3    3    0  502 -0.14320574828E+03  0.41097552977E+03  0.32402906742E+03  0.54258973372E+03  0.10100000352E+00 0. -1.
</event>
<event>
 5   0  0.2315038E-04  0.1199257E+04  0.7818609E-02  0.9113507E-01
       -1   -1    0    0    0  501  0.00000000000E+00  0.00000000000E+00  0.25631073373E+03  0.25631073377E+03  0.50400001928E-02 0. -1.
        1   -1    0    0  501    0  0.00000000000E+00  0.00000000000E+00 -0.14028069878E+04  0.14028069878E+04  0.50400001928E-02 0.  1.
    10030    2    1    2    0    0  0.00000000000E+00  0.00000000000E+00 -0.11464962541E+04  0.16591177216E+04  0.11992572507E+04 0.  0.
        1    1    3    3  502    0 -0.26189622250E+03 -0.13528163576E+03 -0.12956494619E+04  0.13287581723E+04  0.50400001928E-02 0.  1.
       -1    1    3    3    0  502  0.26189622250E+03  0.13528163576E+03  0.14915320786E+03  0.33035954924E+03  0.50400001928E-02 0. -1.
</event>
<event>
 5   0  0.3883890E-04  0.1202035E+04  0.7818609E-02  0.9111078E-01
       -2   -1    0    0    0  501  0.00000000000E+00  0.00000000000E+00  0.19258274341E+03  0.19258274343E+03  0.25500000920E-02 0. -1.
        2   -1    0    0  501    0  0.00000000000E+00  0.00000000000E+00 -0.18756705770E+04  0.18756705770E+04  0.25500000920E-02 0.  1.
    10030    2    1    2    0    0  0.00000000000E+00  0.00000000000E+00 -0.16830878336E+04  0.20682533204E+04  0.12020345843E+04 0.  0.
        2    1    3    3  502    0 -0.35768067950E+03  0.35800628776E+03 -0.13994035403E+04  0.14880975234E+04  0.25500000920E-02 0.  1.
       -2    1    3    3    0  502  0.35768067950E+03 -0.35800628776E+03 -0.28368429331E+03  0.58015579704E+03  0.25500000920E-02 0. -1.
</event>
<event>
 5   0  0.2204090E-04  0.1198251E+04  0.7818609E-02  0.9114389E-01
       -1   -1    0    0    0  501  0.00000000000E+00  0.00000000000E+00  0.39118144589E+03  0.39118144593E+03  0.50400001928E-02 0.  1.
        1   -1    0    0  501    0  0.00000000000E+00  0.00000000000E+00 -0.91760871797E+03  0.91760871799E+03  0.50400001928E-02 0. -1.
    10030    2    1    2    0    0  0.00000000000E+00  0.00000000000E+00 -0.52642727208E+03  0.13087901639E+04  0.11982512342E+04 0.  0.
        2    1    3    3  502    0  0.19305668473E+02 -0.19914367118E+03 -0.88004069902E+03  0.90249794601E+03  0.25500000920E-02 0. -1.
       -2    1    3    3    0  502 -0.19305668473E+02  0.19914367118E+03  0.35361342695E+03  0.40629221790E+03  0.25500000920E-02 0.  1.
</event>
<event>
 5   0  0.3883890E-04  0.1200586E+04  0.7818609E-02  0.9112344E-01
       -2   -1    0    0    0  501  0.00000000000E+00  0.00000000000E+00  0.21254624786E+03  0.21254624787E+03  0.25500000920E-02 0.  1.
        2   -1    0    0  501    0  0.00000000000E+00  0.00000000000E+00 -0.16954045072E+04  0.16954045072E+04  0.25500000920E-02 0. -1.
    10030    2    1    2    0    0  0.00000000000E+00  0.00000000000E+00 -0.14828582593E+04  0.19079507550E+04  0.12005863011E+04 0.  0.
        2    1    3    3  502    0  0.28521826176E+03  0.10987080394E+03 -0.15624858020E+04  0.15921001639E+04  0.25500000920E-02 0. -1.
       -2    1    3    3    0  502 -0.28521826176E+03 -0.10987080394E+03  0.79627542655E+02  0.31585059119E+03  0.25500000920E-02 0.  1.
</event>
<event>
 5   0  0.3832662E-04  0.1199831E+04  0.7818609E-02  0.9113004E-01
        2   -1    0    0  501    0  0.00000000000E+00  0.00000000000E+00  0.15166051562E+04  0.15166051562E+04  0.25500000920E-02 0.  1.
       -2   -1    0    0    0  501  0.00000000000E+00  0.00000000000E+00 -0.23730558495E+03  0.23730558497E+03  0.25500000920E-02 0. -1.
    10030    2    1    2    0    0  0.00000000000E+00  0.00000000000E+00  0.12792995713E+04  0.17539107412E+04  0.11998314444E+04 0.  0.
        4    1    3    3  502    0  0.24529417656E+03 -0.16765152400E+03 -0.12219923860E+03  0.32126396214E+03  0.12699999809E+01 0. -1.
       -4    1    3    3    0  502 -0.24529417656E+03  0.16765152400E+03  0.14014988099E+04  0.14326467790E+04  0.12699999809E+01 0.  1.
</event>
<event>
 5   0  0.2304842E-04  0.1197131E+04  0.7818609E-02  0.9115372E-01
        1   -1    0    0  501    0  0.00000000000E+00  0.00000000000E+00  0.81797597968E+03  0.81797597970E+03  0.50400001928E-02 0.  1.
       -1   -1    0    0    0  501  0.00000000000E+00  0.00000000000E+00 -0.43800846872E+03  0.43800846874E+03  0.50400001928E-02 0. -1.
    10030    2    1    2    0    0  0.00000000000E+00  0.00000000000E+00  0.37996751097E+03  0.12559844484E+04  0.11971305799E+04 0.  0.
        4    1    3    3  502    0 -0.39034699210E+03  0.45339864664E+03  0.20926342263E+03  0.63382481805E+03  0.12699999809E+01 0. -1.
       -4    1    3    3    0  502  0.39034699210E+03 -0.45339864664E+03  0.17070408833E+03  0.62215963040E+03  0.12699999809E+01 0.  1.
</event>
<event>
 5   0  0.2340731E-04  0.1203204E+04  0.7818609E-02  0.9110057E-01
       -1   -1    0    0    0  501  0.00000000000E+00  0.00000000000E+00  0.20257284953E+03  0.20257284959E+03  0.50400001928E-02 0. -1.
        1   -1    0    0  501    0  0.00000000000E+00  0.00000000000E+00 -0.17866399161E+04  0.17866399162E+04  0.50400001928E-02 0.  1.
    10030    2    1    2    0    0  0.00000000000E+00  0.00000000000E+00 -0.15840670666E+04  0.19892127657E+04  0.12032036219E+04 0.  0.
        3    1    3    3  502    0 -0.97210052953E+02 -0.38657415836E+03 -0.15369849340E+04  0.15878325075E+04  0.10100000352E+00 0.  1.
       -3    1    3    3    0  502  0.97210052953E+02  0.38657415836E+03 -0.47082132633E+02  0.40138025826E+03  0.10100000352E+00 0. -1.
</event>
<event>
 5   0  0.3993723E-04  0.1199273E+04  0.7818609E-02  0.9113493E-01
        2   -1    0    0  501    0  0.00000000000E+00  0.00000000000E+00  0.12290959485E+04  0.12290959485E+04  0.25500000920E-02 0. -1.
       -2   -1    0    0    0  501  0.00000000000E+00  0.00000000000E+00 -0.29254364604E+03  0.29254364605E+03  0.25500000920E-02 0.  1.
    10030    2    1    2    0    0  0.00000000000E+00  0.00000000000E+00  0.93655230243E+03  0.15216395945E+04  0.11992734636E+04 0.  0.
        3    1    3    3  502    0 -0.25291869408E+03  0.41567747351E+03  0.23636777905E+02  0.48714919200E+03  0.10100000352E+00 0.  1.
       -3    1    3    3    0  502  0.25291869408E+03 -0.41567747351E+03  0.91291552453E+03  0.10344904025E+04  0.10100000352E+00 0. -1.
</event>
<event>
 5   0  0.2244308E-04  0.1199582E+04  0.7818609E-02  0.9113222E-01
        1   -1    0    0  501    0  0.00000000000E+00  0.00000000000E+00  0.56696162417E+03  0.56696162419E+03  0.50400001928E-02 0.  1.
       -1   -1    0    0    0  501  0.00000000000E+00  0.00000000000E+00 -0.63452151102E+03  0.63452151104E+03  0.50400001928E-02 0. -1.
    10030    2    1    2    0    0  0.00000000000E+00  0.00000000000E+00 -0.67559886851E+02  0.12014831352E+04  0.11995821714E+04 0.  0.
        5    1    3    3  502    0 -0.27307501082E+03 -0.46960704586E+03 -0.28840025977E+03  0.61505897188E+03  0.46999998093E+01 0. -1.
       -5    1    3    3    0  502  0.27307501082E+03  0.46960704586E+03  0.22084037292E+03  0.58642416335E+03  0.46999998093E+01 0.  1.
</event>
<event>
 5   0  0.2304842E-04  0.1203679E+04  0.7818609E-02  0.9109642E-01
       -1   -1    0    0    0  501  0.00000000000E+00  0.00000000000E+00  0.13039012553E+03  0.13039012563E+03  0.50400001928E-02 0.  1.
        1   -1    0    0  501    0  0.00000000000E+00  0.00000000000E+00 -0.27779023278E+04  0.27779023278E+04  0.50400001928E-02 0. -1.
    10030    2    1    2    0    0  0.00000000000E+00  0.00000000000E+00 -0.26475122022E+04  0.29082924534E+04  0.12036794148E+04 0.  0.
        4    1    3    3  502    0  0.39980491986E+03 -0.11970267630E+03 -0.23714841527E+04  0.24079267854E+04  0.12699999809E+01 0. -1.
       -4    1    3    3    0  502 -0.39980491986E+03  0.11970267630E+03 -0.27602804957E+03  0.50036566800E+03  0.12699999809E+01 0.  1.
</event>
<event>
 5   0  0.3832662E-04  0.1199283E+04  0.7818609E-02  0.9113484E-01
        2   -1    0    0  501    0  0.00000000000E+00  0.00000000000E+00  0.86648007892E+03  0.86648007893E+03  0.25500000920E-02 0.  1.
       -2   -1    0    0    0  501  0.00000000000E+00  0.00000000000E+00 -0.41497803886E+03  0.41497803887E+03  0.25500000920E-02 0. -1.
    10030    2    1    2    0    0  0.00000000000E+00  0.00000000000E+00  0.45150204007E+03  0.12814581178E+04  0.11992834592E+04 0.  0.
        4    1    3    3  502    0  0.31958980778E+03  0.42676682454E+03  0.51896387832E+03  0.74403809557E+03  0.12699999809E+01 0.  1.
       -4    1    3    3    0  502 -0.31958980778E+03 -0.42676682454E+03 -0.67461838253E+02  0.53742002222E+03  0.12699999809E+01 0. -1.
</event>
<event>
 5   0  0.4024486E-04  0.1200369E+04  0.7818609E-02  0.9112533E-01
       -2   -1    0    0    0  501  0.00000000000E+00  0.00000000000E+00  0.32673663597E+03  0.32673663598E+03  0.25500000920E-02 0.  1.
        2   -1    0    0  501    0  0.00000000000E+00  0.00000000000E+00 -0.11024829117E+04  0.11024829117E+04  0.25500000920E-02 0. -1.
    10030    2    1    2    0    0  0.00000000000E+00  0.00000000000E+00 -0.77574627576E+03  0.14292195477E+04  0.12003692062E+04 0.  0.
        1    1    3    3  502    0 -0.17778646655E+03 -0.30352260864E+03  0.19113977394E+03  0.40033537796E+03  0.50400001928E-02 0.  1.
       -1    1    3    3    0  502  0.17778646655E+03  0.30352260864E+03 -0.96688604970E+03  0.10288841698E+04  0.50400001928E-02 0. -1.
</event>
<event>
 5   0  0.2204090E-04  0.1199075E+04  0.7818609E-02  0.9113666E-01
        1   -1    0    0  501    0  0.00000000000E+00  0.00000000000E+00  0.63371728437E+03  0.63371728439E+03  0.50400001928E-02 0.  1.
       -1   -1    0    0    0  501  0.00000000000E+00  0.00000000000E+00 -0.56720147430E+03  0.56720147432E+03  0.50400001928E-02 0. -1.
    10030    2    1    2    0    0  0.00000000000E+00  0.00000000000E+00  0.66515810070E+02  0.12009187587E+04  0.11990752737E+04 0.  0.
        2    1    3    3  502    0 -0.35704175970E+03 -0.15077626306E+03 -0.42486536665E+03  0.57508510628E+03  0.25500000920E-02 0. -1.
       -2    1    3    3    0  502  0.35704175970E+03  0.15077626306E+03  0.49138117673E+03  0.62583365243E+03  0.25500000920E-02 0.  1.
</event>
<event>
 5   0  0.3883890E-04  0.1199804E+04  0.7818609E-02  0.9113028E-01
        2   -1    0    0  501    0  0.00000000000E+00  0.00000000000E+00  0.50197292029E+03  0.50197292030E+03  0.25500000920E-02 0. -1.
       -2   -1    0    0    0  501  0.00000000000E+00  0.00000000000E+00 -0.71693606022E+03  0.71693606022E+03  0.25500000920E-02 0.  1.
    10030    2    1    2    0    0  0.00000000000E+00  0.00000000000E+00 -0.21496313992E+03  0.12189089805E+04  0.11998041304E+04 0.  0.
        2    1    3    3  502    0  0.17626352487E+03 -0.17027210527E+03 -0.66375971447E+03  0.70755803903E+03  0.25500000920E-02 0.  1.
       -2    1    3    3    0  502 -0.17626352487E+03  0.17027210527E+03  0.44879657455E+03  0.51135094149E+03  0.25500000920E-02 0. -1.
</event>
<event>
 5   0  0.1541375E-04  0.1201560E+04  0.7818609E-02  0.9111492E-01
       -3   -1    0    0    0  501  0.00000000000E+00  0.00000000000E+00  0.96428289285E+03  0.96428289814E+03  0.10100000352E+00 0. -1.
        3   -1    0    0  501    0  0.00000000000E+00  0.00000000000E+00 -0.37430585605E+03  0.37430586968E+03  0.10100000352E+00 0.  1.
    10030    2    1    2    0    0  0.00000000000E+00  0.00000000000E+00  0.58997703680E+03  0.13385887678E+04  0.12015602296E+04 0.  0.
        5    1    3    3  502    0 -0.16564515777E+02 -0.47063061007E+03 -0.12057624356E+03  0.48613606617E+03  0.46999998093E+01 0.  1.
       -5    1    3    3    0  502  0.16564515777E+02  0.47063061007E+03  0.71055328036E+03  0.85245270165E+03  0.46999998093E+01 0. -1.
</event>
<event>
 5   0  0.4024486E-04  0.1191904E+04  0.7818609E-02  0.9119973E-01
       -2   -1    0    0    0  501  0.00000000000E+00  0.00000000000E+00  0.32640984057E+03  0.32640984058E+03  0.25500000920E-02 0. -1.
        2   -1    0    0  501    0  0.00000000000E+00  0.00000000000E+00 -0.10880761659E+04  0.10880761659E+04  0.25500000920E-02 0.  1.
    10030    2    1    2    0    0  0.00000000000E+00  0.00000000000E+00 -0.76166632531E+03  0.14144860065E+04  0.11919039690E+04 0.  0.
        1    1    3    3  502    0  0.37748263527E+03  0.40284727982E+03 -0.11446325201E+03  0.56380928236E+03  0.50400001928E-02 0. -1.
       -1    1    3    3    0  502 -0.37748263527E+03 -0.40284727982E+03 -0.64720307330E+03  0.85067672409E+03  0.50400001928E-02 0.  1.
</event>
<event>
 5   0  0.3993723E-04  0.1201563E+04  0.7818609E-02  0.9111489E-01
       -2   -1    0    0    0  501  0.00000000000E+00  0.00000000000E+00  0.19299513276E+03  0.19299513278E+03  0.25500000920E-02 0.  1.
        2   -1    0    0  501    0  0.00000000000E+00  0.00000000000E+00 -0.18701947827E+04  0.18701947827E+04  0.25500000920E-02 0. -1.
    10030    2    1    2    0    0  0.00000000000E+00  0.00000000000E+00 -0.16771996500E+04  0.20631899155E+04  0.12015631326E+04 0.  0.
        3    1    3    3  502    0 -0.47047357772E+03 -0.17266492582E+03 -0.14075235691E+04  0.14940820499E+04  0.10100000352E+00 0. -1.
       -3    1    3    3    0  502  0.47047357772E+03  0.17266492582E+03 -0.26967608085E+03  0.56910786563E+03  0.10100000352E+00 0.  1.
</event>
<event>
 5   0  0.3883890E-04  0.1201012E+04  0.7818609E-02  0.9111972E-01
       -2   -1    0    0    0  501  0.00000000000E+00  0.00000000000E+00  0.32380714306E+03  0.32380714307E+03  0.25500000920E-02 0. -1.
        2   -1    0    0  501    0  0.00000000000E+00  0.00000000000E+00 -0.11136481746E+04  0.11136481746E+04  0.25500000920E-02 0.  1.
    10030    2    1    2    0    0  0.00000000000E+00  0.00000000000E+00 -0.78984103153E+03  0.14374553177E+04  0.12010116299E+04 0.  0.
        2    1    3    3  502    0 -0.13421384045E+03  0.61418694607E+02  0.30175845251E+03  0.33592227476E+03  0.25500000920E-02 0. -1.
       -2    1    3    3    0  502  0.13421384045E+03 -0.61418694607E+02 -0.10915994840E+04  0.11015330429E+04  0.25500000920E-02 0.  1.
</event>
<event>
 5   0  0.2244308E-04  0.1188246E+04  0.7818609E-02  0.9123207E-01
        1   -1    0    0  501    0  0.00000000000E+00  0.00000000000E+00  0.11183169107E+04  0.11183169107E+04  0.50400001928E-02 0.  1.
       -1   -1    0    0    0  501  0.00000000000E+00  0.00000000000E+00 -0.31563718798E+03  0.31563718802E+03  0.50400001928E-02 0. -1.
    10030    2    1    2    0    0  0.00000000000E+00  0.00000000000E+00  0.80267972274E+03  0.14339540987E+04  0.11882464475E+04 0.  0.
        5    1    3    3  502    0  0.44275612435E+03 -0.13167987030E+03 -0.49531203362E+02  0.46459445111E+03  0.46999998093E+01 0. -1.
       -5    1    3    3    0  502 -0.44275612435E+03  0.13167987030E+03  0.85221092610E+03  0.96935964764E+03  0.46999998093E+01 0.  1.
</event>
<event>
 5   0  0.3832662E-04  0.1202327E+04  0.7818609E-02  0.9110822E-01
        2   -1    0    0  501    0  0.00000000000E+00  0.00000000000E+00  0.95758751756E+03  0.95758751756E+03  0.25500000920E-02 0.  1.
       -2   -1    0    0    0  501  0.00000000000E+00  0.00000000000E+00 -0.37740400063E+03  0.37740400064E+03  0.25500000920E-02 0. -1.
    10030    2    1    2    0    0  0.00000000000E+00  0.00000000000E+00  0.58018351692E+03  0.13349915182E+04  0.12023266779E+04 0.  0.
        4    1    3    3  502    0 -0.24705752421E+03  0.33252720380E+03  0.77380258097E+03  0.87771510683E+03  0.12699999809E+01 0.  1.
       -4    1    3    3    0  502  0.24705752421E+03 -0.33252720380E+03 -0.19361906404E+03  0.45727641138E+03  0.12699999809E+01 0. -1.
</event>
<event>
 5   0  0.2340731E-04  0.1201793E+04  0.7818609E-02  0.9111288E-01
       -1   -1    0    0    0  501  0.00000000000E+00  0.00000000000E+00  0.99919529486E+03  0.99919529488E+03  0.50400001928E-02 0.  1.
        1   -1    0    0  501    0  0.00000000000E+00  0.00000000000E+00 -0.36136758150E+03  0.36136758154E+03  0.50400001928E-02 0. -1.
    10030    2    1    2    0    0  0.00000000000E+00  0.00000000000E+00  0.63782771336E+03  0.13605628764E+04  0.12017933053E+04 0.  0.
        3    1    3    3  502    0  0.38994392362E+03  0.26006621620E+02  0.83566269812E+03  0.92253171391E+03  0.10100000352E+00 0.  1.
       -3    1    3    3    0  502 -0.38994392362E+03 -0.26006621620E+02 -0.19783498476E+03  0.43803116251E+03  0.10100000352E+00 0. -1.
</event>
<event>
 5   0  0.2315038E-04  0.1200349E+04  0.7818609E-02  0.9112551E-01
       -1   -1    0    0    0  501  0.00000000000E+00  0.00000000000E+00  0.29568305700E+03  0.29568305704E+03  0.50400001928E-02 0. -1.
        1   -1    0    0  501    0  0.00000000000E+00  0.00000000000E+00 -0.12182289371E+04  0.12182289371E+04  0.50400001928E-02 0.  1.
    10030    2    1    2    0    0  0.00000000000E+00  0.00000000000E+00 -0.92254588009E+03  0.15139119941E+04  0.12003493763E+04 0.  0.
        1    1    3    3  502    0  0.30486797293E+03 -0.37873768499E+03 -0.90507929496E+03  0.10274021828E+04  0.50400001928E-02 0. -1.
       -1    1    3    3    0  502 -0.30486797293E+03  0.37873768499E+03 -0.17466585124E+02  0.48650981138E+03  0.50400001928E-02 0.  1.
</event>
<event>
 5   0  0.3993723E-04  0.1200993E+04  0.7818609E-02  0.9111988E-01
        2   -1    0    0  501    0  0.00000000000E+00  0.00000000000E+00  0.13651939376E+04  0.13651939376E+04  0.25500000920E-02 0. -1.
       -2   -1    0    0    0  501  0.00000000000E+00  0.00000000000E+00 -0.26413550005E+03  0.26413550006E+03  0.25500000920E-02 0.  1.
    10030    2    1    2    0    0  0.00000000000E+00  0.00000000000E+00  0.11010584376E+04  0.16293294377E+04  0.12009932279E+04 0.  0.
        3    1    3    3  502    0 -0.10446475448E+03  0.84903780749E+02 -0.24340140154E+03  0.27814706431E+03  0.10100000352E+00 0.  1.
       -3    1    3    3    0  502  0.10446475448E+03 -0.84903780749E+02  0.13444598391E+04  0.13511823734E+04  0.10100000352E+00 0. -1.
</event>
<event>
 5   0  0.2244308E-04  0.1195719E+04  0.7818609E-02  0.9116612E-01
       -1   -1    0    0    0  501  0.00000000000E+00  0.00000000000E+00  0.52565951340E+03  0.52565951342E+03  0.50400001928E-02 0.  1.
        1   -1    0    0  501    0  0.00000000000E+00  0.00000000000E+00 -0.67997658985E+03  0.67997658987E+03  0.50400001928E-02 0. -1.
    10030    2    1    2    0    0  0.00000000000E+00  0.00000000000E+00 -0.15431707645E+03  0.12056361033E+04  0.11957193038E+04 0.  0.
        5    1    3    3  502    0 -0.46029934733E+03 -0.25024769264E+03 -0.36749575512E+03  0.63998016911E+03  0.46999998093E+01 0. -1.
       -5    1    3    3    0  502  0.46029934733E+03  0.25024769264E+03  0.21317867868E+03  0.56565593418E+03  0.46999998093E+01 0.  1.
</event>
<event>
 5   0  0.2340731E-04  0.1196910E+04  0.7818609E-02  0.9115565E-01
        1   -1    0    0  501    0  0.00000000000E+00  0.00000000000E+00  0.66559494349E+03  0.66559494351E+03  0.50400001928E-02 0. -1.
       -1   -1    0    0    0  501  0.00000000000E+00  0.00000000000E+00 -0.53808784026E+03  0.53808784028E+03  0.50400001928E-02 0.  1.
    10030    2    1    2    0    0  0.00000000000E+00  0.00000000000E+00  0.12750710324E+03  0.12036827838E+04  0.11969102651E+04 0.  0.
        3    1    3    3  502    0  0.25125935361E+03  0.45531323999E+03  0.36158317874E+03  0.63339072825E+03  0.10100000352E+00 0. -1.
       -3    1    3    3    0  502 -0.25125935361E+03 -0.45531323999E+03 -0.23407607550E+03  0.57029205554E+03  0.10100000352E+00 0.  1.
</event>
<event>
 5   0  0.2304842E-04  0.1201111E+04  0.7818609E-02  0.9111885E-01
       -1   -1    0    0    0  501  0.00000000000E+00  0.00000000000E+00  0.53604073337E+03  0.53604073339E+03  0.50400001928E-02 0.  1.
        1   -1    0    0  501    0  0.00000000000E+00  0.00000000000E+00 -0.67283499582E+03  0.67283499584E+03  0.50400001928E-02 0. -1.
    10030    2    1    2    0    0  0.00000000000E+00  0.00000000000E+00 -0.13679426245E+03  0.12088757292E+04  0.12011110933E+04 0.  0.
        4    1    3    3  502    0 -0.14698114302E+03 -0.22737735656E+03 -0.60792355637E+03  0.66548973092E+03  0.12699999809E+01 0. -1.
       -4    1    3    3    0  502  0.14698114302E+03  0.22737735656E+03  0.47112929391E+03  0.54338599831E+03  0.12699999809E+01 0.  1.
</event>
<event>
 5   0  0.2244308E-04  0.1197501E+04  0.7818609E-02  0.9115047E-01
       -1   -1    0    0    0  501  0.00000000000E+00  0.00000000000E+00  0.95137061421E+03  0.95137061422E+03  0.50400001928E-02 0. -1.
        1   -1    0    0  501    0  0.00000000000E+00  0.00000000000E+00 -0.37682680963E+03  0.37682680966E+03  0.50400001928E-02 0.  1.
    10030    2    1    2    0    0  0.00000000000E+00  0.00000000000E+00  0.57454380458E+03  0.13281974239E+04  0.11975006528E+04 0.  0.
        5    1    3    3  502    0  0.50574169159E+03  0.21642806767E+03  0.25119849112E+02  0.55069852361E+03  0.46999998093E+01 0.  1.
       -5    1    3    3    0  502 -0.50574169159E+03 -0.21642806767E+03  0.54942395547E+03  0.77749890028E+03  0.46999998093E+01 0. -1.
</event>
<event>
 5   0  0.2304842E-04  0.1201596E+04  0.7818609E-02  0.9111461E-01
       -1   -1    0    0    0  501  0.00000000000E+00  0.00000000000E+00  0.54505052914E+03  0.54505052916E+03  0.50400001928E-02 0.  1.
        1   -1    0    0  501    0  0.00000000000E+00  0.00000000000E+00 -0.66224714636E+03  0.66224714638E+03  0.50400001928E-02 0. -1.
    10030    2    1    2    0    0  0.00000000000E+00  0.00000000000E+00 -0.11719661723E+03  0.12072976755E+04  0.12015958681E+04 0.  0.
        4    1    3    3  502    0 -0.48551992070E+03 -0.35127981870E+02  0.29519896377E+03  0.56930449640E+03  0.12699999809E+01 0. -1.
       -4    1    3    3    0  502  0.48551992070E+03  0.35127981870E+02 -0.41239558099E+03  0.63799317914E+03  0.12699999809E+01 0.  1.
</event>
<event>
 5   0  0.4024486E-04  0.1198301E+04  0.7818609E-02  0.9114345E-01
       -2   -1    0    0    0  501  0.00000000000E+00  0.00000000000E+00  0.68552883679E+03  0.68552883679E+03  0.25500000920E-02 0. -1.
        2   -1    0    0  501    0  0.00000000000E+00  0.00000000000E+00 -0.52365605061E+03  0.52365605062E+03  0.25500000920E-02 0.  1.
    10030    2    1    2    0    0  0.00000000000E+00  0.00000000000E+00  0.16187278618E+03  0.12091848874E+04  0.11983010027E+04 0.  0.
        1    1    3    3  502    0 -0.50725072808E+01 -0.48217975791E+03  0.43977603354E+03  0.65263007053E+03  0.50400001928E-02 0. -1.
       -1    1    3    3    0  502  0.50725072808E+01  0.48217975791E+03 -0.27790324736E+03  0.55655481687E+03  0.50400001928E-02 0.  1.
</event>
<event>
 5   0  0.2304842E-04  0.1199099E+04  0.7818609E-02  0.9113645E-01
        1   -1    0    0  501    0  0.00000000000E+00  0.00000000000E+00  0.17089333542E+04  0.17089333542E+04  0.50400001928E-02 0.  1.
       -1   -1    0    0    0  501  0.00000000000E+00  0.00000000000E+00 -0.21034160397E+03  0.21034160403E+03  0.50400001928E-02 0. -1.
    10030    2    1    2    0    0  0.00000000000E+00  0.00000000000E+00  0.14985917502E+04  0.19192749582E+04  0.11990993001E+04 0.  0.
        4    1    3    3  502    0 -0.53842554205E+03 -0.86738590222E+02  0.35064587493E+03  0.64836701788E+03  0.12699999809E+01 0. -1.
       -4    1    3    3    0  502  0.53842554205E+03  0.86738590222E+02  0.11479458753E+04  0.12709079404E+04  0.12699999809E+01 0.  1.
</event>
<event>
 5   0  0.3993723E-04  0.1203895E+04  0.7818609E-02  0.9109454E-01
       -2   -1    0    0    0  501  0.00000000000E+00  0.00000000000E+00  0.41467450995E+03  0.41467450995E+03  0.25500000920E-02 0. -1.
        2   -1    0    0  501    0  0.00000000000E+00  0.00000000000E+00 -0.87379589120E+03  0.87379589120E+03  0.25500000920E-02 0.  1.
    10030    2    1    2    0    0  0.00000000000E+00  0.00000000000E+00 -0.45912138125E+03  0.12884704012E+04  0.12038951499E+04 0.  0.
        3    1    3    3  502    0  0.52914192691E+03 -0.27041493997E+03 -0.33235750592E+03  0.68086484747E+03  0.10100000352E+00 0. -1.
       -3    1    3    3    0  502 -0.52914192691E+03  0.27041493997E+03 -0.12676387533E+03  0.60760555369E+03  0.10100000352E+00 0.  1.
</event>
<event>
 5   0  0.3832662E-04  0.1198911E+04  0.7818609E-02  0.9113810E-01
        2   -1    0    0  501    0  0.00000000000E+00  0.00000000000E+00  0.67539747429E+03  0.67539747429E+03  0.25500000920E-02 0.  1.
       -2   -1    0    0    0  501  0.00000000000E+00  0.00000000000E+00 -0.53205225374E+03  0.53205225375E+03  0.25500000920E-02 0. -1.
    10030    2    1    2    0    0  0.00000000000E+00  0.00000000000E+00  0.14334522055E+03  0.12074497280E+04  0.11989107529E+04 0.  0.
        4    1    3    3  502    0  0.12270855550E+03 -0.23689927264E+03  0.61230733129E+03  0.66790758030E+03  0.12699999809E+01 0.  1.
       -4    1    3    3    0  502 -0.12270855550E+03  0.23689927264E+03 -0.46896211075E+03  0.53954214774E+03  0.12699999809E+01 0. -1.
</event>
<event>
 5   0  0.2304842E-04  0.1199877E+04  0.7818609E-02  0.9112964E-01
       -1   -1    0    0    0  501  0.00000000000E+00  0.00000000000E+00  0.30158298296E+03  0.30158298300E+03  0.50400001928E-02 0. -1.
        1   -1    0    0  501    0  0.00000000000E+00  0.00000000000E+00 -0.11934568090E+04  0.11934568090E+04  0.50400001928E-02 0.  1.
    10030    2    1    2    0    0  0.00000000000E+00  0.00000000000E+00 -0.89187382600E+03  0.14950397920E+04  0.11998771012E+04 0.  0.
        4    1    3    3  502    0 -0.36461870092E+03 -0.56121812098E+02 -0.10354227629E+04  0.10991807703E+04  0.12699999809E+01 0.  1.
       -4    1    3    3    0  502  0.36461870092E+03  0.56121812098E+02  0.14354893693E+03  0.39585902168E+03  0.12699999809E+01 0. -1.
</event>
<event>
 5   0  0.2315038E-04  0.1193834E+04  0.7818609E-02  0.9118270E-01
        1   -1    0    0  501    0  0.00000000000E+00  0.00000000000E+00  0.96117259916E+03  0.96117259917E+03  0.50400001928E-02 0.  1.
       -1   -1    0    0    0  501  0.00000000000E+00  0.00000000000E+00 -0.37070363075E+03  0.37070363078E+03  0.50400001928E-02 0. -1.
    10030    2    1    2    0    0  0.00000000000E+00  0.00000000000E+00  0.59046896841E+03  0.13318762300E+04  0.11938344480E+04 0.  0.
        1    1    3    3  502    0  0.28274050289E+03  0.23735567862E+03  0.81854681717E+03  0.89794142463E+03  0.50400001928E-02 0.  1.
       -1    1    3    3    0  502 -0.28274050289E+03 -0.23735567862E+03 -0.22807784876E+03  0.43393480532E+03  0.50400001928E-02 0. -1.
</event>
<event>
 5   0  0.3883890E-04  0.1199589E+04  0.7818609E-02  0.9113216E-01
        2   -1    0    0  501    0  0.00000000000E+00  0.00000000000E+00  0.76020556280E+03  0.76020556281E+03  0.25500000920E-02 0.  1.
       -2   -1    0    0    0  501  0.00000000000E+00  0.00000000000E+00 -0.47323208634E+03  0.47323208635E+03  0.25500000920E-02 0. -1.
    10030    2    1    2    0    0  0.00000000000E+00  0.00000000000E+00  0.28697347646E+03  0.12334376492E+04  0.11995893706E+04 0.  0.
        2    1    3    3  502    0  0.28098070285E+03 -0.42076376997E+03 -0.18772248137E+03  0.53965918459E+03  0.25500000920E-02 0. -1.
       -2    1    3    3    0  502 -0.28098070285E+03  0.42076376997E+03  0.47469595783E+03  0.69377846456E+03  0.25500000920E-02 0.  1.
</event>
<event>
 5   0  0.3993723E-04  0.1201708E+04  0.7818609E-02  0.9111363E-01
       -2   -1    0    0    0  501  0.00000000000E+00  0.00000000000E+00  0.79436749923E+03  0.79436749924E+03  0.25500000920E-02 0.  1.
        2   -1    0    0  501    0  0.00000000000E+00  0.00000000000E+00 -0.45448141256E+03  0.45448141257E+03  0.25500000920E-02 0. -1.
    10030    2    1    2    0    0  0.00000000000E+00  0.00000000000E+00  0.33988608667E+03  0.12488489118E+04  0.12017075570E+04 0.  0.
        3    1    3    3  502    0  0.48906482876E+03 -0.34058865295E+03  0.90523835444E+02  0.60280976455E+03  0.10100000352E+00 0.  1.
       -3    1    3    3    0  502 -0.48906482876E+03  0.34058865295E+03  0.24936225123E+03  0.64603914726E+03  0.10100000352E+00 0. -1.
</event>
<event>
 5   0  0.2304842E-04  0.1219786E+04  0.7818609E-02  0.9095712E-01
        1   -1    0    0  501    0  0.00000000000E+00  0.00000000000E+00  0.77449660033E+03  0.77449660035E+03  0.50400001928E-02 0.  1.
       -1   -1    0    0    0  501  0.00000000000E+00  0.00000000000E+00 -0.48027224657E+03  0.48027224659E+03  0.50400001928E-02 0. -1.
    10030    2    1    2    0    0  0.00000000000E+00  0.00000000000E+00  0.29422435376E+03  0.12547688469E+04  0.12197855914E+04 0.  0.
        4    1    3    3  502    0 -0.21784082763E+03 -0.52713748825E+03 -0.75042307368E+02  0.57529255036E+03  0.12699999809E+01 0. -1.
       -4    1    3    3    0  502  0.21784082763E+03  0.52713748825E+03  0.36926666113E+03  0.67947629659E+03  0.12699999809E+01 0.  1.
</event>
<event>
 5   0  0.2204090E-04  0.1195146E+04  0.7818609E-02  0.9117116E-01
        1   -1    0    0  501    0  0.00000000000E+00  0.00000000000E+00  0.11435535666E+04  0.11435535666E+04  0.50400001928E-02 0. -1.
       -1   -1    0    0    0  501  0.00000000000E+00  0.00000000000E+00 -0.31226668170E+03  0.31226668174E+03  0.50400001928E-02 0.  1.
    10030    2    1    2    0    0  0.00000000000E+00  0.00000000000E+00  0.83128688487E+03  0.14558202483E+04  0.11951463134E+04 0.  0.
        2    1    3    3  502    0 -0.19138709858E+03  0.39672502484E+03 -0.76258936054E+02  0.44702929677E+03  0.25500000920E-02 0.  1.
       -2    1    3    3    0  502  0.19138709858E+03 -0.39672502484E+03  0.90754582093E+03  0.10087909515E+04  0.25500000920E-02 0. -1.
</event>
<event>
 5   0  0.2315038E-04  0.1200230E+04  0.7818609E-02  0.9112655E-01
        1   -1    0    0  501    0  0.00000000000E+00  0.00000000000E+00  0.61341355502E+03  0.61341355504E+03  0.50400001928E-02 0. -1.
       -1   -1    0    0    0  501  0.00000000000E+00  0.00000000000E+00 -0.58710521971E+03  0.58710521973E+03  0.50400001928E-02 0.  1.
    10030    2    1    2    0    0  0.00000000000E+00  0.00000000000E+00  0.26308335311E+02  0.12005187748E+04  0.12002304779E+04 0.  0.
        1    1    3    3  502    0  0.18043566035E+03  0.52978526756E+03 -0.20348234950E+03  0.59551198463E+03  0.50400001928E-02 0.  1.
       -1    1    3    3    0  502 -0.18043566035E+03 -0.52978526756E+03  0.22979068481E+03  0.60500679013E+03  0.50400001928E-02 0. -1.
</event>
<event>
 5   0  0.3883890E-04  0.1192866E+04  0.7818609E-02  0.9119124E-01
        2   -1    0    0  501    0  0.00000000000E+00  0.00000000000E+00  0.88867438863E+03  0.88867438863E+03  0.25500000920E-02 0. -1.
       -2   -1    0    0    0  501  0.00000000000E+00  0.00000000000E+00 -0.40029529014E+03  0.40029529015E+03  0.25500000920E-02 0.  1.
    10030    2    1    2    0    0  0.00000000000E+00  0.00000000000E+00  0.48837909849E+03  0.12889696788E+04  0.11928657464E+04 0.  0.
        2    1    3    3  502    0  0.11417337342E+03 -0.10634347100E+03  0.86623098091E+03  0.88017078191E+03  0.25500000920E-02 0. -1.
       -2    1    3    3    0  502 -0.11417337342E+03  0.10634347100E+03 -0.37785188243E+03  0.40879889687E+03  0.25500000920E-02 0.  1.
</event>
<event>
 5   0  0.2244308E-04  0.1197852E+04  0.7818609E-02  0.9114739E-01
        1   -1    0    0  501    0  0.00000000000E+00  0.00000000000E+00  0.15559209673E+04  0.15559209673E+04  0.50400001928E-02 0.  1.
       -1   -1    0    0    0  501  0.00000000000E+00  0.00000000000E+00 -0.23054652573E+03  0.23054652578E+03  0.50400001928E-02 0. -1.
    10030    2    1    2    0    0  0.00000000000E+00  0.00000000000E+00  0.13253744416E+04  0.17864674931E+04  0.11978516993E+04 0.  0.
        5    1    3    3  502    0  0.17726942426E+02 -0.70080179302E+02  0.15493633810E+04  0.15510559153E+04  0.46999998093E+01 0.  1.
       -5    1    3    3    0  502 -0.17726942426E+02  0.70080179302E+02 -0.22398893938E+03  0.23541157784E+03  0.46999998093E+01 0. -1.
</event>
<event>
 5   0  0.2340731E-04  0.1197471E+04  0.7818609E-02  0.9115073E-01
        1   -1    0    0  501    0  0.00000000000E+00  0.00000000000E+00  0.57489914008E+03  0.57489914010E+03  0.50400001928E-02 0.  1.
       -1   -1    0    0    0  501  0.00000000000E+00  0.00000000000E+00 -0.62356004918E+03  0.62356004920E+03  0.50400001928E-02 0. -1.
    10030    2    1    2    0    0  0.00000000000E+00  0.00000000000E+00 -0.48660909103E+02  0.11984591893E+04  0.11974708950E+04 0.  0.
        3    1    3    3  502    0  0.74072866245E+02 -0.17562097959E+03 -0.59238554637E+03  0.62229427423E+03  0.10100000352E+00 0. -1.
       -3    1    3    3    0  502 -0.74072866245E+02  0.17562097959E+03  0.54372463727E+03  0.57616491507E+03  0.10100000352E+00 0.  1.
</event>
<event>
 5   0  0.3993723E-04  0.1204892E+04  0.7818609E-02  0.9108585E-01
       -2   -1    0    0    0  501  0.00000000000E+00  0.00000000000E+00  0.46811698115E+03  0.46811698115E+03  0.25500000920E-02 0. -1.
        2   -1    0    0  501    0  0.00000000000E+00  0.00000000000E+00 -0.77532133491E+03  0.77532133491E+03  0.25500000920E-02 0.  1.
    10030    2    1    2    0    0  0.00000000000E+00  0.00000000000E+00 -0.30720435376E+03  0.12434383161E+04  0.12048918337E+04 0.  0.
        3    1    3    3  502    0  0.56845580650E+03  0.84820665118E+02  0.32741693993E+02  0.57568096885E+03  0.10100000352E+00 0.  1.
       -3    1    3    3    0  502 -0.56845580650E+03 -0.84820665118E+02 -0.33994604776E+03  0.66775734721E+03  0.10100000352E+00 0. -1.
</event>
<event>
 5   0  0.3993723E-04  0.1207493E+04  0.7818609E-02  0.9106323E-01
        2   -1    0    0  501    0  0.00000000000E+00  0.00000000000E+00  0.31693115628E+04  0.31693115628E+04  0.25500000920E-02 0.  1.
       -2   -1    0    0    0  501  0.00000000000E+00  0.00000000000E+00 -0.11501228288E+03  0.11501228291E+03  0.25500000920E-02 0. -1.
    10030    2    1    2    0    0  0.00000000000E+00  0.00000000000E+00  0.30542992800E+04  0.32843238458E+04  0.12074928704E+04 0.  0.
        3    1    3    3  502    0  0.55475724223E+03 -0.83627269919E+02  0.21338920222E+04  0.22064098193E+04  0.10100000352E+00 0.  1.
       -3    1    3    3    0  502 -0.55475724223E+03  0.83627269919E+02  0.92040725774E+03  0.10779140264E+04  0.10100000352E+00 0. -1.
</event>
<event>
 5   0  0.2315038E-04  0.1200856E+04  0.7818609E-02  0.9112107E-01
        1   -1    0    0  501    0  0.00000000000E+00  0.00000000000E+00  0.12891739129E+04  0.12891739130E+04  0.50400001928E-02 0. -1.
       -1   -1    0    0    0  501  0.00000000000E+00  0.00000000000E+00 -0.27964723815E+03  0.27964723819E+03  0.50400001928E-02 0.  1.
    10030    2    1    2    0    0  0.00000000000E+00  0.00000000000E+00  0.10095266748E+04  0.15688211512E+04  0.12008562350E+04 0.  0.
        1    1    3    3  502    0  0.29996800007E+02  0.16237096416E+03  0.12589300479E+04  0.12697121735E+04  0.50400001928E-02 0. -1.
       -1    1    3    3    0  502 -0.29996800007E+02 -0.16237096416E+03 -0.24940337306E+03  0.29910897769E+03  0.50400001928E-02 0.  1.
</event>
<event>
 5   0  0.4024486E-04  0.1199594E+04  0.7818609E-02  0.9113212E-01
       -2   -1    0    0    0  501  0.00000000000E+00  0.00000000000E+00  0.60978049955E+03  0.60978049956E+03  0.25500000920E-02 0.  1.
        2   -1    0    0  501    0  0.00000000000E+00  0.00000000000E+00 -0.58997741460E+03  0.58997741461E+03  0.25500000920E-02 0. -1.
    10030    2    1    2    0    0  0.00000000000E+00  0.00000000000E+00  0.19803084947E+02  0.11997579142E+04  0.11995944692E+04 0.  0.
        1    1    3    3  502    0  0.21404362576E+03 -0.42086171247E+03 -0.36003730813E+03  0.59377278316E+03  0.50400001928E-02 0. -1.
       -1    1    3    3    0  502 -0.21404362576E+03  0.42086171247E+03  0.37984039308E+03  0.60598513100E+03  0.50400001928E-02 0.  1.
</event>
<event>
 5   0  0.2204090E-04  0.1191840E+04  0.7818609E-02  0.9120029E-01
        1   -1    0    0  501    0  0.00000000000E+00  0.00000000000E+00  0.46271528369E+03  0.46271528372E+03  0.50400001928E-02 0. -1.
       -1   -1    0    0    0  501  0.00000000000E+00  0.00000000000E+00 -0.76747164212E+03  0.76747164214E+03  0.50400001928E-02 0.  1.
    10030    2    1    2    0    0  0.00000000000E+00  0.00000000000E+00 -0.30475635843E+03  0.12301869259E+04  0.11918403561E+04 0.  0.
        2    1    3    3  502    0  0.30199760607E+02  0.14844523807E+03  0.44250964904E+03  0.46772086092E+03  0.25500000920E-02 0. -1.
       -2    1    3    3    0  502 -0.30199760607E+02 -0.14844523807E+03 -0.74726600747E+03  0.76246606493E+03  0.25500000920E-02 0.  1.
</event>
<event>
 5   0  0.2315038E-04  0.1201057E+04  0.7818609E-02  0.9111932E-01
       -1   -1    0    0    0  501  0.00000000000E+00  0.00000000000E+00  0.20878614789E+03  0.20878614796E+03  0.50400001928E-02 0. -1.
        1   -1    0    0  501    0  0.00000000000E+00  0.00000000000E+00 -0.17272907167E+04  0.17272907167E+04  0.50400001928E-02 0.  1.
    10030    2    1    2    0    0  0.00000000000E+00  0.00000000000E+00 -0.15185045688E+04  0.19360768647E+04  0.12010568265E+04 0.  0.
        1    1    3    3  502    0 -0.38305104492E+03 -0.44131906693E+03 -0.98228705974E+03  0.11429691551E+04  0.50400001928E-02 0.  1.
       -1    1    3    3    0  502  0.38305104492E+03  0.44131906693E+03 -0.53621750906E+03  0.79310770952E+03  0.50400001928E-02 0. -1.
</event>
<event>
 5   0  0.4122956E-04  0.1199879E+04  0.7818609E-02  0.9112963E-01
        2   -1    0    0  501    0  0.00000000000E+00  0.00000000000E+00  0.14152193132E+04  0.14152193132E+04  0.25500000920E-02 0.  1.
       -2   -1    0    0    0  501  0.00000000000E+00  0.00000000000E+00 -0.25432604561E+03  0.25432604562E+03  0.25500000920E-02 0. -1.
    10030    2    1    2    0    0  0.00000000000E+00  0.00000000000E+00  0.11608932676E+04  0.16695453589E+04  0.11998785465E+04 0.  0.
        5    1    3    3  502    0 -0.42326011032E+03 -0.99858084180E+02  0.11554691961E+04  0.12346059740E+04  0.46999998093E+01 0.  1.
       -5    1    3    3    0  502  0.42326011032E+03  0.99858084180E+02  0.54240715734E+01  0.43493938487E+03  0.46999998093E+01 0. -1.
</event>
<event>
 5   0  0.4024486E-04  0.1195922E+04  0.7818609E-02  0.9116434E-01
        2   -1    0    0  501    0  0.00000000000E+00  0.00000000000E+00  0.12768861710E+04  0.12768861710E+04  0.25500000920E-02 0. -1.
       -2   -1    0    0    0  501  0.00000000000E+00  0.00000000000E+00 -0.28002280179E+03  0.28002280181E+03  0.25500000920E-02 0.  1.
    10030    2    1    2    0    0  0.00000000000E+00  0.00000000000E+00  0.99686336922E+03  0.15569089728E+04  0.11959218088E+04 0.  0.
        1    1    3    3  502    0 -0.42810987694E+03 -0.16341108223E+03 -0.16814898902E+01  0.45824019461E+03  0.50400001928E-02 0.  1.
       -1    1    3    3    0  502  0.42810987694E+03  0.16341108223E+03  0.99854485911E+03  0.10986687782E+04  0.50400001928E-02 0. -1.
</event>
<event>
 5   0  0.2204090E-04  0.1196565E+04  0.7818609E-02  0.9115868E-01
        1   -1    0    0  501    0  0.00000000000E+00  0.00000000000E+00  0.14259479057E+04  0.14259479057E+04  0.50400001928E-02 0. -1.
       -1   -1    0    0    0  501  0.00000000000E+00  0.00000000000E+00 -0.25102037928E+03  0.25102037933E+03  0.50400001928E-02 0.  1.
    10030    2    1    2    0    0  0.00000000000E+00  0.00000000000E+00  0.11749275264E+04  0.16769682851E+04  0.11965650575E+04 0.  0.
        2    1    3    3  502    0  0.94188047719E+02 -0.42974761474E+03  0.19235228798E+02  0.44036847609E+03  0.25500000920E-02 0.  1.
       -2    1    3    3    0  502 -0.94188047719E+02  0.42974761474E+03  0.11556922976E+04  0.12365998090E+04  0.25500000920E-02 0. -1.
</event>
<event>
 5   0  0.2204090E-04  0.1201410E+04  0.7818609E-02  0.9111623E-01
        1   -1    0    0  501    0  0.00000000000E+00  0.00000000000E+00  0.12598476013E+04  0.12598476013E+04  0.50400001928E-02 0.  1.
       -1   -1    0    0    0  501  0.00000000000E+00  0.00000000000E+00 -0.28642069085E+03  0.28642069090E+03  0.50400001928E-02 0. -1.
    10030    2    1    2    0    0  0.00000000000E+00  0.00000000000E+00  0.97342691041E+03  0.15462682922E+04  0.12014098724E+04 0.  0.
        2    1    3    3  502    0  0.43196532721E+03 -0.41307099486E+03  0.56420092222E+03  0.82191506334E+03  0.25500000920E-02 0.  1.
       -2    1    3    3    0  502 -0.43196532721E+03  0.41307099486E+03  0.40922598819E+03  0.72435322883E+03  0.25500000920E-02 0. -1.
</event>
<event>
 5   0  0.3883890E-04  0.1199316E+04  0.7818609E-02  0.9113456E-01
       -2   -1    0    0    0  501  0.00000000000E+00  0.00000000000E+00  0.26463015249E+03  0.26463015250E+03  0.25500000920E-02 0.  1.
        2   -1    0    0  501    0  0.00000000000E+00  0.00000000000E+00 -0.13588384588E+04  0.13588384588E+04  0.25500000920E-02 0. -1.
    10030    2    1    2    0    0  0.00000000000E+00  0.00000000000E+00 -0.10942083063E+04  0.16234686113E+04  0.11993158526E+04 0.  0.
        2    1    3    3  502    0  0.22986715893E+03  0.38635589432E+03 -0.99204788164E+01  0.44967566505E+03  0.25500000920E-02 0.  1.
       -2    1    3    3    0  502 -0.22986715893E+03 -0.38635589432E+03 -0.10842878274E+04  0.11737929462E+04  0.25500000920E-02 0. -1.
</event>
<event>
 5   0  0.1541375E-04  0.1200366E+04  0.7818609E-02  0.9112536E-01
        3   -1    0    0  501    0  0.00000000000E+00  0.00000000000E+00  0.40244599688E+03  0.40244600955E+03  0.10100000352E+00 0.  1.
       -3   -1    0    0    0  501  0.00000000000E+00  0.00000000000E+00 -0.89507549921E+03  0.89507550491E+03  0.10100000352E+00 0. -1.
    10030    2    1    2    0    0  0.00000000000E+00  0.00000000000E+00 -0.49262950234E+03  0.12975215145E+04  0.12003658834E+04 0.  0.
        1    1    3    3  502    0 -0.53222957963E+03 -0.18222289152E+03 -0.20230466246E+02  0.56292342234E+03  0.50400001928E-02 0.  1.
       -1    1    3    3    0  502  0.53222957963E+03  0.18222289152E+03 -0.47239903609E+03  0.73459809212E+03  0.50400001928E-02 0. -1.
</event>
<event>
 5   0  0.2340731E-04  0.1199330E+04  0.7818609E-02  0.9113443E-01
        1   -1    0    0  501    0  0.00000000000E+00  0.00000000000E+00  0.84058467920E+03  0.84058467922E+03  0.50400001928E-02 0. -1.
       -1   -1    0    0    0  501  0.00000000000E+00  0.00000000000E+00 -0.42779540878E+03  0.42779540881E+03  0.50400001928E-02 0.  1.
    10030    2    1    2    0    0  0.00000000000E+00  0.00000000000E+00  0.41278927042E+03  0.12683800880E+04  0.11993302572E+04 0.  0.
        3    1    3    3  502    0  0.78870639011E+02  0.11198428667E+03 -0.41103023397E+03  0.43325156848E+03  0.10100000352E+00 0.  1.
       -3    1    3    3    0  502 -0.78870639011E+02 -0.11198428667E+03  0.82381950439E+03  0.83512851955E+03  0.10100000352E+00 0. -1.
</event>
<event>
 5   0  0.4122956E-04  0.1190172E+04  0.7818609E-02  0.9121503E-01
       -2   -1    0    0    0  501  0.00000000000E+00  0.00000000000E+00  0.19859666396E+03  0.19859666398E+03  0.25500000920E-02 0.  1.
        2   -1    0    0  501    0  0.00000000000E+00  0.00000000000E+00 -0.17831484056E+04  0.17831484056E+04  0.25500000920E-02 0. -1.
    10030    2    1    2    0    0  0.00000000000E+00  0.00000000000E+00 -0.15845517417E+04  0.19817450696E+04  0.11901719619E+04 0.  0.
        5    1    3    3  502    0 -0.19200713536E+03 -0.52189809761E+02  0.14153421109E+03  0.24422231507E+03  0.46999998093E+01 0.  1.
       -5    1    3    3    0  502  0.19200713536E+03  0.52189809761E+02 -0.17260859527E+04  0.17375227545E+04  0.46999998093E+01 0. -1.
</event>
<event>
 5   0  0.2340731E-04  0.1199385E+04  0.7818609E-02  0.9113395E-01
       -1   -1    0    0    0  501  0.00000000000E+00  0.00000000000E+00  0.44404367357E+03  0.44404367360E+03  0.50400001928E-02 0.  1.
        1   -1    0    0  501    0  0.00000000000E+00  0.00000000000E+00 -0.80990085931E+03  0.80990085933E+03  0.50400001928E-02 0. -1.
    10030    2    1    2    0    0  0.00000000000E+00  0.00000000000E+00 -0.36585718574E+03  0.12539445329E+04  0.11993854307E+04 0.  0.
        3    1    3    3  502    0 -0.42181837475E+03 -0.15926458156E+03 -0.59630740610E+03  0.74758175538E+03  0.10100000352E+00 0. -1.
       -3    1    3    3    0  502  0.42181837475E+03  0.15926458156E+03  0.23045022036E+03  0.50636277754E+03  0.10100000352E+00 0.  1.
</event>
<event>
 5   0  0.3883890E-04  0.1205924E+04  0.7818609E-02  0.9107687E-01
        2   -1    0    0  501    0  0.00000000000E+00  0.00000000000E+00  0.80521491260E+03  0.80521491261E+03  0.25500000920E-02 0. -1.
       -2   -1    0    0    0  501  0.00000000000E+00  0.00000000000E+00 -0.45151084957E+03  0.45151084958E+03  0.25500000920E-02 0.  1.
    10030    2    1    2    0    0  0.00000000000E+00  0.00000000000E+00  0.35370406303E+03  0.12567257622E+04  0.12059241590E+04 0.  0.
        2    1    3    3  502    0  0.21002008474E+03  0.25844184503E+02 -0.41154539325E+03  0.46275908265E+03  0.25500000920E-02 0.  1.
       -2    1    3    3    0  502 -0.21002008474E+03 -0.25844184503E+02  0.76524945628E+03  0.79396667954E+03  0.25500000920E-02 0. -1.
</event>
<event>
 5   0  0.3883890E-04  0.1199141E+04  0.7818609E-02  0.9113608E-01
        2   -1    0    0  501    0  0.00000000000E+00  0.00000000000E+00  0.12036799128E+04  0.12036799128E+04  0.25500000920E-02 0. -1.
       -2   -1    0    0    0  501  0.00000000000E+00  0.00000000000E+00 -0.29865500434E+03  0.29865500435E+03  0.25500000920E-02 0.  1.
    10030    2    1    2    0    0  0.00000000000E+00  0.00000000000E+00  0.90502490848E+03  0.15023349172E+04  0.11991414088E+04 0.  0.
        2    1    3    3  502    0  0.60666478288E+02  0.45527767009E+03  0.93534756967E+03  0.10420332310E+04  0.25500000920E-02 0. -1.
       -2    1    3    3    0  502 -0.60666478288E+02 -0.45527767009E+03 -0.30322661193E+02  0.46030168614E+03  0.25500000920E-02 0.  1.
</event>
<event>
 5   0  0.2315038E-04  0.1198376E+04  0.7818609E-02  0.9114279E-01
       -1   -1    0    0    0  501  0.00000000000E+00  0.00000000000E+00  0.51954617618E+03  0.51954617621E+03  0.50400001928E-02 0. -1.
        1   -1    0    0  501    0  0.00000000000E+00  0.00000000000E+00 -0.69103788499E+03  0.69103788500E+03  0.50400001928E-02 0.  1.
    10030    2    1    2    0    0  0.00000000000E+00  0.00000000000E+00 -0.17149170880E+03  0.12105840612E+04  0.11983757187E+04 0.  0.
        1    1    3    3  502    0 -0.48461010093E+03 -0.29791042833E+03 -0.27588802210E+03  0.63222762831E+03  0.50400001928E-02 0.  1.
       -1    1    3    3    0  502  0.48461010093E+03  0.29791042833E+03  0.10439631330E+03  0.57835643291E+03  0.50400001928E-02 0. -1.
</event>
<event>
 5   0  0.3993723E-04  0.1204079E+04  0.7818609E-02  0.9109293E-01
       -2   -1    0    0    0  501  0.00000000000E+00  0.00000000000E+00  0.51238113066E+03  0.51238113066E+03  0.25500000920E-02 0.  1.
        2   -1    0    0  501    0  0.00000000000E+00  0.00000000000E+00 -0.70738703806E+03  0.70738703807E+03  0.25500000920E-02 0. -1.
    10030    2    1    2    0    0  0.00000000000E+00  0.00000000000E+00 -0.19500590741E+03  0.12197681687E+04  0.12040793502E+04 0.  0.
        3    1    3    3  502    0  0.43009542751E+03 -0.37526757483E+03 -0.29142322674E+03  0.64088636806E+03  0.10100000352E+00 0. -1.
       -3    1    3    3    0  502 -0.43009542751E+03  0.37526757483E+03  0.96417319329E+02  0.57888180067E+03  0.10100000352E+00 0.  1.
</event>
<event>
 5   0  0.3883890E-04  0.1205518E+04  0.7818609E-02  0.9108041E-01
       -2   -1    0    0    0  501  0.00000000000E+00  0.00000000000E+00  0.28040665082E+03  0.28040665083E+03  0.25500000920E-02 0. -1.
        2   -1    0    0  501    0  0.00000000000E+00  0.00000000000E+00 -0.12956831713E+04  0.12956831713E+04  0.25500000920E-02 0.  1.
    10030    2    1    2    0    0  0.00000000000E+00  0.00000000000E+00 -0.10152765205E+04  0.15760898222E+04  0.12055176127E+04 0.  0.
        2    1    3    3  502    0  0.44899452385E+03  0.13430078786E+03 -0.12058322150E+02  0.46880506312E+03  0.25500000920E-02 0. -1.
       -2    1    3    3    0  502 -0.44899452385E+03 -0.13430078786E+03 -0.10032181984E+04  0.11072847590E+04  0.25500000920E-02 0.  1.
</event>
<event>
 5   0  0.2340731E-04  0.1196801E+04  0.7818609E-02  0.9115661E-01
       -1   -1    0    0    0  501  0.00000000000E+00  0.00000000000E+00  0.18551346334E+03  0.18551346340E+03  0.50400001928E-02 0.  1.
        1   -1    0    0  501    0  0.00000000000E+00  0.00000000000E+00 -0.19302276170E+04  0.19302276170E+04  0.50400001928E-02 0. -1.
    10030    2    1    2    0    0  0.00000000000E+00  0.00000000000E+00 -0.17447141537E+04  0.21157410804E+04  0.11968010868E+04 0.  0.
        3    1    3    3  502    0 -0.47775614018E+03  0.25899262322E+03 -0.42949853241E+03  0.69267388279E+03  0.10100000352E+00 0.  1.
       -3    1    3    3    0  502  0.47775614018E+03 -0.25899262322E+03 -0.13152156212E+04  0.14230671976E+04  0.10100000352E+00 0. -1.
</event>
<event>
 5   0  0.2340731E-04  0.1199379E+04  0.7818609E-02  0.9113400E-01
        1   -1    0    0  501    0  0.00000000000E+00  0.00000000000E+00  0.17923614625E+04  0.17923614625E+04  0.50400001928E-02 0.  1.
       -1   -1    0    0    0  501  0.00000000000E+00  0.00000000000E+00 -0.20064457032E+03  0.20064457039E+03  0.50400001928E-02 0. -1.
    10030    2    1    2    0    0  0.00000000000E+00  0.00000000000E+00  0.15917168922E+04  0.19930060329E+04  0.11993791654E+04 0.  0.
        3    1    3    3  502    0  0.58214126204E+03 -0.81934696476E+02  0.99265458921E+03  0.11536745152E+04  0.10100000352E+00 0. -1.
       -3    1    3    3    0  502 -0.58214126204E+03  0.81934696476E+02  0.59906230296E+03  0.83933151763E+03  0.10100000352E+00 0.  1.
</event>
<event>
 5   0  0.2304842E-04  0.1202583E+04  0.7818609E-02  0.9110598E-01
       -1   -1    0    0    0  501  0.00000000000E+00  0.00000000000E+00  0.34280954233E+03  0.34280954236E+03  0.50400001928E-02 0.  1.
        1   -1    0    0  501    0  0.00000000000E+00  0.00000000000E+00 -0.10546718683E+04  0.10546718683E+04  0.50400001928E-02 0. -1.
    10030    2    1    2    0    0  0.00000000000E+00  0.00000000000E+00 -0.71186232592E+03  0.13974814106E+04  0.12025831871E+04 0.  0.
        4    1    3    3  502    0  0.16965680692E+03 -0.85183042185E+02 -0.10189308692E+04  0.10364657794E+04  0.12699999809E+01 0. -1.
       -4    1    3    3    0  502 -0.16965680692E+03  0.85183042185E+02  0.30706854327E+03  0.36101563121E+03  0.12699999809E+01 0.  1.
</event>
<event>
 5   0  0.3993723E-04  0.1199164E+04  0.7818609E-02  0.9113589E-01
        2   -1    0    0  501    0  0.00000000000E+00  0.00000000000E+00  0.17153472760E+04  0.17153472760E+04  0.25500000920E-02 0.  1.
       -2   -1    0    0    0  501  0.00000000000E+00  0.00000000000E+00 -0.20957757578E+03  0.20957757580E+03  0.25500000920E-02 0. -1.
    10030    2    1    2    0    0  0.00000000000E+00  0.00000000000E+00  0.15057697002E+04  0.19249248518E+04  0.11991635814E+04 0.  0.
        3    1    3    3  502    0 -0.40127684797E+03  0.41123925839E+03  0.10279241254E+04  0.11776115039E+04  0.10100000352E+00 0.  1.
       -3    1    3    3    0  502  0.40127684797E+03 -0.41123925839E+03  0.47784557483E+03  0.74731334790E+03  0.10100000352E+00 0. -1.
</event>
<event>
 5   0  0.3883890E-04  0.1200683E+04  0.7818609E-02  0.9112259E-01
       -2   -1    0    0    0  501  0.00000000000E+00  0.00000000000E+00  0.30324588104E+03  0.30324588105E+03  0.25500000920E-02 0.  1.
        2   -1    0    0  501    0  0.00000000000E+00  0.00000000000E+00 -0.11885078625E+04  0.11885078625E+04  0.25500000920E-02 0. -1.
    10030    2    1    2    0    0  0.00000000000E+00  0.00000000000E+00 -0.88526198143E+03  0.14917537435E+04  0.12006833286E+04 0.  0.
        2    1    3    3  502    0 -0.23148964314E+03 -0.19755519805E+02 -0.11303895150E+04  0.11540182802E+04  0.25500000920E-02 0. -1.
       -2    1    3    3    0  502  0.23148964314E+03  0.19755519805E+02  0.24512753358E+03  0.33773546330E+03  0.25500000920E-02 0.  1.
</event>
<event>
 5   0  0.3832662E-04  0.1200478E+04  0.7818609E-02  0.9112438E-01
        2   -1    0    0  501    0  0.00000000000E+00  0.00000000000E+00  0.13185946943E+04  0.13185946943E+04  0.25500000920E-02 0.  1.
       -2   -1    0    0    0  501  0.00000000000E+00  0.00000000000E+00 -0.27323568745E+03  0.27323568746E+03  0.25500000920E-02 0. -1.
    10030    2    1    2    0    0  0.00000000000E+00  0.00000000000E+00  0.10453590069E+04  0.15918303818E+04  0.12004784509E+04 0.  0.
        4    1    3    3  502    0  0.11148488187E+03  0.13270633498E+03  0.12846900518E+04  0.12963294305E+04  0.12699999809E+01 0.  1.
       -4    1    3    3    0  502 -0.11148488187E+03 -0.13270633498E+03 -0.23933104495E+03  0.29550095128E+03  0.12699999809E+01 0. -1.
</event>
<event>
 5   0  0.2204090E-04  0.1199230E+04  0.7818609E-02  0.9113531E-01
        1   -1    0    0  501    0  0.00000000000E+00  0.00000000000E+00  0.94908727209E+03  0.94908727210E+03  0.50400001928E-02 0.  1.
       -1   -1    0    0    0  501  0.00000000000E+00  0.00000000000E+00 -0.37882497791E+03  0.37882497794E+03  0.50400001928E-02 0. -1.
    10030    2    1    2    0    0  0.00000000000E+00  0.00000000000E+00  0.57026229418E+03  0.13279122500E+04  0.11992296943E+04 0.  0.
        2    1    3    3  502    0  0.44389145439E+02  0.40118861314E+03 -0.20586221477E+03  0.45310258334E+03  0.25500000920E-02 0. -1.
       -2    1    3    3    0  502 -0.44389145439E+02 -0.40118861314E+03  0.77612450896E+03  0.87480966670E+03  0.25500000920E-02 0.  1.
</event>
<event>
 5   0  0.2244308E-04  0.1198086E+04  0.7818609E-02  0.9114533E-01
        1   -1    0    0  501    0  0.00000000000E+00  0.00000000000E+00  0.39036461774E+03  0.39036461777E+03  0.50400001928E-02 0.  1.
       -1   -1    0    0    0  501  0.00000000000E+00  0.00000000000E+00 -0.91927566973E+03  0.91927566974E+03  0.50400001928E-02 0. -1.
    10030    2    1    2    0    0  0.00000000000E+00  0.00000000000E+00 -0.52891105199E+03  0.13096402875E+04  0.11980862998E+04 0.  0.
        5    1    3    3  502    0 -0.53594565695E+02 -0.59625369608E+03 -0.28737848829E+03  0.66407780650E+03  0.46999998093E+01 0.  1.
       -5    1    3    3    0  502  0.53594565695E+02  0.59625369608E+03 -0.24153256371E+03  0.64556248101E+03  0.46999998093E+01 0. -1.
</event>
<event>
 5   0  0.4024486E-04  0.1198028E+04  0.7818609E-02  0.9114584E-01
       -2   -1    0    0    0  501  0.00000000000E+00  0.00000000000E+00  0.85423628831E+03  0.85423628832E+03  0.25500000920E-02 0. -1.
        2   -1    0    0  501    0  0.00000000000E+00  0.00000000000E+00 -0.42004520828E+03  0.42004520829E+03  0.25500000920E-02 0.  1.
    10030    2    1    2    0    0  0.00000000000E+00  0.00000000000E+00  0.43419108004E+03  0.12742814966E+04  0.11980281460E+04 0.  0.
        1    1    3    3  502    0 -0.29049968279E+03  0.47837514154E+03 -0.10000426312E+02  0.55976142265E+03  0.50400001928E-02 0.  1.
       -1    1    3    3    0  502  0.29049968279E+03 -0.47837514154E+03  0.44419150635E+03  0.71452007395E+03  0.50400001928E-02 0. -1.
</event>
<event>
 5   0  0.3883890E-04  0.1199225E+04  0.7818609E-02  0.9113535E-01
       -2   -1    0    0    0  501  0.00000000000E+00  0.00000000000E+00  0.10725473569E+04  0.10725473569E+04  0.25500000920E-02 0.  1.
        2   -1    0    0  501    0  0.00000000000E+00  0.00000000000E+00 -0.33521627918E+03  0.33521627919E+03  0.25500000920E-02 0. -1.
    10030    2    1    2    0    0  0.00000000000E+00  0.00000000000E+00  0.73733107773E+03  0.14077636361E+04  0.11992253070E+04 0.  0.
        2    1    3    3  502    0 -0.54526050345E+03 -0.16860322278E+03  0.15285004331E+03  0.59084617211E+03  0.25500000920E-02 0. -1.
       -2    1    3    3    0  502  0.54526050345E+03  0.16860322278E+03  0.58448103442E+03  0.81691746398E+03  0.25500000920E-02 0.  1.
</event>
<event>
 5   0  0.2315038E-04  0.1199459E+04  0.7818609E-02  0.9113330E-01
       -1   -1    0    0    0  501  0.00000000000E+00  0.00000000000E+00  0.40480874964E+03  0.40480874967E+03  0.50400001928E-02 0.  1.
        1   -1    0    0  501    0  0.00000000000E+00  0.00000000000E+00 -0.88850744250E+03  0.88850744251E+03  0.50400001928E-02 0. -1.
    10030    2    1    2    0    0  0.00000000000E+00  0.00000000000E+00 -0.48369869286E+03  0.12933161922E+04  0.11994591896E+04 0.  0.
        1    1    3    3  502    0 -0.45828808720E+03 -0.13511836901E+03 -0.63269155319E+03  0.79283260907E+03  0.50400001928E-02 0. -1.
       -1    1    3    3    0  502  0.45828808720E+03  0.13511836901E+03  0.14899286033E+03  0.50048358311E+03  0.50400001928E-02 0.  1.
</event>
<event>
 5   0  0.2340731E-04  0.1199244E+04  0.7818609E-02  0.9113519E-01
        1   -1    0    0  501    0  0.00000000000E+00  0.00000000000E+00  0.46916131200E+03  0.46916131202E+03  0.50400001928E-02 0.  1.
       -1   -1    0    0    0  501  0.00000000000E+00  0.00000000000E+00 -0.76636004199E+03  0.76636004201E+03  0.50400001928E-02 0. -1.
    10030    2    1    2    0    0  0.00000000000E+00  0.00000000000E+00 -0.29719873000E+03  0.12355213540E+04  0.11992438998E+04 0.  0.
        3    1    3    3  502    0 -0.57740460382E+03 -0.16700273178E+02 -0.31431119639E+03  0.65762186248E+03  0.10100000352E+00 0. -1.
       -3    1    3    3    0  502  0.57740460382E+03  0.16700273178E+02  0.17112466392E+02  0.57789949155E+03  0.10100000352E+00 0.  1.
</event>
<event>
 5   0  0.2304842E-04  0.1198663E+04  0.7818609E-02  0.9114028E-01
       -1   -1    0    0    0  501  0.00000000000E+00  0.00000000000E+00  0.48007063983E+03  0.48007063986E+03  0.50400001928E-02 0. -1.
        1   -1    0    0  501    0  0.00000000000E+00  0.00000000000E+00 -0.74821934381E+03  0.74821934383E+03  0.50400001928E-02 0.  1.
    10030    2    1    2    0    0  0.00000000000E+00  0.00000000000E+00 -0.26814870398E+03  0.12282899837E+04  0.11986628202E+04 0.  0.
        4    1    3    3  502    0 -0.56439198109E+03  0.17014199952E+03 -0.23187309276E+02  0.58993717676E+03  0.12699999809E+01 0.  1.
       -4    1    3    3    0  502  0.56439198109E+03 -0.17014199952E+03 -0.24496139470E+03  0.63835280692E+03  0.12699999809E+01 0. -1.
</event>
<event>
 5   0  0.1541375E-04  0.1201717E+04  0.7818609E-02  0.9111355E-01
        3   -1    0    0  501    0  0.00000000000E+00  0.00000000000E+00  0.32055465194E+03  0.32055466785E+03  0.10100000352E+00 0.  1.
       -3   -1    0    0    0  501  0.00000000000E+00  0.00000000000E+00 -0.11262699557E+04  0.11262699602E+04  0.10100000352E+00 0. -1.
    10030    2    1    2    0    0  0.00000000000E+00  0.00000000000E+00 -0.80571530373E+03  0.14468246280E+04  0.12017172520E+04 0.  0.
        4    1    3    3  502    0  0.26935207179E+03  0.15440422068E+03 -0.10222130457E+04  0.10683222012E+04  0.12699999809E+01 0. -1.
       -4    1    3    3    0  502 -0.26935207179E+03 -0.15440422068E+03  0.21649774196E+03  0.37850242683E+03  0.12699999809E+01 0.  1.
</event>
<event>
 5   0  0.2315038E-04  0.1197596E+04  0.7818609E-02  0.9114963E-01
       -1   -1    0    0    0  501  0.00000000000E+00  0.00000000000E+00  0.18754070818E+03  0.18754070825E+03  0.50400001928E-02 0. -1.
        1   -1    0    0  501    0  0.00000000000E+00  0.00000000000E+00 -0.19118994699E+04  0.19118994699E+04  0.50400001928E-02 0.  1.
    10030    2    1    2    0    0  0.00000000000E+00  0.00000000000E+00 -0.17243587617E+04  0.20994401781E+04  0.11975958928E+04 0.  0.
        1    1    3    3  502    0 -0.55916937462E+03  0.95520759415E+01 -0.48702210317E+03  0.74158759474E+03  0.50400001928E-02 0. -1.
       -1    1    3    3    0  502  0.55916937462E+03 -0.95520759415E+01 -0.12373366585E+04  0.13578525834E+04  0.50400001928E-02 0.  1.
</event>
<event>
 5   0  0.3993723E-04  0.1200837E+04  0.7818609E-02  0.9112124E-01
       -2   -1    0    0    0  501  0.00000000000E+00  0.00000000000E+00  0.25640037598E+03  0.25640037599E+03  0.25500000920E-02 0. -1.
        2   -1    0    0  501    0  0.00000000000E+00  0.00000000000E+00 -0.14060144407E+04  0.14060144407E+04  0.25500000920E-02 0.  1.
    10030    2    1    2    0    0  0.00000000000E+00  0.00000000000E+00 -0.11496140647E+04  0.16624148167E+04  0.12008374265E+04 0.  0.
        3    1    3    3  502    0 -0.13683658714E+02 -0.58007460860E+03 -0.36110605037E+03  0.68342620953E+03  0.10100000352E+00 0. -1.
       -3    1    3    3    0  502  0.13683658714E+02  0.58007460860E+03 -0.78850801435E+03  0.97898860716E+03  0.10100000352E+00 0.  1.
</event>
<event>
 5   0  0.2204090E-04  0.1201323E+04  0.7818609E-02  0.9111699E-01
        1   -1    0    0  501    0  0.00000000000E+00  0.00000000000E+00  0.53612011376E+03  0.53612011379E+03  0.50400001928E-02 0.  1.
       -1   -1    0    0    0  501  0.00000000000E+00  0.00000000000E+00 -0.67297300839E+03  0.67297300841E+03  0.50400001928E-02 0. -1.
    10030    2    1    2    0    0  0.00000000000E+00  0.00000000000E+00 -0.13685289463E+03  0.12090931222E+04  0.12013232135E+04 0.  0.
        2    1    3    3  502    0  0.58320532911E+03 -0.13433886816E+03 -0.11993339838E+03  0.61037644733E+03  0.25500000920E-02 0.  1.
       -2    1    3    3    0  502 -0.58320532911E+03  0.13433886816E+03 -0.16919496244E+02  0.59871667486E+03  0.25500000920E-02 0. -1.
</event>
<event>
 5   0  0.4024486E-04  0.1201012E+04  0.7818609E-02  0.9111971E-01
       -2   -1    0    0    0  501  0.00000000000E+00  0.00000000000E+00  0.28105636097E+03  0.28105636098E+03  0.25500000920E-02 0. -1.
        2   -1    0    0  501    0  0.00000000000E+00  0.00000000000E+00 -0.12830424666E+04  0.12830424666E+04  0.25500000920E-02 0.  1.
    10030    2    1    2    0    0  0.00000000000E+00  0.00000000000E+00 -0.10019861056E+04  0.15640988275E+04  0.12010116513E+04 0.  0.
        1    1    3    3  502    0 -0.28922054225E+03 -0.24907308359E+03 -0.11047424680E+04  0.11688207064E+04  0.50400001928E-02 0.  1.
       -1    1    3    3    0  502  0.28922054225E+03  0.24907308359E+03  0.10275636242E+03  0.39527812116E+03  0.50400001928E-02 0. -1.
</event>
<event>
 5   0  0.2204090E-04  0.1203999E+04  0.7818609E-02  0.9109363E-01
       -1   -1    0    0    0  501  0.00000000000E+00  0.00000000000E+00  0.17912571275E+03  0.17912571282E+03  0.50400001928E-02 0. -1.
        1   -1    0    0  501    0  0.00000000000E+00  0.00000000000E+00 -0.20231802519E+04  0.20231802519E+04  0.50400001928E-02 0.  1.
    10030    2    1    2    0    0  0.00000000000E+00  0.00000000000E+00 -0.18440545391E+04  0.22023059647E+04  0.12039993434E+04 0.  0.
        2    1    3    3  502    0 -0.55135933619E+03  0.10304659417E+03 -0.13218894381E+04  0.14359691518E+04  0.25500000920E-02 0.  1.
       -2    1    3    3    0  502  0.55135933619E+03 -0.10304659417E+03 -0.52216510100E+03  0.76633681295E+03  0.25500000920E-02 0. -1.
</event>
<event>
 5   0  0.2340731E-04  0.1199968E+04  0.7818609E-02  0.9112885E-01
       -1   -1    0    0    0  501  0.00000000000E+00  0.00000000000E+00  0.44094133420E+03  0.44094133423E+03  0.50400001928E-02 0. -1.
        1   -1    0    0  501    0  0.00000000000E+00  0.00000000000E+00 -0.81639141033E+03  0.81639141034E+03  0.50400001928E-02 0.  1.
    10030    2    1    2    0    0  0.00000000000E+00  0.00000000000E+00 -0.37545007613E+03  0.12573327446E+04  0.11999678625E+04 0.  0.
        3    1    3    3  502    0 -0.20012790644E+03  0.39610119282E+02  0.40348288531E+03  0.45212674044E+03  0.10100000352E+00 0. -1.
       -3    1    3    3    0  502  0.20012790644E+03 -0.39610119282E+02 -0.77893296143E+03  0.80520600413E+03  0.10100000352E+00 0.  1.
</event>
<event>
 5   0  0.3832662E-04  0.1199770E+04  0.7818609E-02  0.9113058E-01
        2   -1    0    0  501    0  0.00000000000E+00  0.00000000000E+00  0.72959587898E+03  0.72959587899E+03  0.25500000920E-02 0.  1.
       -2   -1    0    0    0  501  0.00000000000E+00  0.00000000000E+00 -0.49323431832E+03  0.49323431833E+03  0.25500000920E-02 0. -1.
    10030    2    1    2    0    0  0.00000000000E+00  0.00000000000E+00  0.23636156066E+03  0.12228301973E+04  0.11997695212E+04 0.  0.
        4    1    3    3  502    0  0.22095261593E+03  0.32554235035E+03 -0.34336115926E+03  0.52220338849E+03  0.12699999809E+01 0. -1.
       -4    1    3    3    0  502 -0.22095261593E+03 -0.32554235035E+03  0.57972271992E+03  0.70062680883E+03  0.12699999809E+01 0.  1.
</event>
<event>
 5   0  0.2304842E-04  0.1199467E+04  0.7818609E-02  0.9113323E-01
        1   -1    0    0  501    0  0.00000000000E+00  0.00000000000E+00  0.53959196098E+03  0.53959196100E+03  0.50400001928E-02 0. -1.
       -1   -1    0    0    0  501  0.00000000000E+00  0.00000000000E+00 -0.66657851755E+03  0.66657851757E+03  0.50400001928E-02 0.  1.
    10030    2    1    2    0    0  0.00000000000E+00  0.00000000000E+00 -0.12698655657E+03  0.12061704786E+04  0.11994672308E+04 0.  0.
        4    1    3    3  502    0 -0.26376055241E+03  0.45711837270E+02  0.47618051010E+03  0.54626796737E+03  0.12699999809E+01 0. -1.
       -4    1    3    3    0  502  0.26376055241E+03 -0.45711837270E+02 -0.60316706667E+03  0.65990251120E+03  0.12699999809E+01 0.  1.
</event>
<event>
 5   0  0.3883890E-04  0.1189137E+04  0.7818609E-02  0.9122418E-01
        2   -1    0    0  501    0  0.00000000000E+00  0.00000000000E+00  0.12378349622E+04  0.12378349622E+04  0.25500000920E-02 0.  1.
       -2   -1    0    0    0  501  0.00000000000E+00  0.00000000000E+00 -0.28558870084E+03  0.28558870085E+03  0.25500000920E-02 0. -1.
    10030    2    1    2    0    0  0.00000000000E+00  0.00000000000E+00  0.95224626133E+03  0.15234236630E+04  0.11891369622E+04 0.  0.
        2    1    3    3  502    0 -0.98480926448E+02  0.16565182270E+03 -0.24446696932E+03  0.31129265705E+03  0.25500000920E-02 0. -1.
       -2    1    3    3    0  502  0.98480926448E+02 -0.16565182270E+03  0.11967132306E+04  0.12121310060E+04  0.25500000920E-02 0.  1.
</event>
<event>
 5   0  0.2340731E-04  0.1202122E+04  0.7818609E-02  0.9111001E-01
        1   -1    0    0  501    0  0.00000000000E+00  0.00000000000E+00  0.24167656537E+04  0.24167656537E+04  0.50400001928E-02 0. -1.
       -1   -1    0    0    0  501  0.00000000000E+00  0.00000000000E+00 -0.14948665425E+03  0.14948665433E+03  0.50400001928E-02 0.  1.
    10030    2    1    2    0    0  0.00000000000E+00  0.00000000000E+00  0.22672789995E+04  0.25662523080E+04  0.12021218104E+04 0.  0.
        3    1    3    3  502    0  0.10814887455E+03 -0.22596337914E+03 -0.32731076498E+02  0.25263998367E+03  0.10100000352E+00 0.  1.
       -3    1    3    3    0  502 -0.10814887455E+03  0.22596337914E+03  0.23000100760E+04  0.23136123244E+04  0.10100000352E+00 0. -1.
</event>
<event>
 5   0  0.3993723E-04  0.1195501E+04  0.7818609E-02  0.9116804E-01
        2   -1    0    0  501    0  0.00000000000E+00  0.00000000000E+00  0.15644775668E+04  0.15644775668E+04  0.25500000920E-02 0.  1.
       -2   -1    0    0    0  501  0.00000000000E+00  0.00000000000E+00 -0.22838649259E+03  0.22838649261E+03  0.25500000920E-02 0. -1.
    10030    2    1    2    0    0  0.00000000000E+00  0.00000000000E+00  0.13360910742E+04  0.17928640594E+04  0.11955008059E+04 0.  0.
        3    1    3    3  502    0  0.32605711121E+03  0.41174496950E+03  0.24002426109E+03  0.57745892996E+03  0.10100000352E+00 0. -1.
       -3    1    3    3    0  502 -0.32605711121E+03 -0.41174496950E+03  0.10960668132E+04  0.12154051295E+04  0.10100000352E+00 0.  1.
</event>
<event>
 5   0  0.2204090E-04  0.1220559E+04  0.7818609E-02  0.9095049E-01
       -1   -1    0    0    0  501  0.00000000000E+00  0.00000000000E+00  0.61000304249E+03  0.61000304251E+03  0.50400001928E-02 0. -1.
        1   -1    0    0  501    0  0.00000000000E+00  0.00000000000E+00 -0.61055610000E+03  0.61055610002E+03  0.50400001928E-02 0.  1.
    10030    2    1    2    0    0  0.00000000000E+00  0.00000000000E+00 -0.55305751079E+00  0.12205591425E+04  0.12205590172E+04 0.  0.
        2    1    3    3  502    0  0.19327888350E+03 -0.30204864404E+03 -0.49408926504E+03  0.61050332679E+03  0.25500000920E-02 0.  1.
       -2    1    3    3    0  502 -0.19327888350E+03  0.30204864404E+03  0.49353620753E+03  0.61005581575E+03  0.25500000920E-02 0. -1.
</event>
<event>
 5   0  0.3883890E-04  0.1203302E+04  0.7818609E-02  0.9109971E-01
        2   -1    0    0  501    0  0.00000000000E+00  0.00000000000E+00  0.99573752095E+03  0.99573752095E+03  0.25500000920E-02 0. -1.
       -2   -1    0    0    0  501  0.00000000000E+00  0.00000000000E+00 -0.36353358527E+03  0.36353358528E+03  0.25500000920E-02 0.  1.
    10030    2    1    2    0    0  0.00000000000E+00  0.00000000000E+00  0.63220393567E+03  0.13592711062E+04  0.12033021748E+04 0.  0.
        2    1    3    3  502    0 -0.36340870436E+03 -0.23459322498E+03  0.78849841807E+03  0.89934955547E+03  0.25500000920E-02 0. -1.
       -2    1    3    3    0  502  0.36340870436E+03  0.23459322498E+03 -0.15629448240E+03  0.45992155076E+03  0.25500000920E-02 0.  1.
</event>
<event>
 5   0  0.4024486E-04  0.1187867E+04  0.7818609E-02  0.9123544E-01
        2   -1    0    0  501    0  0.00000000000E+00  0.00000000000E+00  0.17596331049E+04  0.17596331049E+04  0.25500000920E-02 0.  1.
       -2   -1    0    0    0  501  0.00000000000E+00  0.00000000000E+00 -0.20047178610E+03  0.20047178612E+03  0.25500000920E-02 0. -1.
    10030    2    1    2    0    0  0.00000000000E+00  0.00000000000E+00  0.15591613188E+04  0.19601048910E+04  0.11878666448E+04 0.  0.
        1    1    3    3  502    0 -0.22458934782E+03 -0.10691756894E+03 -0.11038310687E+03  0.27213263680E+03  0.50400001928E-02 0. -1.
       -1    1    3    3    0  502  0.22458934782E+03  0.10691756894E+03  0.16695444256E+04  0.16879722542E+04  0.50400001928E-02 0.  1.
</event>
<event>
 5   0  0.2315038E-04  0.1206962E+04  0.7818609E-02  0.9106784E-01
       -1   -1    0    0    0  501  0.00000000000E+00  0.00000000000E+00  0.40883553630E+03  0.40883553634E+03  0.50400001928E-02 0. -1.
        1   -1    0    0  501    0  0.00000000000E+00  0.00000000000E+00 -0.89079689648E+03  0.89079689649E+03  0.50400001928E-02 0.  1.
    10030    2    1    2    0    0  0.00000000000E+00  0.00000000000E+00 -0.48196136017E+03  0.12996324328E+04  0.12069621816E+04 0.  0.
        1    1    3    3  502    0  0.72520155705E+02  0.57915810769E+03 -0.40606945313E+03  0.71103845710E+03  0.50400001928E-02 0. -1.
       -1    1    3    3    0  502 -0.72520155705E+02 -0.57915810769E+03 -0.75891907045E+02  0.58859397573E+03  0.50400001928E-02 0.  1.
</event>
<event>
 5   0  0.2204090E-04  0.1198436E+04  0.7818609E-02  0.9114226E-01
        1   -1    0    0  501    0  0.00000000000E+00  0.00000000000E+00  0.86684835949E+03  0.86684835950E+03  0.50400001928E-02 0.  1.
       -1   -1    0    0    0  501  0.00000000000E+00  0.00000000000E+00 -0.41421589293E+03  0.41421589296E+03  0.50400001928E-02 0. -1.
    10030    2    1    2    0    0  0.00000000000E+00  0.00000000000E+00  0.45263246656E+03  0.12810642525E+04  0.11984362599E+04 0.  0.
        2    1    3    3  502    0 -0.28444523880E+03  0.30167138128E+03  0.68874853457E+03  0.80392117775E+03  0.25500000920E-02 0.  1.
       -2    1    3    3    0  502  0.28444523880E+03 -0.30167138128E+03 -0.23611606801E+03  0.47714307471E+03  0.25500000920E-02 0. -1.
</event>
<event>
 5   0  0.3883890E-04  0.1200171E+04  0.7818609E-02  0.9112707E-01
       -2   -1    0    0    0  501  0.00000000000E+00  0.00000000000E+00  0.19516870040E+03  0.19516870042E+03  0.25500000920E-02 0. -1.
        2   -1    0    0  501    0  0.00000000000E+00  0.00000000000E+00 -0.18450829180E+04  0.18450829180E+04  0.25500000920E-02 0.  1.
    10030    2    1    2    0    0  0.00000000000E+00  0.00000000000E+00 -0.16499142176E+04  0.20402516184E+04  0.12001707133E+04 0.  0.
        2    1    3    3  502    0 -0.14523028484E+03 -0.52556965423E+03 -0.12509242021E+04  0.13645976171E+04  0.25500000920E-02 0. -1.
       -2    1    3    3    0  502  0.14523028484E+03  0.52556965423E+03 -0.39899001550E+03  0.67565400136E+03  0.25500000920E-02 0.  1.
</event>
<event>
 5   0  0.3832662E-04  0.1197666E+04  0.7818609E-02  0.9114902E-01
       -2   -1    0    0    0  501  0.00000000000E+00  0.00000000000E+00  0.14706285871E+03  0.14706285873E+03  0.25500000920E-02 0. -1.
        2   -1    0    0  501    0  0.00000000000E+00  0.00000000000E+00 -0.24384194882E+04  0.24384194882E+04  0.25500000920E-02 0.  1.
    10030    2    1    2    0    0  0.00000000000E+00  0.00000000000E+00 -0.22913566295E+04  0.25854823469E+04  0.11976659646E+04 0.  0.
        4    1    3    3  502    0  0.76222316451E+02  0.18347946219E+03 -0.23651904563E+04  0.23735210263E+04  0.12699999809E+01 0.  1.
       -4    1    3    3    0  502 -0.76222316451E+02 -0.18347946219E+03  0.73833826836E+02  0.21196132066E+03  0.12699999809E+01 0. -1.
</event>
<event>
 5   0  0.3993723E-04  0.1199297E+04  0.7818609E-02  0.9113472E-01
        2   -1    0    0  501    0  0.00000000000E+00  0.00000000000E+00  0.50188670551E+03  0.50188670552E+03  0.25500000920E-02 0. -1.
       -2   -1    0    0    0  501  0.00000000000E+00  0.00000000000E+00 -0.71645278390E+03  0.71645278390E+03  0.25500000920E-02 0.  1.
    10030    2    1    2    0    0  0.00000000000E+00  0.00000000000E+00 -0.21456607839E+03  0.12183394894E+04  0.11992966728E+04 0.  0.
        3    1    3    3  502    0 -0.59837955379E+02 -0.20323834033E+02  0.49849439252E+03  0.50248413776E+03  0.10100000352E+00 0. -1.
       -3    1    3    3    0  502  0.59837955379E+02  0.20323834033E+02 -0.71306047090E+03  0.71585535166E+03  0.10100000352E+00 0.  1.
</event>
<event>
 5   0  0.4122956E-04  0.1188561E+04  0.7818609E-02  0.9122928E-01
       -2   -1    0    0    0  501  0.00000000000E+00  0.00000000000E+00  0.34059005634E+03  0.34059005635E+03  0.25500000920E-02 0. -1.
        2   -1    0    0  501    0  0.00000000000E+00  0.00000000000E+00 -0.10369343087E+04  0.10369343087E+04  0.25500000920E-02 0.  1.
    10030    2    1    2    0    0  0.00000000000E+00  0.00000000000E+00 -0.69634425235E+03  0.13775243650E+04  0.11885613398E+04 0.  0.
        5    1    3    3  502    0 -0.40053533035E+03  0.11463656022E+02 -0.85679008440E+03  0.94587065976E+03  0.46999998093E+01 0.  1.
       -5    1    3    3    0  502  0.40053533035E+03 -0.11463656022E+02  0.16044583205E+03  0.43165370529E+03  0.46999998093E+01 0. -1.
</event>
<event>
 5   0  0.2304842E-04  0.1198419E+04  0.7818609E-02  0.9114242E-01
       -1   -1    0    0    0  501  0.00000000000E+00  0.00000000000E+00  0.41845224292E+03  0.41845224295E+03  0.50400001928E-02 0.  1.
        1   -1    0    0  501    0  0.00000000000E+00  0.00000000000E+00 -0.85804716042E+03  0.85804716043E+03  0.50400001928E-02 0. -1.
    10030    2    1    2    0    0  0.00000000000E+00  0.00000000000E+00 -0.43959491750E+03  0.12764994034E+04  0.11984185560E+04 0.  0.
        4    1    3    3  502    0  0.23921377996E+02  0.13598211109E+03  0.40127619381E+03  0.42436725072E+03  0.12699999809E+01 0.  1.
       -4    1    3    3    0  502 -0.23921377996E+02 -0.13598211109E+03 -0.84087111131E+03  0.85213215266E+03  0.12699999809E+01 0. -1.
</event>
<event>
 5   0  0.2340731E-04  0.1198874E+04  0.7818609E-02  0.9113843E-01
        1   -1    0    0  501    0  0.00000000000E+00  0.00000000000E+00  0.19299400652E+04  0.19299400652E+04  0.50400001928E-02 0.  1.
       -1   -1    0    0    0  501  0.00000000000E+00  0.00000000000E+00 -0.18618430598E+03  0.18618430605E+03  0.50400001928E-02 0. -1.
    10030    2    1    2    0    0  0.00000000000E+00  0.00000000000E+00  0.17437557592E+04  0.21161243713E+04  0.11988737243E+04 0.  0.
        3    1    3    3  502    0  0.45159544543E+03 -0.28743021728E+03  0.13480279262E+04  0.14504254122E+04  0.10100000352E+00 0.  1.
       -3    1    3    3    0  502 -0.45159544543E+03  0.28743021728E+03  0.39572783300E+03  0.66569895910E+03  0.10100000352E+00 0. -1.
</event>
<event>
 5   0  0.2304842E-04  0.1196219E+04  0.7818609E-02  0.9116173E-01
       -1   -1    0    0    0  501  0.00000000000E+00  0.00000000000E+00  0.10575927472E+04  0.10575927472E+04  0.50400001928E-02 0. -1.
        1   -1    0    0  501    0  0.00000000000E+00  0.00000000000E+00 -0.33825389885E+03  0.33825389889E+03  0.50400001928E-02 0.  1.
    10030    2    1    2    0    0  0.00000000000E+00  0.00000000000E+00  0.71933884831E+03  0.13958466461E+04  0.11962188264E+04 0.  0.
        4    1    3    3  502    0  0.45537218763E+03 -0.64456857987E+02 -0.86523475018E+02  0.46798123941E+03  0.12699999809E+01 0.  1.
       -4    1    3    3    0  502 -0.45537218763E+03  0.64456857987E+02  0.80586232333E+03  0.92786540665E+03  0.12699999809E+01 0. -1.
</event>
<event>
 5   0  0.3832662E-04  0.1200001E+04  0.7818609E-02  0.9112856E-01
        2   -1    0    0  501    0  0.00000000000E+00  0.00000000000E+00  0.13544061504E+04  0.13544061504E+04  0.25500000920E-02 0. -1.
       -2   -1    0    0    0  501  0.00000000000E+00  0.00000000000E+00 -0.26579955687E+03  0.26579955689E+03  0.25500000920E-02 0.  1.
    10030    2    1    2    0    0  0.00000000000E+00  0.00000000000E+00  0.10886065935E+04  0.16202057073E+04  0.12000009244E+04 0.  0.
        4    1    3    3  502    0 -0.11642904409E+03 -0.81936454002E+01 -0.25032225463E+03  0.27619866436E+03  0.12699999809E+01 0.  1.
       -4    1    3    3    0  502  0.11642904409E+03  0.81936454002E+01  0.13389288482E+04  0.13440070429E+04  0.12699999809E+01 0. -1.
</event>
<event>
 5   0  0.3832662E-04  0.1200875E+04  0.7818609E-02  0.9112091E-01
       -2   -1    0    0    0  501  0.00000000000E+00  0.00000000000E+00  0.33394939079E+03  0.33394939080E+03  0.25500000920E-02 0. -1.
        2   -1    0    0  501    0  0.00000000000E+00  0.00000000000E+00 -0.10795810833E+04  0.10795810833E+04  0.25500000920E-02 0.  1.
    10030    2    1    2    0    0  0.00000000000E+00  0.00000000000E+00 -0.74563169251E+03  0.14135304741E+04  0.12008754225E+04 0.  0.
        4    1    3    3  502    0 -0.53643742226E+03 -0.15545022253E+03 -0.63229252580E+03  0.84363815156E+03  0.12699999809E+01 0.  1.
       -4    1    3    3    0  502  0.53643742226E+03  0.15545022253E+03 -0.11333916671E+03  0.56989232255E+03  0.12699999809E+01 0. -1.
</event>
<event>
 5   0  0.2244308E-04  0.1199411E+04  0.7818609E-02  0.9113373E-01
       -1   -1    0    0    0  501  0.00000000000E+00  0.00000000000E+00  0.21210812213E+03  0.21210812219E+03  0.50400001928E-02 0.  1.
        1   -1    0    0  501    0  0.00000000000E+00  0.00000000000E+00 -0.16955806861E+04  0.16955806861E+04  0.50400001928E-02 0. -1.
    10030    2    1    2    0    0  0.00000000000E+00  0.00000000000E+00 -0.14834725640E+04  0.19076888083E+04  0.11994105808E+04 0.  0.
        5    1    3    3  502    0  0.78987455216E+02 -0.22768854551E+03 -0.16151388496E+04  0.16330268477E+04  0.46999998093E+01 0. -1.
       -5    1    3    3    0  502 -0.78987455216E+02  0.22768854551E+03  0.13166628561E+03  0.27466196060E+03  0.46999998093E+01 0.  1.
</event>
<event>
 5   0  0.3883890E-04  0.1201632E+04  0.7818609E-02  0.9111429E-01
        2   -1    0    0  501    0  0.00000000000E+00  0.00000000000E+00  0.26136174980E+04  0.26136174980E+04  0.25500000920E-02 0. -1.
       -2   -1    0    0    0  501  0.00000000000E+00  0.00000000000E+00 -0.13811497648E+03  0.13811497650E+03  0.25500000920E-02 0.  1.
    10030    2    1    2    0    0  0.00000000000E+00  0.00000000000E+00  0.24755025215E+04  0.27517324745E+04  0.12016317561E+04 0.  0.
        2    1    3    3  502    0 -0.25148210330E+02  0.26871234667E+03  0.24669930402E+04  0.24817117919E+04  0.25500000920E-02 0. -1.
       -2    1    3    3    0  502  0.25148210330E+02 -0.26871234667E+03  0.85094813054E+01  0.27002068257E+03  0.25500000920E-02 0.  1.
</event>
<event>
 5   0  0.2204090E-04  0.1205009E+04  0.7818609E-02  0.9108483E-01
        1   -1    0    0  501    0  0.00000000000E+00  0.00000000000E+00  0.89830492183E+03  0.89830492184E+03  0.50400001928E-02 0.  1.
       -1   -1    0    0    0  501  0.00000000000E+00  0.00000000000E+00 -0.40410747634E+03  0.40410747637E+03  0.50400001928E-02 0. -1.
    10030    2    1    2    0    0  0.00000000000E+00  0.00000000000E+00  0.49419744549E+03  0.13024123982E+04  0.12050091037E+04 0.  0.
        2    1    3    3  502    0 -0.10643448317E+01  0.23825615093E+03 -0.35102691719E+03  0.42424877476E+03  0.25500000920E-02 0. -1.
       -2    1    3    3    0  502  0.10643448317E+01 -0.23825615093E+03  0.84522436268E+03  0.87816362345E+03  0.25500000920E-02 0.  1.
</event>
<event>
 5   0  0.2340731E-04  0.1200149E+04  0.7818609E-02  0.9112726E-01
       -1   -1    0    0    0  501  0.00000000000E+00  0.00000000000E+00  0.12320819757E+04  0.12320819757E+04  0.50400001928E-02 0. -1.
        1   -1    0    0  501    0  0.00000000000E+00  0.00000000000E+00 -0.29226097554E+03  0.29226097558E+03  0.50400001928E-02 0.  1.
    10030    2    1    2    0    0  0.00000000000E+00  0.00000000000E+00  0.93982100016E+03  0.15243429513E+04  0.12001491244E+04 0.  0.
        3    1    3    3  502    0 -0.17020385224E+03  0.10647358969E+03 -0.24833926982E+03  0.31934053885E+03  0.10100000352E+00 0.  1.
       -3    1    3    3    0  502  0.17020385224E+03 -0.10647358969E+03  0.11881602700E+04  0.12050024124E+04  0.10100000352E+00 0. -1.
</event>
<event>
 5   0  0.3993723E-04  0.1200369E+04  0.7818609E-02  0.9112534E-01
        2   -1    0    0  501    0  0.00000000000E+00  0.00000000000E+00  0.13594165712E+04  0.13594165712E+04  0.25500000920E-02 0. -1.
       -2   -1    0    0    0  501  0.00000000000E+00  0.00000000000E+00 -0.26498215843E+03  0.26498215845E+03  0.25500000920E-02 0.  1.
    10030    2    1    2    0    0  0.00000000000E+00  0.00000000000E+00  0.10944344127E+04  0.16243987296E+04  0.12003685055E+04 0.  0.
        3    1    3    3  502    0  0.59516996221E+02 -0.23776468318E+03  0.12886041179E+04  0.13117068653E+04  0.10100000352E+00 0. -1.
       -3    1    3    3    0  502 -0.59516996221E+02  0.23776468318E+03 -0.19416970521E+03  0.31269186435E+03  0.10100000352E+00 0.  1.
</event>
<event>
 5   0  0.4024486E-04  0.1199771E+04  0.7818609E-02  0.9113057E-01
        2   -1    0    0  501    0  0.00000000000E+00  0.00000000000E+00  0.12621543423E+04  0.12621543423E+04  0.25500000920E-02 0. -1.
       -2   -1    0    0    0  501  0.00000000000E+00  0.00000000000E+00 -0.28511758807E+03  0.28511758808E+03  0.25500000920E-02 0.  1.
    10030    2    1    2    0    0  0.00000000000E+00  0.00000000000E+00  0.97703675419E+03  0.15472719304E+04  0.11997706478E+04 0.  0.
        1    1    3    3  502    0 -0.48211823980E+03  0.35659500934E+03  0.46754818426E+03  0.76039417571E+03  0.50400001928E-02 0.  1.
       -1    1    3    3    0  502  0.48211823980E+03 -0.35659500934E+03  0.50948856994E+03  0.78687775464E+03  0.50400001928E-02 0. -1.
</event>
<event>
 5   0  0.2304842E-04  0.1199795E+04  0.7818609E-02  0.9113036E-01
       -1   -1    0    0    0  501  0.00000000000E+00  0.00000000000E+00  0.15289951905E+04  0.15289951905E+04  0.50400001928E-02 0. -1.
        1   -1    0    0  501    0  0.00000000000E+00  0.00000000000E+00 -0.23536835420E+03  0.23536835426E+03  0.50400001928E-02 0.  1.
    10030    2    1    2    0    0  0.00000000000E+00  0.00000000000E+00  0.12936268362E+04  0.17643635447E+04  0.11997951185E+04 0.  0.
        4    1    3    3  502    0  0.43002085755E+03 -0.30801817770E+03  0.23066395034E+03  0.57706204744E+03  0.12699999809E+01 0.  1.
       -4    1    3    3    0  502 -0.43002085755E+03  0.30801817770E+03  0.10629628859E+04  0.11873014973E+04  0.12699999809E+01 0. -1.
</event>
<event>
 5   0  0.2304842E-04  0.1179611E+04  0.7818609E-02  0.9130892E-01
       -1   -1    0    0    0  501  0.00000000000E+00  0.00000000000E+00  0.50656666698E+03  0.50656666701E+03  0.50400001928E-02 0.  1.
        1   -1    0    0  501    0  0.00000000000E+00  0.00000000000E+00 -0.68672236164E+03  0.68672236166E+03  0.50400001928E-02 0. -1.
    10030    2    1    2    0    0  0.00000000000E+00  0.00000000000E+00 -0.18015569466E+03  0.11932890287E+04  0.11796112205E+04 0.  0.
        4    1    3    3  502    0  0.53002183964E+03  0.86712662207E+02  0.15652492640E+03  0.55941389129E+03  0.12699999809E+01 0.  1.
       -4    1    3    3    0  502 -0.53002183964E+03 -0.86712662207E+02 -0.33668062106E+03  0.63387513738E+03  0.12699999809E+01 0. -1.
</event>
<event>
 5   0  0.2340731E-04  0.1201820E+04  0.7818609E-02  0.9111265E-01
       -1   -1    0    0    0  501  0.00000000000E+00  0.00000000000E+00  0.11231392476E+04  0.11231392476E+04  0.50400001928E-02 0.  1.
        1   -1    0    0  501    0  0.00000000000E+00  0.00000000000E+00 -0.32150327542E+03  0.32150327546E+03  0.50400001928E-02 0. -1.
    10030    2    1    2    0    0  0.00000000000E+00  0.00000000000E+00  0.80163597214E+03  0.14446425230E+04  0.12018201977E+04 0.  0.
        3    1    3    3  502    0 -0.58129676035E+03 -0.15120000788E+03  0.42250718727E+03  0.73435665686E+03  0.10100000352E+00 0.  1.
       -3    1    3    3    0  502  0.58129676035E+03  0.15120000788E+03  0.37912878487E+03  0.71028586618E+03  0.10100000352E+00 0. -1.
</event>
<event>
 5   0  0.3832662E-04  0.1200692E+04  0.7818609E-02  0.9112251E-01
        2   -1    0    0  501    0  0.00000000000E+00  0.00000000000E+00  0.89847487845E+03  0.89847487845E+03  0.25500000920E-02 0. -1.
       -2   -1    0    0    0  501  0.00000000000E+00  0.00000000000E+00 -0.40114097967E+03  0.40114097967E+03  0.25500000920E-02 0.  1.
    10030    2    1    2    0    0  0.00000000000E+00  0.00000000000E+00  0.49733389878E+03  0.12996158581E+04  0.12006916223E+04 0.  0.
        4    1    3    3  502    0 -0.11956961814E+02 -0.36080779469E+03  0.76786223309E+03  0.84849234266E+03  0.12699999809E+01 0. -1.
       -4    1    3    3    0  502  0.11956961814E+02  0.36080779469E+03 -0.27052833431E+03  0.45112351547E+03  0.12699999809E+01 0.  1.
</event>
<event>
 5   0  0.2244308E-04  0.1198949E+04  0.7818609E-02  0.9113777E-01
        1   -1    0    0  501    0  0.00000000000E+00  0.00000000000E+00  0.85649438227E+03  0.85649438228E+03  0.50400001928E-02 0. -1.
       -1   -1    0    0    0  501  0.00000000000E+00  0.00000000000E+00 -0.41958218345E+03  0.41958218348E+03  0.50400001928E-02 0.  1.
    10030    2    1    2    0    0  0.00000000000E+00  0.00000000000E+00  0.43691219882E+03  0.12760765658E+04  0.11989491783E+04 0.  0.
        5    1    3    3  502    0 -0.12783646801E+03  0.57474130193E+03  0.98616387481E+02  0.59700670731E+03  0.46999998093E+01 0. -1.
       -5    1    3    3    0  502  0.12783646801E+03 -0.57474130193E+03  0.33829581134E+03  0.67906985846E+03  0.46999998093E+01 0.  1.
</event>
<event>
 5   0  0.3993723E-04  0.1192349E+04  0.7818609E-02  0.9119580E-01
        2   -1    0    0  501    0  0.00000000000E+00  0.00000000000E+00  0.51781396242E+03  0.51781396242E+03  0.25500000920E-02 0.  1.
       -2   -1    0    0    0  501  0.00000000000E+00  0.00000000000E+00 -0.68639318780E+03  0.68639318781E+03  0.25500000920E-02 0. -1.
    10030    2    1    2    0    0  0.00000000000E+00  0.00000000000E+00 -0.16857922539E+03  0.12042071502E+04  0.11923489026E+04 0.  0.
        3    1    3    3  502    0 -0.25023498282E+03  0.13444411225E+03  0.44507125927E+03  0.52799735034E+03  0.10100000352E+00 0.  1.
       -3    1    3    3    0  502  0.25023498282E+03 -0.13444411225E+03 -0.61365048465E+03  0.67620979988E+03  0.10100000352E+00 0. -1.
</event>
<event>
 5   0  0.3993723E-04  0.1199910E+04  0.7818609E-02  0.9112935E-01
        2   -1    0    0  501    0  0.00000000000E+00  0.00000000000E+00  0.17875633187E+04  0.17875633187E+04  0.25500000920E-02 0. -1.
       -2   -1    0    0    0  501  0.00000000000E+00  0.00000000000E+00 -0.20136119821E+03  0.20136119823E+03  0.25500000920E-02 0.  1.
    10030    2    1    2    0    0  0.00000000000E+00  0.00000000000E+00  0.15862021204E+04  0.19889245169E+04  0.11999098162E+04 0.  0.
        3    1    3    3  502    0 -0.40433104939E+03 -0.29937705634E+03  0.13348871096E+04  0.14265461174E+04  0.10100000352E+00 0. -1.
       -3    1    3    3    0  502  0.40433104939E+03  0.29937705634E+03  0.25131501081E+03  0.56237839950E+03  0.10100000352E+00 0.  1.
</event>
<event>
 5   0  0.2244308E-04  0.1200192E+04  0.7818609E-02  0.9112688E-01
        1   -1    0    0  501    0  0.00000000000E+00  0.00000000000E+00  0.79957173638E+03  0.79957173639E+03  0.50400001928E-02 0. -1.
       -1   -1    0    0    0  501  0.00000000000E+00  0.00000000000E+00 -0.45038541777E+03  0.45038541780E+03  0.50400001928E-02 0.  1.
    10030    2    1    2    0    0  0.00000000000E+00  0.00000000000E+00  0.34918631860E+03  0.12499571542E+04  0.12001924022E+04 0.  0.
        5    1    3    3  502    0  0.39029195194E+03 -0.25236933636E+03 -0.22071791040E+03  0.51454501810E+03  0.46999998093E+01 0.  1.
       -5    1    3    3    0  502 -0.39029195194E+03  0.25236933636E+03  0.56990422901E+03  0.73541213610E+03  0.46999998093E+01 0. -1.
</event>
<event>
 5   0  0.1541375E-04  0.1200925E+04  0.7818609E-02  0.9112047E-01
        3   -1    0    0  501    0  0.00000000000E+00  0.00000000000E+00  0.51809369863E+03  0.51809370847E+03  0.10100000352E+00 0. -1.
       -3   -1    0    0    0  501  0.00000000000E+00  0.00000000000E+00 -0.69592633197E+03  0.69592633930E+03  0.10100000352E+00 0.  1.
    10030    2    1    2    0    0  0.00000000000E+00  0.00000000000E+00 -0.17783263334E+03  0.12140200478E+04  0.12009247399E+04 0.  0.
        5    1    3    3  502    0  0.16576662215E+03  0.56828119425E+03  0.12733013862E+02  0.59212018071E+03  0.46999998093E+01 0. -1.
       -5    1    3    3    0  502 -0.16576662215E+03 -0.56828119425E+03 -0.19056564720E+03  0.62189986706E+03  0.46999998093E+01 0.  1.
</event>
<event>
 5   0  0.2244308E-04  0.1199767E+04  0.7818609E-02  0.9113061E-01
       -1   -1    0    0    0  501  0.00000000000E+00  0.00000000000E+00  0.31828049980E+03  0.31828049984E+03  0.50400001928E-02 0.  1.
        1   -1    0    0  501    0  0.00000000000E+00  0.00000000000E+00 -0.11306378030E+04  0.11306378030E+04  0.50400001928E-02 0. -1.
    10030    2    1    2    0    0  0.00000000000E+00  0.00000000000E+00 -0.81235730321E+03  0.14489183029E+04  0.11997665857E+04 0.  0.
        5    1    3    3  502    0 -0.40288448252E+02  0.21437321146E+03  0.26866708519E+03  0.34609698860E+03  0.46999998093E+01 0.  1.
       -5    1    3    3    0  502  0.40288448252E+02 -0.21437321146E+03 -0.10810243884E+04  0.11028213143E+04  0.46999998093E+01 0. -1.
</event>
<event>
 5   0  0.3993723E-04  0.1182824E+04  0.7818609E-02  0.9128025E-01
       -2   -1    0    0    0  501  0.00000000000E+00  0.00000000000E+00  0.55812777697E+03  0.55812777698E+03  0.25500000920E-02 0.  1.
        2   -1    0    0  501    0  0.00000000000E+00  0.00000000000E+00 -0.62668148025E+03  0.62668148026E+03  0.25500000920E-02 0. -1.
    10030    2    1    2    0    0  0.00000000000E+00  0.00000000000E+00 -0.68553703283E+02  0.11848092572E+04  0.11828243174E+04 0.  0.
        3    1    3    3  502    0 -0.61958795652E+02  0.54688065034E+03 -0.25109098810E+03  0.60494961161E+03  0.10100000352E+00 0. -1.
       -3    1    3    3    0  502  0.61958795652E+02 -0.54688065034E+03  0.18253728481E+03  0.57985964563E+03  0.10100000352E+00 0.  1.
</event>
<event>
 5   0  0.1541375E-04  0.1202026E+04  0.7818609E-02  0.9111085E-01
       -3   -1    0    0    0  501  0.00000000000E+00  0.00000000000E+00  0.34548795943E+03  0.34548797420E+03  0.10100000352E+00 0. -1.
        3   -1    0    0  501    0  0.00000000000E+00  0.00000000000E+00 -0.10455265411E+04  0.10455265459E+04  0.10100000352E+00 0.  1.
    10030    2    1    2    0    0  0.00000000000E+00  0.00000000000E+00 -0.70003858162E+03  0.13910145201E+04  0.12020263639E+04 0.  0.
        2    1    3    3  502    0  0.36233333695E+02 -0.31323147771E+03 -0.94211814849E+03  0.99348548999E+03  0.25500000920E-02 0.  1.
       -2    1    3    3    0  502 -0.36233333695E+02  0.31323147771E+03  0.24207956687E+03  0.39752903014E+03  0.25500000920E-02 0. -1.
</event>
<event>
 5   0  0.3883890E-04  0.1201137E+04  0.7818609E-02  0.9111862E-01
        2   -1    0    0  501    0  0.00000000000E+00  0.00000000000E+00  0.88549867198E+03  0.88549867198E+03  0.25500000920E-02 0.  1.
       -2   -1    0    0    0  501  0.00000000000E+00  0.00000000000E+00 -0.40732154604E+03  0.40732154605E+03  0.25500000920E-02 0. -1.
    10030    2    1    2    0    0  0.00000000000E+00  0.00000000000E+00  0.47817712594E+03  0.12928202180E+04  0.12011372746E+04 0.  0.
        2    1    3    3  502    0  0.28123947850E+03  0.41252604171E+03  0.59834638321E+03  0.77928927470E+03  0.25500000920E-02 0.  1.
       -2    1    3    3    0  502 -0.28123947850E+03 -0.41252604171E+03 -0.12016925727E+03  0.51353094333E+03  0.25500000920E-02 0. -1.
</event>
<event>
 5   0  0.4024486E-04  0.1198304E+04  0.7818609E-02  0.9114342E-01
        2   -1    0    0  501    0  0.00000000000E+00  0.00000000000E+00  0.13975896128E+04  0.13975896128E+04  0.25500000920E-02 0. -1.
       -2   -1    0    0    0  501  0.00000000000E+00  0.00000000000E+00 -0.25685868534E+03  0.25685868536E+03  0.25500000920E-02 0.  1.
    10030    2    1    2    0    0  0.00000000000E+00  0.00000000000E+00  0.11407309274E+04  0.16544482981E+04  0.11983038523E+04 0.  0.
        1    1    3    3  502    0  0.73604681170E+02  0.33648195317E+03  0.12472335536E+04  0.12939201254E+04  0.50400001928E-02 0. -1.
       -1    1    3    3    0  502 -0.73604681170E+02 -0.33648195317E+03 -0.10650262613E+03  0.36052817268E+03  0.50400001928E-02 0.  1.
</event>
<event>
 5   0  0.2315038E-04  0.1201912E+04  0.7818609E-02  0.9111185E-01
       -1   -1    0    0    0  501  0.00000000000E+00  0.00000000000E+00  0.50152947229E+03  0.50152947232E+03  0.50400001928E-02 0.  1.
        1   -1    0    0  501    0  0.00000000000E+00  0.00000000000E+00 -0.72009307412E+03  0.72009307414E+03  0.50400001928E-02 0. -1.
    10030    2    1    2    0    0  0.00000000000E+00  0.00000000000E+00 -0.21856360183E+03  0.12216225465E+04  0.12019116432E+04 0.  0.
        1    1    3    3  502    0  0.55437026055E+03  0.24153282541E+01  0.12650468660E+03  0.56862611209E+03  0.50400001928E-02 0.  1.
       -1    1    3    3    0  502 -0.55437026055E+03 -0.24153282541E+01 -0.34506828843E+03  0.65299643437E+03  0.50400001928E-02 0. -1.
</event>
<event>
 5   0  0.3832662E-04  0.1202755E+04  0.7818609E-02  0.9110449E-01
       -2   -1    0    0    0  501  0.00000000000E+00  0.00000000000E+00  0.38667143684E+03  0.38667143685E+03  0.25500000920E-02 0. -1.
        2   -1    0    0  501    0  0.00000000000E+00  0.00000000000E+00 -0.93530256363E+03  0.93530256363E+03  0.25500000920E-02 0.  1.
    10030    2    1    2    0    0  0.00000000000E+00  0.00000000000E+00 -0.54863112679E+03  0.13219740005E+04  0.12027548149E+04 0.  0.
        4    1    3    3  502    0 -0.53450376525E+03  0.31519676142E+02 -0.57525303294E+03  0.78587876282E+03  0.12699999809E+01 0.  1.
       -4    1    3    3    0  502  0.53450376525E+03 -0.31519676142E+02  0.26621906146E+02  0.53609523766E+03  0.12699999809E+01 0. -1.
</event>
<event>
 5   0  0.3832662E-04  0.1197212E+04  0.7818609E-02  0.9115300E-01
        2   -1    0    0  501    0  0.00000000000E+00  0.00000000000E+00  0.22828753366E+04  0.22828753366E+04  0.25500000920E-02 0.  1.
       -2   -1    0    0    0  501  0.00000000000E+00  0.00000000000E+00 -0.15696408012E+03  0.15696408014E+03  0.25500000920E-02 0. -1.
    10030    2    1    2    0    0  0.00000000000E+00  0.00000000000E+00  0.21259112565E+04  0.24398394167E+04  0.11972124745E+04 0.  0.
        4    1    3    3  502    0  0.23612902326E+02 -0.27427415439E+02  0.22806409062E+04  0.22809284049E+04  0.12699999809E+01 0.  1.
       -4    1    3    3    0  502 -0.23612902326E+02  0.27427415439E+02 -0.15472964974E+03  0.15891101184E+03  0.12699999809E+01 0. -1.
</event>
<event>
 5   0  0.3993723E-04  0.1197227E+04  0.7818609E-02  0.9115287E-01
        2   -1    0    0  501    0  0.00000000000E+00  0.00000000000E+00  0.82692820642E+03  0.82692820642E+03  0.25500000920E-02 0. -1.
       -2   -1    0    0    0  501  0.00000000000E+00  0.00000000000E+00 -0.43333627096E+03  0.43333627096E+03  0.25500000920E-02 0.  1.
    10030    2    1    2    0    0  0.00000000000E+00  0.00000000000E+00  0.39359193546E+03  0.12602644774E+04  0.11972267710E+04 0.  0.
        3    1    3    3  502    0  0.98542898901E+02 -0.34516229875E+03  0.70107092862E+03  0.78762184617E+03  0.10100000352E+00 0. -1.
       -3    1    3    3    0  502 -0.98542898901E+02  0.34516229875E+03 -0.30747899316E+03  0.47264263121E+03  0.10100000352E+00 0.  1.
</event>
<event>
 5   0  0.2304842E-04  0.1199154E+04  0.7818609E-02  0.9113597E-01
        1   -1    0    0  501    0  0.00000000000E+00  0.00000000000E+00  0.40310101023E+03  0.40310101027E+03  0.50400001928E-02 0. -1.
       -1   -1    0    0    0  501  0.00000000000E+00  0.00000000000E+00 -0.89181819345E+03  0.89181819346E+03  0.50400001928E-02 0.  1.
    10030    2    1    2    0    0  0.00000000000E+00  0.00000000000E+00 -0.48871718321E+03  0.12949192037E+04  0.11991543933E+04 0.  0.
        4    1    3    3  502    0  0.55124618841E+03  0.46070832099E+02  0.54052253849E+01  0.55319590668E+03  0.12699999809E+01 0. -1.
       -4    1    3    3    0  502 -0.55124618841E+03 -0.46070832099E+02 -0.49412240860E+03  0.74172329705E+03  0.12699999809E+01 0.  1.
</event>
<event>
 5   0  0.2204090E-04  0.1199475E+04  0.7818609E-02  0.9113316E-01
        1   -1    0    0  501    0  0.00000000000E+00  0.00000000000E+00  0.10047703818E+04  0.10047703818E+04  0.50400001928E-02 0. -1.
       -1   -1    0    0    0  501  0.00000000000E+00  0.00000000000E+00 -0.35797757170E+03  0.35797757173E+03  0.50400001928E-02 0.  1.
    10030    2    1    2    0    0  0.00000000000E+00  0.00000000000E+00  0.64679281006E+03  0.13627479535E+04  0.11994753210E+04 0.  0.
        2    1    3    3  502    0  0.30737690081E+03  0.51401926286E+03  0.28766909360E+03  0.66441693925E+03  0.25500000920E-02 0.  1.
       -2    1    3    3    0  502 -0.30737690081E+03 -0.51401926286E+03  0.35912371646E+03  0.69833101426E+03  0.25500000920E-02 0. -1.
</event>
<event>
 5   0  0.3993723E-04  0.1202049E+04  0.7818609E-02  0.9111065E-01
        2   -1    0    0  501    0  0.00000000000E+00  0.00000000000E+00  0.54031206295E+03  0.54031206295E+03  0.25500000920E-02 0.  1.
       -2   -1    0    0    0  501  0.00000000000E+00  0.00000000000E+00 -0.66855854958E+03  0.66855854958E+03  0.25500000920E-02 0. -1.
    10030    2    1    2    0    0  0.00000000000E+00  0.00000000000E+00 -0.12824648663E+03  0.12088706125E+04  0.12020486665E+04 0.  0.
        3    1    3    3  502    0  0.25854166548E+03  0.53338795099E+03 -0.16410446122E+03  0.61504209891E+03  0.10100000352E+00 0.  1.
       -3    1    3    3    0  502 -0.25854166548E+03 -0.53338795099E+03  0.35857974585E+02  0.59382851362E+03  0.10100000352E+00 0. -1.
</event>
<event>
 5   0  0.3832662E-04  0.1194389E+04  0.7818609E-02  0.9117782E-01
        2   -1    0    0  501    0  0.00000000000E+00  0.00000000000E+00  0.74054449576E+03  0.74054449577E+03  0.25500000920E-02 0.  1.
       -2   -1    0    0    0  501  0.00000000000E+00  0.00000000000E+00 -0.48159354301E+03  0.48159354302E+03  0.25500000920E-02 0. -1.
    10030    2    1    2    0    0  0.00000000000E+00  0.00000000000E+00  0.25895095275E+03  0.12221380388E+04  0.11943892958E+04 0.  0.
        4    1    3    3  502    0  0.41914127174E+03 -0.41396139547E+03  0.22971254291E+03  0.63230760543E+03  0.12699999809E+01 0.  1.
       -4    1    3    3    0  502 -0.41914127174E+03  0.41396139547E+03  0.29238409837E+02  0.58983043336E+03  0.12699999809E+01 0. -1.
</event>
<event>
 5   0  0.3832662E-04  0.1199707E+04  0.7818609E-02  0.9113113E-01
        2   -1    0    0  501    0  0.00000000000E+00  0.00000000000E+00  0.69378428359E+03  0.69378428360E+03  0.25500000920E-02 0.  1.
       -2   -1    0    0    0  501  0.00000000000E+00  0.00000000000E+00 -0.51863951502E+03  0.51863951503E+03  0.25500000920E-02 0. -1.
    10030    2    1    2    0    0  0.00000000000E+00  0.00000000000E+00  0.17514476857E+03  0.12124237986E+04  0.11997065381E+04 0.  0.
        4    1    3    3  502    0 -0.33457457678E+03  0.41565421875E+03 -0.18940171711E+03  0.56620067144E+03  0.12699999809E+01 0. -1.
       -4    1    3    3    0  502  0.33457457678E+03 -0.41565421875E+03  0.36454648568E+03  0.64622312719E+03  0.12699999809E+01 0.  1.
</event>
<event>
 5   0  0.2340731E-04  0.1198282E+04  0.7818609E-02  0.9114362E-01
        1   -1    0    0  501    0  0.00000000000E+00  0.00000000000E+00  0.11230603130E+04  0.11230603130E+04  0.50400001928E-02 0. -1.
       -1   -1    0    0    0  501  0.00000000000E+00  0.00000000000E+00 -0.31963534448E+03  0.31963534452E+03  0.50400001928E-02 0.  1.
    10030    2    1    2    0    0  0.00000000000E+00  0.00000000000E+00  0.80342496848E+03  0.14426956575E+04  0.11982817199E+04 0.  0.
        3    1    3    3  502    0 -0.11808079682E+02 -0.35793041921E+03  0.98001460228E+03  0.10433993706E+04  0.10100000352E+00 0. -1.
       -3    1    3    3    0  502  0.11808079682E+02  0.35793041921E+03 -0.17658963380E+03  0.39929628687E+03  0.10100000352E+00 0.  1.
</event>
<event>
 5   0  0.2315038E-04  0.1199067E+04  0.7818609E-02  0.9113674E-01
        1   -1    0    0  501    0  0.00000000000E+00  0.00000000000E+00  0.58949903320E+03  0.58949903322E+03  0.50400001928E-02 0. -1.
       -1   -1    0    0    0  501  0.00000000000E+00  0.00000000000E+00 -0.60973832496E+03  0.60973832498E+03  0.50400001928E-02 0.  1.
    10030    2    1    2    0    0  0.00000000000E+00  0.00000000000E+00 -0.20239291763E+02  0.11992373582E+04  0.11990665588E+04 0.  0.
        1    1    3    3  502    0  0.38234967368E+03 -0.34670746647E+03  0.29495300352E+03  0.59447002832E+03  0.50400001928E-02 0.  1.
       -1    1    3    3    0  502 -0.38234967368E+03  0.34670746647E+03 -0.31519229528E+03  0.60476732988E+03  0.50400001928E-02 0. -1.
</event>
<event>
 5   0  0.2204090E-04  0.1198843E+04  0.7818609E-02  0.9113870E-01
       -1   -1    0    0    0  501  0.00000000000E+00  0.00000000000E+00  0.26602519738E+03  0.26602519743E+03  0.50400001928E-02 0.  1.
        1   -1    0    0  501    0  0.00000000000E+00  0.00000000000E+00 -0.13506465069E+04  0.13506465069E+04  0.50400001928E-02 0. -1.
    10030    2    1    2    0    0  0.00000000000E+00  0.00000000000E+00 -0.10846213095E+04  0.16166717043E+04  0.11988427814E+04 0.  0.
        2    1    3    3  502    0  0.44029827123E+03 -0.33497706875E+03 -0.23117245370E+03  0.59959395227E+03  0.25500000920E-02 0.  1.
       -2    1    3    3    0  502 -0.44029827123E+03  0.33497706875E+03 -0.85344885582E+03  0.10170777521E+04  0.25500000920E-02 0. -1.
</event>
<event>
 5   0  0.4024486E-04  0.1199122E+04  0.7818609E-02  0.9113625E-01
        2   -1    0    0  501    0  0.00000000000E+00  0.00000000000E+00  0.90337109970E+03  0.90337109970E+03  0.25500000920E-02 0.  1.
       -2   -1    0    0    0  501  0.00000000000E+00  0.00000000000E+00 -0.39792470573E+03  0.39792470573E+03  0.25500000920E-02 0. -1.
    10030    2    1    2    0    0  0.00000000000E+00  0.00000000000E+00  0.50544639397E+03  0.13012958054E+04  0.11991224775E+04 0.  0.
        1    1    3    3  502    0  0.23724706507E+03  0.32359794697E+03  0.73618478628E+03  0.83843296735E+03  0.50400001928E-02 0.  1.
       -1    1    3    3    0  502 -0.23724706507E+03 -0.32359794697E+03 -0.23073839231E+03  0.46286283808E+03  0.50400001928E-02 0. -1.
</event>
<event>
 5   0  0.3832662E-04  0.1199745E+04  0.7818609E-02  0.9113080E-01
       -2   -1    0    0    0  501  0.00000000000E+00  0.00000000000E+00  0.48094482798E+03  0.48094482799E+03  0.25500000920E-02 0. -1.
        2   -1    0    0  501    0  0.00000000000E+00  0.00000000000E+00 -0.74820885934E+03  0.74820885934E+03  0.25500000920E-02 0.  1.
    10030    2    1    2    0    0  0.00000000000E+00  0.00000000000E+00 -0.26726403136E+03  0.12291536873E+04  0.11997452749E+04 0.  0.
        4    1    3    3  502    0  0.52935624285E+03 -0.17429743376E+03  0.93726475806E+02  0.56514059528E+03  0.12699999809E+01 0. -1.
       -4    1    3    3    0  502 -0.52935624285E+03  0.17429743376E+03 -0.36099050716E+03  0.66401309206E+03  0.12699999809E+01 0.  1.
</event>
<event>
 5   0  0.2244308E-04  0.1199043E+04  0.7818609E-02  0.9113695E-01
       -1   -1    0    0    0  501  0.00000000000E+00  0.00000000000E+00  0.72933472983E+03  0.72933472985E+03  0.50400001928E-02 0. -1.
        1   -1    0    0  501    0  0.00000000000E+00  0.00000000000E+00 -0.49281352598E+03  0.49281352601E+03  0.50400001928E-02 0.  1.
    10030    2    1    2    0    0  0.00000000000E+00  0.00000000000E+00  0.23652120385E+03  0.12221482559E+04  0.11990429848E+04 0.  0.
        5    1    3    3  502    0 -0.49601337127E+03 -0.12383450732E+03 -0.20088589567E+03  0.54931000606E+03  0.46999998093E+01 0.  1.
       -5    1    3    3    0  502  0.49601337127E+03  0.12383450732E+03  0.43740709952E+03  0.67283824980E+03  0.46999998093E+01 0. -1.
</event>
<event>
 5   0  0.3832662E-04  0.1199569E+04  0.7818609E-02  0.9113234E-01
       -2   -1    0    0    0  501  0.00000000000E+00  0.00000000000E+00  0.73217191407E+03  0.73217191408E+03  0.25500000920E-02 0. -1.
        2   -1    0    0  501    0  0.00000000000E+00  0.00000000000E+00 -0.49133453649E+03  0.49133453650E+03  0.25500000920E-02 0.  1.
    10030    2    1    2    0    0  0.00000000000E+00  0.00000000000E+00  0.24083737758E+03  0.12235064506E+04  0.11995688359E+04 0.  0.
        4    1    3    3  502    0 -0.33378101749E+03 -0.24916971684E+03  0.56059100348E+03  0.69839759557E+03  0.12699999809E+01 0. -1.
       -4    1    3    3    0  502  0.33378101749E+03  0.24916971684E+03 -0.31975362590E+03  0.52510885500E+03  0.12699999809E+01 0.  1.
</event>
<event>
 5   0  0.2315038E-04  0.1177471E+04  0.7818609E-02  0.9132808E-01
       -1   -1    0    0    0  501  0.00000000000E+00  0.00000000000E+00  0.95734086996E+03  0.95734086997E+03  0.50400001928E-02 0.  1.
        1   -1    0    0  501    0  0.00000000000E+00  0.00000000000E+00 -0.36205462661E+03  0.36205462665E+03  0.50400001928E-02 0. -1.
    10030    2    1    2    0    0  0.00000000000E+00  0.00000000000E+00  0.59528624334E+03  0.13193954966E+04  0.11774713436E+04 0.  0.
        1    1    3    3  502    0  0.49866614969E+03 -0.31015984283E+03  0.25086661591E+03  0.63859307540E+03  0.50400001928E-02 0. -1.
       -1    1    3    3    0  502 -0.49866614969E+03  0.31015984283E+03  0.34441962744E+03  0.68080242122E+03  0.50400001928E-02 0.  1.
</event>
<event>
 5   0  0.2244308E-04  0.1198829E+04  0.7818609E-02  0.9113882E-01
        1   -1    0    0  501    0  0.00000000000E+00  0.00000000000E+00  0.20580206751E+04  0.20580206751E+04  0.50400001928E-02 0.  1.
       -1   -1    0    0    0  501  0.00000000000E+00  0.00000000000E+00 -0.17458420616E+03  0.17458420623E+03  0.50400001928E-02 0. -1.
    10030    2    1    2    0    0  0.00000000000E+00  0.00000000000E+00  0.18834364689E+04  0.22326048813E+04  0.11988292721E+04 0.  0.
        5    1    3    3  502    0 -0.25188656811E+03 -0.15864392311E+03  0.19105925323E+04  0.19336495681E+04  0.46999998093E+01 0.  1.
       -5    1    3    3    0  502  0.25188656811E+03  0.15864392311E+03 -0.27156063407E+02  0.29895531324E+03  0.46999998093E+01 0. -1.
</event>
<event>
 5   0  0.2244308E-04  0.1204321E+04  0.7818609E-02  0.9109083E-01
        1   -1    0    0  501    0  0.00000000000E+00  0.00000000000E+00  0.26916864347E+03  0.26916864352E+03  0.50400001928E-02 0.  1.
       -1   -1    0    0    0  501  0.00000000000E+00  0.00000000000E+00 -0.13471002292E+04  0.13471002292E+04  0.50400001928E-02 0. -1.
    10030    2    1    2    0    0  0.00000000000E+00  0.00000000000E+00 -0.10779315857E+04  0.16162688727E+04  0.12043207901E+04 0.  0.
        5    1    3    3  502    0  0.27914259994E+03 -0.51903260302E+03 -0.37318155168E+03  0.69756863075E+03  0.46999998093E+01 0.  1.
       -5    1    3    3    0  502 -0.27914259994E+03  0.51903260302E+03 -0.70475003402E+03  0.91870024195E+03  0.46999998093E+01 0. -1.
</event>
<event>
 5   0  0.4122956E-04  0.1192022E+04  0.7818609E-02  0.9119868E-01
       -2   -1    0    0    0  501  0.00000000000E+00  0.00000000000E+00  0.32187842063E+03  0.32187842064E+03  0.25500000920E-02 0.  1.
        2   -1    0    0  501    0  0.00000000000E+00  0.00000000000E+00 -0.11036131954E+04  0.11036131954E+04  0.25500000920E-02 0. -1.
    10030    2    1    2    0    0  0.00000000000E+00  0.00000000000E+00 -0.78173477472E+03  0.14254916160E+04  0.11920222688E+04 0.  0.
        5    1    3    3  502    0 -0.26475209343E+03 -0.52788533337E+03 -0.48691352142E+03  0.76541718266E+03  0.46999998093E+01 0. -1.
       -5    1    3    3    0  502  0.26475209343E+03  0.52788533337E+03 -0.29482125330E+03  0.66007443335E+03  0.46999998093E+01 0.  1.
</event>
<event>
 5   0  0.4122956E-04  0.1199591E+04  0.7818609E-02  0.9113214E-01
        2   -1    0    0  501    0  0.00000000000E+00  0.00000000000E+00  0.16836686863E+04  0.16836686863E+04  0.25500000920E-02 0. -1.
       -2   -1    0    0    0  501  0.00000000000E+00  0.00000000000E+00 -0.21367313937E+03  0.21367313939E+03  0.25500000920E-02 0.  1.
    10030    2    1    2    0    0  0.00000000000E+00  0.00000000000E+00  0.14699955469E+04  0.18973418257E+04  0.11995912202E+04 0.  0.
        5    1    3    3  502    0 -0.33013384780E+01  0.26957085798E+02  0.16826665303E+04  0.16828922501E+04  0.46999998093E+01 0. -1.
       -5    1    3    3    0  502  0.33013384780E+01 -0.26957085798E+02 -0.21267098336E+03  0.21444957559E+03  0.46999998093E+01 0.  1.
</event>
<event>
 5   0  0.3883890E-04  0.1196187E+04  0.7818609E-02  0.9116200E-01
       -2   -1    0    0    0  501  0.00000000000E+00  0.00000000000E+00  0.36710873492E+03  0.36710873493E+03  0.25500000920E-02 0. -1.
        2   -1    0    0  501    0  0.00000000000E+00  0.00000000000E+00 -0.97441446362E+03  0.97441446362E+03  0.25500000920E-02 0.  1.
    10030    2    1    2    0    0  0.00000000000E+00  0.00000000000E+00 -0.60730572870E+03  0.13415231985E+04  0.11961873784E+04 0.  0.
        2    1    3    3  502    0 -0.30509829426E+03 -0.42509396400E+03 -0.62855142450E+03  0.81784273588E+03  0.25500000920E-02 0.  1.
       -2    1    3    3    0  502  0.30509829426E+03  0.42509396400E+03  0.21245695802E+02  0.52368046267E+03  0.25500000920E-02 0. -1.
</event>
<event>
 5   0  0.2315038E-04  0.1197961E+04  0.7818609E-02  0.9114643E-01
        1   -1    0    0  501    0  0.00000000000E+00  0.00000000000E+00  0.14643540166E+04  0.14643540166E+04  0.50400001928E-02 0.  1.
       -1   -1    0    0    0  501  0.00000000000E+00  0.00000000000E+00 -0.24500758664E+03  0.24500758670E+03  0.50400001928E-02 0. -1.
    10030    2    1    2    0    0  0.00000000000E+00  0.00000000000E+00  0.12193464300E+04  0.17093616033E+04  0.11979613410E+04 0.  0.
        1    1    3    3  502    0  0.42786070296E+03  0.13782902787E+03  0.44803726143E+02  0.45173996498E+03  0.50400001928E-02 0. -1.
       -1    1    3    3    0  502 -0.42786070296E+03 -0.13782902787E+03  0.11745427038E+04  0.12576216383E+04  0.50400001928E-02 0.  1.
</event>
<event>
 5   0  0.4122956E-04  0.1199505E+04  0.7818609E-02  0.9113290E-01
        2   -1    0    0  501    0  0.00000000000E+00  0.00000000000E+00  0.73547973826E+03  0.73547973826E+03  0.25500000920E-02 0.  1.
       -2   -1    0    0    0  501  0.00000000000E+00  0.00000000000E+00 -0.48907301703E+03  0.48907301704E+03  0.25500000920E-02 0. -1.
    10030    2    1    2    0    0  0.00000000000E+00  0.00000000000E+00  0.24640672123E+03  0.12245527553E+04  0.11995053890E+04 0.  0.
        5    1    3    3  502    0  0.41614731709E+03 -0.34144432599E+01  0.56406690177E+03  0.70098773714E+03  0.46999998093E+01 0.  1.
       -5    1    3    3    0  502 -0.41614731709E+03  0.34144432599E+01 -0.31766018054E+03  0.52356501817E+03  0.46999998093E+01 0. -1.
</event>
<event>
 5   0  0.2244308E-04  0.1206466E+04  0.7818609E-02  0.9107216E-01
        1   -1    0    0  501    0  0.00000000000E+00  0.00000000000E+00  0.12984165777E+04  0.12984165777E+04  0.50400001928E-02 0.  1.
       -1   -1    0    0    0  501  0.00000000000E+00  0.00000000000E+00 -0.28025669043E+03  0.28025669048E+03  0.50400001928E-02 0. -1.
    10030    2    1    2    0    0  0.00000000000E+00  0.00000000000E+00  0.10181598873E+04  0.15786732682E+04  0.12064658021E+04 0.  0.
        5    1    3    3  502    0 -0.17573805804E+03  0.56121352289E+03  0.33341095019E+03  0.67603952179E+03  0.46999998093E+01 0. -1.
       -5    1    3    3    0  502  0.17573805804E+03 -0.56121352289E+03  0.68474893709E+03  0.90263374641E+03  0.46999998093E+01 0.  1.
</event>
<event>
 5   0  0.3993723E-04  0.1199783E+04  0.7818609E-02  0.9113046E-01
       -2   -1    0    0    0  501  0.00000000000E+00  0.00000000000E+00  0.22646088863E+03  0.22646088864E+03  0.25500000920E-02 0.  1.
        2   -1    0    0  501    0  0.00000000000E+00  0.00000000000E+00 -0.15891036334E+04  0.15891036334E+04  0.25500000920E-02 0. -1.
    10030    2    1    2    0    0  0.00000000000E+00  0.00000000000E+00 -0.13626427447E+04  0.18155645220E+04  0.11997830153E+04 0.  0.
        3    1    3    3  502    0 -0.23843741408E+03  0.28326539418E+03 -0.13955631541E+04  0.14438449402E+04  0.10100000352E+00 0. -1.
       -3    1    3    3    0  502  0.23843741408E+03 -0.28326539418E+03  0.32920409355E+02  0.37171958184E+03  0.10100000352E+00 0.  1.
</event>
<event>
 5   0  0.4122956E-04  0.1199446E+04  0.7818609E-02  0.9113342E-01
       -2   -1    0    0    0  501  0.00000000000E+00  0.00000000000E+00  0.22586411984E+03  0.22586411985E+03  0.25500000920E-02 0.  1.
        2   -1    0    0  501    0  0.00000000000E+00  0.00000000000E+00 -0.15924075202E+04  0.15924075202E+04  0.25500000920E-02 0. -1.
    10030    2    1    2    0    0  0.00000000000E+00  0.00000000000E+00 -0.13665434004E+04  0.18182716401E+04  0.11994460772E+04 0.  0.
        5    1    3    3  502    0 -0.31487630318E+02  0.37580020106E+03 -0.13901361538E+04  0.14403880998E+04  0.46999998093E+01 0. -1.
       -5    1    3    3    0  502  0.31487630318E+02 -0.37580020106E+03  0.23592753433E+02  0.37788354025E+03  0.46999998093E+01 0.  1.
</event>
<event>
 5   0  0.2304842E-04  0.1200931E+04  0.7818609E-02  0.9112042E-01
        1   -1    0    0  501    0  0.00000000000E+00  0.00000000000E+00  0.89566610139E+03  0.89566610140E+03  0.50400001928E-02 0.  1.
       -1   -1    0    0    0  501  0.00000000000E+00  0.00000000000E+00 -0.40255940153E+03  0.40255940156E+03  0.50400001928E-02 0. -1.
    10030    2    1    2    0    0  0.00000000000E+00  0.00000000000E+00  0.49310669986E+03  0.12982255030E+04  0.12009309885E+04 0.  0.
        4    1    3    3  502    0 -0.59449925392E+03 -0.76032255822E+02  0.20687947653E+03  0.63404337198E+03  0.12699999809E+01 0. -1.
       -4    1    3    3    0  502  0.59449925392E+03  0.76032255822E+02  0.28622722333E+03  0.66418213098E+03  0.12699999809E+01 0.  1.
</event>
<event>
 5   0  0.3993723E-04  0.1207687E+04  0.7818609E-02  0.9106154E-01
        2   -1    0    0  501    0  0.00000000000E+00  0.00000000000E+00  0.12360757566E+04  0.12360757566E+04  0.25500000920E-02 0.  1.
       -2   -1    0    0    0  501  0.00000000000E+00  0.00000000000E+00 -0.29498766026E+03  0.29498766028E+03  0.25500000920E-02 0. -1.
    10030    2    1    2    0    0  0.00000000000E+00  0.00000000000E+00  0.94108809636E+03  0.15310634169E+04  0.12076872035E+04 0.  0.
        3    1    3    3  502    0 -0.12133151804E+03  0.55395374310E+03  0.73355866424E+03  0.92719707228E+03  0.10100000352E+00 0. -1.
       -3    1    3    3    0  502  0.12133151804E+03 -0.55395374310E+03  0.20752943212E+03  0.60386634462E+03  0.10100000352E+00 0.  1.
</event>
<event>
 5   0  0.3883890E-04  0.1201184E+04  0.7818609E-02  0.9111821E-01
       -2   -1    0    0    0  501  0.00000000000E+00  0.00000000000E+00  0.33357646502E+03  0.33357646503E+03  0.25500000920E-02 0.  1.
        2   -1    0    0  501    0  0.00000000000E+00  0.00000000000E+00 -0.10813433977E+04  0.10813433977E+04  0.25500000920E-02 0. -1.
    10030    2    1    2    0    0  0.00000000000E+00  0.00000000000E+00 -0.74776693270E+03  0.14149198628E+04  0.12011839295E+04 0.  0.
        2    1    3    3  502    0 -0.14740639550E+03 -0.24658647101E+03 -0.99515731942E+03  0.10357951649E+04  0.25500000920E-02 0. -1.
       -2    1    3    3    0  502  0.14740639550E+03  0.24658647101E+03  0.24739038672E+03  0.37912469791E+03  0.25500000920E-02 0.  1.
</event>
<event>
 5   0  0.3832662E-04  0.1195469E+04  0.7818609E-02  0.9116832E-01
       -2   -1    0    0    0  501  0.00000000000E+00  0.00000000000E+00  0.28314731190E+03  0.28314731191E+03  0.25500000920E-02 0. -1.
        2   -1    0    0  501    0  0.00000000000E+00  0.00000000000E+00 -0.12618396138E+04  0.12618396138E+04  0.25500000920E-02 0.  1.
    10030    2    1    2    0    0  0.00000000000E+00  0.00000000000E+00 -0.97869230188E+03  0.15449869257E+04  0.11954689368E+04 0.  0.
        4    1    3    3  502    0  0.58296559239E+03 -0.17047331062E+02 -0.32012284444E+03  0.66529673217E+03  0.12699999809E+01 0. -1.
       -4    1    3    3    0  502 -0.58296559239E+03  0.17047331062E+02 -0.65856945744E+03  0.87969019352E+03  0.12699999809E+01 0.  1.
</event>
<event>
 5   0  0.3993723E-04  0.1201760E+04  0.7818609E-02  0.9111318E-01
        2   -1    0    0  501    0  0.00000000000E+00  0.00000000000E+00  0.80983576530E+03  0.80983576530E+03  0.25500000920E-02 0.  1.
       -2   -1    0    0    0  501  0.00000000000E+00  0.00000000000E+00 -0.44583926983E+03  0.44583926984E+03  0.25500000920E-02 0. -1.
    10030    2    1    2    0    0  0.00000000000E+00  0.00000000000E+00  0.36399649547E+03  0.12556750351E+04  0.12017596869E+04 0.  0.
        3    1    3    3  502    0  0.20933507961E+03  0.34409487597E+03 -0.28391502294E+03  0.49277805316E+03  0.10100000352E+00 0. -1.
       -3    1    3    3    0  502 -0.20933507961E+03 -0.34409487597E+03  0.64791151841E+03  0.76289698198E+03  0.10100000352E+00 0.  1.
</event>
<event>
 5   0  0.4024486E-04  0.1165708E+04  0.7818609E-02  0.9143414E-01
        2   -1    0    0  501    0  0.00000000000E+00  0.00000000000E+00  0.70453291965E+03  0.70453291965E+03  0.25500000920E-02 0.  1.
       -2   -1    0    0    0  501  0.00000000000E+00  0.00000000000E+00 -0.48218983578E+03  0.48218983579E+03  0.25500000920E-02 0. -1.
    10030    2    1    2    0    0  0.00000000000E+00  0.00000000000E+00  0.22234308386E+03  0.11867227554E+04  0.11657077041E+04 0.  0.
        1    1    3    3  502    0  0.13719177009E+03 -0.11530807155E+03 -0.45344491328E+03  0.48757545319E+03  0.50400001928E-02 0. -1.
       -1    1    3    3    0  502 -0.13719177009E+03  0.11530807155E+03  0.67578799714E+03  0.69914730226E+03  0.50400001928E-02 0.  1.
</event>
<event>
 5   0  0.4024486E-04  0.1196685E+04  0.7818609E-02  0.9115763E-01
        2   -1    0    0  501    0  0.00000000000E+00  0.00000000000E+00  0.62792764068E+03  0.62792764069E+03  0.25500000920E-02 0.  1.
       -2   -1    0    0    0  501  0.00000000000E+00  0.00000000000E+00 -0.57015131594E+03  0.57015131595E+03  0.25500000920E-02 0. -1.
    10030    2    1    2    0    0  0.00000000000E+00  0.00000000000E+00  0.57776324738E+02  0.11980789566E+04  0.11966850390E+04 0.  0.
        1    1    3    3  502    0 -0.38424833110E+03  0.12672542063E+03 -0.41242871622E+03  0.57775735234E+03  0.50400001928E-02 0. -1.
       -1    1    3    3    0  502  0.38424833110E+03 -0.12672542063E+03  0.47020504096E+03  0.62032160430E+03  0.50400001928E-02 0.  1.
</event>
<event>
 5   0  0.2315038E-04  0.1200766E+04  0.7818609E-02  0.9112186E-01
       -1   -1    0    0    0  501  0.00000000000E+00  0.00000000000E+00  0.32136449545E+03  0.32136449549E+03  0.50400001928E-02 0.  1.
        1   -1    0    0  501    0  0.00000000000E+00  0.00000000000E+00 -0.11216545127E+04  0.11216545127E+04  0.50400001928E-02 0. -1.
    10030    2    1    2    0    0  0.00000000000E+00  0.00000000000E+00 -0.80029001723E+03  0.14430190082E+04  0.12007663163E+04 0.  0.
        1    1    3    3  502    0 -0.37118198545E+03 -0.39811259479E+03 -0.95672540142E+02  0.55265082956E+03  0.50400001928E-02 0. -1.
       -1    1    3    3    0  502  0.37118198545E+03  0.39811259479E+03 -0.70461747709E+03  0.89036817862E+03  0.50400001928E-02 0.  1.
</event>
<event>
 5   0  0.2204090E-04  0.1200145E+04  0.7818609E-02  0.9112730E-01
       -1   -1    0    0    0  501  0.00000000000E+00  0.00000000000E+00  0.29993384532E+03  0.29993384536E+03  0.50400001928E-02 0. -1.
        1   -1    0    0  501    0  0.00000000000E+00  0.00000000000E+00 -0.12005539256E+04  0.12005539256E+04  0.50400001928E-02 0.  1.
    10030    2    1    2    0    0  0.00000000000E+00  0.00000000000E+00 -0.90062008030E+03  0.15004877710E+04  0.12001445837E+04 0.  0.
        2    1    3    3  502    0  0.50015209573E+03  0.28412893195E+03 -0.66397355608E+03  0.87848861804E+03  0.25500000920E-02 0. -1.
       -2    1    3    3    0  502 -0.50015209573E+03 -0.28412893195E+03 -0.23664652422E+03  0.62199915295E+03  0.25500000920E-02 0.  1.
</event>
<event>
 5   0  0.4024486E-04  0.1199072E+04  0.7818609E-02  0.9113670E-01
        2   -1    0    0  501    0  0.00000000000E+00  0.00000000000E+00  0.10530450006E+04  0.10530450006E+04  0.25500000920E-02 0.  1.
       -2   -1    0    0    0  501  0.00000000000E+00  0.00000000000E+00 -0.34133691431E+03  0.34133691432E+03  0.25500000920E-02 0. -1.
    10030    2    1    2    0    0  0.00000000000E+00  0.00000000000E+00  0.71170808633E+03  0.13943819150E+04  0.11990715261E+04 0.  0.
        1    1    3    3  502    0  0.30497302513E+03  0.23531702931E+03 -0.17839052207E+03  0.42450657090E+03  0.50400001928E-02 0. -1.
       -1    1    3    3    0  502 -0.30497302513E+03 -0.23531702931E+03  0.89009860840E+03  0.96987534408E+03  0.50400001928E-02 0.  1.
</event>
<event>
 5   0  0.2340731E-04  0.1203361E+04  0.7818609E-02  0.9109920E-01
       -1   -1    0    0    0  501  0.00000000000E+00  0.00000000000E+00  0.36948581075E+03  0.36948581079E+03  0.50400001928E-02 0.  1.
        1   -1    0    0  501    0  0.00000000000E+00  0.00000000000E+00 -0.97979288701E+03  0.97979288703E+03  0.50400001928E-02 0. -1.
    10030    2    1    2    0    0  0.00000000000E+00  0.00000000000E+00 -0.61030707626E+03  0.13492786978E+04  0.12033612413E+04 0.  0.
        3    1    3    3  502    0  0.12545068318E+03 -0.44540094011E+03  0.12605690786E+03  0.47959381312E+03  0.10100000352E+00 0.  1.
       -3    1    3    3    0  502 -0.12545068318E+03  0.44540094011E+03 -0.73636398412E+03  0.86968488470E+03  0.10100000352E+00 0. -1.
</event>
<event>
 5   0  0.4122956E-04  0.1201324E+04  0.7818609E-02  0.9111699E-01
        2   -1    0    0  501    0  0.00000000000E+00  0.00000000000E+00  0.11031271283E+04  0.11031271283E+04  0.25500000920E-02 0. -1.
       -2   -1    0    0    0  501  0.00000000000E+00  0.00000000000E+00 -0.32706531934E+03  0.32706531935E+03  0.25500000920E-02 0.  1.
    10030    2    1    2    0    0  0.00000000000E+00  0.00000000000E+00  0.77606180892E+03  0.14301924476E+04  0.12013236475E+04 0.  0.
        5    1    3    3  502    0 -0.34020495391E+03  0.31638493338E+03 -0.65199611987E+02  0.46916086382E+03  0.46999998093E+01 0.  1.
       -5    1    3    3    0  502  0.34020495391E+03 -0.31638493338E+03  0.84126142091E+03  0.96103158379E+03  0.46999998093E+01 0. -1.
</event>
<event>
 5   0  0.2340731E-04  0.1200510E+04  0.7818609E-02  0.9112410E-01
        1   -1    0    0  501    0  0.00000000000E+00  0.00000000000E+00  0.38970575687E+03  0.38970575690E+03  0.50400001928E-02 0. -1.
       -1   -1    0    0    0  501  0.00000000000E+00  0.00000000000E+00 -0.92455934048E+03  0.92455934049E+03  0.50400001928E-02 0.  1.
    10030    2    1    2    0    0  0.00000000000E+00  0.00000000000E+00 -0.53485358361E+03  0.13142650974E+04  0.12005100542E+04 0.  0.
        3    1    3    3  502    0 -0.59553500649E+03 -0.74759888834E+02 -0.25930030905E+03  0.65382539367E+03  0.10100000352E+00 0.  1.
       -3    1    3    3    0  502  0.59553500649E+03  0.74759888834E+02 -0.27555327456E+03  0.66043970372E+03  0.10100000352E+00 0. -1.
</event>
<event>
 5   0  0.3883890E-04  0.1202580E+04  0.7818609E-02  0.9110602E-01
       -2   -1    0    0    0  501  0.00000000000E+00  0.00000000000E+00  0.48342170483E+03  0.48342170484E+03  0.25500000920E-02 0.  1.
        2   -1    0    0  501    0  0.00000000000E+00  0.00000000000E+00 -0.74789667759E+03  0.74789667759E+03  0.25500000920E-02 0. -1.
    10030    2    1    2    0    0  0.00000000000E+00  0.00000000000E+00 -0.26447497275E+03  0.12313183824E+04  0.12025797053E+04 0.  0.
        2    1    3    3  502    0 -0.44646314641E+03 -0.29645900892E+03  0.14691724395E+03  0.55569952461E+03  0.25500000920E-02 0.  1.
       -2    1    3    3    0  502  0.44646314641E+03  0.29645900892E+03 -0.41139221671E+03  0.67561885782E+03  0.25500000920E-02 0. -1.
</event>
<event>
 5   0  0.2304842E-04  0.1196654E+04  0.7818609E-02  0.9115791E-01
       -1   -1    0    0    0  501  0.00000000000E+00  0.00000000000E+00  0.84191420875E+03  0.84191420876E+03  0.50400001928E-02 0. -1.
        1   -1    0    0  501    0  0.00000000000E+00  0.00000000000E+00 -0.42521541841E+03  0.42521541844E+03  0.50400001928E-02 0.  1.
    10030    2    1    2    0    0  0.00000000000E+00  0.00000000000E+00  0.41669879034E+03  0.12671296272E+04  0.11966535047E+04 0.  0.
        4    1    3    3  502    0  0.15666093085E+03 -0.51857823976E+03  0.47733201078E+03  0.72202042867E+03  0.12699999809E+01 0. -1.
       -4    1    3    3    0  502 -0.15666093085E+03  0.51857823976E+03 -0.60633220443E+02  0.54510919853E+03  0.12699999809E+01 0.  1.
</event>
<event>
 5   0  0.2244308E-04  0.1204725E+04  0.7818609E-02  0.9108731E-01
        1   -1    0    0  501    0  0.00000000000E+00  0.00000000000E+00  0.76200642378E+03  0.76200642380E+03  0.50400001928E-02 0.  1.
       -1   -1    0    0    0  501  0.00000000000E+00  0.00000000000E+00 -0.47616448908E+03  0.47616448911E+03  0.50400001928E-02 0. -1.
    10030    2    1    2    0    0  0.00000000000E+00  0.00000000000E+00  0.28584193470E+03  0.12381709129E+04  0.12047246980E+04 0.  0.
        5    1    3    3  502    0  0.51866989090E+03 -0.20296844970E+03 -0.92801388873E+02  0.56466701256E+03  0.46999998093E+01 0. -1.
       -5    1    3    3    0  502 -0.51866989090E+03  0.20296844970E+03  0.37864332357E+03  0.67350390035E+03  0.46999998093E+01 0.  1.
</event>
<event>
 5   0  0.2315038E-04  0.1203067E+04  0.7818609E-02  0.9110176E-01
       -1   -1    0    0    0  501  0.00000000000E+00  0.00000000000E+00  0.10559896228E+04  0.10559896228E+04  0.50400001928E-02 0. -1.
        1   -1    0    0  501    0  0.00000000000E+00  0.00000000000E+00 -0.34265726990E+03  0.34265726994E+03  0.50400001928E-02 0.  1.
    10030    2    1    2    0    0  0.00000000000E+00  0.00000000000E+00  0.71333235293E+03  0.13986468928E+04  0.12030669495E+04 0.  0.
        1    1    3    3  502    0  0.34487869426E+03 -0.41267427784E+03  0.66991542107E+03  0.85908558640E+03  0.50400001928E-02 0. -1.
       -1    1    3    3    0  502 -0.34487869426E+03  0.41267427784E+03  0.43416931863E+02  0.53956130638E+03  0.50400001928E-02 0.  1.
</event>
<event>
 5   0  0.2204090E-04  0.1198655E+04  0.7818609E-02  0.9114035E-01
        1   -1    0    0  501    0  0.00000000000E+00  0.00000000000E+00  0.17238405751E+04  0.17238405751E+04  0.50400001928E-02 0. -1.
       -1   -1    0    0    0  501  0.00000000000E+00  0.00000000000E+00 -0.20836818040E+03  0.20836818046E+03  0.50400001928E-02 0.  1.
    10030    2    1    2    0    0  0.00000000000E+00  0.00000000000E+00  0.15154723947E+04  0.19322087556E+04  0.11986551197E+04 0.  0.
        2    1    3    3  502    0  0.42023494859E+03  0.30297188192E+03  0.27198637378E+03  0.58512046689E+03  0.25500000920E-02 0.  1.
       -2    1    3    3    0  502 -0.42023494859E+03 -0.30297188192E+03  0.12434860210E+04  0.13470882887E+04  0.25500000920E-02 0. -1.
</event>
<event>
 5   0  0.3993723E-04  0.1195707E+04  0.7818609E-02  0.9116623E-01
       -2   -1    0    0    0  501  0.00000000000E+00  0.00000000000E+00  0.11691483188E+04  0.11691483188E+04  0.25500000920E-02 0. -1.
        2   -1    0    0  501    0  0.00000000000E+00  0.00000000000E+00 -0.30571708459E+03  0.30571708460E+03  0.25500000920E-02 0.  1.
    10030    2    1    2    0    0  0.00000000000E+00  0.00000000000E+00  0.86343123418E+03  0.14748654034E+04  0.11957066789E+04 0.  0.
        3    1    3    3  502    0 -0.41355941803E+03 -0.82725353614E+02 -0.90951222851E+02  0.43144757678E+03  0.10100000352E+00 0.  1.
       -3    1    3    3    0  502  0.41355941803E+03  0.82725353614E+02  0.95438245703E+03  0.10434178266E+04  0.10100000352E+00 0. -1.
</event>
<event>
 5   0  0.4024486E-04  0.1200690E+04  0.7818609E-02  0.9112253E-01
       -2   -1    0    0    0  501  0.00000000000E+00  0.00000000000E+00  0.37112737419E+03  0.37112737420E+03  0.25500000920E-02 0. -1.
        2   -1    0    0  501    0  0.00000000000E+00  0.00000000000E+00 -0.97113313021E+03  0.97113313021E+03  0.25500000920E-02 0.  1.
    10030    2    1    2    0    0  0.00000000000E+00  0.00000000000E+00 -0.60000575602E+03  0.13422605044E+04  0.12006899493E+04 0.  0.
        1    1    3    3  502    0  0.36392483491E+03  0.37247807508E+02  0.23213221590E+03  0.43325979541E+03  0.50400001928E-02 0. -1.
       -1    1    3    3    0  502 -0.36392483491E+03 -0.37247807508E+02 -0.83213797192E+03  0.90900070900E+03  0.50400001928E-02 0.  1.
</event>
<event>
 5   0  0.2204090E-04  0.1203135E+04  0.7818609E-02  0.9110117E-01
       -1   -1    0    0    0  501  0.00000000000E+00  0.00000000000E+00  0.40938780887E+03  0.40938780890E+03  0.50400001928E-02 0.  1.
        1   -1    0    0  501    0  0.00000000000E+00  0.00000000000E+00 -0.88396184798E+03  0.88396184799E+03  0.50400001928E-02 0. -1.
    10030    2    1    2    0    0  0.00000000000E+00  0.00000000000E+00 -0.47457403911E+03  0.12933496569E+04  0.12031345795E+04 0.  0.
        2    1    3    3  502    0 -0.56255996116E+03 -0.14590175401E+03 -0.70327974785E+02  0.58541186849E+03  0.25500000920E-02 0.  1.
       -2    1    3    3    0  502  0.56255996116E+03  0.14590175401E+03 -0.40424606433E+03  0.70793778841E+03  0.25500000920E-02 0. -1.
</event>
<event>
 5   0  0.2204090E-04  0.1205153E+04  0.7818609E-02  0.9108358E-01
        1   -1    0    0  501    0  0.00000000000E+00  0.00000000000E+00  0.12190384575E+04  0.12190384576E+04  0.50400001928E-02 0. -1.
       -1   -1    0    0    0  501  0.00000000000E+00  0.00000000000E+00 -0.29785646231E+03  0.29785646236E+03  0.50400001928E-02 0.  1.
    10030    2    1    2    0    0  0.00000000000E+00  0.00000000000E+00  0.92118199523E+03  0.15168949199E+04  0.12051530731E+04 0.  0.
        2    1    3    3  502    0  0.11898613406E+03  0.98705975551E+02  0.11936515839E+04  0.12036214827E+04  0.25500000920E-02 0. -1.
       -2    1    3    3    0  502 -0.11898613406E+03 -0.98705975551E+02 -0.27246958870E+03  0.31327343724E+03  0.25500000920E-02 0.  1.
</event>
<event>
 5   0  0.2340731E-04  0.1198689E+04  0.7818609E-02  0.9114005E-01
       -1   -1    0    0    0  501  0.00000000000E+00  0.00000000000E+00  0.20855516709E+03  0.20855516715E+03  0.50400001928E-02 0.  1.
        1   -1    0    0  501    0  0.00000000000E+00  0.00000000000E+00 -0.17223928824E+04  0.17223928824E+04  0.50400001928E-02 0. -1.
    10030    2    1    2    0    0  0.00000000000E+00  0.00000000000E+00 -0.15138377153E+04  0.19309480496E+04  0.11986891765E+04 0.  0.
        3    1    3    3  502    0 -0.25815053466E+02 -0.51462794269E+03 -0.12500321992E+04  0.13520683583E+04  0.10100000352E+00 0.  1.
       -3    1    3    3    0  502  0.25815053466E+02  0.51462794269E+03 -0.26380551611E+03  0.57887969123E+03  0.10100000352E+00 0. -1.
</event>
<event>
 5   0  0.2304842E-04  0.1198299E+04  0.7818609E-02  0.9114347E-01
        1   -1    0    0  501    0  0.00000000000E+00  0.00000000000E+00  0.43471435111E+03  0.43471435114E+03  0.50400001928E-02 0.  1.
       -1   -1    0    0    0  501  0.00000000000E+00  0.00000000000E+00 -0.82578358328E+03  0.82578358330E+03  0.50400001928E-02 0. -1.
    10030    2    1    2    0    0  0.00000000000E+00  0.00000000000E+00 -0.39106923217E+03  0.12604979344E+04  0.11982987517E+04 0.  0.
        4    1    3    3  502    0 -0.11354389959E+03  0.16720352161E+03 -0.78884062691E+03  0.81432203847E+03  0.12699999809E+01 0. -1.
       -4    1    3    3    0  502  0.11354389959E+03 -0.16720352161E+03  0.39777139474E+03  0.44617589597E+03  0.12699999809E+01 0.  1.
</event>
<event>
 5   0  0.3883890E-04  0.1200603E+04  0.7818609E-02  0.9112329E-01
        2   -1    0    0  501    0  0.00000000000E+00  0.00000000000E+00  0.11698892719E+04  0.11698892719E+04  0.25500000920E-02 0.  1.
       -2   -1    0    0    0  501  0.00000000000E+00  0.00000000000E+00 -0.30803097252E+03  0.30803097253E+03  0.25500000920E-02 0. -1.
    10030    2    1    2    0    0  0.00000000000E+00  0.00000000000E+00  0.86185829936E+03  0.14779202444E+04  0.12006033986E+04 0.  0.
        2    1    3    3  502    0  0.22312875503E+03 -0.55724125354E+03  0.42156444944E+03  0.73349903954E+03  0.25500000920E-02 0.  1.
       -2    1    3    3    0  502 -0.22312875503E+03  0.55724125354E+03  0.44029384991E+03  0.74442120486E+03  0.25500000920E-02 0. -1.
</event>
<event>
 5   0  0.4024486E-04  0.1200227E+04  0.7818609E-02  0.9112658E-01
        2   -1    0    0  501    0  0.00000000000E+00  0.00000000000E+00  0.93893139536E+03  0.93893139536E+03  0.25500000920E-02 0. -1.
       -2   -1    0    0    0  501  0.00000000000E+00  0.00000000000E+00 -0.38355948560E+03  0.38355948561E+03  0.25500000920E-02 0.  1.
    10030    2    1    2    0    0  0.00000000000E+00  0.00000000000E+00  0.55537190976E+03  0.13224908810E+04  0.12002267170E+04 0.  0.
        1    1    3    3  502    0 -0.43338820240E+03  0.43921285333E+02 -0.17713532943E+03  0.47024604011E+03  0.50400001928E-02 0.  1.
       -1    1    3    3    0  502  0.43338820240E+03 -0.43921285333E+02  0.73250723918E+03  0.85224484085E+03  0.50400001928E-02 0. -1.
</event>
<event>
 5   0  0.1541375E-04  0.1198681E+04  0.7818609E-02  0.9114012E-01
       -3   -1    0    0    0  501  0.00000000000E+00  0.00000000000E+00  0.13350252060E+04  0.13350252098E+04  0.10100000352E+00 0.  1.
        3   -1    0    0  501    0  0.00000000000E+00  0.00000000000E+00 -0.26906513885E+03  0.26906515781E+03  0.10100000352E+00 0. -1.
    10030    2    1    2    0    0  0.00000000000E+00  0.00000000000E+00  0.10659600671E+04  0.16040903676E+04  0.11986805424E+04 0.  0.
        1    1    3    3  502    0  0.37455498799E+03 -0.35201522047E+02  0.11573367940E+04  0.12169466057E+04  0.50400001928E-02 0.  1.
       -1    1    3    3    0  502 -0.37455498799E+03  0.35201522047E+02 -0.91376726885E+02  0.38714376196E+03  0.50400001928E-02 0. -1.
</event>
<event>
 5   0  0.2315038E-04  0.1199659E+04  0.7818609E-02  0.9113155E-01
       -1   -1    0    0    0  501  0.00000000000E+00  0.00000000000E+00  0.37051155750E+03  0.37051155753E+03  0.50400001928E-02 0. -1.
        1   -1    0    0  501    0  0.00000000000E+00  0.00000000000E+00 -0.97107789868E+03  0.97107789870E+03  0.50400001928E-02 0.  1.
    10030    2    1    2    0    0  0.00000000000E+00  0.00000000000E+00 -0.60056634119E+03  0.13415894562E+04  0.11996592595E+04 0.  0.
        1    1    3    3  502    0 -0.33303796930E+03 -0.39207081695E+03  0.44696086084E+02  0.51636378129E+03  0.50400001928E-02 0. -1.
       -1    1    3    3    0  502  0.33303796930E+03  0.39207081695E+03 -0.64526242727E+03  0.82522567493E+03  0.50400001928E-02 0.  1.
</event>
<event>
 5   0  0.3883890E-04  0.1201524E+04  0.7818609E-02  0.9111524E-01
        2   -1    0    0  501    0  0.00000000000E+00  0.00000000000E+00  0.15047919680E+04  0.15047919681E+04  0.25500000920E-02 0. -1.
       -2   -1    0    0    0  501  0.00000000000E+00  0.00000000000E+00 -0.23984370229E+03  0.23984370231E+03  0.25500000920E-02 0.  1.
    10030    2    1    2    0    0  0.00000000000E+00  0.00000000000E+00  0.12649482658E+04  0.17446356704E+04  0.12015238272E+04 0.  0.
        2    1    3    3  502    0  0.53138408490E+03 -0.27918226175E+03  0.59681543125E+03  0.84646349003E+03  0.25500000920E-02 0.  1.
       -2    1    3    3    0  502 -0.53138408490E+03  0.27918226175E+03  0.66813283451E+03  0.89817218033E+03  0.25500000920E-02 0. -1.
</event>
<event>
 5   0  0.2315038E-04  0.1204738E+04  0.7818609E-02  0.9108719E-01
        1   -1    0    0  501    0  0.00000000000E+00  0.00000000000E+00  0.15201338781E+04  0.15201338781E+04  0.50400001928E-02 0. -1.
       -1   -1    0    0    0  501  0.00000000000E+00  0.00000000000E+00 -0.23869503156E+03  0.23869503161E+03  0.50400001928E-02 0.  1.
    10030    2    1    2    0    0  0.00000000000E+00  0.00000000000E+00  0.12814388466E+04  0.17588289098E+04  0.12047379866E+04 0.  0.
        1    1    3    3  502    0  0.22352690028E+03  0.39965709173E+03  0.12120682154E+04  0.12956849250E+04  0.50400001928E-02 0. -1.
       -1    1    3    3    0  502 -0.22352690028E+03 -0.39965709173E+03  0.69370631208E+02  0.46314398476E+03  0.50400001928E-02 0.  1.
</event>
<event>
 5   0  0.4024486E-04  0.1199937E+04  0.7818609E-02  0.9112912E-01
       -2   -1    0    0    0  501  0.00000000000E+00  0.00000000000E+00  0.25167227372E+03  0.25167227374E+03  0.25500000920E-02 0.  1.
        2   -1    0    0  501    0  0.00000000000E+00  0.00000000000E+00 -0.14302806424E+04  0.14302806424E+04  0.25500000920E-02 0. -1.
    10030    2    1    2    0    0  0.00000000000E+00  0.00000000000E+00 -0.11786083687E+04  0.16819529162E+04  0.11999366339E+04 0.  0.
        1    1    3    3  502    0  0.41302114531E+03 -0.42993323110E+03 -0.49493176106E+03  0.77484611234E+03  0.50400001928E-02 0.  1.
       -1    1    3    3    0  502 -0.41302114531E+03  0.42993323110E+03 -0.68367660765E+03  0.90710680383E+03  0.50400001928E-02 0. -1.
</event>
<event>
 5   0  0.2340731E-04  0.1195462E+04  0.7818609E-02  0.9116838E-01
       -1   -1    0    0    0  501  0.00000000000E+00  0.00000000000E+00  0.61066751793E+03  0.61066751795E+03  0.50400001928E-02 0. -1.
        1   -1    0    0  501    0  0.00000000000E+00  0.00000000000E+00 -0.58506829421E+03  0.58506829424E+03  0.50400001928E-02 0.  1.
    10030    2    1    2    0    0  0.00000000000E+00  0.00000000000E+00  0.25599223720E+02  0.11957358122E+04  0.11954617569E+04 0.  0.
        3    1    3    3  502    0 -0.55331410078E+03 -0.14076322821E+03  0.18979048742E+03  0.60165706167E+03  0.10100000352E+00 0. -1.
       -3    1    3    3    0  502  0.55331410078E+03  0.14076322821E+03 -0.16419126370E+03  0.59407875052E+03  0.10100000352E+00 0.  1.
</event>
<event>
 5   0  0.4122956E-04  0.1200533E+04  0.7818609E-02  0.9112390E-01
        2   -1    0    0  501    0  0.00000000000E+00  0.00000000000E+00  0.19520511553E+04  0.19520511553E+04  0.25500000920E-02 0.  1.
       -2   -1    0    0    0  501  0.00000000000E+00  0.00000000000E+00 -0.18458531514E+03  0.18458531516E+03  0.25500000920E-02 0. -1.
    10030    2    1    2    0    0  0.00000000000E+00  0.00000000000E+00  0.17674658402E+04  0.21366364704E+04  0.12005331777E+04 0.  0.
        5    1    3    3  502    0  0.46819259147E+03 -0.37536993644E+03  0.90832914036E+03  0.10886646909E+04  0.46999998093E+01 0. -1.
       -5    1    3    3    0  502 -0.46819259147E+03  0.37536993644E+03  0.85913669979E+03  0.10479717796E+04  0.46999998093E+01 0.  1.
</event>
<event>
 5   0  0.4024486E-04  0.1198369E+04  0.7818609E-02  0.9114286E-01
        2   -1    0    0  501    0  0.00000000000E+00  0.00000000000E+00  0.69193804601E+03  0.69193804601E+03  0.25500000920E-02 0. -1.
       -2   -1    0    0    0  501  0.00000000000E+00  0.00000000000E+00 -0.51886429595E+03  0.51886429595E+03  0.25500000920E-02 0.  1.
    10030    2    1    2    0    0  0.00000000000E+00  0.00000000000E+00  0.17307375006E+03  0.12108023420E+04  0.11983688031E+04 0.  0.
        1    1    3    3  502    0  0.42808010905E+02 -0.42498652484E+03  0.51110603173E+03  0.66608966948E+03  0.50400001928E-02 0. -1.
       -1    1    3    3    0  502 -0.42808010905E+02  0.42498652484E+03 -0.33803228166E+03  0.54471267249E+03  0.50400001928E-02 0.  1.
</event>
<event>
 5   0  0.2204090E-04  0.1201410E+04  0.7818609E-02  0.9111623E-01
       -1   -1    0    0    0  501  0.00000000000E+00  0.00000000000E+00  0.47768110606E+03  0.47768110608E+03  0.50400001928E-02 0. -1.
        1   -1    0    0  501    0  0.00000000000E+00  0.00000000000E+00 -0.75541272605E+03  0.75541272607E+03  0.50400001928E-02 0.  1.
    10030    2    1    2    0    0  0.00000000000E+00  0.00000000000E+00 -0.27773162000E+03  0.12330938322E+04  0.12014098161E+04 0.  0.
        2    1    3    3  502    0 -0.65649430920E+02 -0.33919611025E+03 -0.64323414705E+03  0.73014657222E+03  0.25500000920E-02 0. -1.
       -2    1    3    3    0  502  0.65649430920E+02  0.33919611025E+03  0.36550252705E+03  0.50294725993E+03  0.25500000920E-02 0.  1.
</event>
<event>
 5   0  0.3883890E-04  0.1200826E+04  0.7818609E-02  0.9112134E-01
        2   -1    0    0  501    0  0.00000000000E+00  0.00000000000E+00  0.21779337216E+03  0.21779337217E+03  0.25500000920E-02 0. -1.
       -2   -1    0    0    0  501  0.00000000000E+00  0.00000000000E+00 -0.16552190054E+04  0.16552190055E+04  0.25500000920E-02 0.  1.
    10030    2    1    2    0    0  0.00000000000E+00  0.00000000000E+00 -0.14374256333E+04  0.18730123776E+04  0.12008259306E+04 0.  0.
        2    1    3    3  502    0  0.53500568024E+03  0.26785542308E+03 -0.79698349289E+03  0.99657427897E+03  0.25500000920E-02 0.  1.
       -2    1    3    3    0  502 -0.53500568024E+03 -0.26785542308E+03 -0.64044214040E+03  0.87643809865E+03  0.25500000920E-02 0. -1.
</event>
<event>
 5   0  0.4024486E-04  0.1195497E+04  0.7818609E-02  0.9116807E-01
        2   -1    0    0  501    0  0.00000000000E+00  0.00000000000E+00  0.14335674565E+04  0.14335674565E+04  0.25500000920E-02 0.  1.
       -2   -1    0    0    0  501  0.00000000000E+00  0.00000000000E+00 -0.24924076360E+03  0.24924076361E+03  0.25500000920E-02 0. -1.
    10030    2    1    2    0    0  0.00000000000E+00  0.00000000000E+00  0.11843266929E+04  0.16828082201E+04  0.11954972983E+04 0.  0.
        1    1    3    3  502    0 -0.57768804994E+03 -0.38863476792E+02  0.38304930086E+03  0.69423383653E+03  0.50400001928E-02 0. -1.
       -1    1    3    3    0  502  0.57768804994E+03  0.38863476792E+02  0.80127739206E+03  0.98857438361E+03  0.50400001928E-02 0.  1.
</event>
<event>
 5   0  0.2204090E-04  0.1200653E+04  0.7818609E-02  0.9112285E-01
       -1   -1    0    0    0  501  0.00000000000E+00  0.00000000000E+00  0.55061057055E+03  0.55061057057E+03  0.50400001928E-02 0. -1.
        1   -1    0    0  501    0  0.00000000000E+00  0.00000000000E+00 -0.65453172327E+03  0.65453172329E+03  0.50400001928E-02 0.  1.
    10030    2    1    2    0    0  0.00000000000E+00  0.00000000000E+00 -0.10392115272E+03  0.12051422939E+04  0.12006532982E+04 0.  0.
        2    1    3    3  502    0 -0.53488903277E+03  0.43924303776E+02 -0.32195784871E+03  0.62585339992E+03  0.25500000920E-02 0.  1.
       -2    1    3    3    0  502  0.53488903277E+03 -0.43924303776E+02  0.21803669599E+03  0.57928889394E+03  0.25500000920E-02 0. -1.
</event>
<event>
 5   0  0.2304842E-04  0.1201040E+04  0.7818609E-02  0.9111947E-01
        1   -1    0    0  501    0  0.00000000000E+00  0.00000000000E+00  0.13955780088E+04  0.13955780088E+04  0.50400001928E-02 0. -1.
       -1   -1    0    0    0  501  0.00000000000E+00  0.00000000000E+00 -0.25840487373E+03  0.25840487378E+03  0.50400001928E-02 0.  1.
    10030    2    1    2    0    0  0.00000000000E+00  0.00000000000E+00  0.11371731350E+04  0.16539828826E+04  0.12010398148E+04 0.  0.
        4    1    3    3  502    0  0.29782757299E+03 -0.16826590399E+03  0.12482896853E+04  0.12943119520E+04  0.12699999809E+01 0. -1.
       -4    1    3    3    0  502 -0.29782757299E+03  0.16826590399E+03 -0.11111655025E+03  0.35967093060E+03  0.12699999809E+01 0.  1.
</event>
<event>
 5   0  0.4122956E-04  0.1197683E+04  0.7818609E-02  0.9114887E-01
        2   -1    0    0  501    0  0.00000000000E+00  0.00000000000E+00  0.16127674448E+04  0.16127674448E+04  0.25500000920E-02 0.  1.
       -2   -1    0    0    0  501  0.00000000000E+00  0.00000000000E+00 -0.22235758756E+03  0.22235758757E+03  0.25500000920E-02 0. -1.
    10030    2    1    2    0    0  0.00000000000E+00  0.00000000000E+00  0.13904098572E+04  0.18351250323E+04  0.11976828935E+04 0.  0.
        5    1    3    3  502    0  0.50472044970E+03  0.27569388721E+03  0.95085839939E+03  0.11112621822E+04  0.46999998093E+01 0. -1.
       -5    1    3    3    0  502 -0.50472044970E+03 -0.27569388721E+03  0.43955145780E+03  0.72386285017E+03  0.46999998093E+01 0.  1.
</event>
<event>
 5   0  0.2340731E-04  0.1199244E+04  0.7818609E-02  0.9113518E-01
       -1   -1    0    0    0  501  0.00000000000E+00  0.00000000000E+00  0.38668586033E+03  0.38668586036E+03  0.50400001928E-02 0.  1.
        1   -1    0    0  501    0  0.00000000000E+00  0.00000000000E+00 -0.92981627195E+03  0.92981627197E+03  0.50400001928E-02 0. -1.
    10030    2    1    2    0    0  0.00000000000E+00  0.00000000000E+00 -0.54313041162E+03  0.13165021323E+04  0.11992444373E+04 0.  0.
        3    1    3    3  502    0  0.18572237425E+03 -0.47349573305E+03  0.77064397742E+02  0.51442194851E+03  0.10100000352E+00 0.  1.
       -3    1    3    3    0  502 -0.18572237425E+03  0.47349573305E+03 -0.62019480937E+03  0.80208018382E+03  0.10100000352E+00 0. -1.
</event>
<event>
 5   0  0.2315038E-04  0.1201068E+04  0.7818609E-02  0.9111922E-01
        1   -1    0    0  501    0  0.00000000000E+00  0.00000000000E+00  0.55045533949E+03  0.55045533951E+03  0.50400001928E-02 0. -1.
       -1   -1    0    0    0  501  0.00000000000E+00  0.00000000000E+00 -0.65516875650E+03  0.65516875652E+03  0.50400001928E-02 0.  1.
    10030    2    1    2    0    0  0.00000000000E+00  0.00000000000E+00 -0.10471341701E+03  0.12056240960E+04  0.12010680918E+04 0.  0.
        1    1    3    3  502    0  0.21200800840E+03  0.56178338300E+03 -0.62046056461E+02  0.60365360778E+03  0.50400001928E-02 0.  1.
       -1    1    3    3    0  502 -0.21200800840E+03 -0.56178338300E+03 -0.42667360545E+02  0.60197048825E+03  0.50400001928E-02 0. -1.
</event>
<event>
 5   0  0.3993723E-04  0.1198423E+04  0.7818609E-02  0.9114238E-01
       -2   -1    0    0    0  501  0.00000000000E+00  0.00000000000E+00  0.31382148836E+03  0.31382148837E+03  0.25500000920E-02 0.  1.
        2   -1    0    0  501    0  0.00000000000E+00  0.00000000000E+00 -0.11441355820E+04  0.11441355820E+04  0.25500000920E-02 0. -1.
    10030    2    1    2    0    0  0.00000000000E+00  0.00000000000E+00 -0.83031409369E+03  0.14579570704E+04  0.11984228490E+04 0.  0.
        3    1    3    3  502    0  0.12072934539E+03 -0.35281861997E+03  0.15545875295E+03  0.40400988540E+03  0.10100000352E+00 0.  1.
       -3    1    3    3    0  502 -0.12072934539E+03  0.35281861997E+03 -0.98577284663E+03  0.10539471850E+04  0.10100000352E+00 0. -1.
</event>
<event>
 5   0  0.4122956E-04  0.1201342E+04  0.7818609E-02  0.9111683E-01
       -2   -1    0    0    0  501  0.00000000000E+00  0.00000000000E+00  0.35421783840E+03  0.35421783841E+03  0.25500000920E-02 0. -1.
        2   -1    0    0  501    0  0.00000000000E+00  0.00000000000E+00 -0.10185978131E+04  0.10185978131E+04  0.25500000920E-02 0.  1.
    10030    2    1    2    0    0  0.00000000000E+00  0.00000000000E+00 -0.66437997471E+03  0.13728156515E+04  0.12013417758E+04 0.  0.
        5    1    3    3  502    0  0.14196440011E+03  0.39199561857E+03  0.16192771097E+03  0.44727746361E+03  0.46999998093E+01 0. -1.
       -5    1    3    3    0  502 -0.14196440011E+03 -0.39199561857E+03 -0.82630768568E+03  0.92553818792E+03  0.46999998093E+01 0.  1.
</event>
<event>
 5   0  0.2244308E-04  0.1199081E+04  0.7818609E-02  0.9113661E-01
       -1   -1    0    0    0  501  0.00000000000E+00  0.00000000000E+00  0.10079991829E+04  0.10079991829E+04  0.50400001928E-02 0.  1.
        1   -1    0    0  501    0  0.00000000000E+00  0.00000000000E+00 -0.35659660700E+03  0.35659660704E+03  0.50400001928E-02 0. -1.
    10030    2    1    2    0    0  0.00000000000E+00  0.00000000000E+00  0.65140257591E+03  0.13645957900E+04  0.11990814627E+04 0.  0.
        5    1    3    3  502    0 -0.72174556401E+02  0.57762893765E+03  0.48889176002E+03  0.76019839464E+03  0.46999998093E+01 0.  1.
       -5    1    3    3    0  502  0.72174556401E+02 -0.57762893765E+03  0.16251081590E+03  0.60439739533E+03  0.46999998093E+01 0. -1.
</event>
<event>
 5   0  0.2204090E-04  0.1200512E+04  0.7818609E-02  0.9112408E-01
       -1   -1    0    0    0  501  0.00000000000E+00  0.00000000000E+00  0.60390285853E+03  0.60390285855E+03  0.50400001928E-02 0. -1.
        1   -1    0    0  501    0  0.00000000000E+00  0.00000000000E+00 -0.59663125077E+03  0.59663125079E+03  0.50400001928E-02 0.  1.
    10030    2    1    2    0    0  0.00000000000E+00  0.00000000000E+00  0.72716077626E+01  0.12005341093E+04  0.12005120872E+04 0.  0.
        2    1    3    3  502    0  0.16161502425E+03  0.56937307400E+03 -0.96377052012E+02  0.59966127908E+03  0.25500000920E-02 0. -1.
       -2    1    3    3    0  502 -0.16161502425E+03 -0.56937307400E+03  0.10364865977E+03  0.60087283026E+03  0.25500000920E-02 0.  1.
</event>
<event>
 5   0  0.3832662E-04  0.1199784E+04  0.7818609E-02  0.9113046E-01
       -2   -1    0    0    0  501  0.00000000000E+00  0.00000000000E+00  0.33504230797E+03  0.33504230798E+03  0.25500000920E-02 0.  1.
        2   -1    0    0  501    0  0.00000000000E+00  0.00000000000E+00 -0.10741036973E+04  0.10741036973E+04  0.25500000920E-02 0. -1.
    10030    2    1    2    0    0  0.00000000000E+00  0.00000000000E+00 -0.73906138931E+03  0.14091460053E+04  0.11997836167E+04 0.  0.
        4    1    3    3  502    0  0.18658946442E+02 -0.34806911858E+03  0.20389522170E+03  0.40382563307E+03  0.12699999809E+01 0.  1.
       -4    1    3    3    0  502 -0.18658946442E+02  0.34806911858E+03 -0.94295661101E+03  0.10053203722E+04  0.12699999809E+01 0. -1.
</event>
<event>
 5   0  0.4122956E-04  0.1199480E+04  0.7818609E-02  0.9113312E-01
        2   -1    0    0  501    0  0.00000000000E+00  0.00000000000E+00  0.15176730605E+04  0.15176730605E+04  0.25500000920E-02 0. -1.
       -2   -1    0    0    0  501  0.00000000000E+00  0.00000000000E+00 -0.23699958128E+03  0.23699958129E+03  0.25500000920E-02 0.  1.
    10030    2    1    2    0    0  0.00000000000E+00  0.00000000000E+00  0.12806734793E+04  0.17546726418E+04  0.11994796870E+04 0.  0.
        5    1    3    3  502    0  0.27245113457E+03 -0.83547364900E+01  0.14217928667E+04  0.14476934994E+04  0.46999998093E+01 0. -1.
       -5    1    3    3    0  502 -0.27245113457E+03  0.83547364900E+01 -0.14111938748E+03  0.30697914241E+03  0.46999998093E+01 0.  1.
</event>
<event>
 5   0  0.2304842E-04  0.1200550E+04  0.7818609E-02  0.9112376E-01
       -1   -1    0    0    0  501  0.00000000000E+00  0.00000000000E+00  0.56142051432E+03  0.56142051435E+03  0.50400001928E-02 0. -1.
        1   -1    0    0  501    0  0.00000000000E+00  0.00000000000E+00 -0.64181814912E+03  0.64181814914E+03  0.50400001928E-02 0.  1.
    10030    2    1    2    0    0  0.00000000000E+00  0.00000000000E+00 -0.80397634798E+02  0.12032386635E+04  0.12005496665E+04 0.  0.
        4    1    3    3  502    0 -0.17217529080E+03 -0.34513297195E+03 -0.50119335439E+03  0.63242192441E+03  0.12699999809E+01 0.  1.
       -4    1    3    3    0  502  0.17217529080E+03  0.34513297195E+03  0.42079571959E+03  0.57081673908E+03  0.12699999809E+01 0. -1.
</event>
<event>
 5   0  0.3883890E-04  0.1199240E+04  0.7818609E-02  0.9113522E-01
        2   -1    0    0  501    0  0.00000000000E+00  0.00000000000E+00  0.57149821824E+03  0.57149821824E+03  0.25500000920E-02 0.  1.
       -2   -1    0    0    0  501  0.00000000000E+00  0.00000000000E+00 -0.62912530455E+03  0.62912530455E+03  0.25500000920E-02 0. -1.
    10030    2    1    2    0    0  0.00000000000E+00  0.00000000000E+00 -0.57627086309E+02  0.12006235228E+04  0.11992397435E+04 0.  0.
        2    1    3    3  502    0  0.24240652474E+03 -0.23541778056E+03  0.46709783844E+03  0.57650918928E+03  0.25500000920E-02 0.  1.
       -2    1    3    3    0  502 -0.24240652474E+03  0.23541778056E+03 -0.52472492475E+03  0.62411433352E+03  0.25500000920E-02 0. -1.
</event>
<event>
 5   0  0.2204090E-04  0.1203025E+04  0.7818609E-02  0.9110213E-01
       -1   -1    0    0    0  501  0.00000000000E+00  0.00000000000E+00  0.21744217949E+03  0.21744217955E+03  0.50400001928E-02 0.  1.
        1   -1    0    0  501    0  0.00000000000E+00  0.00000000000E+00 -0.16639692804E+04  0.16639692804E+04  0.50400001928E-02 0. -1.
    10030    2    1    2    0    0  0.00000000000E+00  0.00000000000E+00 -0.14465271009E+04  0.18814114600E+04  0.12030246997E+04 0.  0.
        2    1    3    3  502    0  0.40908363583E+03  0.32671074321E+03 -0.11864734167E+04  0.12968455958E+04  0.25500000920E-02 0. -1.
       -2    1    3    3    0  502 -0.40908363583E+03 -0.32671074321E+03 -0.26005368420E+03  0.58456586413E+03  0.25500000920E-02 0.  1.
</event>
<event>
 5   0  0.4024486E-04  0.1199149E+04  0.7818609E-02  0.9113602E-01
       -2   -1    0    0    0  501  0.00000000000E+00  0.00000000000E+00  0.55064378846E+03  0.55064378847E+03  0.25500000920E-02 0. -1.
        2   -1    0    0  501    0  0.00000000000E+00  0.00000000000E+00 -0.65285312136E+03  0.65285312136E+03  0.25500000920E-02 0.  1.
    10030    2    1    2    0    0  0.00000000000E+00  0.00000000000E+00 -0.10220933289E+03  0.12034969098E+04  0.11991488916E+04 0.  0.
        1    1    3    3  502    0  0.44887570152E+03  0.29232142673E+03  0.21921989151E+03  0.57879061222E+03  0.50400001928E-02 0. -1.
       -1    1    3    3    0  502 -0.44887570152E+03 -0.29232142673E+03 -0.32142922440E+03  0.62470629760E+03  0.50400001928E-02 0.  1.
</event>
<event>
 5   0  0.2315038E-04  0.1194975E+04  0.7818609E-02  0.9117266E-01
        1   -1    0    0  501    0  0.00000000000E+00  0.00000000000E+00  0.59476059445E+03  0.59476059447E+03  0.50400001928E-02 0.  1.
       -1   -1    0    0    0  501  0.00000000000E+00  0.00000000000E+00 -0.60022697061E+03  0.60022697064E+03  0.50400001928E-02 0. -1.
    10030    2    1    2    0    0  0.00000000000E+00  0.00000000000E+00 -0.54663761643E+01  0.11949875651E+04  0.11949750623E+04 0.  0.
        1    1    3    3  502    0  0.43702885211E+03 -0.10971708987E+03 -0.39511376122E+03  0.59928869647E+03  0.50400001928E-02 0.  1.
       -1    1    3    3    0  502 -0.43702885211E+03  0.10971708987E+03  0.38964738506E+03  0.59569886864E+03  0.50400001928E-02 0. -1.
</event>
<event>
 5   0  0.2340731E-04  0.1200373E+04  0.7818609E-02  0.9112530E-01
       -1   -1    0    0    0  501  0.00000000000E+00  0.00000000000E+00  0.34793316379E+03  0.34793316383E+03  0.50400001928E-02 0. -1.
        1   -1    0    0  501    0  0.00000000000E+00  0.00000000000E+00 -0.10353248546E+04  0.10353248546E+04  0.50400001928E-02 0.  1.
    10030    2    1    2    0    0  0.00000000000E+00  0.00000000000E+00 -0.68739169077E+03  0.13832580184E+04  0.12003730291E+04 0.  0.
        3    1    3    3  502    0  0.13403725063E+03  0.58384642482E+03 -0.38652275900E+03  0.71291127481E+03  0.10100000352E+00 0.  1.
       -3    1    3    3    0  502 -0.13403725063E+03 -0.58384642482E+03 -0.30086893177E+03  0.67034674359E+03  0.10100000352E+00 0. -1.
</event>
<event>
 5   0  0.3832662E-04  0.1219319E+04  0.7818609E-02  0.9096113E-01
        2   -1    0    0  501    0  0.00000000000E+00  0.00000000000E+00  0.16960108067E+04  0.16960108067E+04  0.25500000920E-02 0.  1.
       -2   -1    0    0    0  501  0.00000000000E+00  0.00000000000E+00 -0.21915227498E+03  0.21915227500E+03  0.25500000920E-02 0. -1.
    10030    2    1    2    0    0  0.00000000000E+00  0.00000000000E+00  0.14768585317E+04  0.19151630817E+04  0.12193188700E+04 0.  0.
        4    1    3    3  502    0 -0.50957367538E+02 -0.15408026379E+03  0.16614584880E+04  0.16693661376E+04  0.12699999809E+01 0.  1.
       -4    1    3    3    0  502  0.50957367538E+02  0.15408026379E+03 -0.18459995627E+03  0.24579694415E+03  0.12699999809E+01 0. -1.
</event>
<event>
 5   0  0.4024486E-04  0.1200058E+04  0.7818609E-02  0.9112806E-01
        2   -1    0    0  501    0  0.00000000000E+00  0.00000000000E+00  0.33853441840E+03  0.33853441841E+03  0.25500000920E-02 0.  1.
       -2   -1    0    0    0  501  0.00000000000E+00  0.00000000000E+00 -0.10635102177E+04  0.10635102177E+04  0.25500000920E-02 0. -1.
    10030    2    1    2    0    0  0.00000000000E+00  0.00000000000E+00 -0.72497579929E+03  0.14020446361E+04  0.12000580203E+04 0.  0.
        1    1    3    3  502    0 -0.42664671951E+03 -0.18118130351E+03 -0.80764579129E+03  0.93120664314E+03  0.50400001928E-02 0. -1.
       -1    1    3    3    0  502  0.42664671951E+03  0.18118130351E+03  0.82669992003E+02  0.47083799296E+03  0.50400001928E-02 0.  1.
</event>
<event>
 5   0  0.4122956E-04  0.1202433E+04  0.7818609E-02  0.9110730E-01
       -2   -1    0    0    0  501  0.00000000000E+00  0.00000000000E+00  0.23900757501E+03  0.23900757503E+03  0.25500000920E-02 0. -1.
        2   -1    0    0  501    0  0.00000000000E+00  0.00000000000E+00 -0.15123415744E+04  0.15123415744E+04  0.25500000920E-02 0.  1.
    10030    2    1    2    0    0  0.00000000000E+00  0.00000000000E+00 -0.12733339993E+04  0.17513491494E+04  0.12024326880E+04 0.  0.
        5    1    3    3  502    0  0.36585023145E+03  0.33983140217E+03 -0.11243400652E+04  0.12302416210E+04  0.46999998093E+01 0.  1.
       -5    1    3    3    0  502 -0.36585023145E+03 -0.33983140217E+03 -0.14899393413E+03  0.52110752840E+03  0.46999998093E+01 0. -1.
</event>
<event>
 5   0  0.2304842E-04  0.1200159E+04  0.7818609E-02  0.9112717E-01
        1   -1    0    0  501    0  0.00000000000E+00  0.00000000000E+00  0.88330366112E+03  0.88330366113E+03  0.50400001928E-02 0. -1.
       -1   -1    0    0    0  501  0.00000000000E+00  0.00000000000E+00 -0.40766901641E+03  0.40766901644E+03  0.50400001928E-02 0.  1.
    10030    2    1    2    0    0  0.00000000000E+00  0.00000000000E+00  0.47563464471E+03  0.12909726776E+04  0.12001592140E+04 0.  0.
        4    1    3    3  502    0 -0.13551290422E+03  0.58442456501E+03  0.22346199399E+03  0.64019738757E+03  0.12699999809E+01 0. -1.
       -4    1    3    3    0  502  0.13551290422E+03 -0.58442456501E+03  0.25217265073E+03  0.65077529000E+03  0.12699999809E+01 0.  1.
</event>
<event>
 5   0  0.2244308E-04  0.1201305E+04  0.7818609E-02  0.9111715E-01
        1   -1    0    0  501    0  0.00000000000E+00  0.00000000000E+00  0.64433432770E+03  0.64433432772E+03  0.50400001928E-02 0.  1.
       -1   -1    0    0    0  501  0.00000000000E+00  0.00000000000E+00 -0.55993194821E+03  0.55993194823E+03  0.50400001928E-02 0. -1.
    10030    2    1    2    0    0  0.00000000000E+00  0.00000000000E+00  0.84402379493E+02  0.12042662760E+04  0.12013049162E+04 0.  0.
        5    1    3    3  502    0 -0.16454829861E+03 -0.52878417034E+03  0.27530923911E+03  0.61847078226E+03  0.46999998093E+01 0. -1.
       -5    1    3    3    0  502  0.16454829861E+03  0.52878417034E+03 -0.19090685962E+03  0.58579549369E+03  0.46999998093E+01 0.  1.
</event>
<event>
 5   0  0.3883890E-04  0.1200358E+04  0.7818609E-02  0.9112544E-01
       -2   -1    0    0    0  501  0.00000000000E+00  0.00000000000E+00  0.52892146735E+03  0.52892146736E+03  0.25500000920E-02 0.  1.
        2   -1    0    0  501    0  0.00000000000E+00  0.00000000000E+00 -0.68103609879E+03  0.68103609879E+03  0.25500000920E-02 0. -1.
    10030    2    1    2    0    0  0.00000000000E+00  0.00000000000E+00 -0.15211463144E+03  0.12099575662E+04  0.12003576345E+04 0.  0.
        2    1    3    3  502    0  0.18195318502E+03 -0.68375237483E+02 -0.64842996269E+03  0.67693688861E+03  0.25500000920E-02 0. -1.
       -2    1    3    3    0  502 -0.18195318502E+03  0.68375237483E+02  0.49631533126E+03  0.53302067754E+03  0.25500000920E-02 0.  1.
</event>
<event>
 5   0  0.2304842E-04  0.1201953E+04  0.7818609E-02  0.9111149E-01
       -1   -1    0    0    0  501  0.00000000000E+00  0.00000000000E+00  0.60111091094E+03  0.60111091096E+03  0.50400001928E-02 0.  1.
        1   -1    0    0  501    0  0.00000000000E+00  0.00000000000E+00 -0.60084195562E+03  0.60084195564E+03  0.50400001928E-02 0. -1.
    10030    2    1    2    0    0  0.00000000000E+00  0.00000000000E+00  0.26895531835E+00  0.12019528666E+04  0.12019528365E+04 0.  0.
        4    1    3    3  502    0  0.13764459103E+03  0.24300586313E+03 -0.53200570464E+03  0.60085735880E+03  0.12699999809E+01 0. -1.
       -4    1    3    3    0  502 -0.13764459103E+03 -0.24300586313E+03  0.53227465996E+03  0.60109550779E+03  0.12699999809E+01 0.  1.
</event>
<event>
 5   0  0.4122956E-04  0.1198780E+04  0.7818609E-02  0.9113925E-01
        2   -1    0    0  501    0  0.00000000000E+00  0.00000000000E+00  0.20585353995E+04  0.20585353995E+04  0.25500000920E-02 0.  1.
       -2   -1    0    0    0  501  0.00000000000E+00  0.00000000000E+00 -0.17452618493E+03  0.17452618495E+03  0.25500000920E-02 0. -1.
    10030    2    1    2    0    0  0.00000000000E+00  0.00000000000E+00  0.18840092145E+04  0.22330615844E+04  0.11987799295E+04 0.  0.
        5    1    3    3  502    0  0.19734998028E+03  0.50998763997E+03  0.48491414581E+03  0.73088865530E+03  0.46999998093E+01 0. -1.
       -5    1    3    3    0  502 -0.19734998028E+03 -0.50998763997E+03  0.13990950687E+04  0.15021729291E+04  0.46999998093E+01 0.  1.
</event>
<event>
 5   0  0.2244308E-04  0.1202291E+04  0.7818609E-02  0.9110854E-01
        1   -1    0    0  501    0  0.00000000000E+00  0.00000000000E+00  0.24800006327E+04  0.24800006327E+04  0.50400001928E-02 0.  1.
       -1   -1    0    0    0  501  0.00000000000E+00  0.00000000000E+00 -0.14571597182E+03  0.14571597191E+03  0.50400001928E-02 0. -1.
    10030    2    1    2    0    0  0.00000000000E+00  0.00000000000E+00  0.23342846609E+04  0.26257166046E+04  0.12022906511E+04 0.  0.
        5    1    3    3  502    0  0.15130461836E+01  0.55490597001E+03  0.66232557415E+03  0.86407186103E+03  0.46999998093E+01 0. -1.
       -5    1    3    3    0  502 -0.15130461836E+01 -0.55490597001E+03  0.16719590867E+04  0.17616447436E+04  0.46999998093E+01 0.  1.
</event>
<event>
 5   0  0.2304842E-04  0.1201090E+04  0.7818609E-02  0.9111903E-01
        1   -1    0    0  501    0  0.00000000000E+00  0.00000000000E+00  0.80021492652E+03  0.80021492654E+03  0.50400001928E-02 0.  1.
       -1   -1    0    0    0  501  0.00000000000E+00  0.00000000000E+00 -0.45069712815E+03  0.45069712818E+03  0.50400001928E-02 0. -1.
    10030    2    1    2    0    0  0.00000000000E+00  0.00000000000E+00  0.34951779837E+03  0.12509120547E+04  0.12010904534E+04 0.  0.
        4    1    3    3  502    0 -0.11069494788E+03 -0.29371870200E+02  0.78873506222E+03  0.79700733342E+03  0.12699999809E+01 0.  1.
       -4    1    3    3    0  502  0.11069494788E+03  0.29371870200E+02 -0.43921726385E+03  0.45390472129E+03  0.12699999809E+01 0. -1.
</event>
<event>
 5   0  0.3883890E-04  0.1200398E+04  0.7818609E-02  0.9112508E-01
        2   -1    0    0  501    0  0.00000000000E+00  0.00000000000E+00  0.12864504937E+04  0.12864504937E+04  0.25500000920E-02 0.  1.
       -2   -1    0    0    0  501  0.00000000000E+00  0.00000000000E+00 -0.28002550052E+03  0.28002550053E+03  0.25500000920E-02 0. -1.
    10030    2    1    2    0    0  0.00000000000E+00  0.00000000000E+00  0.10064249932E+04  0.15664759942E+04  0.12003981729E+04 0.  0.
        2    1    3    3  502    0  0.58704570824E+03  0.30808147501E+02  0.34517101026E+03  0.68169995734E+03  0.25500000920E-02 0. -1.
       -2    1    3    3    0  502 -0.58704570824E+03 -0.30808147501E+02  0.66125398292E+03  0.88477603689E+03  0.25500000920E-02 0.  1.
</event>
<event>
 5   0  0.2244308E-04  0.1202648E+04  0.7818609E-02  0.9110542E-01
        1   -1    0    0  501    0  0.00000000000E+00  0.00000000000E+00  0.88810446793E+03  0.88810446795E+03  0.50400001928E-02 0.  1.
       -1   -1    0    0    0  501  0.00000000000E+00  0.00000000000E+00 -0.40714867927E+03  0.40714867930E+03  0.50400001928E-02 0. -1.
    10030    2    1    2    0    0  0.00000000000E+00  0.00000000000E+00  0.48095578866E+03  0.12952531472E+04  0.12026480137E+04 0.  0.
        5    1    3    3  502    0 -0.17814402194E+02  0.55536351621E+03  0.48800657353E+03  0.73953937953E+03  0.46999998093E+01 0.  1.
       -5    1    3    3    0  502  0.17814402194E+02 -0.55536351621E+03 -0.70507848722E+01  0.55571376772E+03  0.46999998093E+01 0. -1.
</event>
<event>
 5   0  0.4024486E-04  0.1198264E+04  0.7818609E-02  0.9114377E-01
       -2   -1    0    0    0  501  0.00000000000E+00  0.00000000000E+00  0.48704365986E+03  0.48704365987E+03  0.25500000920E-02 0. -1.
        2   -1    0    0  501    0  0.00000000000E+00  0.00000000000E+00 -0.73701625968E+03  0.73701625969E+03  0.25500000920E-02 0.  1.
    10030    2    1    2    0    0  0.00000000000E+00  0.00000000000E+00 -0.24997259982E+03  0.12240599196E+04  0.11982639050E+04 0.  0.
        1    1    3    3  502    0  0.44176097132E+02  0.11782670344E+03 -0.72336486067E+03  0.73422842582E+03  0.50400001928E-02 0.  1.
       -1    1    3    3    0  502 -0.44176097132E+02 -0.11782670344E+03  0.47339226085E+03  0.48983149374E+03  0.50400001928E-02 0. -1.
</event>
<event>
 5   0  0.2315038E-04  0.1200463E+04  0.7818609E-02  0.9112452E-01
        1   -1    0    0  501    0  0.00000000000E+00  0.00000000000E+00  0.46908579833E+03  0.46908579836E+03  0.50400001928E-02 0. -1.
       -1   -1    0    0    0  501  0.00000000000E+00  0.00000000000E+00 -0.76804194659E+03  0.76804194661E+03  0.50400001928E-02 0.  1.
    10030    2    1    2    0    0  0.00000000000E+00  0.00000000000E+00 -0.29895614826E+03  0.12371277450E+04  0.12004625270E+04 0.  0.
        1    1    3    3  502    0 -0.12240229473E+03  0.48076500020E+03 -0.49767378600E+03  0.70270655644E+03  0.50400001928E-02 0.  1.
       -1    1    3    3    0  502  0.12240229473E+03 -0.48076500020E+03  0.19871763773E+03  0.53442118852E+03  0.50400001928E-02 0. -1.
</event>
<event>
 5   0  0.2204090E-04  0.1203042E+04  0.7818609E-02  0.9110198E-01
        1   -1    0    0  501    0  0.00000000000E+00  0.00000000000E+00  0.72625745804E+03  0.72625745806E+03  0.50400001928E-02 0.  1.
       -1   -1    0    0    0  501  0.00000000000E+00  0.00000000000E+00 -0.49820799792E+03  0.49820799794E+03  0.50400001928E-02 0. -1.
    10030    2    1    2    0    0  0.00000000000E+00  0.00000000000E+00  0.22804946012E+03  0.12244654560E+04  0.12030416022E+04 0.  0.
        2    1    3    3  502    0 -0.14354333287E+03 -0.41352018978E+03  0.53395368984E+03  0.69044201688E+03  0.25500000920E-02 0.  1.
       -2    1    3    3    0  502  0.14354333287E+03  0.41352018978E+03 -0.30590422972E+03  0.53402343912E+03  0.25500000920E-02 0. -1.
</event>
<event>
 5   0  0.3832662E-04  0.1201987E+04  0.7818609E-02  0.9111119E-01
        2   -1    0    0  501    0  0.00000000000E+00  0.00000000000E+00  0.19498646065E+04  0.19498646065E+04  0.25500000920E-02 0. -1.
       -2   -1    0    0    0  501  0.00000000000E+00  0.00000000000E+00 -0.18524014843E+03  0.18524014845E+03  0.25500000920E-02 0.  1.
    10030    2    1    2    0    0  0.00000000000E+00  0.00000000000E+00  0.17646244580E+04  0.21351047549E+04  0.12019870368E+04 0.  0.
        4    1    3    3  502    0  0.40398672352E+03  0.34790466136E+03  0.13750546612E+04  0.14747948537E+04  0.12699999809E+01 0. -1.
       -4    1    3    3    0  502 -0.40398672352E+03 -0.34790466136E+03  0.38956979678E+03  0.66030990121E+03  0.12699999809E+01 0.  1.
</event>
<event>
 5   0  0.3883890E-04  0.1202086E+04  0.7818609E-02  0.9111033E-01
       -2   -1    0    0    0  501  0.00000000000E+00  0.00000000000E+00  0.43960632880E+03  0.43960632881E+03  0.25500000920E-02 0.  1.
        2   -1    0    0  501    0  0.00000000000E+00  0.00000000000E+00 -0.82176397543E+03  0.82176397543E+03  0.25500000920E-02 0. -1.
    10030    2    1    2    0    0  0.00000000000E+00  0.00000000000E+00 -0.38215764663E+03  0.12613703042E+04  0.12020859277E+04 0.  0.
        2    1    3    3  502    0 -0.11718153085E+03  0.47345796340E+02 -0.80766316556E+03  0.81749184987E+03  0.25500000920E-02 0. -1.
       -2    1    3    3    0  502  0.11718153085E+03 -0.47345796340E+02  0.42550551893E+03  0.44387845437E+03  0.25500000920E-02 0.  1.
</event>
<event>
 5   0  0.3832662E-04  0.1198661E+04  0.7818609E-02  0.9114029E-01
       -2   -1    0    0    0  501  0.00000000000E+00  0.00000000000E+00  0.21964914445E+03  0.21964914446E+03  0.25500000920E-02 0.  1.
        2   -1    0    0  501    0  0.00000000000E+00  0.00000000000E+00 -0.16353217417E+04  0.16353217417E+04  0.25500000920E-02 0. -1.
    10030    2    1    2    0    0  0.00000000000E+00  0.00000000000E+00 -0.14156725973E+04  0.18549708862E+04  0.11986609554E+04 0.  0.
        4    1    3    3  502    0 -0.34450387072E+02  0.19581597387E+02  0.21761753623E+03  0.22119962274E+03  0.12699999809E+01 0.  1.
       -4    1    3    3    0  502  0.34450387072E+02 -0.19581597387E+02 -0.16332901335E+04  0.16337712634E+04  0.12699999809E+01 0. -1.
</event>
<event>
 5   0  0.2204090E-04  0.1199254E+04  0.7818609E-02  0.9113510E-01
       -1   -1    0    0    0  501  0.00000000000E+00  0.00000000000E+00  0.33792877309E+03  0.33792877313E+03  0.50400001928E-02 0.  1.
        1   -1    0    0  501    0  0.00000000000E+00  0.00000000000E+00 -0.10639893001E+04  0.10639893001E+04  0.50400001928E-02 0. -1.
    10030    2    1    2    0    0  0.00000000000E+00  0.00000000000E+00 -0.72606052704E+03  0.14019180733E+04  0.11992540995E+04 0.  0.
        2    1    3    3  502    0  0.33158623079E+02 -0.93889276821E+02  0.32819671385E+03  0.34296905629E+03  0.25500000920E-02 0.  1.
       -2    1    3    3    0  502 -0.33158623079E+02  0.93889276821E+02 -0.10542572409E+04  0.10589490170E+04  0.25500000920E-02 0. -1.
</event>
<event>
 5   0  0.4024486E-04  0.1199540E+04  0.7818609E-02  0.9113260E-01
        2   -1    0    0  501    0  0.00000000000E+00  0.00000000000E+00  0.99104122213E+03  0.99104122214E+03  0.25500000920E-02 0. -1.
       -2   -1    0    0    0  501  0.00000000000E+00  0.00000000000E+00 -0.36297570401E+03  0.36297570402E+03  0.25500000920E-02 0.  1.
    10030    2    1    2    0    0  0.00000000000E+00  0.00000000000E+00  0.62806551812E+03  0.13540169262E+04  0.11995397206E+04 0.  0.
        1    1    3    3  502    0 -0.47673159960E+03  0.32781852605E+03  0.49245820688E+03  0.75977173521E+03  0.50400001928E-02 0. -1.
       -1    1    3    3    0  502  0.47673159960E+03 -0.32781852605E+03  0.13560731123E+03  0.59424519095E+03  0.50400001928E-02 0.  1.
</event>
<event>
 5   0  0.2304842E-04  0.1195601E+04  0.7818609E-02  0.9116716E-01
        1   -1    0    0  501    0  0.00000000000E+00  0.00000000000E+00  0.11705196183E+04  0.11705196183E+04  0.50400001928E-02 0. -1.
       -1   -1    0    0    0  501  0.00000000000E+00  0.00000000000E+00 -0.30530503234E+03  0.30530503239E+03  0.50400001928E-02 0.  1.
    10030    2    1    2    0    0  0.00000000000E+00  0.00000000000E+00  0.86521458596E+03  0.14758246507E+04  0.11956011542E+04 0.  0.
        4    1    3    3  502    0 -0.18666668203E+03  0.55094425944E+03  0.60266459262E+03  0.83760984431E+03  0.12699999809E+01 0.  1.
       -4    1    3    3    0  502  0.18666668203E+03 -0.55094425944E+03  0.26254999334E+03  0.63821480639E+03  0.12699999809E+01 0. -1.
</event>
<event>
 5   0  0.2204090E-04  0.1169890E+04  0.7818609E-02  0.9139628E-01
        1   -1    0    0  501    0  0.00000000000E+00  0.00000000000E+00  0.12111729117E+04  0.12111729117E+04  0.50400001928E-02 0. -1.
       -1   -1    0    0    0  501  0.00000000000E+00  0.00000000000E+00 -0.28250350717E+03  0.28250350721E+03  0.50400001928E-02 0.  1.
    10030    2    1    2    0    0  0.00000000000E+00  0.00000000000E+00  0.92866940449E+03  0.14936764189E+04  0.11698899014E+04 0.  0.
        2    1    3    3  502    0  0.12501984340E+03 -0.33761105949E+03 -0.12429406238E+03  0.38086769709E+03  0.25500000920E-02 0.  1.
       -2    1    3    3    0  502 -0.12501984340E+03  0.33761105949E+03  0.10529634669E+04  0.11128087218E+04  0.25500000920E-02 0. -1.
</event>
<event>
 5   0  0.2315038E-04  0.1202509E+04  0.7818609E-02  0.9110663E-01
       -1   -1    0    0    0  501  0.00000000000E+00  0.00000000000E+00  0.42963435422E+03  0.42963435425E+03  0.50400001928E-02 0. -1.
        1   -1    0    0  501    0  0.00000000000E+00  0.00000000000E+00 -0.84142960237E+03  0.84142960239E+03  0.50400001928E-02 0.  1.
    10030    2    1    2    0    0  0.00000000000E+00  0.00000000000E+00 -0.41179524815E+03  0.12710639566E+04  0.12025091498E+04 0.  0.
        1    1    3    3  502    0 -0.38904438518E+03  0.44814831273E+03 -0.10388319926E+03  0.60248167022E+03  0.50400001928E-02 0.  1.
       -1    1    3    3    0  502  0.38904438518E+03 -0.44814831273E+03 -0.30791204889E+03  0.66858228642E+03  0.50400001928E-02 0. -1.
</event>
<event>
 5   0  0.3832662E-04  0.1198455E+04  0.7818609E-02  0.9114210E-01
       -2   -1    0    0    0  501  0.00000000000E+00  0.00000000000E+00  0.29487318177E+03  0.29487318178E+03  0.25500000920E-02 0.  1.
        2   -1    0    0  501    0  0.00000000000E+00  0.00000000000E+00 -0.12177227379E+04  0.12177227379E+04  0.25500000920E-02 0. -1.
    10030    2    1    2    0    0  0.00000000000E+00  0.00000000000E+00 -0.92284955611E+03  0.15125959197E+04  0.11984553029E+04 0.  0.
        4    1    3    3  502    0  0.11607077301E+03 -0.80022082874E+02  0.27364163100E+03  0.30782675844E+03  0.12699999809E+01 0.  1.
       -4    1    3    3    0  502 -0.11607077301E+03  0.80022082874E+02 -0.11964911871E+04  0.12047691612E+04  0.12699999809E+01 0. -1.
</event>
<event>
 5   0  0.2315038E-04  0.1202123E+04  0.7818609E-02  0.9111001E-01
       -1   -1    0    0    0  501  0.00000000000E+00  0.00000000000E+00  0.13129836989E+04  0.13129836989E+04  0.50400001928E-02 0.  1.
        1   -1    0    0  501    0  0.00000000000E+00  0.00000000000E+00 -0.27515548358E+03  0.27515548363E+03  0.50400001928E-02 0. -1.
    10030    2    1    2    0    0  0.00000000000E+00  0.00000000000E+00  0.10378282153E+04  0.15881391825E+04  0.12021225639E+04 0.  0.
        1    1    3    3  502    0  0.98288539265E+01  0.57294517053E+03  0.75858551280E+03  0.95069172452E+03  0.50400001928E-02 0. -1.
       -1    1    3    3    0  502 -0.98288539265E+01 -0.57294517053E+03  0.27924270252E+03  0.63744745802E+03  0.50400001928E-02 0.  1.
</event>
<event>
 5   0  0.2244308E-04  0.1199451E+04  0.7818609E-02  0.9113337E-01
       -1   -1    0    0    0  501  0.00000000000E+00  0.00000000000E+00  0.39730573100E+03  0.39730573103E+03  0.50400001928E-02 0. -1.
        1   -1    0    0  501    0  0.00000000000E+00  0.00000000000E+00 -0.90527456674E+03  0.90527456675E+03  0.50400001928E-02 0.  1.
    10030    2    1    2    0    0  0.00000000000E+00  0.00000000000E+00 -0.50796883574E+03  0.13025802978E+04  0.11994511637E+04 0.  0.
        5    1    3    3  502    0 -0.78581829855E+02  0.96334160446E+02  0.38313838165E+03  0.40283058963E+03  0.46999998093E+01 0. -1.
       -5    1    3    3    0  502  0.78581829855E+02 -0.96334160446E+02 -0.89110721739E+03  0.89974970816E+03  0.46999998093E+01 0.  1.
</event>
<event>
 5   0  0.2340731E-04  0.1200309E+04  0.7818609E-02  0.9112586E-01
        1   -1    0    0  501    0  0.00000000000E+00  0.00000000000E+00  0.10599935179E+04  0.10599935180E+04  0.50400001928E-02 0. -1.
       -1   -1    0    0    0  501  0.00000000000E+00  0.00000000000E+00 -0.33979948849E+03  0.33979948853E+03  0.50400001928E-02 0.  1.
    10030    2    1    2    0    0  0.00000000000E+00  0.00000000000E+00  0.72019402946E+03  0.13997930065E+04  0.12003087190E+04 0.  0.
        3    1    3    3  502    0 -0.26829139192E+02 -0.16029389581E+03  0.10338417115E+04  0.10465384037E+04  0.10100000352E+00 0. -1.
       -3    1    3    3    0  502  0.26829139192E+02  0.16029389581E+03 -0.31364768205E+03  0.35325460280E+03  0.10100000352E+00 0.  1.
</event>
<event>
 5   0  0.3883890E-04  0.1199659E+04  0.7818609E-02  0.9113155E-01
        2   -1    0    0  501    0  0.00000000000E+00  0.00000000000E+00  0.70462838267E+03  0.70462838267E+03  0.25500000920E-02 0.  1.
       -2   -1    0    0    0  501  0.00000000000E+00  0.00000000000E+00 -0.51061735297E+03  0.51061735297E+03  0.25500000920E-02 0. -1.
    10030    2    1    2    0    0  0.00000000000E+00  0.00000000000E+00  0.19401102970E+03  0.12152457356E+04  0.11996590842E+04 0.  0.
        2    1    3    3  502    0  0.20901909766E+03  0.51434132727E+03  0.32702286091E+03  0.64434457838E+03  0.25500000920E-02 0.  1.
       -2    1    3    3    0  502 -0.20901909766E+03 -0.51434132727E+03 -0.13301183121E+03  0.57090115727E+03  0.25500000920E-02 0. -1.
</event>
<event>
 5   0  0.3883890E-04  0.1200116E+04  0.7818609E-02  0.9112755E-01
       -2   -1    0    0    0  501  0.00000000000E+00  0.00000000000E+00  0.22021287623E+03  0.22021287624E+03  0.25500000920E-02 0. -1.
        2   -1    0    0  501    0  0.00000000000E+00  0.00000000000E+00 -0.16350971421E+04  0.16350971421E+04  0.25500000920E-02 0.  1.
    10030    2    1    2    0    0  0.00000000000E+00  0.00000000000E+00 -0.14148842658E+04  0.18553100183E+04  0.12001157354E+04 0.  0.
        2    1    3    3  502    0  0.23435157264E+03  0.10236576491E+03 -0.15466341561E+04  0.15676340843E+04  0.25500000920E-02 0.  1.
       -2    1    3    3    0  502 -0.23435157264E+03 -0.10236576491E+03  0.13174989026E+03  0.28767593402E+03  0.25500000920E-02 0. -1.
</event>
<event>
 5   0  0.3832662E-04  0.1199211E+04  0.7818609E-02  0.9113547E-01
        2   -1    0    0  501    0  0.00000000000E+00  0.00000000000E+00  0.10846600369E+04  0.10846600370E+04  0.25500000920E-02 0.  1.
       -2   -1    0    0    0  501  0.00000000000E+00  0.00000000000E+00 -0.33146506915E+03  0.33146506916E+03  0.25500000920E-02 0. -1.
    10030    2    1    2    0    0  0.00000000000E+00  0.00000000000E+00  0.75319496780E+03  0.14161251061E+04  0.11992112644E+04 0.  0.
        4    1    3    3  502    0  0.24763332117E+03 -0.28737097770E+03  0.92493935724E+03  0.99970934178E+03  0.12699999809E+01 0.  1.
       -4    1    3    3    0  502 -0.24763332117E+03  0.28737097770E+03 -0.17174438944E+03  0.41641576433E+03  0.12699999809E+01 0. -1.
</event>
<event>
 5   0  0.2244308E-04  0.1200596E+04  0.7818609E-02  0.9112335E-01
       -1   -1    0    0    0  501  0.00000000000E+00  0.00000000000E+00  0.46423941099E+03  0.46423941102E+03  0.50400001928E-02 0. -1.
        1   -1    0    0  501    0  0.00000000000E+00  0.00000000000E+00 -0.77623220199E+03  0.77623220200E+03  0.50400001928E-02 0.  1.
    10030    2    1    2    0    0  0.00000000000E+00  0.00000000000E+00 -0.31199279100E+03  0.12404716130E+04  0.12005958192E+04 0.  0.
        5    1    3    3  502    0  0.20908536506E+03 -0.13009351250E+02 -0.73721867015E+03  0.76641985277E+03  0.46999998093E+01 0.  1.
       -5    1    3    3    0  502 -0.20908536506E+03  0.13009351250E+02  0.42522587915E+03  0.47405176025E+03  0.46999998093E+01 0. -1.
</event>
<event>
 5   0  0.2315038E-04  0.1192954E+04  0.7818609E-02  0.9119046E-01
        1   -1    0    0  501    0  0.00000000000E+00  0.00000000000E+00  0.47810620292E+03  0.47810620295E+03  0.50400001928E-02 0.  1.
       -1   -1    0    0    0  501  0.00000000000E+00  0.00000000000E+00 -0.74415417102E+03  0.74415417104E+03  0.50400001928E-02 0. -1.
    10030    2    1    2    0    0  0.00000000000E+00  0.00000000000E+00 -0.26604796810E+03  0.12222603740E+04  0.11929538551E+04 0.  0.
        1    1    3    3  502    0  0.23272272180E+03 -0.20468344208E+03  0.38913261049E+03  0.49747297944E+03  0.50400001928E-02 0.  1.
       -1    1    3    3    0  502 -0.23272272180E+03  0.20468344208E+03 -0.65518057859E+03  0.72478739454E+03  0.50400001928E-02 0. -1.
</event>
<event>
 5   0  0.2204090E-04  0.1199594E+04  0.7818609E-02  0.9113212E-01
        1   -1    0    0  501    0  0.00000000000E+00  0.00000000000E+00  0.42443683388E+03  0.42443683391E+03  0.50400001928E-02 0. -1.
       -1   -1    0    0    0  501  0.00000000000E+00  0.00000000000E+00 -0.84760877956E+03  0.84760877958E+03  0.50400001928E-02 0.  1.
    10030    2    1    2    0    0  0.00000000000E+00  0.00000000000E+00 -0.42317194568E+03  0.12720456135E+04  0.11995939093E+04 0.  0.
        2    1    3    3  502    0 -0.51716326032E+03 -0.29778759298E+03 -0.14777599440E+03  0.61479511455E+03  0.25500000920E-02 0. -1.
       -2    1    3    3    0  502  0.51716326032E+03  0.29778759298E+03 -0.27539595129E+03  0.65725049893E+03  0.25500000920E-02 0.  1.
</event>
<event>
 5   0  0.4122956E-04  0.1200911E+04  0.7818609E-02  0.9112060E-01
       -2   -1    0    0    0  501  0.00000000000E+00  0.00000000000E+00  0.24969652056E+03  0.24969652057E+03  0.25500000920E-02 0.  1.
        2   -1    0    0  501    0  0.00000000000E+00  0.00000000000E+00 -0.14439395572E+04  0.14439395572E+04  0.25500000920E-02 0. -1.
    10030    2    1    2    0    0  0.00000000000E+00  0.00000000000E+00 -0.11942430366E+04  0.16936360778E+04  0.12009107933E+04 0.  0.
        5    1    3    3  502    0  0.79030678757E+02  0.53092125513E+03 -0.21764690382E+03  0.57923699129E+03  0.46999998093E+01 0.  1.
       -5    1    3    3    0  502 -0.79030678757E+02 -0.53092125513E+03 -0.97659613281E+03  0.11143990865E+04  0.46999998093E+01 0. -1.
</event>
<event>
 5   0  0.2340731E-04  0.1201203E+04  0.7818609E-02  0.9111805E-01
        1   -1    0    0  501    0  0.00000000000E+00  0.00000000000E+00  0.59197109776E+03  0.59197109778E+03  0.50400001928E-02 0.  1.
       -1   -1    0    0    0  501  0.00000000000E+00  0.00000000000E+00 -0.60935726642E+03  0.60935726644E+03  0.50400001928E-02 0. -1.
    10030    2    1    2    0    0  0.00000000000E+00  0.00000000000E+00 -0.17386168659E+02  0.12013283642E+04  0.12012025474E+04 0.  0.
        3    1    3    3  502    0 -0.24188815636E+03 -0.52745861813E+03 -0.16362672658E+03  0.60290645201E+03  0.10100000352E+00 0. -1.
       -3    1    3    3    0  502  0.24188815636E+03  0.52745861813E+03  0.14624055792E+03  0.59842191220E+03  0.10100000352E+00 0.  1.
</event>
<event>
 5   0  0.2204090E-04  0.1203627E+04  0.7818609E-02  0.9109687E-01
        1   -1    0    0  501    0  0.00000000000E+00  0.00000000000E+00  0.46473269526E+03  0.46473269529E+03  0.50400001928E-02 0.  1.
       -1   -1    0    0    0  501  0.00000000000E+00  0.00000000000E+00 -0.77932904367E+03  0.77932904369E+03  0.50400001928E-02 0. -1.
    10030    2    1    2    0    0  0.00000000000E+00  0.00000000000E+00 -0.31459634841E+03  0.12440617390E+04  0.12036273293E+04 0.  0.
        2    1    3    3  502    0  0.81012211156E+02  0.53002672720E+03 -0.43977082451E+03  0.69346210279E+03  0.25500000920E-02 0. -1.
       -2    1    3    3    0  502 -0.81012211156E+02 -0.53002672720E+03  0.12517447610E+03  0.55059963619E+03  0.25500000920E-02 0.  1.
</event>
<event>
 5   0  0.3993723E-04  0.1201494E+04  0.7818609E-02  0.9111550E-01
       -2   -1    0    0    0  501  0.00000000000E+00  0.00000000000E+00  0.31354996002E+03  0.31354996003E+03  0.25500000920E-02 0.  1.
        2   -1    0    0  501    0  0.00000000000E+00  0.00000000000E+00 -0.11510021371E+04  0.11510021371E+04  0.25500000920E-02 0. -1.
    10030    2    1    2    0    0  0.00000000000E+00  0.00000000000E+00 -0.83745217711E+03  0.14645520972E+04  0.12014935274E+04 0.  0.
        3    1    3    3  502    0 -0.54279657424E+03  0.94033740466E+02 -0.71083070697E+03  0.89930571527E+03  0.10100000352E+00 0. -1.
       -3    1    3    3    0  502  0.54279657424E+03 -0.94033740466E+02 -0.12662147015E+03  0.56524638190E+03  0.10100000352E+00 0.  1.
</event>
<event>
 5   0  0.2340731E-04  0.1199615E+04  0.7818609E-02  0.9113193E-01
        1   -1    0    0  501    0  0.00000000000E+00  0.00000000000E+00  0.13704200134E+04  0.13704200134E+04  0.50400001928E-02 0.  1.
       -1   -1    0    0    0  501  0.00000000000E+00  0.00000000000E+00 -0.26252478899E+03  0.26252478904E+03  0.50400001928E-02 0. -1.
    10030    2    1    2    0    0  0.00000000000E+00  0.00000000000E+00  0.11078952244E+04  0.16329448025E+04  0.11996153132E+04 0.  0.
        3    1    3    3  502    0 -0.21187540994E+03 -0.29138055996E+03 -0.98837423560E+02  0.37358087017E+03  0.10100000352E+00 0. -1.
       -3    1    3    3    0  502  0.21187540994E+03  0.29138055996E+03  0.12067326480E+04  0.12593639323E+04  0.10100000352E+00 0.  1.
</event>
<event>
 5   0  0.2340731E-04  0.1198138E+04  0.7818609E-02  0.9114488E-01
        1   -1    0    0  501    0  0.00000000000E+00  0.00000000000E+00  0.43401220711E+03  0.43401220714E+03  0.50400001928E-02 0.  1.
       -1   -1    0    0    0  501  0.00000000000E+00  0.00000000000E+00 -0.82689708149E+03  0.82689708150E+03  0.50400001928E-02 0. -1.
    10030    2    1    2    0    0  0.00000000000E+00  0.00000000000E+00 -0.39288487438E+03  0.12609092886E+04  0.11981376005E+04 0.  0.
        3    1    3    3  502    0  0.35928508558E+03  0.35447787759E+03  0.14317685517E+03  0.52463316754E+03  0.10100000352E+00 0.  1.
       -3    1    3    3    0  502 -0.35928508558E+03 -0.35447787759E+03 -0.53606172955E+03  0.73627612111E+03  0.10100000352E+00 0. -1.
</event>
<event>
 5   0  0.2315038E-04  0.1195568E+04  0.7818609E-02  0.9116744E-01
        1   -1    0    0  501    0  0.00000000000E+00  0.00000000000E+00  0.49778991557E+03  0.49778991560E+03  0.50400001928E-02 0. -1.
       -1   -1    0    0    0  501  0.00000000000E+00  0.00000000000E+00 -0.71786492586E+03  0.71786492588E+03  0.50400001928E-02 0.  1.
    10030    2    1    2    0    0  0.00000000000E+00  0.00000000000E+00 -0.22007501029E+03  0.12156548415E+04  0.11955683516E+04 0.  0.
        1    1    3    3  502    0 -0.50096625359E+03 -0.24568105248E+03  0.10808831481E+03  0.56833920383E+03  0.50400001928E-02 0. -1.
       -1    1    3    3    0  502  0.50096625359E+03  0.24568105248E+03 -0.32816332510E+03  0.64731563765E+03  0.50400001928E-02 0.  1.
</event>
<event>
 5   0  0.1541375E-04  0.1209978E+04  0.7818609E-02  0.9104168E-01
        4   -1    0    0  501    0  0.00000000000E+00  0.00000000000E+00  0.27851767504E+03  0.27852057053E+03  0.12699999809E+01 0.  1.
       -4   -1    0    0    0  501  0.00000000000E+00  0.00000000000E+00 -0.13141309337E+04  0.13141315474E+04  0.12699999809E+01 0. -1.
    10030    2    1    2    0    0  0.00000000000E+00  0.00000000000E+00 -0.10356132587E+04  0.15926521179E+04  0.12099776639E+04 0.  0.
        2    1    3    3  502    0 -0.24403671964E+03  0.37231115251E+03  0.21447968639E+02  0.44567872978E+03  0.25500000920E-02 0.  1.
       -2    1    3    3    0  502  0.24403671964E+03 -0.37231115251E+03 -0.10570612273E+04  0.11469733882E+04  0.25500000920E-02 0. -1.
</event>
<event>
 5   0  0.2304842E-04  0.1202075E+04  0.7818609E-02  0.9111042E-01
       -1   -1    0    0    0  501  0.00000000000E+00  0.00000000000E+00  0.33762963046E+03  0.33762963050E+03  0.50400001928E-02 0.  1.
        1   -1    0    0  501    0  0.00000000000E+00  0.00000000000E+00 -0.10699483334E+04  0.10699483335E+04  0.50400001928E-02 0. -1.
    10030    2    1    2    0    0  0.00000000000E+00  0.00000000000E+00 -0.73231870298E+03  0.14075779640E+04  0.12020753062E+04 0.  0.
        4    1    3    3  502    0  0.16061542285E+03  0.13490396017E+03 -0.10256982347E+04  0.10469263938E+04  0.12699999809E+01 0. -1.
       -4    1    3    3    0  502 -0.16061542285E+03 -0.13490396017E+03  0.29337953170E+03  0.36065157015E+03  0.12699999809E+01 0.  1.
</event>
<event>
 5   0  0.2204090E-04  0.1200318E+04  0.7818609E-02  0.9112578E-01
       -1   -1    0    0    0  501  0.00000000000E+00  0.00000000000E+00  0.60089246419E+03  0.60089246421E+03  0.50400001928E-02 0.  1.
        1   -1    0    0  501    0  0.00000000000E+00  0.00000000000E+00 -0.59942658900E+03  0.59942658902E+03  0.50400001928E-02 0. -1.
    10030    2    1    2    0    0  0.00000000000E+00  0.00000000000E+00  0.14658751948E+01  0.12003190532E+04  0.12003181581E+04 0.  0.
        2    1    3    3  502    0  0.52553934079E+03  0.84568924466E+02 -0.27648093848E+03  0.59982098251E+03  0.25500000920E-02 0. -1.
       -2    1    3    3    0  502 -0.52553934079E+03 -0.84568924466E+02  0.27794681367E+03  0.60049807072E+03  0.25500000920E-02 0.  1.
</event>
<event>
 5   0  0.3993723E-04  0.1197594E+04  0.7818609E-02  0.9114965E-01
        2   -1    0    0  501    0  0.00000000000E+00  0.00000000000E+00  0.93803795341E+03  0.93803795341E+03  0.25500000920E-02 0. -1.
       -2   -1    0    0    0  501  0.00000000000E+00  0.00000000000E+00 -0.38224255905E+03  0.38224255906E+03  0.25500000920E-02 0.  1.
    10030    2    1    2    0    0  0.00000000000E+00  0.00000000000E+00  0.55579539435E+03  0.13202805125E+04  0.11975943016E+04 0.  0.
        3    1    3    3  502    0 -0.37689943795E+03 -0.65342920228E+01 -0.23501973611E+03  0.44421860594E+03  0.10100000352E+00 0.  1.
       -3    1    3    3    0  502  0.37689943795E+03  0.65342920228E+01  0.79081513046E+03  0.87606190653E+03  0.10100000352E+00 0. -1.
</event>
<event>
 5   0  0.3832662E-04  0.1199719E+04  0.7818609E-02  0.9113103E-01
        2   -1    0    0  501    0  0.00000000000E+00  0.00000000000E+00  0.43171271310E+03  0.43171271311E+03  0.25500000920E-02 0. -1.
       -2   -1    0    0    0  501  0.00000000000E+00  0.00000000000E+00 -0.83349713793E+03  0.83349713793E+03  0.25500000920E-02 0.  1.
    10030    2    1    2    0    0  0.00000000000E+00  0.00000000000E+00 -0.40178442483E+03  0.12652098510E+04  0.11997188184E+04 0.  0.
        4    1    3    3  502    0  0.21446669470E+03 -0.97766840023E+02  0.38083114257E+03  0.44787084098E+03  0.12699999809E+01 0. -1.
       -4    1    3    3    0  502 -0.21446669470E+03  0.97766840023E+02 -0.78261556740E+03  0.81733901007E+03  0.12699999809E+01 0.  1.
</event>
<event>
 5   0  0.3832662E-04  0.1199703E+04  0.7818609E-02  0.9113116E-01
        2   -1    0    0  501    0  0.00000000000E+00  0.00000000000E+00  0.13718708400E+04  0.13718708400E+04  0.25500000920E-02 0.  1.
       -2   -1    0    0    0  501  0.00000000000E+00  0.00000000000E+00 -0.26228566907E+03  0.26228566909E+03  0.25500000920E-02 0. -1.
    10030    2    1    2    0    0  0.00000000000E+00  0.00000000000E+00  0.11095851709E+04  0.16341565091E+04  0.11997033986E+04 0.  0.
        4    1    3    3  502    0  0.70967373891E+02 -0.55709476096E+03  0.26767783283E+03  0.62212858473E+03  0.12699999809E+01 0. -1.
       -4    1    3    3    0  502 -0.70967373891E+02  0.55709476096E+03  0.84190733808E+03  0.10120279243E+04  0.12699999809E+01 0.  1.
</event>
<event>
 5   0  0.2244308E-04  0.1201296E+04  0.7818609E-02  0.9111723E-01
        1   -1    0    0  501    0  0.00000000000E+00  0.00000000000E+00  0.91399902055E+03  0.91399902056E+03  0.50400001928E-02 0.  1.
       -1   -1    0    0    0  501  0.00000000000E+00  0.00000000000E+00 -0.39472454360E+03  0.39472454363E+03  0.50400001928E-02 0. -1.
    10030    2    1    2    0    0  0.00000000000E+00  0.00000000000E+00  0.51927447695E+03  0.13087235642E+04  0.12012957109E+04 0.  0.
        5    1    3    3  502    0  0.52443868676E+03  0.27826695703E+03  0.16046158535E+03  0.61501093154E+03  0.46999998093E+01 0. -1.
       -5    1    3    3    0  502 -0.52443868676E+03 -0.27826695703E+03  0.35881289159E+03  0.69371263266E+03  0.46999998093E+01 0.  1.
</event>
<event>
 5   0  0.2340731E-04  0.1199876E+04  0.7818609E-02  0.9112965E-01
       -1   -1    0    0    0  501  0.00000000000E+00  0.00000000000E+00  0.68162931573E+03  0.68162931575E+03  0.50400001928E-02 0. -1.
        1   -1    0    0  501    0  0.00000000000E+00  0.00000000000E+00 -0.52803755427E+03  0.52803755429E+03  0.50400001928E-02 0.  1.
    10030    2    1    2    0    0  0.00000000000E+00  0.00000000000E+00  0.15359176146E+03  0.12096668700E+04  0.11998764550E+04 0.  0.
        3    1    3    3  502    0 -0.33935117006E+03  0.13143106585E+03  0.55764942408E+03  0.66588755212E+03  0.10100000352E+00 0. -1.
       -3    1    3    3    0  502  0.33935117006E+03 -0.13143106585E+03 -0.40405766261E+03  0.54377931793E+03  0.10100000352E+00 0.  1.
</event>
<event>
 5   0  0.3832662E-04  0.1199118E+04  0.7818609E-02  0.9113629E-01
        2   -1    0    0  501    0  0.00000000000E+00  0.00000000000E+00  0.40517584972E+03  0.40517584973E+03  0.25500000920E-02 0.  1.
       -2   -1    0    0    0  501  0.00000000000E+00  0.00000000000E+00 -0.88719688486E+03  0.88719688487E+03  0.25500000920E-02 0. -1.
    10030    2    1    2    0    0  0.00000000000E+00  0.00000000000E+00 -0.48202103514E+03  0.12923727346E+04  0.11991175951E+04 0.  0.
        4    1    3    3  502    0 -0.17889988016E+03 -0.38034666937E+03 -0.70181273669E+03  0.81805347398E+03  0.12699999809E+01 0. -1.
       -4    1    3    3    0  502  0.17889988016E+03  0.38034666937E+03  0.21979170154E+03  0.47431926061E+03  0.12699999809E+01 0.  1.
</event>
<event>
 5   0  0.4122956E-04  0.1200028E+04  0.7818609E-02  0.9112832E-01
        2   -1    0    0  501    0  0.00000000000E+00  0.00000000000E+00  0.41288591621E+03  0.41288591621E+03  0.25500000920E-02 0.  1.
       -2   -1    0    0    0  501  0.00000000000E+00  0.00000000000E+00 -0.87195178953E+03  0.87195178953E+03  0.25500000920E-02 0. -1.
    10030    2    1    2    0    0  0.00000000000E+00  0.00000000000E+00 -0.45906587332E+03  0.12848377057E+04  0.12000276889E+04 0.  0.
        5    1    3    3  502    0  0.47871748498E+03  0.35008628739E+03 -0.13220357622E+03  0.60764357530E+03  0.46999998093E+01 0.  1.
       -5    1    3    3    0  502 -0.47871748498E+03 -0.35008628739E+03 -0.32686229710E+03  0.67719413044E+03  0.46999998093E+01 0. -1.
</event>
<event>
 5   0  0.2244308E-04  0.1202522E+04  0.7818609E-02  0.9110652E-01
       -1   -1    0    0    0  501  0.00000000000E+00  0.00000000000E+00  0.17449931101E+03  0.17449931108E+03  0.50400001928E-02 0. -1.
        1   -1    0    0  501    0  0.00000000000E+00  0.00000000000E+00 -0.20717260186E+04  0.20717260186E+04  0.50400001928E-02 0.  1.
    10030    2    1    2    0    0  0.00000000000E+00  0.00000000000E+00 -0.18972267076E+04  0.22462253297E+04  0.12025219548E+04 0.  0.
        5    1    3    3  502    0  0.25908449944E+03  0.43074206802E+03 -0.15648293339E+04  0.16435864568E+04  0.46999998093E+01 0.  1.
       -5    1    3    3    0  502 -0.25908449944E+03 -0.43074206802E+03 -0.33239737376E+03  0.60263887287E+03  0.46999998093E+01 0. -1.
</event>
<event>
 5   0  0.2340731E-04  0.1200252E+04  0.7818609E-02  0.9112636E-01
       -1   -1    0    0    0  501  0.00000000000E+00  0.00000000000E+00  0.94917741339E+03  0.94917741340E+03  0.50400001928E-02 0.  1.
        1   -1    0    0  501    0  0.00000000000E+00  0.00000000000E+00 -0.37943495216E+03  0.37943495220E+03  0.50400001928E-02 0. -1.
    10030    2    1    2    0    0  0.00000000000E+00  0.00000000000E+00  0.56974246122E+03  0.13286123656E+04  0.12002517844E+04 0.  0.
        3    1    3    3  502    0  0.27339613778E+03 -0.31586981524E+03  0.76179857224E+03  0.86882464468E+03  0.10100000352E+00 0.  1.
       -3    1    3    3    0  502 -0.27339613778E+03  0.31586981524E+03 -0.19205611102E+03  0.45978772092E+03  0.10100000352E+00 0. -1.
</event>
<event>
 5   0  0.3883890E-04  0.1200934E+04  0.7818609E-02  0.9112040E-01
        2   -1    0    0  501    0  0.00000000000E+00  0.00000000000E+00  0.10992430161E+04  0.10992430161E+04  0.25500000920E-02 0. -1.
       -2   -1    0    0    0  501  0.00000000000E+00  0.00000000000E+00 -0.32800787561E+03  0.32800787562E+03  0.25500000920E-02 0.  1.
    10030    2    1    2    0    0  0.00000000000E+00  0.00000000000E+00  0.77123514046E+03  0.14272508917E+04  0.12009335810E+04 0.  0.
        2    1    3    3  502    0 -0.11571720847E+02  0.57096511844E+03  0.16511169209E+03  0.59447198594E+03  0.25500000920E-02 0.  1.
       -2    1    3    3    0  502  0.11571720847E+02 -0.57096511844E+03  0.60612344837E+03  0.83277890576E+03  0.25500000920E-02 0. -1.
</event>
<event>
 5   0  0.4122956E-04  0.1196628E+04  0.7818609E-02  0.9115813E-01
       -2   -1    0    0    0  501  0.00000000000E+00  0.00000000000E+00  0.50271830497E+03  0.50271830498E+03  0.25500000920E-02 0. -1.
        2   -1    0    0  501    0  0.00000000000E+00  0.00000000000E+00 -0.71208845553E+03  0.71208845554E+03  0.25500000920E-02 0.  1.
    10030    2    1    2    0    0  0.00000000000E+00  0.00000000000E+00 -0.20937015056E+03  0.12148067605E+04  0.11966284325E+04 0.  0.
        5    1    3    3  502    0 -0.22241227685E+03 -0.53210314594E+03  0.56972248138E+02  0.57954197938E+03  0.46999998093E+01 0. -1.
       -5    1    3    3    0  502  0.22241227685E+03  0.53210314594E+03 -0.26634239870E+03  0.63526478113E+03  0.46999998093E+01 0.  1.
</event>
<event>
 5   0  0.4024486E-04  0.1200173E+04  0.7818609E-02  0.9112705E-01
       -2   -1    0    0    0  501  0.00000000000E+00  0.00000000000E+00  0.61826895158E+03  0.61826895158E+03  0.25500000920E-02 0. -1.
        2   -1    0    0  501    0  0.00000000000E+00  0.00000000000E+00 -0.58243859976E+03  0.58243859976E+03  0.25500000920E-02 0.  1.
    10030    2    1    2    0    0  0.00000000000E+00  0.00000000000E+00  0.35830351822E+02  0.12007075513E+04  0.12001728250E+04 0.  0.
        1    1    3    3  502    0 -0.19059326080E+03  0.51362866632E+03 -0.22706839252E+03  0.59304321330E+03  0.50400001928E-02 0.  1.
       -1    1    3    3    0  502  0.19059326080E+03 -0.51362866632E+03  0.26289874434E+03  0.60766433805E+03  0.50400001928E-02 0. -1.
</event>
<event>
 5   0  0.3832662E-04  0.1210186E+04  0.7818609E-02  0.9103987E-01
       -2   -1    0    0    0  501  0.00000000000E+00  0.00000000000E+00  0.35948451972E+03  0.35948451973E+03  0.25500000920E-02 0. -1.
        2   -1    0    0  501    0  0.00000000000E+00  0.00000000000E+00 -0.10185072920E+04  0.10185072920E+04  0.25500000920E-02 0.  1.
    10030    2    1    2    0    0  0.00000000000E+00  0.00000000000E+00 -0.65902277227E+03  0.13779918117E+04  0.12101861092E+04 0.  0.
        4    1    3    3  502    0 -0.14597974208E+03  0.15865525950E+03  0.31426468048E+03  0.38111084839E+03  0.12699999809E+01 0. -1.
       -4    1    3    3    0  502  0.14597974208E+03 -0.15865525950E+03 -0.97328745275E+03  0.99688096333E+03  0.12699999809E+01 0.  1.
</event>
<event>
 5   0  0.4122956E-04  0.1198981E+04  0.7818609E-02  0.9113749E-01
       -2   -1    0    0    0  501  0.00000000000E+00  0.00000000000E+00  0.35114614769E+03  0.35114614770E+03  0.25500000920E-02 0. -1.
        2   -1    0    0  501    0  0.00000000000E+00  0.00000000000E+00 -0.10234741849E+04  0.10234741849E+04  0.25500000920E-02 0.  1.
    10030    2    1    2    0    0  0.00000000000E+00  0.00000000000E+00 -0.67232803716E+03  0.13746203326E+04  0.11989812630E+04 0.  0.
        5    1    3    3  502    0  0.28338583971E+03 -0.10410286458E+03  0.25760502907E+03  0.39689719269E+03  0.46999998093E+01 0. -1.
       -5    1    3    3    0  502 -0.28338583971E+03  0.10410286458E+03 -0.92993306623E+03  0.97772313987E+03  0.46999998093E+01 0.  1.
</event>
<event>
 5   0  0.3993723E-04  0.1213372E+04  0.7818609E-02  0.9101232E-01
       -2   -1    0    0    0  501  0.00000000000E+00  0.00000000000E+00  0.24872841664E+03  0.24872841665E+03  0.25500000920E-02 0. -1.
        2   -1    0    0  501    0  0.00000000000E+00  0.00000000000E+00 -0.14797984116E+04  0.14797984116E+04  0.25500000920E-02 0.  1.
    10030    2    1    2    0    0  0.00000000000E+00  0.00000000000E+00 -0.12310699950E+04  0.17285268283E+04  0.12133720219E+04 0.  0.
        3    1    3    3  502    0  0.58666837864E+02  0.30945405556E+03  0.12313203112E+03  0.33817912066E+03  0.10100000352E+00 0. -1.
       -3    1    3    3    0  502 -0.58666837864E+02 -0.30945405556E+03 -0.13542020261E+04  0.13903477076E+04  0.10100000352E+00 0.  1.
</event>
<event>
 5   0  0.2204090E-04  0.1204105E+04  0.7818609E-02  0.9109271E-01
        1   -1    0    0  501    0  0.00000000000E+00  0.00000000000E+00  0.11619283365E+04  0.11619283365E+04  0.50400001928E-02 0.  1.
       -1   -1    0    0    0  501  0.00000000000E+00  0.00000000000E+00 -0.31195329807E+03  0.31195329811E+03  0.50400001928E-02 0. -1.
    10030    2    1    2    0    0  0.00000000000E+00  0.00000000000E+00  0.84997503839E+03  0.14738816346E+04  0.12041052723E+04 0.  0.
        2    1    3    3  502    0 -0.55694532836E+03 -0.16716602440E+03  0.23404087774E+03  0.62682350862E+03  0.25500000920E-02 0. -1.
       -2    1    3    3    0  502  0.55694532836E+03  0.16716602440E+03  0.61593416065E+03  0.84705812596E+03  0.25500000920E-02 0.  1.
</event>
<event>
 5   0  0.4122956E-04  0.1202402E+04  0.7818609E-02  0.9110757E-01
       -2   -1    0    0    0  501  0.00000000000E+00  0.00000000000E+00  0.52846938453E+03  0.52846938453E+03  0.25500000920E-02 0.  1.
        2   -1    0    0  501    0  0.00000000000E+00  0.00000000000E+00 -0.68394226850E+03  0.68394226850E+03  0.25500000920E-02 0. -1.
    10030    2    1    2    0    0  0.00000000000E+00  0.00000000000E+00 -0.15547288397E+03  0.12124116530E+04  0.12024018458E+04 0.  0.
        5    1    3    3  502    0  0.31930330600E+03 -0.15766264016E+03 -0.56613255689E+03  0.66883501052E+03  0.46999998093E+01 0. -1.
       -5    1    3    3    0  502 -0.31930330600E+03  0.15766264016E+03  0.41065967292E+03  0.54357664251E+03  0.46999998093E+01 0.  1.
</event>
<event>
 5   0  0.2244308E-04  0.1177968E+04  0.7818609E-02  0.9132363E-01
        1   -1    0    0  501    0  0.00000000000E+00  0.00000000000E+00  0.44186497885E+03  0.44186497888E+03  0.50400001928E-02 0.  1.
       -1   -1    0    0    0  501  0.00000000000E+00  0.00000000000E+00 -0.78508627854E+03  0.78508627856E+03  0.50400001928E-02 0. -1.
    10030    2    1    2    0    0  0.00000000000E+00  0.00000000000E+00 -0.34322129969E+03  0.12269512574E+04  0.11779679654E+04 0.  0.
        5    1    3    3  502    0  0.36492060259E+03  0.24993640591E+03  0.23346304346E+03  0.50016230951E+03  0.46999998093E+01 0.  1.
       -5    1    3    3    0  502 -0.36492060259E+03 -0.24993640591E+03 -0.57668434316E+03  0.72678894793E+03  0.46999998093E+01 0. -1.
</event>
<event>
 5   0  0.2244308E-04  0.1200186E+04  0.7818609E-02  0.9112694E-01
        1   -1    0    0  501    0  0.00000000000E+00  0.00000000000E+00  0.10266179480E+04  0.10266179480E+04  0.50400001928E-02 0. -1.
       -1   -1    0    0    0  501  0.00000000000E+00  0.00000000000E+00 -0.35077460225E+03  0.35077460229E+03  0.50400001928E-02 0.  1.
    10030    2    1    2    0    0  0.00000000000E+00  0.00000000000E+00  0.67584334573E+03  0.13773925503E+04  0.12001858229E+04 0.  0.
        5    1    3    3  502    0 -0.45047280304E+03  0.20072350831E+03  0.73026629762E+03  0.88120748324E+03  0.46999998093E+01 0. -1.
       -5    1    3    3    0  502  0.45047280304E+03 -0.20072350831E+03 -0.54422951895E+02  0.49618506705E+03  0.46999998093E+01 0.  1.
</event>
<event>
 5   0  0.2244308E-04  0.1200684E+04  0.7818609E-02  0.9112258E-01
        1   -1    0    0  501    0  0.00000000000E+00  0.00000000000E+00  0.18482200008E+04  0.18482200008E+04  0.50400001928E-02 0. -1.
       -1   -1    0    0    0  501  0.00000000000E+00  0.00000000000E+00 -0.19500413033E+03  0.19500413039E+03  0.50400001928E-02 0.  1.
    10030    2    1    2    0    0  0.00000000000E+00  0.00000000000E+00  0.16532158705E+04  0.20432241312E+04  0.12006840283E+04 0.  0.
        5    1    3    3  502    0  0.40527058668E+03  0.34133149579E+03  0.13068329033E+04  0.14101722468E+04  0.46999998093E+01 0. -1.
       -5    1    3    3    0  502 -0.40527058668E+03 -0.34133149579E+03  0.34638296723E+03  0.63305188447E+03  0.46999998093E+01 0.  1.
</event>
<event>
 5   0  0.2304842E-04  0.1200083E+04  0.7818609E-02  0.9112784E-01
       -1   -1    0    0    0  501  0.00000000000E+00  0.00000000000E+00  0.19377568091E+03  0.19377568098E+03  0.50400001928E-02 0.  1.
        1   -1    0    0  501    0  0.00000000000E+00  0.00000000000E+00 -0.18580753522E+04  0.18580753522E+04  0.50400001928E-02 0. -1.
    10030    2    1    2    0    0  0.00000000000E+00  0.00000000000E+00 -0.16642996713E+04  0.20518510332E+04  0.12000830249E+04 0.  0.
        4    1    3    3  502    0 -0.21221925485E+03  0.53144996614E+03 -0.11407225933E+04  0.12762153918E+04  0.12699999809E+01 0. -1.
       -4    1    3    3    0  502  0.21221925485E+03 -0.53144996614E+03 -0.52357707805E+03  0.77563564139E+03  0.12699999809E+01 0.  1.
</event>
<event>
 5   0  0.3993723E-04  0.1200442E+04  0.7818609E-02  0.9112469E-01
       -2   -1    0    0    0  501  0.00000000000E+00  0.00000000000E+00  0.67421941040E+03  0.67421941041E+03  0.25500000920E-02 0.  1.
        2   -1    0    0  501    0  0.00000000000E+00  0.00000000000E+00 -0.53434462915E+03  0.53434462916E+03  0.25500000920E-02 0. -1.
    10030    2    1    2    0    0  0.00000000000E+00  0.00000000000E+00  0.13987478125E+03  0.12085640396E+04  0.12004424531E+04 0.  0.
        3    1    3    3  502    0  0.18545717782E+03  0.26631202830E+03  0.57827825218E+03  0.66311553169E+03  0.10100000352E+00 0.  1.
       -3    1    3    3    0  502 -0.18545717782E+03 -0.26631202830E+03 -0.43840347093E+03  0.54544850788E+03  0.10100000352E+00 0. -1.
</event>
<event>
 5   0  0.4122956E-04  0.1228585E+04  0.7818609E-02  0.9088198E-01
       -2   -1    0    0    0  501  0.00000000000E+00  0.00000000000E+00  0.53006296316E+03  0.53006296317E+03  0.25500000920E-02 0.  1.
        2   -1    0    0  501    0  0.00000000000E+00  0.00000000000E+00 -0.71190600794E+03  0.71190600795E+03  0.25500000920E-02 0. -1.
    10030    2    1    2    0    0  0.00000000000E+00  0.00000000000E+00 -0.18184304478E+03  0.12419689711E+04  0.12285845646E+04 0.  0.
        5    1    3    3  502    0 -0.35075044031E+03  0.46686588803E+03 -0.28363753731E+03  0.64920102538E+03  0.46999998093E+01 0. -1.
       -5    1    3    3    0  502  0.35075044031E+03 -0.46686588803E+03  0.10179449253E+03  0.59276794574E+03  0.46999998093E+01 0.  1.
</event>
<event>
 5   0  0.2304842E-04  0.1196146E+04  0.7818609E-02  0.9116236E-01
        1   -1    0    0  501    0  0.00000000000E+00  0.00000000000E+00  0.95091234908E+03  0.95091234909E+03  0.50400001928E-02 0.  1.
       -1   -1    0    0    0  501  0.00000000000E+00  0.00000000000E+00 -0.37615620929E+03  0.37615620932E+03  0.50400001928E-02 0. -1.
    10030    2    1    2    0    0  0.00000000000E+00  0.00000000000E+00  0.57475613979E+03  0.13270685584E+04  0.11961464536E+04 0.  0.
        4    1    3    3  502    0  0.55015835556E+03 -0.13109315340E+03  0.50316698365E+03  0.75699290446E+03  0.12699999809E+01 0.  1.
       -4    1    3    3    0  502 -0.55015835556E+03  0.13109315340E+03  0.71589156143E+02  0.57007565396E+03  0.12699999809E+01 0. -1.
</event>
<event>
 5   0  0.3883890E-04  0.1199319E+04  0.7818609E-02  0.9113453E-01
        2   -1    0    0  501    0  0.00000000000E+00  0.00000000000E+00  0.10854035649E+04  0.10854035649E+04  0.25500000920E-02 0.  1.
       -2   -1    0    0    0  501  0.00000000000E+00  0.00000000000E+00 -0.33129746201E+03  0.33129746202E+03  0.25500000920E-02 0. -1.
    10030    2    1    2    0    0  0.00000000000E+00  0.00000000000E+00  0.75410610288E+03  0.14167010269E+04  0.11993188839E+04 0.  0.
        2    1    3    3  502    0 -0.37139536787E+03 -0.46924987649E+03  0.33189449599E+03  0.68431273723E+03  0.25500000920E-02 0. -1.
       -2    1    3    3    0  502  0.37139536787E+03  0.46924987649E+03  0.42221160689E+03  0.73238828968E+03  0.25500000920E-02 0.  1.
</event>
<event>
 5   0  0.3883890E-04  0.1199490E+04  0.7818609E-02  0.9113303E-01
       -2   -1    0    0    0  501  0.00000000000E+00  0.00000000000E+00  0.14547840037E+04  0.14547840037E+04  0.25500000920E-02 0. -1.
        2   -1    0    0  501    0  0.00000000000E+00  0.00000000000E+00 -0.24724925769E+03  0.24724925770E+03  0.25500000920E-02 0.  1.
    10030    2    1    2    0    0  0.00000000000E+00  0.00000000000E+00  0.12075347460E+04  0.17020332614E+04  0.11994903335E+04 0.  0.
        2    1    3    3  502    0  0.26336418305E+03 -0.48914325898E+03  0.92444201034E+03  0.10785243860E+04  0.25500000920E-02 0. -1.
       -2    1    3    3    0  502 -0.26336418305E+03  0.48914325898E+03  0.28309273568E+03  0.62350887541E+03  0.25500000920E-02 0.  1.
</event>
<event>
 5   0  0.2304842E-04  0.1199680E+04  0.7818609E-02  0.9113136E-01
        1   -1    0    0  501    0  0.00000000000E+00  0.00000000000E+00  0.11986182400E+04  0.11986182400E+04  0.50400001928E-02 0. -1.
       -1   -1    0    0    0  501  0.00000000000E+00  0.00000000000E+00 -0.30018579103E+03  0.30018579107E+03  0.50400001928E-02 0.  1.
    10030    2    1    2    0    0  0.00000000000E+00  0.00000000000E+00  0.89843244898E+03  0.14988040311E+04  0.11996802317E+04 0.  0.
        4    1    3    3  502    0 -0.26907387347E+03 -0.17491032217E+03 -0.18390541835E+03  0.36988807224E+03  0.12699999809E+01 0.  1.
       -4    1    3    3    0  502  0.26907387347E+03  0.17491032217E+03  0.10823378673E+04  0.11289159588E+04  0.12699999809E+01 0. -1.
</event>
<event>
 5   0  0.4122956E-04  0.1203507E+04  0.7818609E-02  0.9109792E-01
        2   -1    0    0  501    0  0.00000000000E+00  0.00000000000E+00  0.79167413194E+03  0.79167413194E+03  0.25500000920E-02 0. -1.
       -2   -1    0    0    0  501  0.00000000000E+00  0.00000000000E+00 -0.45739471775E+03  0.45739471776E+03  0.25500000920E-02 0.  1.
    10030    2    1    2    0    0  0.00000000000E+00  0.00000000000E+00  0.33427941418E+03  0.12490688497E+04  0.12035074842E+04 0.  0.
        5    1    3    3  502    0 -0.57965472136E+03 -0.15973057780E+03  0.19196213162E+03  0.63117747382E+03  0.46999998093E+01 0.  1.
       -5    1    3    3    0  502  0.57965472136E+03  0.15973057780E+03  0.14231728257E+03  0.61789137589E+03  0.46999998093E+01 0. -1.
</event>
<event>
 5   0  0.2340731E-04  0.1198542E+04  0.7818609E-02  0.9114134E-01
       -1   -1    0    0    0  501  0.00000000000E+00  0.00000000000E+00  0.33817438150E+03  0.33817438153E+03  0.50400001928E-02 0. -1.
        1   -1    0    0  501    0  0.00000000000E+00  0.00000000000E+00 -0.10619541471E+04  0.10619541471E+04  0.50400001928E-02 0.  1.
    10030    2    1    2    0    0  0.00000000000E+00  0.00000000000E+00 -0.72377976562E+03  0.14001285287E+04  0.11985419257E+04 0.  0.
        3    1    3    3  502    0 -0.20600317245E+03 -0.32360276812E+03 -0.89972788240E+03  0.97809321190E+03  0.10100000352E+00 0. -1.
       -3    1    3    3    0  502  0.20600317245E+03  0.32360276812E+03  0.17594811678E+03  0.42203531676E+03  0.10100000352E+00 0.  1.
</event>
<event>
 5   0  0.3832662E-04  0.1194846E+04  0.7818609E-02  0.9117379E-01
        2   -1    0    0  501    0  0.00000000000E+00  0.00000000000E+00  0.13014589340E+04  0.13014589340E+04  0.25500000920E-02 0.  1.
       -2   -1    0    0    0  501  0.00000000000E+00  0.00000000000E+00 -0.27424186896E+03  0.27424186898E+03  0.25500000920E-02 0. -1.
    10030    2    1    2    0    0  0.00000000000E+00  0.00000000000E+00  0.10272170650E+04  0.15757008029E+04  0.11948464846E+04 0.  0.
        4    1    3    3  502    0  0.33680329615E+03  0.41546770734E+02 -0.13479470965E+03  0.36514903958E+03  0.12699999809E+01 0. -1.
       -4    1    3    3    0  502 -0.33680329615E+03 -0.41546770734E+02  0.11620117747E+04  0.12105517634E+04  0.12699999809E+01 0.  1.
</event>
<event>
 5   0  0.1541375E-04  0.1199759E+04  0.7818609E-02  0.9113067E-01
       -3   -1    0    0    0  501  0.00000000000E+00  0.00000000000E+00  0.27185764449E+03  0.27185766325E+03  0.10100000352E+00 0.  1.
        3   -1    0    0  501    0  0.00000000000E+00  0.00000000000E+00 -0.13236912494E+04  0.13236912533E+04  0.10100000352E+00 0. -1.
    10030    2    1    2    0    0  0.00000000000E+00  0.00000000000E+00 -0.10518336049E+04  0.15955489165E+04  0.11997593144E+04 0.  0.
        4    1    3    3  502    0  0.72935670236E+02  0.54932793252E+03 -0.83142488956E+03  0.99917453396E+03  0.12699999809E+01 0. -1.
       -4    1    3    3    0  502 -0.72935670236E+02 -0.54932793252E+03 -0.22040871536E+03  0.59637438254E+03  0.12699999809E+01 0.  1.
</event>
<event>
 5   0  0.4122956E-04  0.1199256E+04  0.7818609E-02  0.9113508E-01
        2   -1    0    0  501    0  0.00000000000E+00  0.00000000000E+00  0.15781865069E+04  0.15781865069E+04  0.25500000920E-02 0.  1.
       -2   -1    0    0    0  501  0.00000000000E+00  0.00000000000E+00 -0.22782713259E+03  0.22782713261E+03  0.25500000920E-02 0. -1.
    10030    2    1    2    0    0  0.00000000000E+00  0.00000000000E+00  0.13503593743E+04  0.18060136395E+04  0.11992559469E+04 0.  0.
        5    1    3    3  502    0  0.12515263618E+03 -0.37164334591E+03 -0.79115368831E+01  0.39225838591E+03  0.46999998093E+01 0. -1.
       -5    1    3    3    0  502 -0.12515263618E+03  0.37164334591E+03  0.13582709111E+04  0.14137552536E+04  0.46999998093E+01 0.  1.
</event>
<event>
 5   0  0.2315038E-04  0.1200484E+04  0.7818609E-02  0.9112433E-01
        1   -1    0    0  501    0  0.00000000000E+00  0.00000000000E+00  0.18943396121E+04  0.18943396121E+04  0.50400001928E-02 0. -1.
       -1   -1    0    0    0  501  0.00000000000E+00  0.00000000000E+00 -0.19019306588E+03  0.19019306595E+03  0.50400001928E-02 0.  1.
    10030    2    1    2    0    0  0.00000000000E+00  0.00000000000E+00  0.17041465462E+04  0.20845326780E+04  0.12004836671E+04 0.  0.
        1    1    3    3  502    0 -0.36641003051E+03 -0.36961937513E+03  0.33284447295E+03  0.61778656195E+03  0.50400001928E-02 0.  1.
       -1    1    3    3    0  502  0.36641003051E+03  0.36961937513E+03  0.13713020733E+04  0.14667461161E+04  0.50400001928E-02 0. -1.
</event>
<event>
 5   0  0.2315038E-04  0.1199730E+04  0.7818609E-02  0.9113093E-01
       -1   -1    0    0    0  501  0.00000000000E+00  0.00000000000E+00  0.25853758430E+03  0.25853758435E+03  0.50400001928E-02 0. -1.
        1   -1    0    0  501    0  0.00000000000E+00  0.00000000000E+00 -0.13918215488E+04  0.13918215488E+04  0.50400001928E-02 0.  1.
    10030    2    1    2    0    0  0.00000000000E+00  0.00000000000E+00 -0.11332839645E+04  0.16503591332E+04  0.11997302715E+04 0.  0.
        1    1    3    3  502    0 -0.20464629188E+03 -0.51741586686E+03 -0.87497134953E+03  0.10369060452E+04  0.50400001928E-02 0.  1.
       -1    1    3    3    0  502  0.20464629188E+03  0.51741586686E+03 -0.25831261499E+03  0.61345308798E+03  0.50400001928E-02 0. -1.
</event>
<event>
 5   0  0.2340731E-04  0.1199863E+04  0.7818609E-02  0.9112977E-01
        1   -1    0    0  501    0  0.00000000000E+00  0.00000000000E+00  0.68930493640E+03  0.68930493642E+03  0.50400001928E-02 0. -1.
       -1   -1    0    0    0  501  0.00000000000E+00  0.00000000000E+00 -0.52214559999E+03  0.52214560001E+03  0.50400001928E-02 0.  1.
    10030    2    1    2    0    0  0.00000000000E+00  0.00000000000E+00  0.16715933641E+03  0.12114505364E+04  0.11998625582E+04 0.  0.
        3    1    3    3  502    0 -0.28049638756E+03  0.24476390423E+03 -0.39142104926E+03  0.54018333948E+03  0.10100000352E+00 0.  1.
       -3    1    3    3    0  502  0.28049638756E+03 -0.24476390423E+03  0.55858038567E+03  0.67126719695E+03  0.10100000352E+00 0. -1.
</event>
<event>
 5   0  0.3832662E-04  0.1198939E+04  0.7818609E-02  0.9113786E-01
       -2   -1    0    0    0  501  0.00000000000E+00  0.00000000000E+00  0.49780234493E+03  0.49780234494E+03  0.25500000920E-02 0. -1.
        2   -1    0    0  501    0  0.00000000000E+00  0.00000000000E+00 -0.72190060543E+03  0.72190060544E+03  0.25500000920E-02 0.  1.
    10030    2    1    2    0    0  0.00000000000E+00  0.00000000000E+00 -0.22409826050E+03  0.12197029504E+04  0.11989392215E+04 0.  0.
        4    1    3    3  502    0  0.14913616778E+03 -0.57343652128E+03 -0.20468188428E+03  0.62687106101E+03  0.12699999809E+01 0.  1.
       -4    1    3    3    0  502 -0.14913616778E+03  0.57343652128E+03 -0.19416376212E+02  0.59283188936E+03  0.12699999809E+01 0. -1.
</event>
<event>
 5   0  0.4024486E-04  0.1201613E+04  0.7818609E-02  0.9111446E-01
        2   -1    0    0  501    0  0.00000000000E+00  0.00000000000E+00  0.18765549178E+04  0.18765549178E+04  0.25500000920E-02 0.  1.
       -2   -1    0    0    0  501  0.00000000000E+00  0.00000000000E+00 -0.19235695872E+03  0.19235695873E+03  0.25500000920E-02 0. -1.
    10030    2    1    2    0    0  0.00000000000E+00  0.00000000000E+00  0.16841979591E+04  0.20689118765E+04  0.12016129108E+04 0.  0.
        1    1    3    3  502    0 -0.91962381043E+02 -0.44288481349E+02 -0.17731902131E+03  0.20459859347E+03  0.50400001928E-02 0. -1.
       -1    1    3    3    0  502  0.91962381043E+02  0.44288481349E+02  0.18615169804E+04  0.18643132831E+04  0.50400001928E-02 0.  1.
</event>
<event>
 5   0  0.4122956E-04  0.1198499E+04  0.7818609E-02  0.9114171E-01
       -2   -1    0    0    0  501  0.00000000000E+00  0.00000000000E+00  0.28461968858E+03  0.28461968859E+03  0.25500000920E-02 0. -1.
        2   -1    0    0  501    0  0.00000000000E+00  0.00000000000E+00 -0.12616844297E+04  0.12616844297E+04  0.25500000920E-02 0.  1.
    10030    2    1    2    0    0  0.00000000000E+00  0.00000000000E+00 -0.97706474113E+03  0.15463041183E+04  0.11984994443E+04 0.  0.
        5    1    3    3  502    0  0.11816163233E+03 -0.10742890041E+03 -0.12336997289E+04  0.12440017086E+04  0.46999998093E+01 0.  1.
       -5    1    3    3    0  502 -0.11816163233E+03  0.10742890041E+03  0.25663498773E+03  0.30230240972E+03  0.46999998093E+01 0. -1.
</event>
<event>
 5   0  0.2204090E-04  0.1200318E+04  0.7818609E-02  0.9112578E-01
        1   -1    0    0  501    0  0.00000000000E+00  0.00000000000E+00  0.77549859950E+03  0.77549859952E+03  0.50400001928E-02 0. -1.
       -1   -1    0    0    0  501  0.00000000000E+00  0.00000000000E+00 -0.46446338855E+03  0.46446338858E+03  0.50400001928E-02 0.  1.
    10030    2    1    2    0    0  0.00000000000E+00  0.00000000000E+00  0.31103521095E+03  0.12399619881E+04  0.12003178035E+04 0.  0.
        2    1    3    3  502    0 -0.40261786279E+03  0.35637158204E+03 -0.11991344417E+03  0.55089117077E+03  0.25500000920E-02 0. -1.
       -2    1    3    3    0  502  0.40261786279E+03 -0.35637158204E+03  0.43094865513E+03  0.68907081733E+03  0.25500000920E-02 0.  1.
</event>
<event>
 5   0  0.2244308E-04  0.1200659E+04  0.7818609E-02  0.9112280E-01
       -1   -1    0    0    0  501  0.00000000000E+00  0.00000000000E+00  0.81701568921E+03  0.81701568923E+03  0.50400001928E-02 0. -1.
        1   -1    0    0  501    0  0.00000000000E+00  0.00000000000E+00 -0.44111239021E+03  0.44111239024E+03  0.50400001928E-02 0.  1.
    10030    2    1    2    0    0  0.00000000000E+00  0.00000000000E+00  0.37590329900E+03  0.12581280795E+04  0.12006593914E+04 0.  0.
        5    1    3    3  502    0  0.24887742836E+03 -0.84747700644E+01  0.76032141412E+03  0.80007658311E+03  0.46999998093E+01 0. -1.
       -5    1    3    3    0  502 -0.24887742836E+03  0.84747700644E+01 -0.38441811512E+03  0.45805149635E+03  0.46999998093E+01 0.  1.
</event>
<event>
 5   0  0.3832662E-04  0.1187346E+04  0.7818609E-02  0.9124005E-01
       -2   -1    0    0    0  501  0.00000000000E+00  0.00000000000E+00  0.46977688865E+03  0.46977688865E+03  0.25500000920E-02 0. -1.
        2   -1    0    0  501    0  0.00000000000E+00  0.00000000000E+00 -0.75024502256E+03  0.75024502256E+03  0.25500000920E-02 0.  1.
    10030    2    1    2    0    0  0.00000000000E+00  0.00000000000E+00 -0.28046813391E+03  0.12200219112E+04  0.11873462383E+04 0.  0.
        4    1    3    3  502    0  0.48632956591E+03  0.28193312133E+03  0.55921148713E+02  0.56491726771E+03  0.12699999809E+01 0. -1.
       -4    1    3    3    0  502 -0.48632956591E+03 -0.28193312133E+03 -0.33638928263E+03  0.65510464351E+03  0.12699999809E+01 0.  1.
</event>
<event>
 5   0  0.2340731E-04  0.1198361E+04  0.7818609E-02  0.9114293E-01
       -1   -1    0    0    0  501  0.00000000000E+00  0.00000000000E+00  0.27572964854E+03  0.27572964859E+03  0.50400001928E-02 0.  1.
        1   -1    0    0  501    0  0.00000000000E+00  0.00000000000E+00 -0.13020618423E+04  0.13020618423E+04  0.50400001928E-02 0. -1.
    10030    2    1    2    0    0  0.00000000000E+00  0.00000000000E+00 -0.10263321938E+04  0.15777914909E+04  0.11983606372E+04 0.  0.
        3    1    3    3  502    0 -0.49221015131E+03 -0.32087308340E+03 -0.66775981697E+03  0.88945688600E+03  0.10100000352E+00 0. -1.
       -3    1    3    3    0  502  0.49221015131E+03  0.32087308340E+03 -0.35857237680E+03  0.68833460490E+03  0.10100000352E+00 0.  1.
</event>
<event>
 5   0  0.3832662E-04  0.1202562E+04  0.7818609E-02  0.9110617E-01
       -2   -1    0    0    0  501  0.00000000000E+00  0.00000000000E+00  0.28816420862E+03  0.28816420863E+03  0.25500000920E-02 0. -1.
        2   -1    0    0  501    0  0.00000000000E+00  0.00000000000E+00 -0.12546282090E+04  0.12546282090E+04  0.25500000920E-02 0.  1.
    10030    2    1    2    0    0  0.00000000000E+00  0.00000000000E+00 -0.96646400041E+03  0.15427924177E+04  0.12025621730E+04 0.  0.
        4    1    3    3  502    0 -0.38432130397E+03  0.43804149911E+03 -0.29314260057E+03  0.65231696038E+03  0.12699999809E+01 0. -1.
       -4    1    3    3    0  502  0.38432130397E+03 -0.43804149911E+03 -0.67332139984E+03  0.89047545728E+03  0.12699999809E+01 0.  1.
</event>
<event>
 5   0  0.2315038E-04  0.1198930E+04  0.7818609E-02  0.9113793E-01
        1   -1    0    0  501    0  0.00000000000E+00  0.00000000000E+00  0.17830850873E+04  0.17830850873E+04  0.50400001928E-02 0. -1.
       -1   -1    0    0    0  501  0.00000000000E+00  0.00000000000E+00 -0.20153748918E+03  0.20153748925E+03  0.50400001928E-02 0.  1.
    10030    2    1    2    0    0  0.00000000000E+00  0.00000000000E+00  0.15815475981E+04  0.19846225765E+04  0.11989303425E+04 0.  0.
        1    1    3    3  502    0  0.72977655666E+02 -0.21489855126E+03 -0.12767408612E+03  0.26039930463E+03  0.50400001928E-02 0.  1.
       -1    1    3    3    0  502 -0.72977655666E+02  0.21489855126E+03  0.17092216842E+04  0.17242232719E+04  0.50400001928E-02 0. -1.
</event>
<event>
 5   0  0.2315038E-04  0.1197292E+04  0.7818609E-02  0.9115230E-01
        1   -1    0    0  501    0  0.00000000000E+00  0.00000000000E+00  0.87893482642E+03  0.87893482643E+03  0.50400001928E-02 0.  1.
       -1   -1    0    0    0  501  0.00000000000E+00  0.00000000000E+00 -0.40774007605E+03  0.40774007608E+03  0.50400001928E-02 0. -1.
    10030    2    1    2    0    0  0.00000000000E+00  0.00000000000E+00  0.47119475037E+03  0.12866749025E+04  0.11972918658E+04 0.  0.
        1    1    3    3  502    0 -0.75994458266E+02  0.53960623538E+03  0.50194456464E+03  0.74087677312E+03  0.50400001928E-02 0.  1.
       -1    1    3    3    0  502  0.75994458266E+02 -0.53960623538E+03 -0.30749814270E+02  0.54579812939E+03  0.50400001928E-02 0. -1.
</event>
<event>
 5   0  0.3832662E-04  0.1200224E+04  0.7818609E-02  0.9112660E-01
        2   -1    0    0  501    0  0.00000000000E+00  0.00000000000E+00  0.14413644756E+04  0.14413644756E+04  0.25500000920E-02 0.  1.
       -2   -1    0    0    0  501  0.00000000000E+00  0.00000000000E+00 -0.24985677131E+03  0.24985677132E+03  0.25500000920E-02 0. -1.
    10030    2    1    2    0    0  0.00000000000E+00  0.00000000000E+00  0.11915077043E+04  0.16912212469E+04  0.12002244360E+04 0.  0.
        4    1    3    3  502    0  0.18018565030E+03 -0.29460174623E+03  0.12873215986E+04  0.13328374126E+04  0.12699999809E+01 0.  1.
       -4    1    3    3    0  502 -0.18018565030E+03  0.29460174623E+03 -0.95813894270E+02  0.35838383430E+03  0.12699999809E+01 0. -1.
</event>
<event>
 5   0  0.4024486E-04  0.1200388E+04  0.7818609E-02  0.9112517E-01
       -2   -1    0    0    0  501  0.00000000000E+00  0.00000000000E+00  0.83960426806E+03  0.83960426806E+03  0.25500000920E-02 0.  1.
        2   -1    0    0  501    0  0.00000000000E+00  0.00000000000E+00 -0.42905090168E+03  0.42905090169E+03  0.25500000920E-02 0. -1.
    10030    2    1    2    0    0  0.00000000000E+00  0.00000000000E+00  0.41055336637E+03  0.12686551698E+04  0.12003882177E+04 0.  0.
        1    1    3    3  502    0 -0.26483359357E+03 -0.26321682599E+03 -0.29135477596E+03  0.47361116464E+03  0.50400001928E-02 0. -1.
       -1    1    3    3    0  502  0.26483359357E+03  0.26321682599E+03  0.70190814233E+03  0.79504400511E+03  0.50400001928E-02 0.  1.
</event>
<event>
 5   0  0.3883890E-04  0.1200411E+04  0.7818609E-02  0.9112497E-01
       -2   -1    0    0    0  501  0.00000000000E+00  0.00000000000E+00  0.27923105406E+03  0.27923105407E+03  0.25500000920E-02 0. -1.
        2   -1    0    0  501    0  0.00000000000E+00  0.00000000000E+00 -0.12901376783E+04  0.12901376783E+04  0.25500000920E-02 0.  1.
    10030    2    1    2    0    0  0.00000000000E+00  0.00000000000E+00 -0.10109066243E+04  0.15693687324E+04  0.12004107694E+04 0.  0.
        2    1    3    3  502    0  0.58003725378E+03  0.34971860376E+02 -0.30899991051E+03  0.65813918854E+03  0.25500000920E-02 0.  1.
       -2    1    3    3    0  502 -0.58003725378E+03 -0.34971860376E+02 -0.70190671374E+03  0.91122954385E+03  0.25500000920E-02 0. -1.
</event>
<event>
 5   0  0.3832662E-04  0.1200018E+04  0.7818609E-02  0.9112841E-01
        2   -1    0    0  501    0  0.00000000000E+00  0.00000000000E+00  0.20115669980E+04  0.20115669980E+04  0.25500000920E-02 0.  1.
       -2   -1    0    0    0  501  0.00000000000E+00  0.00000000000E+00 -0.17897019371E+03  0.17897019372E+03  0.25500000920E-02 0. -1.
    10030    2    1    2    0    0  0.00000000000E+00  0.00000000000E+00  0.18325968043E+04  0.21905371917E+04  0.12000175587E+04 0.  0.
        4    1    3    3  502    0 -0.57073697834E+03 -0.28252561178E+02  0.58234106050E+03  0.81588089161E+03  0.12699999809E+01 0. -1.
       -4    1    3    3    0  502  0.57073697834E+03  0.28252561178E+02  0.12502557438E+04  0.13746563001E+04  0.12699999809E+01 0.  1.
</event>
<event>
 5   0  0.2315038E-04  0.1194829E+04  0.7818609E-02  0.9117395E-01
        1   -1    0    0  501    0  0.00000000000E+00  0.00000000000E+00  0.31774542662E+03  0.31774542666E+03  0.50400001928E-02 0. -1.
       -1   -1    0    0    0  501  0.00000000000E+00  0.00000000000E+00 -0.11232392337E+04  0.11232392338E+04  0.50400001928E-02 0.  1.
    10030    2    1    2    0    0  0.00000000000E+00  0.00000000000E+00 -0.80549380713E+03  0.14409846604E+04  0.11948290749E+04 0.  0.
        1    1    3    3  502    0  0.58994730677E+03 -0.36771180830E+02 -0.50728979749E+03  0.77893060228E+03  0.50400001928E-02 0. -1.
       -1    1    3    3    0  502 -0.58994730677E+03  0.36771180830E+02 -0.29820400965E+03  0.66205405814E+03  0.50400001928E-02 0.  1.
</event>
<event>
 5   0  0.2340731E-04  0.1201511E+04  0.7818609E-02  0.9111535E-01
       -1   -1    0    0    0  501  0.00000000000E+00  0.00000000000E+00  0.23185282266E+03  0.23185282271E+03  0.50400001928E-02 0.  1.
        1   -1    0    0  501    0  0.00000000000E+00  0.00000000000E+00 -0.15566218177E+04  0.15566218177E+04  0.50400001928E-02 0. -1.
    10030    2    1    2    0    0  0.00000000000E+00  0.00000000000E+00 -0.13247689950E+04  0.17884746404E+04  0.12015109859E+04 0.  0.
        3    1    3    3  502    0  0.49001799886E+02  0.20583746552E+03 -0.14993212603E+04  0.15141778265E+04  0.10100000352E+00 0. -1.
       -3    1    3    3    0  502 -0.49001799886E+02 -0.20583746552E+03  0.17455226525E+03  0.27429681389E+03  0.10100000352E+00 0.  1.
</event>
<event>
 5   0  0.3883890E-04  0.1205166E+04  0.7818609E-02  0.9108346E-01
       -2   -1    0    0    0  501  0.00000000000E+00  0.00000000000E+00  0.40806141380E+03  0.40806141381E+03  0.25500000920E-02 0.  1.
        2   -1    0    0  501    0  0.00000000000E+00  0.00000000000E+00 -0.88983292535E+03  0.88983292535E+03  0.25500000920E-02 0. -1.
    10030    2    1    2    0    0  0.00000000000E+00  0.00000000000E+00 -0.48177151155E+03  0.12978943392E+04  0.12051663480E+04 0.  0.
        2    1    3    3  502    0 -0.23290499916E+02 -0.29652724404E+03 -0.80526467055E+03  0.85844163662E+03  0.25500000920E-02 0. -1.
       -2    1    3    3    0  502  0.23290499916E+02  0.29652724404E+03  0.32349315900E+03  0.43945270254E+03  0.25500000920E-02 0.  1.
</event>
<event>
 5   0  0.1541375E-04  0.1200737E+04  0.7818609E-02  0.9112212E-01
       -3   -1    0    0    0  501  0.00000000000E+00  0.00000000000E+00  0.47584420221E+03  0.47584421293E+03  0.10100000352E+00 0.  1.
        3   -1    0    0  501    0  0.00000000000E+00  0.00000000000E+00 -0.75747990258E+03  0.75747990931E+03  0.10100000352E+00 0. -1.
    10030    2    1    2    0    0  0.00000000000E+00  0.00000000000E+00 -0.28163570037E+03  0.12333241222E+04  0.12007371581E+04 0.  0.
        5    1    3    3  502    0  0.58711429238E+03  0.10788172245E+03 -0.75220058902E+02  0.60168247907E+03  0.46999998093E+01 0.  1.
       -5    1    3    3    0  502 -0.58711429238E+03 -0.10788172245E+03 -0.20641564146E+03  0.63164164318E+03  0.46999998093E+01 0. -1.
</event>
<event>
 5   0  0.2204090E-04  0.1199257E+04  0.7818609E-02  0.9113507E-01
        1   -1    0    0  501    0  0.00000000000E+00  0.00000000000E+00  0.76464731019E+03  0.76464731021E+03  0.50400001928E-02 0.  1.
       -1   -1    0    0    0  501  0.00000000000E+00  0.00000000000E+00 -0.47022282514E+03  0.47022282517E+03  0.50400001928E-02 0. -1.
    10030    2    1    2    0    0  0.00000000000E+00  0.00000000000E+00  0.29442448505E+03  0.12348701354E+04  0.11992574677E+04 0.  0.
        2    1    3    3  502    0  0.58538903790E+02  0.56766023727E+03  0.33677042133E+03  0.66263056443E+03  0.25500000920E-02 0.  1.
       -2    1    3    3    0  502 -0.58538903790E+02 -0.56766023727E+03 -0.42345936277E+02  0.57223957095E+03  0.25500000920E-02 0. -1.
</event>
<event>
 5   0  0.2204090E-04  0.1199694E+04  0.7818609E-02  0.9113124E-01
        1   -1    0    0  501    0  0.00000000000E+00  0.00000000000E+00  0.36967339003E+03  0.36967339006E+03  0.50400001928E-02 0. -1.
       -1   -1    0    0    0  501  0.00000000000E+00  0.00000000000E+00 -0.97333618563E+03  0.97333618564E+03  0.50400001928E-02 0.  1.
    10030    2    1    2    0    0  0.00000000000E+00  0.00000000000E+00 -0.60366279560E+03  0.13430095757E+04  0.11996941067E+04 0.  0.
        2    1    3    3  502    0  0.16095706046E+01  0.23567928180E+03  0.31566945351E+03  0.39394735496E+03  0.25500000920E-02 0. -1.
       -2    1    3    3    0  502 -0.16095706046E+01 -0.23567928180E+03 -0.91933224911E+03  0.94906222075E+03  0.25500000920E-02 0.  1.
</event>
<event>
 5   0  0.2304842E-04  0.1217751E+04  0.7818609E-02  0.9097459E-01
       -1   -1    0    0    0  501  0.00000000000E+00  0.00000000000E+00  0.43041496021E+03  0.43041496024E+03  0.50400001928E-02 0. -1.
        1   -1    0    0  501    0  0.00000000000E+00  0.00000000000E+00 -0.86133068151E+03  0.86133068152E+03  0.50400001928E-02 0.  1.
    10030    2    1    2    0    0  0.00000000000E+00  0.00000000000E+00 -0.43091572130E+03  0.12917456418E+04  0.12177513885E+04 0.  0.
        4    1    3    3  502    0 -0.45777887700E+03 -0.33966840450E+03 -0.44245091825E+03  0.72159583785E+03  0.12699999809E+01 0.  1.
       -4    1    3    3    0  502  0.45777887700E+03  0.33966840450E+03  0.11535196954E+02  0.57014980392E+03  0.12699999809E+01 0. -1.
</event>
<event>
 5   0  0.3883890E-04  0.1198759E+04  0.7818609E-02  0.9113944E-01
       -2   -1    0    0    0  501  0.00000000000E+00  0.00000000000E+00  0.57894594872E+03  0.57894594872E+03  0.25500000920E-02 0. -1.
        2   -1    0    0  501    0  0.00000000000E+00  0.00000000000E+00 -0.62053415926E+03  0.62053415926E+03  0.25500000920E-02 0.  1.
    10030    2    1    2    0    0  0.00000000000E+00  0.00000000000E+00 -0.41588210542E+02  0.11994801080E+04  0.11987589208E+04 0.  0.
        2    1    3    3  502    0 -0.48141360908E+03 -0.25393035686E+03  0.23038689235E+03  0.59103114074E+03  0.25500000920E-02 0. -1.
       -2    1    3    3    0  502  0.48141360908E+03  0.25393035686E+03 -0.27197510289E+03  0.60844896725E+03  0.25500000920E-02 0.  1.
</event>
<event>
 5   0  0.2315038E-04  0.1202647E+04  0.7818609E-02  0.9110543E-01
        1   -1    0    0  501    0  0.00000000000E+00  0.00000000000E+00  0.17158405375E+04  0.17158405375E+04  0.50400001928E-02 0.  1.
       -1   -1    0    0    0  501  0.00000000000E+00  0.00000000000E+00 -0.21073637830E+03  0.21073637836E+03  0.50400001928E-02 0. -1.
    10030    2    1    2    0    0  0.00000000000E+00  0.00000000000E+00  0.15051041592E+04  0.19265769158E+04  0.12026471148E+04 0.  0.
        1    1    3    3  502    0 -0.21452281670E+03 -0.18561434129E+03 -0.96808153561E+02  0.29974079002E+03  0.50400001928E-02 0. -1.
       -1    1    3    3    0  502  0.21452281670E+03  0.18561434129E+03  0.16019123127E+04  0.16268361258E+04  0.50400001928E-02 0.  1.
</event>
<event>
 5   0  0.3883890E-04  0.1200267E+04  0.7818609E-02  0.9112623E-01
       -2   -1    0    0    0  501  0.00000000000E+00  0.00000000000E+00  0.27268556888E+03  0.27268556889E+03  0.25500000920E-02 0. -1.
        2   -1    0    0  501    0  0.00000000000E+00  0.00000000000E+00 -0.13207902895E+04  0.13207902895E+04  0.25500000920E-02 0.  1.
    10030    2    1    2    0    0  0.00000000000E+00  0.00000000000E+00 -0.10481047206E+04  0.15934758584E+04  0.12002673893E+04 0.  0.
        2    1    3    3  502    0 -0.44985922284E+03 -0.30106154766E+03 -0.86807537771E+03  0.10230181999E+04  0.25500000920E-02 0.  1.
       -2    1    3    3    0  502  0.44985922284E+03  0.30106154766E+03 -0.18002934290E+03  0.57045765852E+03  0.25500000920E-02 0. -1.
</event>
<event>
 5   0  0.3883890E-04  0.1198189E+04  0.7818609E-02  0.9114443E-01
        2   -1    0    0  501    0  0.00000000000E+00  0.00000000000E+00  0.10642474610E+04  0.10642474610E+04  0.25500000920E-02 0.  1.
       -2   -1    0    0    0  501  0.00000000000E+00  0.00000000000E+00 -0.33724708841E+03  0.33724708842E+03  0.25500000920E-02 0. -1.
    10030    2    1    2    0    0  0.00000000000E+00  0.00000000000E+00  0.72700037259E+03  0.14014945494E+04  0.11981892298E+04 0.  0.
        2    1    3    3  502    0 -0.42143888126E+03 -0.44035138746E+02 -0.13187504455E+03  0.44378018372E+03  0.25500000920E-02 0. -1.
       -2    1    3    3    0  502  0.42143888126E+03  0.44035138746E+02  0.85887541714E+03  0.95771436569E+03  0.25500000920E-02 0.  1.
</event>
<event>
 5   0  0.3883890E-04  0.1201907E+04  0.7818609E-02  0.9111189E-01
       -2   -1    0    0    0  501  0.00000000000E+00  0.00000000000E+00  0.70443559836E+03  0.70443559837E+03  0.25500000920E-02 0. -1.
        2   -1    0    0  501    0  0.00000000000E+00  0.00000000000E+00 -0.51267312244E+03  0.51267312244E+03  0.25500000920E-02 0.  1.
    10030    2    1    2    0    0  0.00000000000E+00  0.00000000000E+00  0.19176247592E+03  0.12171087208E+04  0.12019071475E+04 0.  0.
        2    1    3    3  502    0  0.31811764311E+03 -0.90926175625E+01  0.61209699229E+03  0.68988712014E+03  0.25500000920E-02 0. -1.
       -2    1    3    3    0  502 -0.31811764311E+03  0.90926175625E+01 -0.42033451637E+03  0.52722160067E+03  0.25500000920E-02 0.  1.
</event>
<event>
 5   0  0.4024486E-04  0.1200898E+04  0.7818609E-02  0.9112071E-01
       -2   -1    0    0    0  501  0.00000000000E+00  0.00000000000E+00  0.63659301498E+03  0.63659301499E+03  0.25500000920E-02 0.  1.
        2   -1    0    0  501    0  0.00000000000E+00  0.00000000000E+00 -0.56635680579E+03  0.56635680579E+03  0.25500000920E-02 0. -1.
    10030    2    1    2    0    0  0.00000000000E+00  0.00000000000E+00  0.70236209198E+02  0.12029498208E+04  0.12008976419E+04 0.  0.
        1    1    3    3  502    0 -0.21157569699E+03 -0.14485822309E+03  0.57899215726E+03  0.63322989392E+03  0.50400001928E-02 0.  1.
       -1    1    3    3    0  502  0.21157569699E+03  0.14485822309E+03 -0.50875594806E+03  0.56971992687E+03  0.50400001928E-02 0. -1.
</event>
<event>
 5   0  0.2204090E-04  0.1220220E+04  0.7818609E-02  0.9095340E-01
       -1   -1    0    0    0  501  0.00000000000E+00  0.00000000000E+00  0.43229535202E+03  0.43229535205E+03  0.50400001928E-02 0. -1.
        1   -1    0    0  501    0  0.00000000000E+00  0.00000000000E+00 -0.86106391836E+03  0.86106391838E+03  0.50400001928E-02 0.  1.
    10030    2    1    2    0    0  0.00000000000E+00  0.00000000000E+00 -0.42876856634E+03  0.12933592704E+04  0.12202195372E+04 0.  0.
        2    1    3    3  502    0  0.11321862123E+03  0.10214446993E+03 -0.84054051564E+03  0.85426009351E+03  0.25500000920E-02 0.  1.
       -2    1    3    3    0  502 -0.11321862123E+03 -0.10214446993E+03  0.41177194930E+03  0.43909917692E+03  0.25500000920E-02 0. -1.
</event>
<event>
 5   0  0.3832662E-04  0.1198630E+04  0.7818609E-02  0.9114057E-01
        2   -1    0    0  501    0  0.00000000000E+00  0.00000000000E+00  0.40751513121E+03  0.40751513122E+03  0.25500000920E-02 0. -1.
       -2   -1    0    0    0  501  0.00000000000E+00  0.00000000000E+00 -0.88138670545E+03  0.88138670545E+03  0.25500000920E-02 0.  1.
    10030    2    1    2    0    0  0.00000000000E+00  0.00000000000E+00 -0.47387157423E+03  0.12889018367E+04  0.11986299161E+04 0.  0.
        4    1    3    3  502    0  0.15078342443E+02 -0.59212533583E+03 -0.33511975420E+03  0.68054877290E+03  0.12699999809E+01 0.  1.
       -4    1    3    3    0  502 -0.15078342443E+02  0.59212533583E+03 -0.13875182003E+03  0.60835306377E+03  0.12699999809E+01 0. -1.
</event>
<event>
 5   0  0.4122956E-04  0.1202231E+04  0.7818609E-02  0.9110906E-01
        2   -1    0    0  501    0  0.00000000000E+00  0.00000000000E+00  0.70083974245E+03  0.70083974246E+03  0.25500000920E-02 0.  1.
       -2   -1    0    0    0  501  0.00000000000E+00  0.00000000000E+00 -0.51558139913E+03  0.51558139913E+03  0.25500000920E-02 0. -1.
    10030    2    1    2    0    0  0.00000000000E+00  0.00000000000E+00  0.18525834333E+03  0.12164211416E+04  0.12022311508E+04 0.  0.
        5    1    3    3  502    0 -0.37771745373E+03 -0.14964252126E+03  0.54086418637E+03  0.67647580675E+03  0.46999998093E+01 0.  1.
       -5    1    3    3    0  502  0.37771745373E+03  0.14964252126E+03 -0.35560584304E+03  0.53994533485E+03  0.46999998093E+01 0. -1.
</event>
<event>
 5   0  0.2340731E-04  0.1199635E+04  0.7818609E-02  0.9113176E-01
       -1   -1    0    0    0  501  0.00000000000E+00  0.00000000000E+00  0.27289550177E+03  0.27289550182E+03  0.50400001928E-02 0. -1.
        1   -1    0    0  501    0  0.00000000000E+00  0.00000000000E+00 -0.13183840403E+04  0.13183840403E+04  0.50400001928E-02 0.  1.
    10030    2    1    2    0    0  0.00000000000E+00  0.00000000000E+00 -0.10454885385E+04  0.15912795421E+04  0.11996350682E+04 0.  0.
        3    1    3    3  502    0 -0.20907432457E+03  0.28430525343E+03 -0.11661019100E+04  0.12183329697E+04  0.10100000352E+00 0.  1.
       -3    1    3    3    0  502  0.20907432457E+03 -0.28430525343E+03  0.12061337146E+03  0.37294657244E+03  0.10100000352E+00 0. -1.
</event>
<event>
 5   0  0.4122956E-04  0.1200124E+04  0.7818609E-02  0.9112748E-01
       -2   -1    0    0    0  501  0.00000000000E+00  0.00000000000E+00  0.43487994894E+03  0.43487994895E+03  0.25500000920E-02 0. -1.
        2   -1    0    0  501    0  0.00000000000E+00  0.00000000000E+00 -0.82798614798E+03  0.82798614798E+03  0.25500000920E-02 0.  1.
    10030    2    1    2    0    0  0.00000000000E+00  0.00000000000E+00 -0.39310619904E+03  0.12628660969E+04  0.12001242832E+04 0.  0.
        5    1    3    3  502    0 -0.21597600116E+03 -0.20666245606E+03  0.35093311381E+03  0.46101100224E+03  0.46999998093E+01 0. -1.
       -5    1    3    3    0  502  0.21597600116E+03  0.20666245606E+03 -0.74403931285E+03  0.80185509469E+03  0.46999998093E+01 0.  1.
</event>
<event>
 5   0  0.2244308E-04  0.1200019E+04  0.7818609E-02  0.9112840E-01
       -1   -1    0    0    0  501  0.00000000000E+00  0.00000000000E+00  0.71873229513E+03  0.71873229515E+03  0.50400001928E-02 0. -1.
        1   -1    0    0  501    0  0.00000000000E+00  0.00000000000E+00 -0.50089786367E+03  0.50089786370E+03  0.50400001928E-02 0.  1.
    10030    2    1    2    0    0  0.00000000000E+00  0.00000000000E+00  0.21783443146E+03  0.12196301589E+04  0.12000191185E+04 0.  0.
        5    1    3    3  502    0  0.55504111459E+03 -0.21042380852E+03  0.20078417680E+02  0.59394785203E+03  0.46999998093E+01 0.  1.
       -5    1    3    3    0  502 -0.55504111459E+03  0.21042380852E+03  0.19775601378E+03  0.62568230682E+03  0.46999998093E+01 0. -1.
</event>
<event>
 5   0  0.4122956E-04  0.1198285E+04  0.7818609E-02  0.9114359E-01
       -2   -1    0    0    0  501  0.00000000000E+00  0.00000000000E+00  0.44108870790E+03  0.44108870791E+03  0.25500000920E-02 0.  1.
        2   -1    0    0  501    0  0.00000000000E+00  0.00000000000E+00 -0.81383094925E+03  0.81383094925E+03  0.25500000920E-02 0. -1.
    10030    2    1    2    0    0  0.00000000000E+00  0.00000000000E+00 -0.37274224135E+03  0.12549196572E+04  0.11982848440E+04 0.  0.
        5    1    3    3  502    0 -0.14337429654E+03  0.24399591815E+03  0.36665859156E+03  0.46319629721E+03  0.46999998093E+01 0.  1.
       -5    1    3    3    0  502  0.14337429654E+03 -0.24399591815E+03 -0.73940083292E+03  0.79172335995E+03  0.46999998093E+01 0. -1.
</event>
<event>
 5   0  0.3883890E-04  0.1200683E+04  0.7818609E-02  0.9112259E-01
        2   -1    0    0  501    0  0.00000000000E+00  0.00000000000E+00  0.59197135098E+03  0.59197135099E+03  0.25500000920E-02 0.  1.
       -2   -1    0    0    0  501  0.00000000000E+00  0.00000000000E+00 -0.60883038597E+03  0.60883038598E+03  0.25500000920E-02 0. -1.
    10030    2    1    2    0    0  0.00000000000E+00  0.00000000000E+00 -0.16859034989E+02  0.12008017370E+04  0.12006833823E+04 0.  0.
        2    1    3    3  502    0  0.38499057946E+02 -0.29927147572E+02 -0.60684653133E+03  0.60880253302E+03  0.25500000920E-02 0. -1.
       -2    1    3    3    0  502 -0.38499057946E+02  0.29927147572E+02  0.58998749634E+03  0.59199920394E+03  0.25500000920E-02 0.  1.
</event>
<event>
 5   0  0.2315038E-04  0.1199446E+04  0.7818609E-02  0.9113341E-01
       -1   -1    0    0    0  501  0.00000000000E+00  0.00000000000E+00  0.38615490290E+03  0.38615490293E+03  0.50400001928E-02 0. -1.
        1   -1    0    0  501    0  0.00000000000E+00  0.00000000000E+00 -0.93140849584E+03  0.93140849585E+03  0.50400001928E-02 0.  1.
    10030    2    1    2    0    0  0.00000000000E+00  0.00000000000E+00 -0.54525359294E+03  0.13175633988E+04  0.11994464678E+04 0.  0.
        1    1    3    3  502    0  0.59528876873E+03  0.44617202636E+02 -0.33581108951E+03  0.68492955901E+03  0.50400001928E-02 0. -1.
       -1    1    3    3    0  502 -0.59528876873E+03 -0.44617202636E+02 -0.20944250343E+03  0.63263383977E+03  0.50400001928E-02 0.  1.
</event>
<event>
 5   0  0.2315038E-04  0.1199998E+04  0.7818609E-02  0.9112859E-01
       -1   -1    0    0    0  501  0.00000000000E+00  0.00000000000E+00  0.18626142944E+03  0.18626142951E+03  0.50400001928E-02 0.  1.
        1   -1    0    0  501    0  0.00000000000E+00  0.00000000000E+00 -0.19327596121E+04  0.19327596121E+04  0.50400001928E-02 0. -1.
    10030    2    1    2    0    0  0.00000000000E+00  0.00000000000E+00 -0.17464981827E+04  0.21190210417E+04  0.11999976137E+04 0.  0.
        1    1    3    3  502    0  0.28358707189E+03  0.52606067201E+03 -0.96730649563E+03  0.11370326796E+04  0.50400001928E-02 0. -1.
       -1    1    3    3    0  502 -0.28358707189E+03 -0.52606067201E+03 -0.77919168706E+03  0.98198836205E+03  0.50400001928E-02 0.  1.
</event>
<event>
 5   0  0.3832662E-04  0.1199581E+04  0.7818609E-02  0.9113223E-01
       -2   -1    0    0    0  501  0.00000000000E+00  0.00000000000E+00  0.18055422363E+03  0.18055422364E+03  0.25500000920E-02 0.  1.
        2   -1    0    0  501    0  0.00000000000E+00  0.00000000000E+00 -0.19924684900E+04  0.19924684900E+04  0.25500000920E-02 0. -1.
    10030    2    1    2    0    0  0.00000000000E+00  0.00000000000E+00 -0.18119142664E+04  0.21730227136E+04  0.11995809290E+04 0.  0.
        4    1    3    3  502    0 -0.11721213481E+03 -0.27899039889E+03  0.32127375067E+02  0.30431580364E+03  0.12699999809E+01 0.  1.
       -4    1    3    3    0  502  0.11721213481E+03  0.27899039889E+03 -0.18440416414E+04  0.18687069100E+04  0.12699999809E+01 0. -1.
</event>
<event>
 5   0  0.3832662E-04  0.1198502E+04  0.7818609E-02  0.9114169E-01
        2   -1    0    0  501    0  0.00000000000E+00  0.00000000000E+00  0.78979721119E+03  0.78979721120E+03  0.25500000920E-02 0.  1.
       -2   -1    0    0    0  501  0.00000000000E+00  0.00000000000E+00 -0.45467575123E+03  0.45467575124E+03  0.25500000920E-02 0. -1.
    10030    2    1    2    0    0  0.00000000000E+00  0.00000000000E+00  0.33512145996E+03  0.12444729624E+04  0.11985017986E+04 0.  0.
        4    1    3    3  502    0 -0.10527621576E+03  0.20525441369E+03  0.74184601858E+03  0.77688453719E+03  0.12699999809E+01 0.  1.
       -4    1    3    3    0  502  0.10527621576E+03 -0.20525441369E+03 -0.40672455861E+03  0.46758842524E+03  0.12699999809E+01 0. -1.
</event>
<event>
 5   0  0.4024486E-04  0.1201729E+04  0.7818609E-02  0.9111345E-01
        2   -1    0    0  501    0  0.00000000000E+00  0.00000000000E+00  0.43668340201E+03  0.43668340201E+03  0.25500000920E-02 0. -1.
       -2   -1    0    0    0  501  0.00000000000E+00  0.00000000000E+00 -0.82677320910E+03  0.82677320911E+03  0.25500000920E-02 0.  1.
    10030    2    1    2    0    0  0.00000000000E+00  0.00000000000E+00 -0.39008980710E+03  0.12634566111E+04  0.12017289838E+04 0.  0.
        1    1    3    3  502    0  0.40301352213E+03  0.38337269236E+03 -0.43397019460E+03  0.70549603124E+03  0.50400001928E-02 0.  1.
       -1    1    3    3    0  502 -0.40301352213E+03 -0.38337269236E+03  0.43880387505E+02  0.55796057988E+03  0.50400001928E-02 0. -1.
</event>
<event>
 5   0  0.4122956E-04  0.1200849E+04  0.7818609E-02  0.9112114E-01
       -2   -1    0    0    0  501  0.00000000000E+00  0.00000000000E+00  0.32235256792E+03  0.32235256793E+03  0.25500000920E-02 0.  1.
        2   -1    0    0  501    0  0.00000000000E+00  0.00000000000E+00 -0.11183704176E+04  0.11183704176E+04  0.25500000920E-02 0. -1.
    10030    2    1    2    0    0  0.00000000000E+00  0.00000000000E+00 -0.79601784964E+03  0.14407229855E+04  0.12008489930E+04 0.  0.
        5    1    3    3  502    0 -0.55259435474E+03 -0.78245901008E+02 -0.13241981498E+03  0.57362011760E+03  0.46999998093E+01 0.  1.
       -5    1    3    3    0  502  0.55259435474E+03  0.78245901008E+02 -0.66359803466E+03  0.86710286790E+03  0.46999998093E+01 0. -1.
</event>
<event>
 5   0  0.2340731E-04  0.1195175E+04  0.7818609E-02  0.9117090E-01
        1   -1    0    0  501    0  0.00000000000E+00  0.00000000000E+00  0.75522137754E+03  0.75522137756E+03  0.50400001928E-02 0.  1.
       -1   -1    0    0    0  501  0.00000000000E+00  0.00000000000E+00 -0.47285615943E+03  0.47285615945E+03  0.50400001928E-02 0. -1.
    10030    2    1    2    0    0  0.00000000000E+00  0.00000000000E+00  0.28236521811E+03  0.12280775370E+04  0.11951754350E+04 0.  0.
        3    1    3    3  502    0 -0.34817745360E+03  0.40972802550E+03 -0.12677695609E+03  0.55242827668E+03  0.10100000352E+00 0. -1.
       -3    1    3    3    0  502  0.34817745360E+03 -0.40972802550E+03  0.40914217420E+03  0.67564926033E+03  0.10100000352E+00 0.  1.
</event>
<event>
 5   0  0.2315038E-04  0.1198969E+04  0.7818609E-02  0.9113759E-01
        1   -1    0    0  501    0  0.00000000000E+00  0.00000000000E+00  0.57791406322E+03  0.57791406324E+03  0.50400001928E-02 0.  1.
       -1   -1    0    0    0  501  0.00000000000E+00  0.00000000000E+00 -0.62186038014E+03  0.62186038016E+03  0.50400001928E-02 0. -1.
    10030    2    1    2    0    0  0.00000000000E+00  0.00000000000E+00 -0.43946316923E+02  0.11997744434E+04  0.11989693225E+04 0.  0.
        1    1    3    3  502    0  0.34744394772E+03 -0.36995473017E+03 -0.34124549169E+03  0.61158178914E+03  0.50400001928E-02 0.  1.
       -1    1    3    3    0  502 -0.34744394772E+03  0.36995473017E+03  0.29729917477E+03  0.58819265426E+03  0.50400001928E-02 0. -1.
</event>
<event>
 5   0  0.3883890E-04  0.1201335E+04  0.7818609E-02  0.9111689E-01
       -2   -1    0    0    0  501  0.00000000000E+00  0.00000000000E+00  0.17502997449E+03  0.17502997451E+03  0.25500000920E-02 0.  1.
        2   -1    0    0  501    0  0.00000000000E+00  0.00000000000E+00 -0.20613686559E+04  0.20613686559E+04  0.25500000920E-02 0. -1.
    10030    2    1    2    0    0  0.00000000000E+00  0.00000000000E+00 -0.18863386814E+04  0.22363986304E+04  0.12013347631E+04 0.  0.
        2    1    3    3  502    0 -0.32200182633E+03 -0.17935070322E+03 -0.60236555800E+02  0.37347060603E+03  0.25500000920E-02 0. -1.
       -2    1    3    3    0  502  0.32200182633E+03  0.17935070322E+03 -0.18261021256E+04  0.18629280244E+04  0.25500000920E-02 0.  1.
</event>
<event>
 5   0  0.2244308E-04  0.1198699E+04  0.7818609E-02  0.9113996E-01
       -1   -1    0    0    0  501  0.00000000000E+00  0.00000000000E+00  0.36803247999E+03  0.36803248002E+03  0.50400001928E-02 0. -1.
        1   -1    0    0  501    0  0.00000000000E+00  0.00000000000E+00 -0.97605429864E+03  0.97605429865E+03  0.50400001928E-02 0.  1.
    10030    2    1    2    0    0  0.00000000000E+00  0.00000000000E+00 -0.60802181864E+03  0.13440867787E+04  0.11986987681E+04 0.  0.
        5    1    3    3  502    0  0.21983039982E+03 -0.69583416932E+02 -0.92430763797E+03  0.95264576638E+03  0.46999998093E+01 0.  1.
       -5    1    3    3    0  502 -0.21983039982E+03  0.69583416932E+02  0.31628581933E+03  0.39144101229E+03  0.46999998093E+01 0. -1.
</event>
<event>
 5   0  0.2315038E-04  0.1200761E+04  0.7818609E-02  0.9112191E-01
        1   -1    0    0  501    0  0.00000000000E+00  0.00000000000E+00  0.18358469267E+04  0.18358469267E+04  0.50400001928E-02 0. -1.
       -1   -1    0    0    0  501  0.00000000000E+00  0.00000000000E+00 -0.19634357676E+03  0.19634357683E+03  0.50400001928E-02 0.  1.
    10030    2    1    2    0    0  0.00000000000E+00  0.00000000000E+00  0.16395033500E+04  0.20321905036E+04  0.12007610121E+04 0.  0.
        1    1    3    3  502    0  0.46576681515E+02 -0.16460451527E+03  0.17937276161E+04  0.18018664753E+04  0.50400001928E-02 0. -1.
       -1    1    3    3    0  502 -0.46576681515E+02  0.16460451527E+03 -0.15422426618E+03  0.23032402830E+03  0.50400001928E-02 0.  1.
</event>
<event>
 5   0  0.2204090E-04  0.1202824E+04  0.7818609E-02  0.9110389E-01
        1   -1    0    0  501    0  0.00000000000E+00  0.00000000000E+00  0.17165442487E+04  0.17165442487E+04  0.50400001928E-02 0.  1.
       -1   -1    0    0    0  501  0.00000000000E+00  0.00000000000E+00 -0.21071184886E+03  0.21071184892E+03  0.50400001928E-02 0. -1.
    10030    2    1    2    0    0  0.00000000000E+00  0.00000000000E+00  0.15058323998E+04  0.19272560976E+04  0.12028236984E+04 0.  0.
        2    1    3    3  502    0  0.28653600742E+03 -0.28572446515E+03  0.40029462270E+02  0.40662477961E+03  0.25500000920E-02 0. -1.
       -2    1    3    3    0  502 -0.28653600742E+03  0.28572446515E+03  0.14658029375E+04  0.15206313180E+04  0.25500000920E-02 0.  1.
</event>
<event>
 5   0  0.3883890E-04  0.1200036E+04  0.7818609E-02  0.9112825E-01
       -2   -1    0    0    0  501  0.00000000000E+00  0.00000000000E+00  0.34108107083E+03  0.34108107084E+03  0.25500000920E-02 0. -1.
        2   -1    0    0  501    0  0.00000000000E+00  0.00000000000E+00 -0.10555317184E+04  0.10555317184E+04  0.25500000920E-02 0.  1.
    10030    2    1    2    0    0  0.00000000000E+00  0.00000000000E+00 -0.71445064761E+03  0.13966127893E+04  0.12000364808E+04 0.  0.
        2    1    3    3  502    0 -0.26856648307E+03 -0.37799354861E+03  0.85962423723E+02  0.47158945802E+03  0.25500000920E-02 0. -1.
       -2    1    3    3    0  502  0.26856648307E+03  0.37799354861E+03 -0.80041307134E+03  0.92502333127E+03  0.25500000920E-02 0.  1.
</event>
<event>
 5   0  0.3993723E-04  0.1202710E+04  0.7818609E-02  0.9110488E-01
       -2   -1    0    0    0  501  0.00000000000E+00  0.00000000000E+00  0.18818419024E+03  0.18818419026E+03  0.25500000920E-02 0. -1.
        2   -1    0    0  501    0  0.00000000000E+00  0.00000000000E+00 -0.19216682871E+04  0.19216682871E+04  0.25500000920E-02 0.  1.
    10030    2    1    2    0    0  0.00000000000E+00  0.00000000000E+00 -0.17334840969E+04  0.21098524774E+04  0.12027095918E+04 0.  0.
        3    1    3    3  502    0 -0.11400814023E+03 -0.22111101737E+03 -0.18271669415E+04  0.18440246692E+04  0.10100000352E+00 0.  1.
       -3    1    3    3    0  502  0.11400814023E+03  0.22111101737E+03  0.93682844654E+02  0.26582780822E+03  0.10100000352E+00 0. -1.
</event>
<event>
 5   0  0.2244308E-04  0.1200818E+04  0.7818609E-02  0.9112141E-01
        1   -1    0    0  501    0  0.00000000000E+00  0.00000000000E+00  0.93860677372E+03  0.93860677373E+03  0.50400001928E-02 0.  1.
       -1   -1    0    0    0  501  0.00000000000E+00  0.00000000000E+00 -0.38407040146E+03  0.38407040149E+03  0.50400001928E-02 0. -1.
    10030    2    1    2    0    0  0.00000000000E+00  0.00000000000E+00  0.55453637227E+03  0.13226771752E+04  0.12008181884E+04 0.  0.
        5    1    3    3  502    0  0.53513064454E+03 -0.24252089925E+03  0.41345938949E+03  0.71843715804E+03  0.46999998093E+01 0.  1.
       -5    1    3    3    0  502 -0.53513064454E+03  0.24252089925E+03  0.14107698278E+03  0.60424001718E+03  0.46999998093E+01 0. -1.
</event>
<event>
 5   0  0.2315038E-04  0.1200069E+04  0.7818609E-02  0.9112796E-01
       -1   -1    0    0    0  501  0.00000000000E+00  0.00000000000E+00  0.34240180164E+03  0.34240180167E+03  0.50400001928E-02 0.  1.
        1   -1    0    0  501    0  0.00000000000E+00  0.00000000000E+00 -0.10515168877E+04  0.10515168877E+04  0.50400001928E-02 0. -1.
    10030    2    1    2    0    0  0.00000000000E+00  0.00000000000E+00 -0.70911508607E+03  0.13939186894E+04  0.12000687928E+04 0.  0.
        1    1    3    3  502    0  0.59678055947E+03  0.59365840930E+02 -0.33221690754E+03  0.68559420426E+03  0.50400001928E-02 0. -1.
       -1    1    3    3    0  502 -0.59678055947E+03 -0.59365840930E+02 -0.37689817853E+03  0.70832448513E+03  0.50400001928E-02 0.  1.
</event>
<event>
 5   0  0.2340731E-04  0.1201152E+04  0.7818609E-02  0.9111849E-01
       -1   -1    0    0    0  501  0.00000000000E+00  0.00000000000E+00  0.13690241852E+04  0.13690241852E+04  0.50400001928E-02 0.  1.
        1   -1    0    0  501    0  0.00000000000E+00  0.00000000000E+00 -0.26346624754E+03  0.26346624759E+03  0.50400001928E-02 0. -1.
    10030    2    1    2    0    0  0.00000000000E+00  0.00000000000E+00  0.11055579377E+04  0.16324904328E+04  0.12011522217E+04 0.  0.
        3    1    3    3  502    0 -0.25556722682E+03  0.92556332817E+02  0.12806426049E+04  0.13091702616E+04  0.10100000352E+00 0.  1.
       -3    1    3    3    0  502  0.25556722682E+03 -0.92556332817E+02 -0.17508466727E+03  0.32332017117E+03  0.10100000352E+00 0. -1.
</event>
<event>
 5   0  0.4122956E-04  0.1183253E+04  0.7818609E-02  0.9127643E-01
        2   -1    0    0  501    0  0.00000000000E+00  0.00000000000E+00  0.10669631510E+04  0.10669631510E+04  0.25500000920E-02 0. -1.
       -2   -1    0    0    0  501  0.00000000000E+00  0.00000000000E+00 -0.32805439152E+03  0.32805439153E+03  0.25500000920E-02 0.  1.
    10030    2    1    2    0    0  0.00000000000E+00  0.00000000000E+00  0.73890875948E+03  0.13950175425E+04  0.11832530537E+04 0.  0.
        5    1    3    3  502    0  0.31003009890E+03  0.12250856204E+03 -0.20676177256E+03  0.39230030664E+03  0.46999998093E+01 0.  1.
       -5    1    3    3    0  502 -0.31003009890E+03 -0.12250856204E+03  0.94567053204E+03  0.10027172359E+04  0.46999998093E+01 0. -1.
</event>
<event>
 5   0  0.2244308E-04  0.1196129E+04  0.7818609E-02  0.9116251E-01
       -1   -1    0    0    0  501  0.00000000000E+00  0.00000000000E+00  0.22077834906E+03  0.22077834912E+03  0.50400001928E-02 0. -1.
        1   -1    0    0  501    0  0.00000000000E+00  0.00000000000E+00 -0.16200923935E+04  0.16200923935E+04  0.50400001928E-02 0.  1.
    10030    2    1    2    0    0  0.00000000000E+00  0.00000000000E+00 -0.13993140445E+04  0.18408707427E+04  0.11961292974E+04 0.  0.
        5    1    3    3  502    0  0.12717084704E+03 -0.50527037132E+03 -0.11514819999E+04  0.12638842742E+04  0.46999998093E+01 0.  1.
       -5    1    3    3    0  502 -0.12717084704E+03  0.50527037132E+03 -0.24783204457E+03  0.57698646846E+03  0.46999998093E+01 0. -1.
</event>
<event>
 5   0  0.3883890E-04  0.1202586E+04  0.7818609E-02  0.9110596E-01
        2   -1    0    0  501    0  0.00000000000E+00  0.00000000000E+00  0.10794047441E+04  0.10794047441E+04  0.25500000920E-02 0. -1.
       -2   -1    0    0    0  501  0.00000000000E+00  0.00000000000E+00 -0.33495610663E+03  0.33495610664E+03  0.25500000920E-02 0.  1.
    10030    2    1    2    0    0  0.00000000000E+00  0.00000000000E+00  0.74444863748E+03  0.14143608508E+04  0.12025858981E+04 0.  0.
        2    1    3    3  502    0  0.62062587354E+02  0.54545512137E+03  0.83707738556E+02  0.55531976345E+03  0.25500000920E-02 0.  1.
       -2    1    3    3    0  502 -0.62062587354E+02 -0.54545512137E+03  0.66074089893E+03  0.85904108732E+03  0.25500000920E-02 0. -1.
</event>
<event>
 5   0  0.3883890E-04  0.1200350E+04  0.7818609E-02  0.9112551E-01
       -2   -1    0    0    0  501  0.00000000000E+00  0.00000000000E+00  0.31732672813E+03  0.31732672814E+03  0.25500000920E-02 0.  1.
        2   -1    0    0  501    0  0.00000000000E+00  0.00000000000E+00 -0.11351386367E+04  0.11351386367E+04  0.25500000920E-02 0. -1.
    10030    2    1    2    0    0  0.00000000000E+00  0.00000000000E+00 -0.81781190858E+03  0.14524653649E+04  0.12003496650E+04 0.  0.
        2    1    3    3  502    0  0.24068531190E+03  0.12368271365E+03 -0.10571314261E+04  0.10912166078E+04  0.25500000920E-02 0. -1.
       -2    1    3    3    0  502 -0.24068531190E+03 -0.12368271365E+03  0.23931951752E+03  0.36124875708E+03  0.25500000920E-02 0.  1.
</event>
<event>
 5   0  0.4122956E-04  0.1190280E+04  0.7818609E-02  0.9121407E-01
       -2   -1    0    0    0  501  0.00000000000E+00  0.00000000000E+00  0.39939122211E+03  0.39939122211E+03  0.25500000920E-02 0.  1.
        2   -1    0    0  501    0  0.00000000000E+00  0.00000000000E+00 -0.88682852238E+03  0.88682852238E+03  0.25500000920E-02 0. -1.
    10030    2    1    2    0    0  0.00000000000E+00  0.00000000000E+00 -0.48743730027E+03  0.12862197445E+04  0.11902798450E+04 0.  0.
        5    1    3    3  502    0 -0.20753300807E+03  0.14138853275E+03 -0.82675245659E+03  0.86406156095E+03  0.46999998093E+01 0. -1.
       -5    1    3    3    0  502  0.20753300807E+03 -0.14138853275E+03  0.33931515631E+03  0.42215818355E+03  0.46999998093E+01 0.  1.
</event>
<event>
 5   0  0.4024486E-04  0.1202935E+04  0.7818609E-02  0.9110291E-01
       -2   -1    0    0    0  501  0.00000000000E+00  0.00000000000E+00  0.61859678303E+03  0.61859678304E+03  0.25500000920E-02 0. -1.
        2   -1    0    0  501    0  0.00000000000E+00  0.00000000000E+00 -0.58481267928E+03  0.58481267928E+03  0.25500000920E-02 0.  1.
    10030    2    1    2    0    0  0.00000000000E+00  0.00000000000E+00  0.33784103757E+02  0.12034094623E+04  0.12029351472E+04 0.  0.
        1    1    3    3  502    0  0.32303225704E+03  0.12528590537E+03  0.50873298093E+03  0.61551250441E+03  0.50400001928E-02 0. -1.
       -1    1    3    3    0  502 -0.32303225704E+03 -0.12528590537E+03 -0.47494887717E+03  0.58789695791E+03  0.50400001928E-02 0.  1.
</event>
<event>
 5   0  0.3883890E-04  0.1206986E+04  0.7818609E-02  0.9106763E-01
        2   -1    0    0  501    0  0.00000000000E+00  0.00000000000E+00  0.88612353922E+03  0.88612353922E+03  0.25500000920E-02 0.  1.
       -2   -1    0    0    0  501  0.00000000000E+00  0.00000000000E+00 -0.41100822123E+03  0.41100822124E+03  0.25500000920E-02 0. -1.
    10030    2    1    2    0    0  0.00000000000E+00  0.00000000000E+00  0.47511531799E+03  0.12971317605E+04  0.12069864285E+04 0.  0.
        2    1    3    3  502    0  0.47483361473E+03 -0.34681432302E+03  0.38356051800E+03  0.70204402092E+03  0.25500000920E-02 0. -1.
       -2    1    3    3    0  502 -0.47483361473E+03  0.34681432302E+03  0.91554799982E+02  0.59508773953E+03  0.25500000920E-02 0.  1.
</event>
<event>
 5   0  0.4024486E-04  0.1195782E+04  0.7818609E-02  0.9116557E-01
       -2   -1    0    0    0  501  0.00000000000E+00  0.00000000000E+00  0.50238148593E+03  0.50238148594E+03  0.25500000920E-02 0. -1.
        2   -1    0    0  501    0  0.00000000000E+00  0.00000000000E+00 -0.71155786985E+03  0.71155786985E+03  0.25500000920E-02 0.  1.
    10030    2    1    2    0    0  0.00000000000E+00  0.00000000000E+00 -0.20917638391E+03  0.12139393558E+04  0.11957817526E+04 0.  0.
        1    1    3    3  502    0 -0.17899504478E+03 -0.21561301687E+03  0.43158438072E+03  0.51458068056E+03  0.50400001928E-02 0. -1.
       -1    1    3    3    0  502  0.17899504478E+03  0.21561301687E+03 -0.64076076463E+03  0.69935867523E+03  0.50400001928E-02 0.  1.
</event>
<event>
 5   0  0.2204090E-04  0.1201395E+04  0.7818609E-02  0.9111636E-01
        1   -1    0    0  501    0  0.00000000000E+00  0.00000000000E+00  0.13828077808E+04  0.13828077808E+04  0.50400001928E-02 0.  1.
       -1   -1    0    0    0  501  0.00000000000E+00  0.00000000000E+00 -0.26094555880E+03  0.26094555885E+03  0.50400001928E-02 0. -1.
    10030    2    1    2    0    0  0.00000000000E+00  0.00000000000E+00  0.11218622220E+04  0.16437533396E+04  0.12013951042E+04 0.  0.
        2    1    3    3  502    0 -0.13325987766E+03  0.45861270151E+03  0.10594414611E+04  0.11621101559E+04  0.25500000920E-02 0.  1.
       -2    1    3    3    0  502  0.13325987766E+03 -0.45861270151E+03  0.62420760826E+02  0.48164318367E+03  0.25500000920E-02 0. -1.
</event>
<event>
 5   0  0.2304842E-04  0.1198458E+04  0.7818609E-02  0.9114208E-01
        1   -1    0    0  501    0  0.00000000000E+00  0.00000000000E+00  0.63421759514E+03  0.63421759516E+03  0.50400001928E-02 0. -1.
       -1   -1    0    0    0  501  0.00000000000E+00  0.00000000000E+00 -0.56617030765E+03  0.56617030767E+03  0.50400001928E-02 0.  1.
    10030    2    1    2    0    0  0.00000000000E+00  0.00000000000E+00  0.68047287491E+02  0.12003879028E+04  0.11984576271E+04 0.  0.
        4    1    3    3  502    0  0.49555191624E+03  0.22667865797E+03  0.28366118952E+03  0.61434534182E+03  0.12699999809E+01 0. -1.
       -4    1    3    3    0  502 -0.49555191624E+03 -0.22667865797E+03 -0.21561390203E+03  0.58604256101E+03  0.12699999809E+01 0.  1.
</event>
<event>
 5   0  0.2304842E-04  0.1178178E+04  0.7818609E-02  0.9132174E-01
       -1   -1    0    0    0  501  0.00000000000E+00  0.00000000000E+00  0.30607508245E+03  0.30607508249E+03  0.50400001928E-02 0.  1.
        1   -1    0    0  501    0  0.00000000000E+00  0.00000000000E+00 -0.11337940292E+04  0.11337940293E+04  0.50400001928E-02 0. -1.
    10030    2    1    2    0    0  0.00000000000E+00  0.00000000000E+00 -0.82771894679E+03  0.14398691117E+04  0.11781784263E+04 0.  0.
        4    1    3    3  502    0  0.50440363470E+03 -0.26292648679E+03 -0.22662798367E+03  0.61230320923E+03  0.12699999809E+01 0.  1.
       -4    1    3    3    0  502 -0.50440363470E+03  0.26292648679E+03 -0.60109096312E+03  0.82756590251E+03  0.12699999809E+01 0. -1.
</event>
<event>
 5   0  0.3832662E-04  0.1212863E+04  0.7818609E-02  0.9101672E-01
       -2   -1    0    0    0  501  0.00000000000E+00  0.00000000000E+00  0.42719973383E+03  0.42719973384E+03  0.25500000920E-02 0.  1.
        2   -1    0    0  501    0  0.00000000000E+00  0.00000000000E+00 -0.86085994771E+03  0.86085994771E+03  0.25500000920E-02 0. -1.
    10030    2    1    2    0    0  0.00000000000E+00  0.00000000000E+00 -0.43366021388E+03  0.12880596816E+04  0.12128629610E+04 0.  0.
        4    1    3    3  502    0  0.23745817178E+03 -0.53845204002E+03 -0.37233432073E+03  0.69638455040E+03  0.12699999809E+01 0.  1.
       -4    1    3    3    0  502 -0.23745817178E+03  0.53845204002E+03 -0.61325893150E+02  0.59167513115E+03  0.12699999809E+01 0. -1.
</event>
<event>
 5   0  0.2244308E-04  0.1199851E+04  0.7818609E-02  0.9112987E-01
        1   -1    0    0  501    0  0.00000000000E+00  0.00000000000E+00  0.42886749737E+03  0.42886749740E+03  0.50400001928E-02 0. -1.
       -1   -1    0    0    0  501  0.00000000000E+00  0.00000000000E+00 -0.83921194269E+03  0.83921194271E+03  0.50400001928E-02 0.  1.
    10030    2    1    2    0    0  0.00000000000E+00  0.00000000000E+00 -0.41034444533E+03  0.12680794401E+04  0.11998512002E+04 0.  0.
        5    1    3    3  502    0 -0.26588866306E+03 -0.47804862795E+03 -0.46547281478E+03  0.71827174741E+03  0.46999998093E+01 0.  1.
       -5    1    3    3    0  502  0.26588866306E+03  0.47804862795E+03  0.55128369453E+02  0.54980769270E+03  0.46999998093E+01 0. -1.
</event>
<event>
 5   0  0.2204090E-04  0.1200526E+04  0.7818609E-02  0.9112396E-01
       -1   -1    0    0    0  501  0.00000000000E+00  0.00000000000E+00  0.31994298054E+03  0.31994298058E+03  0.50400001928E-02 0.  1.
        1   -1    0    0  501    0  0.00000000000E+00  0.00000000000E+00 -0.11261871645E+04  0.11261871645E+04  0.50400001928E-02 0. -1.
    10030    2    1    2    0    0  0.00000000000E+00  0.00000000000E+00 -0.80624418395E+03  0.14461301451E+04  0.12005260149E+04 0.  0.
        2    1    3    3  502    0 -0.44938787160E+03 -0.18744619087E+03  0.19735646321E+02  0.48731409723E+03  0.25500000920E-02 0.  1.
       -2    1    3    3    0  502  0.44938787160E+03  0.18744619087E+03 -0.82597983027E+03  0.95881604786E+03  0.25500000920E-02 0. -1.
</event>
<event>
 5   0  0.2304842E-04  0.1201911E+04  0.7818609E-02  0.9111185E-01
        1   -1    0    0  501    0  0.00000000000E+00  0.00000000000E+00  0.59141088994E+03  0.59141088996E+03  0.50400001928E-02 0.  1.
       -1   -1    0    0    0  501  0.00000000000E+00  0.00000000000E+00 -0.61065464179E+03  0.61065464181E+03  0.50400001928E-02 0. -1.
    10030    2    1    2    0    0  0.00000000000E+00  0.00000000000E+00 -0.19243751852E+02  0.12020655318E+04  0.12019114862E+04 0.  0.
        4    1    3    3  502    0  0.35028589925E+03  0.11795267400E+03 -0.48353189585E+03  0.60861954596E+03  0.12699999809E+01 0. -1.
       -4    1    3    3    0  502 -0.35028589925E+03 -0.11795267400E+03  0.46428814400E+03  0.59344598581E+03  0.12699999809E+01 0.  1.
</event>
<event>
 5   0  0.2304842E-04  0.1200567E+04  0.7818609E-02  0.9112360E-01
        1   -1    0    0  501    0  0.00000000000E+00  0.00000000000E+00  0.10890378936E+04  0.10890378936E+04  0.50400001928E-02 0. -1.
       -1   -1    0    0    0  501  0.00000000000E+00  0.00000000000E+00 -0.33087944995E+03  0.33087944998E+03  0.50400001928E-02 0.  1.
    10030    2    1    2    0    0  0.00000000000E+00  0.00000000000E+00  0.75815844369E+03  0.14199173436E+04  0.12005669648E+04 0.  0.
        4    1    3    3  502    0 -0.57281611026E+03  0.16782872922E+03  0.45438208124E+03  0.75016629301E+03  0.12699999809E+01 0.  1.
       -4    1    3    3    0  502  0.57281611026E+03 -0.16782872922E+03  0.30377636245E+03  0.66975105062E+03  0.12699999809E+01 0. -1.
</event>
<event>
 5   0  0.3993723E-04  0.1199425E+04  0.7818609E-02  0.9113360E-01
        2   -1    0    0  501    0  0.00000000000E+00  0.00000000000E+00  0.11224647591E+04  0.11224647591E+04  0.25500000920E-02 0.  1.
       -2   -1    0    0    0  501  0.00000000000E+00  0.00000000000E+00 -0.32041565370E+03  0.32041565371E+03  0.25500000920E-02 0. -1.
    10030    2    1    2    0    0  0.00000000000E+00  0.00000000000E+00  0.80204910537E+03  0.14428804128E+04  0.11994253283E+04 0.  0.
        3    1    3    3  502    0  0.33976053317E+03  0.35431886767E+03  0.81544284696E+03  0.95180151647E+03  0.10100000352E+00 0.  1.
       -3    1    3    3    0  502 -0.33976053317E+03 -0.35431886767E+03 -0.13393741598E+02  0.49107889632E+03  0.10100000352E+00 0. -1.
</event>
<event>
 5   0  0.2204090E-04  0.1198964E+04  0.7818609E-02  0.9113764E-01
       -1   -1    0    0    0  501  0.00000000000E+00  0.00000000000E+00  0.15025180978E+04  0.15025180978E+04  0.50400001928E-02 0. -1.
        1   -1    0    0  501    0  0.00000000000E+00  0.00000000000E+00 -0.23918438735E+03  0.23918438740E+03  0.50400001928E-02 0.  1.
    10030    2    1    2    0    0  0.00000000000E+00  0.00000000000E+00  0.12633337105E+04  0.17417024852E+04  0.11989643377E+04 0.  0.
        2    1    3    3  502    0 -0.47155292588E+03  0.21894954660E+03  0.19810360914E+03  0.55636867797E+03  0.25500000920E-02 0.  1.
       -2    1    3    3    0  502  0.47155292588E+03 -0.21894954660E+03  0.10652301013E+04  0.11853338072E+04  0.25500000920E-02 0. -1.
</event>
<event>
 5   0  0.3993723E-04  0.1200331E+04  0.7818609E-02  0.9112567E-01
       -2   -1    0    0    0  501  0.00000000000E+00  0.00000000000E+00  0.41701949673E+03  0.41701949674E+03  0.25500000920E-02 0.  1.
        2   -1    0    0  501    0  0.00000000000E+00  0.00000000000E+00 -0.86374461666E+03  0.86374461666E+03  0.25500000920E-02 0. -1.
    10030    2    1    2    0    0  0.00000000000E+00  0.00000000000E+00 -0.44672511993E+03  0.12807641134E+04  0.12003305301E+04 0.  0.
        3    1    3    3  502    0  0.23615373004E+03  0.59536165440E+02 -0.80864933093E+03  0.84452761342E+03  0.10100000352E+00 0. -1.
       -3    1    3    3    0  502 -0.23615373004E+03 -0.59536165440E+02  0.36192421100E+03  0.43623649998E+03  0.10100000352E+00 0.  1.
</event>
<event>
 5   0  0.2244308E-04  0.1199025E+04  0.7818609E-02  0.9113710E-01
        1   -1    0    0  501    0  0.00000000000E+00  0.00000000000E+00  0.14134076292E+04  0.14134076292E+04  0.50400001928E-02 0. -1.
       -1   -1    0    0    0  501  0.00000000000E+00  0.00000000000E+00 -0.25428991781E+03  0.25428991786E+03  0.50400001928E-02 0.  1.
    10030    2    1    2    0    0  0.00000000000E+00  0.00000000000E+00  0.11591177113E+04  0.16676975470E+04  0.11990251205E+04 0.  0.
        5    1    3    3  502    0 -0.32364428375E+02 -0.26852809483E+03  0.13236959866E+04  0.13510543841E+04  0.46999998093E+01 0. -1.
       -5    1    3    3    0  502  0.32364428375E+02  0.26852809483E+03 -0.16457827524E+03  0.31664316291E+03  0.46999998093E+01 0.  1.
</event>
<event>
 5   0  0.3993723E-04  0.1202496E+04  0.7818609E-02  0.9110675E-01
       -2   -1    0    0    0  501  0.00000000000E+00  0.00000000000E+00  0.49735416479E+03  0.49735416480E+03  0.25500000920E-02 0. -1.
        2   -1    0    0  501    0  0.00000000000E+00  0.00000000000E+00 -0.72684399979E+03  0.72684399979E+03  0.25500000920E-02 0.  1.
    10030    2    1    2    0    0  0.00000000000E+00  0.00000000000E+00 -0.22948983500E+03  0.12241981646E+04  0.12024955558E+04 0.  0.
        3    1    3    3  502    0  0.35264318795E+02 -0.56994464385E+03 -0.30633930408E+03  0.64801562378E+03  0.10100000352E+00 0. -1.
       -3    1    3    3    0  502 -0.35264318795E+02  0.56994464385E+03  0.76849469081E+02  0.57618254081E+03  0.10100000352E+00 0.  1.
</event>
<event>
 5   0  0.2315038E-04  0.1200703E+04  0.7818609E-02  0.9112241E-01
        1   -1    0    0  501    0  0.00000000000E+00  0.00000000000E+00  0.52117388463E+03  0.52117388465E+03  0.50400001928E-02 0.  1.
       -1   -1    0    0    0  501  0.00000000000E+00  0.00000000000E+00 -0.69155837631E+03  0.69155837632E+03  0.50400001928E-02 0. -1.
    10030    2    1    2    0    0  0.00000000000E+00  0.00000000000E+00 -0.17038449168E+03  0.12127322610E+04  0.12007034029E+04 0.  0.
        1    1    3    3  502    0 -0.37706569390E+02  0.37155641020E+03  0.38956595076E+03  0.53966432284E+03  0.50400001928E-02 0.  1.
       -1    1    3    3    0  502  0.37706569390E+02 -0.37155641020E+03 -0.55995044244E+03  0.67306793813E+03  0.50400001928E-02 0. -1.
</event>
<event>
 5   0  0.2244308E-04  0.1206033E+04  0.7818609E-02  0.9107592E-01
       -1   -1    0    0    0  501  0.00000000000E+00  0.00000000000E+00  0.45800735692E+03  0.45800735695E+03  0.50400001928E-02 0.  1.
        1   -1    0    0  501    0  0.00000000000E+00  0.00000000000E+00 -0.79393696041E+03  0.79393696042E+03  0.50400001928E-02 0. -1.
    10030    2    1    2    0    0  0.00000000000E+00  0.00000000000E+00 -0.33592960348E+03  0.12519443174E+04  0.12060331153E+04 0.  0.
        5    1    3    3  502    0  0.26912302548E+03 -0.53875488169E+03 -0.13642985169E+03  0.61751050179E+03  0.46999998093E+01 0.  1.
       -5    1    3    3    0  502 -0.26912302548E+03  0.53875488169E+03 -0.19949975180E+03  0.63443381558E+03  0.46999998093E+01 0. -1.
</event>
<event>
 5   0  0.3993723E-04  0.1206833E+04  0.7818609E-02  0.9106897E-01
        2   -1    0    0  501    0  0.00000000000E+00  0.00000000000E+00  0.83588502771E+03  0.83588502772E+03  0.25500000920E-02 0. -1.
       -2   -1    0    0    0  501  0.00000000000E+00  0.00000000000E+00 -0.43559964577E+03  0.43559964578E+03  0.25500000920E-02 0.  1.
    10030    2    1    2    0    0  0.00000000000E+00  0.00000000000E+00  0.40028538194E+03  0.12714846735E+04  0.12068325849E+04 0.  0.
        3    1    3    3  502    0  0.31631009690E+03  0.36952290600E+03  0.57636067873E+03  0.75418227084E+03  0.10100000352E+00 0. -1.
       -3    1    3    3    0  502 -0.31631009690E+03 -0.36952290600E+03 -0.17607529678E+03  0.51730240266E+03  0.10100000352E+00 0.  1.
</event>
<event>
 5   0  0.2315038E-04  0.1202766E+04  0.7818609E-02  0.9110439E-01
       -1   -1    0    0    0  501  0.00000000000E+00  0.00000000000E+00  0.85928930483E+03  0.85928930484E+03  0.50400001928E-02 0. -1.
        1   -1    0    0  501    0  0.00000000000E+00  0.00000000000E+00 -0.42088476977E+03  0.42088476980E+03  0.50400001928E-02 0.  1.
    10030    2    1    2    0    0  0.00000000000E+00  0.00000000000E+00  0.43840453506E+03  0.12801740746E+04  0.12027664466E+04 0.  0.
        1    1    3    3  502    0  0.38339785894E+03  0.45083279183E+03  0.10547195936E+03  0.60113930055E+03  0.50400001928E-02 0.  1.
       -1    1    3    3    0  502 -0.38339785894E+03 -0.45083279183E+03  0.33293257570E+03  0.67903477409E+03  0.50400001928E-02 0. -1.
</event>
<event>
 5   0  0.2204090E-04  0.1194369E+04  0.7818609E-02  0.9117799E-01
       -1   -1    0    0    0  501  0.00000000000E+00  0.00000000000E+00  0.40120594997E+03  0.40120595000E+03  0.50400001928E-02 0.  1.
        1   -1    0    0  501    0  0.00000000000E+00  0.00000000000E+00 -0.88889378676E+03  0.88889378677E+03  0.50400001928E-02 0. -1.
    10030    2    1    2    0    0  0.00000000000E+00  0.00000000000E+00 -0.48768783679E+03  0.12900997368E+04  0.11943692497E+04 0.  0.
        2    1    3    3  502    0 -0.90044612112E+00 -0.56050717448E+03 -0.46641901684E+03  0.72918845488E+03  0.25500000920E-02 0. -1.
       -2    1    3    3    0  502  0.90044612112E+00  0.56050717448E+03 -0.21268819943E+02  0.56091128190E+03  0.25500000920E-02 0.  1.
</event>
<event>
 5   0  0.3883890E-04  0.1196045E+04  0.7818609E-02  0.9116326E-01
        2   -1    0    0  501    0  0.00000000000E+00  0.00000000000E+00  0.13250893727E+04  0.13250893727E+04  0.25500000920E-02 0.  1.
       -2   -1    0    0    0  501  0.00000000000E+00  0.00000000000E+00 -0.26989169753E+03  0.26989169754E+03  0.25500000920E-02 0. -1.
    10030    2    1    2    0    0  0.00000000000E+00  0.00000000000E+00  0.10551976751E+04  0.15949810702E+04  0.11960445145E+04 0.  0.
        2    1    3    3  502    0  0.42859016258E+03  0.40096425598E+03  0.37456742041E+03  0.69624896012E+03  0.25500000920E-02 0.  1.
       -2    1    3    3    0  502 -0.42859016258E+03 -0.40096425598E+03  0.68063025471E+03  0.89873211007E+03  0.25500000920E-02 0. -1.
</event>
<event>
 5   0  0.3883890E-04  0.1197539E+04  0.7818609E-02  0.9115013E-01
       -2   -1    0    0    0  501  0.00000000000E+00  0.00000000000E+00  0.19196013761E+03  0.19196013762E+03  0.25500000920E-02 0. -1.
        2   -1    0    0  501    0  0.00000000000E+00  0.00000000000E+00 -0.18677054884E+04  0.18677054884E+04  0.25500000920E-02 0.  1.
    10030    2    1    2    0    0  0.00000000000E+00  0.00000000000E+00 -0.16757453508E+04  0.20596656260E+04  0.11975391477E+04 0.  0.
        2    1    3    3  502    0 -0.72566974614E+02  0.45851061759E+03 -0.18741941834E+03  0.50062360174E+03  0.25500000920E-02 0. -1.
       -2    1    3    3    0  502  0.72566974614E+02 -0.45851061759E+03 -0.14883259325E+04  0.15590420243E+04  0.25500000920E-02 0.  1.
</event>
<event>
 5   0  0.3832662E-04  0.1201679E+04  0.7818609E-02  0.9111388E-01
       -2   -1    0    0    0  501  0.00000000000E+00  0.00000000000E+00  0.12804633567E+04  0.12804633567E+04  0.25500000920E-02 0.  1.
        2   -1    0    0  501    0  0.00000000000E+00  0.00000000000E+00 -0.28193554293E+03  0.28193554294E+03  0.25500000920E-02 0. -1.
    10030    2    1    2    0    0  0.00000000000E+00  0.00000000000E+00  0.99852781373E+03  0.15623988996E+04  0.12016790448E+04 0.  0.
        4    1    3    3  502    0 -0.15764400924E+03 -0.11214277892E+02 -0.25442460768E+03  0.29951775836E+03  0.12699999809E+01 0. -1.
       -4    1    3    3    0  502  0.15764400924E+03  0.11214277892E+02  0.12529524214E+04  0.12628811412E+04  0.12699999809E+01 0.  1.
</event>
<event>
 5   0  0.4024486E-04  0.1198721E+04  0.7818609E-02  0.9113977E-01
       -2   -1    0    0    0  501  0.00000000000E+00  0.00000000000E+00  0.22996207412E+03  0.22996207413E+03  0.25500000920E-02 0.  1.
        2   -1    0    0  501    0  0.00000000000E+00  0.00000000000E+00 -0.15621404131E+04  0.15621404131E+04  0.25500000920E-02 0. -1.
    10030    2    1    2    0    0  0.00000000000E+00  0.00000000000E+00 -0.13321783390E+04  0.17921024872E+04  0.11987210676E+04 0.  0.
        1    1    3    3  502    0  0.33055515757E+03  0.44351056332E+03 -0.10111252552E+04  0.11525374674E+04  0.50400001928E-02 0. -1.
       -1    1    3    3    0  502 -0.33055515757E+03 -0.44351056332E+03 -0.32105308374E+03  0.63956501982E+03  0.50400001928E-02 0.  1.
</event>
<event>
 5   0  0.4122956E-04  0.1201600E+04  0.7818609E-02  0.9111457E-01
       -2   -1    0    0    0  501  0.00000000000E+00  0.00000000000E+00  0.16250582486E+03  0.16250582488E+03  0.25500000920E-02 0.  1.
        2   -1    0    0  501    0  0.00000000000E+00  0.00000000000E+00 -0.22212171375E+04  0.22212171375E+04  0.25500000920E-02 0. -1.
    10030    2    1    2    0    0  0.00000000000E+00  0.00000000000E+00 -0.20587113126E+04  0.23837229624E+04  0.12016001384E+04 0.  0.
        5    1    3    3  502    0 -0.13098884600E+03  0.58577674989E+03 -0.10797827636E+04  0.12354130422E+04  0.46999998093E+01 0.  1.
       -5    1    3    3    0  502  0.13098884600E+03 -0.58577674989E+03 -0.97892854907E+03  0.11483099201E+04  0.46999998093E+01 0. -1.
</event>
<event>
 5   0  0.3883890E-04  0.1201024E+04  0.7818609E-02  0.9111961E-01
       -2   -1    0    0    0  501  0.00000000000E+00  0.00000000000E+00  0.95372132578E+03  0.95372132578E+03  0.25500000920E-02 0. -1.
        2   -1    0    0  501    0  0.00000000000E+00  0.00000000000E+00 -0.37811309279E+03  0.37811309279E+03  0.25500000920E-02 0.  1.
    10030    2    1    2    0    0  0.00000000000E+00  0.00000000000E+00  0.57560823299E+03  0.13318344186E+04  0.12010237636E+04 0.  0.
        2    1    3    3  502    0 -0.43160742278E+03 -0.39002052386E+03  0.12252896758E+03  0.59448660568E+03  0.25500000920E-02 0.  1.
       -2    1    3    3    0  502  0.43160742278E+03  0.39002052386E+03  0.45307926541E+03  0.73734781289E+03  0.25500000920E-02 0. -1.
</event>
<event>
 5   0  0.4024486E-04  0.1200237E+04  0.7818609E-02  0.9112649E-01
       -2   -1    0    0    0  501  0.00000000000E+00  0.00000000000E+00  0.30919740446E+03  0.30919740447E+03  0.25500000920E-02 0.  1.
        2   -1    0    0  501    0  0.00000000000E+00  0.00000000000E+00 -0.11647655332E+04  0.11647655332E+04  0.25500000920E-02 0. -1.
    10030    2    1    2    0    0  0.00000000000E+00  0.00000000000E+00 -0.85556812876E+03  0.14739629377E+04  0.12002374426E+04 0.  0.
        1    1    3    3  502    0  0.10430303739E+03  0.51946703430E+03 -0.77386454529E+03  0.93786537296E+03  0.50400001928E-02 0. -1.
       -1    1    3    3    0  502 -0.10430303739E+03 -0.51946703430E+03 -0.81703583475E+02  0.53609756473E+03  0.50400001928E-02 0.  1.
</event>
<event>
 5   0  0.1541375E-04  0.1200884E+04  0.7818609E-02  0.9112083E-01
        3   -1    0    0  501    0  0.00000000000E+00  0.00000000000E+00  0.17963457395E+03  0.17963460234E+03  0.10100000352E+00 0.  1.
       -3   -1    0    0    0  501  0.00000000000E+00  0.00000000000E+00 -0.20070213754E+04  0.20070213779E+04  0.10100000352E+00 0. -1.
    10030    2    1    2    0    0  0.00000000000E+00  0.00000000000E+00 -0.18273868015E+04  0.21866559803E+04  0.12008837804E+04 0.  0.
        2    1    3    3  502    0 -0.17751436055E+03 -0.55373944681E+03 -0.11861663595E+04  0.13210334423E+04  0.25500000920E-02 0.  1.
       -2    1    3    3    0  502  0.17751436055E+03  0.55373944681E+03 -0.64122044192E+03  0.86562253800E+03  0.25500000920E-02 0. -1.
</event>
<event>
 5   0  0.1541375E-04  0.1200511E+04  0.7818609E-02  0.9112410E-01
        3   -1    0    0  501    0  0.00000000000E+00  0.00000000000E+00  0.18988341667E+04  0.18988341694E+04  0.10100000352E+00 0. -1.
       -3   -1    0    0    0  501  0.00000000000E+00  0.00000000000E+00 -0.18975135624E+03  0.18975138312E+03  0.10100000352E+00 0.  1.
    10030    2    1    2    0    0  0.00000000000E+00  0.00000000000E+00  0.17090828105E+04  0.20885855525E+04  0.12005105402E+04 0.  0.
        2    1    3    3  502    0 -0.46989024031E+03 -0.28883440250E+03  0.44253239966E+03  0.70714713799E+03  0.25500000920E-02 0.  1.
       -2    1    3    3    0  502  0.46989024031E+03  0.28883440250E+03  0.12665504108E+04  0.13814384145E+04  0.25500000920E-02 0. -1.
</event>
<event>
 5   0  0.2340731E-04  0.1200540E+04  0.7818609E-02  0.9112384E-01
        1   -1    0    0  501    0  0.00000000000E+00  0.00000000000E+00  0.14768555380E+04  0.14768555380E+04  0.50400001928E-02 0. -1.
       -1   -1    0    0    0  501  0.00000000000E+00  0.00000000000E+00 -0.24398061050E+03  0.24398061055E+03  0.50400001928E-02 0.  1.
    10030    2    1    2    0    0  0.00000000000E+00  0.00000000000E+00  0.12328749275E+04  0.17208361486E+04  0.12005400715E+04 0.  0.
        3    1    3    3  502    0 -0.75657872779E+02  0.10137131955E+03  0.14575350976E+04  0.14630136121E+04  0.10100000352E+00 0. -1.
       -3    1    3    3    0  502  0.75657872779E+02 -0.10137131955E+03 -0.22466017005E+03  0.25782253654E+03  0.10100000352E+00 0.  1.
</event>
<event>
 5   0  0.4122956E-04  0.1200018E+04  0.7818609E-02  0.9112841E-01
        2   -1    0    0  501    0  0.00000000000E+00  0.00000000000E+00  0.67433936690E+03  0.67433936691E+03  0.25500000920E-02 0. -1.
       -2   -1    0    0    0  501  0.00000000000E+00  0.00000000000E+00 -0.53387153681E+03  0.53387153681E+03  0.25500000920E-02 0.  1.
    10030    2    1    2    0    0  0.00000000000E+00  0.00000000000E+00  0.14046783010E+03  0.12082109037E+04  0.12000176568E+04 0.  0.
        5    1    3    3  502    0  0.19579493062E+02 -0.15996583990E+03  0.65212111041E+03  0.67175624978E+03  0.46999998093E+01 0. -1.
       -5    1    3    3    0  502 -0.19579493062E+02  0.15996583990E+03 -0.51165328031E+03  0.53645465394E+03  0.46999998093E+01 0.  1.
</event>
<event>
 5   0  0.2304842E-04  0.1201682E+04  0.7818609E-02  0.9111385E-01
       -1   -1    0    0    0  501  0.00000000000E+00  0.00000000000E+00  0.45077178205E+03  0.45077178208E+03  0.50400001928E-02 0. -1.
        1   -1    0    0  501    0  0.00000000000E+00  0.00000000000E+00 -0.80087101010E+03  0.80087101011E+03  0.50400001928E-02 0.  1.
    10030    2    1    2    0    0  0.00000000000E+00  0.00000000000E+00 -0.35009922805E+03  0.12516427922E+04  0.12016822416E+04 0.  0.
        4    1    3    3  502    0 -0.27668194155E+03 -0.33537553576E+03  0.25689514365E+03  0.50500136089E+03  0.12699999809E+01 0. -1.
       -4    1    3    3    0  502  0.27668194155E+03  0.33537553576E+03 -0.60699437170E+03  0.74664143130E+03  0.12699999809E+01 0.  1.
</event>
<event>
 5   0  0.4024486E-04  0.1214505E+04  0.7818609E-02  0.9100254E-01
        2   -1    0    0  501    0  0.00000000000E+00  0.00000000000E+00  0.49260163546E+03  0.49260163546E+03  0.25500000920E-02 0. -1.
       -2   -1    0    0    0  501  0.00000000000E+00  0.00000000000E+00 -0.74858830168E+03  0.74858830168E+03  0.25500000920E-02 0.  1.
    10030    2    1    2    0    0  0.00000000000E+00  0.00000000000E+00 -0.25598666622E+03  0.12411899371E+04  0.12145053671E+04 0.  0.
        1    1    3    3  502    0 -0.49188073725E+03  0.91710431029E+02 -0.47964416472E+03  0.69312047121E+03  0.50400001928E-02 0.  1.
       -1    1    3    3    0  502  0.49188073725E+03 -0.91710431029E+02  0.22365749850E+03  0.54806946594E+03  0.50400001928E-02 0. -1.
</event>
<event>
 5   0  0.1541375E-04  0.1194844E+04  0.7818609E-02  0.9117381E-01
       -3   -1    0    0    0  501  0.00000000000E+00  0.00000000000E+00  0.63681485746E+03  0.63681486547E+03  0.10100000352E+00 0.  1.
        3   -1    0    0  501    0  0.00000000000E+00  0.00000000000E+00 -0.56046629470E+03  0.56046630380E+03  0.10100000352E+00 0. -1.
    10030    2    1    2    0    0  0.00000000000E+00  0.00000000000E+00  0.76348562757E+02  0.11972811693E+04  0.11948443812E+04 0.  0.
        1    1    3    3  502    0 -0.11109924182E+03  0.45074151666E+03 -0.33862760639E+03  0.57461257575E+03  0.50400001928E-02 0. -1.
       -1    1    3    3    0  502  0.11109924182E+03 -0.45074151666E+03  0.41497616915E+03  0.62266859352E+03  0.50400001928E-02 0.  1.
</event>
<event>
 5   0  0.3883890E-04  0.1199901E+04  0.7818609E-02  0.9112943E-01
       -2   -1    0    0    0  501  0.00000000000E+00  0.00000000000E+00  0.15132790179E+03  0.15132790182E+03  0.25500000920E-02 0.  1.
        2   -1    0    0  501    0  0.00000000000E+00  0.00000000000E+00 -0.23785481870E+04  0.23785481870E+04  0.25500000920E-02 0. -1.
    10030    2    1    2    0    0  0.00000000000E+00  0.00000000000E+00 -0.22272202852E+04  0.25298760888E+04  0.11999011734E+04 0.  0.
        2    1    3    3  502    0  0.34860546750E+03  0.43575600492E+03 -0.64913096439E+03  0.85602574536E+03  0.25500000920E-02 0.  1.
       -2    1    3    3    0  502 -0.34860546750E+03 -0.43575600492E+03 -0.15780893208E+04  0.16738503435E+04  0.25500000920E-02 0. -1.
</event>
<event>
 5   0  0.2244308E-04  0.1195452E+04  0.7818609E-02  0.9116847E-01
        1   -1    0    0  501    0  0.00000000000E+00  0.00000000000E+00  0.80675438969E+03  0.80675438971E+03  0.50400001928E-02 0.  1.
       -1   -1    0    0    0  501  0.00000000000E+00  0.00000000000E+00 -0.44285631781E+03  0.44285631784E+03  0.50400001928E-02 0. -1.
    10030    2    1    2    0    0  0.00000000000E+00  0.00000000000E+00  0.36389807188E+03  0.12496107075E+04  0.11954518450E+04 0.  0.
        5    1    3    3  502    0  0.34692814508E+03  0.14630691928E+03 -0.30328978936E+03  0.48349936795E+03  0.46999998093E+01 0. -1.
       -5    1    3    3    0  502 -0.34692814508E+03 -0.14630691928E+03  0.66718786124E+03  0.76611133960E+03  0.46999998093E+01 0.  1.
</event>
<event>
 5   0  0.3832662E-04  0.1201753E+04  0.7818609E-02  0.9111324E-01
       -2   -1    0    0    0  501  0.00000000000E+00  0.00000000000E+00  0.12903281084E+04  0.12903281084E+04  0.25500000920E-02 0.  1.
        2   -1    0    0  501    0  0.00000000000E+00  0.00000000000E+00 -0.27981455034E+03  0.27981455035E+03  0.25500000920E-02 0. -1.
    10030    2    1    2    0    0  0.00000000000E+00  0.00000000000E+00  0.10105135581E+04  0.15701426588E+04  0.12017530186E+04 0.  0.
        4    1    3    3  502    0 -0.28397447528E+03  0.37095799692E+03  0.99898440692E+03  0.11028249164E+04  0.12699999809E+01 0.  1.
       -4    1    3    3    0  502  0.28397447528E+03 -0.37095799692E+03  0.11529151158E+02  0.46731774235E+03  0.12699999809E+01 0. -1.
</event>
<event>
 5   0  0.4122956E-04  0.1200353E+04  0.7818609E-02  0.9112548E-01
       -2   -1    0    0    0  501  0.00000000000E+00  0.00000000000E+00  0.73188661327E+03  0.73188661327E+03  0.25500000920E-02 0.  1.
        2   -1    0    0  501    0  0.00000000000E+00  0.00000000000E+00 -0.49216866532E+03  0.49216866533E+03  0.25500000920E-02 0. -1.
    10030    2    1    2    0    0  0.00000000000E+00  0.00000000000E+00  0.23971794795E+03  0.12240552786E+04  0.12003527109E+04 0.  0.
        5    1    3    3  502    0 -0.20215692331E+03 -0.31410076727E+03 -0.35916447012E+03  0.51821609415E+03  0.46999998093E+01 0. -1.
       -5    1    3    3    0  502  0.20215692331E+03  0.31410076727E+03  0.59888241807E+03  0.70583918445E+03  0.46999998093E+01 0.  1.
</event>
<event>
 5   0  0.2304842E-04  0.1197664E+04  0.7818609E-02  0.9114904E-01
        1   -1    0    0  501    0  0.00000000000E+00  0.00000000000E+00  0.33704247754E+03  0.33704247758E+03  0.50400001928E-02 0.  1.
       -1   -1    0    0    0  501  0.00000000000E+00  0.00000000000E+00 -0.10639594224E+04  0.10639594224E+04  0.50400001928E-02 0. -1.
    10030    2    1    2    0    0  0.00000000000E+00  0.00000000000E+00 -0.72691694483E+03  0.14010019000E+04  0.11976635918E+04 0.  0.
        4    1    3    3  502    0 -0.33467528706E+03 -0.40318484202E+03 -0.24359002226E+02  0.52455746920E+03  0.12699999809E+01 0.  1.
       -4    1    3    3    0  502  0.33467528706E+03  0.40318484202E+03 -0.70255794261E+03  0.87644443077E+03  0.12699999809E+01 0. -1.
</event>
<event>
 5   0  0.4024486E-04  0.1200613E+04  0.7818609E-02  0.9112320E-01
        2   -1    0    0  501    0  0.00000000000E+00  0.00000000000E+00  0.29199478289E+03  0.29199478290E+03  0.25500000920E-02 0. -1.
       -2   -1    0    0    0  501  0.00000000000E+00  0.00000000000E+00 -0.12341596178E+04  0.12341596178E+04  0.25500000920E-02 0.  1.
    10030    2    1    2    0    0  0.00000000000E+00  0.00000000000E+00 -0.94216483495E+03  0.15261544007E+04  0.12006134593E+04 0.  0.
        1    1    3    3  502    0  0.15531944073E+03 -0.50723520076E+03 -0.11390072713E+03  0.54257262484E+03  0.50400001928E-02 0. -1.
       -1    1    3    3    0  502 -0.15531944073E+03  0.50723520076E+03 -0.82826410781E+03  0.98358177590E+03  0.50400001928E-02 0.  1.
</event>
<event>
 5   0  0.2244308E-04  0.1199666E+04  0.7818609E-02  0.9113149E-01
       -1   -1    0    0    0  501  0.00000000000E+00  0.00000000000E+00  0.46718069295E+03  0.46718069297E+03  0.50400001928E-02 0.  1.
        1   -1    0    0  501    0  0.00000000000E+00  0.00000000000E+00 -0.77015119205E+03  0.77015119206E+03  0.50400001928E-02 0. -1.
    10030    2    1    2    0    0  0.00000000000E+00  0.00000000000E+00 -0.30297049910E+03  0.12373318850E+04  0.11996662329E+04 0.  0.
        5    1    3    3  502    0 -0.17156773936E+03  0.47418426558E+03  0.18350675615E+03  0.53664050020E+03  0.46999998093E+01 0.  1.
       -5    1    3    3    0  502  0.17156773936E+03 -0.47418426558E+03 -0.48647725525E+03  0.70069138483E+03  0.46999998093E+01 0. -1.
</event>
<event>
 5   0  0.2315038E-04  0.1198217E+04  0.7818609E-02  0.9114419E-01
        1   -1    0    0  501    0  0.00000000000E+00  0.00000000000E+00  0.14499359522E+04  0.14499359522E+04  0.50400001928E-02 0. -1.
       -1   -1    0    0    0  501  0.00000000000E+00  0.00000000000E+00 -0.24754947248E+03  0.24754947253E+03  0.50400001928E-02 0.  1.
    10030    2    1    2    0    0  0.00000000000E+00  0.00000000000E+00  0.12023864797E+04  0.16974854247E+04  0.11982168087E+04 0.  0.
        1    1    3    3  502    0 -0.19916818222E+03  0.33047831650E+03  0.12504685456E+04  0.13086464252E+04  0.50400001928E-02 0. -1.
       -1    1    3    3    0  502  0.19916818222E+03 -0.33047831650E+03 -0.48082065929E+02  0.38883899955E+03  0.50400001928E-02 0.  1.
</event>
<event>
 5   0  0.2340731E-04  0.1199516E+04  0.7818609E-02  0.9113280E-01
       -1   -1    0    0    0  501  0.00000000000E+00  0.00000000000E+00  0.26167974537E+03  0.26167974542E+03  0.50400001928E-02 0.  1.
        1   -1    0    0  501    0  0.00000000000E+00  0.00000000000E+00 -0.13746180089E+04  0.13746180089E+04  0.50400001928E-02 0. -1.
    10030    2    1    2    0    0  0.00000000000E+00  0.00000000000E+00 -0.11129382635E+04  0.16362977543E+04  0.11995160534E+04 0.  0.
        3    1    3    3  502    0  0.31026922174E+03 -0.50655968032E+03 -0.44364975188E+03  0.74141406261E+03  0.10100000352E+00 0.  1.
       -3    1    3    3    0  502 -0.31026922174E+03  0.50655968032E+03 -0.66928851163E+03  0.89488369171E+03  0.10100000352E+00 0. -1.
</event>
<event>
 5   0  0.2304842E-04  0.1198149E+04  0.7818609E-02  0.9114478E-01
       -1   -1    0    0    0  501  0.00000000000E+00  0.00000000000E+00  0.98015508540E+03  0.98015508541E+03  0.50400001928E-02 0. -1.
        1   -1    0    0  501    0  0.00000000000E+00  0.00000000000E+00 -0.36615662764E+03  0.36615662768E+03  0.50400001928E-02 0.  1.
    10030    2    1    2    0    0  0.00000000000E+00  0.00000000000E+00  0.61399845775E+03  0.13463117131E+04  0.11981490403E+04 0.  0.
        4    1    3    3  502    0  0.51341405693E+03 -0.30314948925E+03  0.24152678137E+03  0.64329651461E+03  0.12699999809E+01 0. -1.
       -4    1    3    3    0  502 -0.51341405693E+03  0.30314948925E+03  0.37247167638E+03  0.70301519848E+03  0.12699999809E+01 0.  1.
</event>
<event>
 5   0  0.3993723E-04  0.1199982E+04  0.7818609E-02  0.9112872E-01
        2   -1    0    0  501    0  0.00000000000E+00  0.00000000000E+00  0.78103009467E+03  0.78103009467E+03  0.25500000920E-02 0. -1.
       -2   -1    0    0    0  501  0.00000000000E+00  0.00000000000E+00 -0.46091579014E+03  0.46091579015E+03  0.25500000920E-02 0.  1.
    10030    2    1    2    0    0  0.00000000000E+00  0.00000000000E+00  0.32011430452E+03  0.12419458848E+04  0.11999818386E+04 0.  0.
        3    1    3    3  502    0 -0.32702892584E+03 -0.25846287170E+03 -0.28658765327E+03  0.50584925382E+03  0.10100000352E+00 0.  1.
       -3    1    3    3    0  502  0.32702892584E+03  0.25846287170E+03  0.60670195779E+03  0.73609663100E+03  0.10100000352E+00 0. -1.
</event>
<event>
 5   0  0.2244308E-04  0.1198798E+04  0.7818609E-02  0.9113910E-01
        1   -1    0    0  501    0  0.00000000000E+00  0.00000000000E+00  0.62021605672E+03  0.62021605674E+03  0.50400001928E-02 0.  1.
       -1   -1    0    0    0  501  0.00000000000E+00  0.00000000000E+00 -0.57928038796E+03  0.57928038799E+03  0.50400001928E-02 0. -1.
    10030    2    1    2    0    0  0.00000000000E+00  0.00000000000E+00  0.40935668753E+02  0.11994964447E+04  0.11987977277E+04 0.  0.
        5    1    3    3  502    0 -0.56180069847E+03  0.20602462750E+03 -0.14059321467E+02  0.59856990106E+03  0.46999998093E+01 0. -1.
       -5    1    3    3    0  502  0.56180069847E+03 -0.20602462750E+03  0.54994990219E+02  0.60092654366E+03  0.46999998093E+01 0.  1.
</event>
<event>
 5   0  0.3993723E-04  0.1199315E+04  0.7818609E-02  0.9113457E-01
        2   -1    0    0  501    0  0.00000000000E+00  0.00000000000E+00  0.77780110994E+03  0.77780110994E+03  0.25500000920E-02 0. -1.
       -2   -1    0    0    0  501  0.00000000000E+00  0.00000000000E+00 -0.46231476227E+03  0.46231476227E+03  0.25500000920E-02 0.  1.
    10030    2    1    2    0    0  0.00000000000E+00  0.00000000000E+00  0.31548634767E+03  0.12401158722E+04  0.11993146964E+04 0.  0.
        3    1    3    3  502    0  0.29537571203E+03  0.40628879485E+03  0.49640897698E+03  0.70621475395E+03  0.10100000352E+00 0. -1.
       -3    1    3    3    0  502 -0.29537571203E+03 -0.40628879485E+03 -0.18092262931E+03  0.53390111826E+03  0.10100000352E+00 0.  1.
</event>
<event>
 5   0  0.4122956E-04  0.1193319E+04  0.7818609E-02  0.9118724E-01
       -2   -1    0    0    0  501  0.00000000000E+00  0.00000000000E+00  0.51988230183E+03  0.51988230183E+03  0.25500000920E-02 0.  1.
        2   -1    0    0  501    0  0.00000000000E+00  0.00000000000E+00 -0.68477548636E+03  0.68477548636E+03  0.25500000920E-02 0. -1.
    10030    2    1    2    0    0  0.00000000000E+00  0.00000000000E+00 -0.16489318453E+03  0.12046577882E+04  0.11933191628E+04 0.  0.
        5    1    3    3  502    0 -0.15847050625E+03 -0.13834261803E+03  0.48118544470E+03  0.52517911564E+03  0.46999998093E+01 0.  1.
       -5    1    3    3    0  502  0.15847050625E+03  0.13834261803E+03 -0.64607862923E+03  0.67947867256E+03  0.46999998093E+01 0. -1.
</event>
<event>
 5   0  0.2204090E-04  0.1199876E+04  0.7818609E-02  0.9112965E-01
        1   -1    0    0  501    0  0.00000000000E+00  0.00000000000E+00  0.17563726262E+04  0.17563726262E+04  0.50400001928E-02 0. -1.
       -1   -1    0    0    0  501  0.00000000000E+00  0.00000000000E+00 -0.20492537873E+03  0.20492537879E+03  0.50400001928E-02 0.  1.
    10030    2    1    2    0    0  0.00000000000E+00  0.00000000000E+00  0.15514472475E+04  0.19612980050E+04  0.11998755364E+04 0.  0.
        2    1    3    3  502    0  0.87228519543E+01 -0.58615995428E+03  0.98419401172E+03  0.11455555128E+04  0.25500000920E-02 0. -1.
       -2    1    3    3    0  502 -0.87228519543E+01  0.58615995428E+03  0.56725323578E+03  0.81574249225E+03  0.25500000920E-02 0.  1.
</event>
<event>
 5   0  0.2304842E-04  0.1200681E+04  0.7818609E-02  0.9112261E-01
       -1   -1    0    0    0  501  0.00000000000E+00  0.00000000000E+00  0.79290729203E+03  0.79290729204E+03  0.50400001928E-02 0.  1.
        1   -1    0    0  501    0  0.00000000000E+00  0.00000000000E+00 -0.45454076548E+03  0.45454076550E+03  0.50400001928E-02 0. -1.
    10030    2    1    2    0    0  0.00000000000E+00  0.00000000000E+00  0.33836652655E+03  0.12474480575E+04  0.12006809526E+04 0.  0.
        4    1    3    3  502    0  0.43604623961E+03 -0.16193756610E+03  0.56350155440E+03  0.73068167700E+03  0.12699999809E+01 0.  1.
       -4    1    3    3    0  502 -0.43604623961E+03  0.16193756610E+03 -0.22513502785E+03  0.51676638054E+03  0.12699999809E+01 0. -1.
</event>
<event>
 5   0  0.3883890E-04  0.1199951E+04  0.7818609E-02  0.9112900E-01
       -2   -1    0    0    0  501  0.00000000000E+00  0.00000000000E+00  0.39349882164E+03  0.39349882164E+03  0.25500000920E-02 0.  1.
        2   -1    0    0  501    0  0.00000000000E+00  0.00000000000E+00 -0.91479395945E+03  0.91479395946E+03  0.25500000920E-02 0. -1.
    10030    2    1    2    0    0  0.00000000000E+00  0.00000000000E+00 -0.52129513782E+03  0.13082927811E+04  0.11999505741E+04 0.  0.
        2    1    3    3  502    0  0.56077273788E+03 -0.13885873417E+03 -0.84093020034E+02  0.58379743715E+03  0.25500000920E-02 0.  1.
       -2    1    3    3    0  502 -0.56077273788E+03  0.13885873417E+03 -0.43720211778E+03  0.72449534395E+03  0.25500000920E-02 0. -1.
</event>
<event>
 5   0  0.3993723E-04  0.1200288E+04  0.7818609E-02  0.9112604E-01
        2   -1    0    0  501    0  0.00000000000E+00  0.00000000000E+00  0.30891632890E+03  0.30891632891E+03  0.25500000920E-02 0.  1.
       -2   -1    0    0    0  501  0.00000000000E+00  0.00000000000E+00 -0.11659236989E+04  0.11659236989E+04  0.25500000920E-02 0. -1.
    10030    2    1    2    0    0  0.00000000000E+00  0.00000000000E+00 -0.85700736999E+03  0.14748400278E+04  0.12002880802E+04 0.  0.
        3    1    3    3  502    0 -0.56015931282E+03  0.15804876700E+03 -0.60831555693E+03  0.84190598970E+03  0.10100000352E+00 0. -1.
       -3    1    3    3    0  502  0.56015931282E+03 -0.15804876700E+03 -0.24869181306E+03  0.63293403809E+03  0.10100000352E+00 0.  1.
</event>
<event>
 5   0  0.2315038E-04  0.1200306E+04  0.7818609E-02  0.9112588E-01
       -1   -1    0    0    0  501  0.00000000000E+00  0.00000000000E+00  0.20445080508E+04  0.20445080508E+04  0.50400001928E-02 0. -1.
        1   -1    0    0  501    0  0.00000000000E+00  0.00000000000E+00 -0.17617137310E+03  0.17617137317E+03  0.50400001928E-02 0.  1.
    10030    2    1    2    0    0  0.00000000000E+00  0.00000000000E+00  0.18683366777E+04  0.22206794240E+04  0.12003062788E+04 0.  0.
        1    1    3    3  502    0  0.30850044655E+03  0.37939344954E+03  0.29042103092E+03  0.56873217801E+03  0.50400001928E-02 0.  1.
       -1    1    3    3    0  502 -0.30850044655E+03 -0.37939344954E+03  0.15779156468E+04  0.16519472460E+04  0.50400001928E-02 0. -1.
</event>
<event>
 5   0  0.4122956E-04  0.1198588E+04  0.7818609E-02  0.9114093E-01
       -2   -1    0    0    0  501  0.00000000000E+00  0.00000000000E+00  0.25552564026E+03  0.25552564028E+03  0.25500000920E-02 0. -1.
        2   -1    0    0  501    0  0.00000000000E+00  0.00000000000E+00 -0.14055467432E+04  0.14055467432E+04  0.25500000920E-02 0.  1.
    10030    2    1    2    0    0  0.00000000000E+00  0.00000000000E+00 -0.11500211029E+04  0.16610723834E+04  0.11985878883E+04 0.  0.
        5    1    3    3  502    0 -0.61090031012E+02  0.53592560600E+03 -0.21313737738E+03  0.57999817128E+03  0.46999998093E+01 0.  1.
       -5    1    3    3    0  502  0.61090031012E+02 -0.53592560600E+03 -0.93688372551E+03  0.10810742121E+04  0.46999998093E+01 0. -1.
</event>
<event>
 5   0  0.2304842E-04  0.1199730E+04  0.7818609E-02  0.9113093E-01
       -1   -1    0    0    0  501  0.00000000000E+00  0.00000000000E+00  0.31147846176E+03  0.31147846180E+03  0.50400001928E-02 0. -1.
        1   -1    0    0  501    0  0.00000000000E+00  0.00000000000E+00 -0.11552579098E+04  0.11552579098E+04  0.50400001928E-02 0.  1.
    10030    2    1    2    0    0  0.00000000000E+00  0.00000000000E+00 -0.84377944808E+03  0.14667363716E+04  0.11997298975E+04 0.  0.
        4    1    3    3  502    0 -0.79643685709E+02  0.33147237968E+03  0.18153682686E+03  0.38623087340E+03  0.12699999809E+01 0. -1.
       -4    1    3    3    0  502  0.79643685709E+02 -0.33147237968E+03 -0.10253162749E+04  0.10805054982E+04  0.12699999809E+01 0.  1.
</event>
<event>
 5   0  0.2244308E-04  0.1198882E+04  0.7818609E-02  0.9113836E-01
       -1   -1    0    0    0  501  0.00000000000E+00  0.00000000000E+00  0.90401278926E+03  0.90401278927E+03  0.50400001928E-02 0. -1.
        1   -1    0    0  501    0  0.00000000000E+00  0.00000000000E+00 -0.39748277685E+03  0.39748277688E+03  0.50400001928E-02 0.  1.
    10030    2    1    2    0    0  0.00000000000E+00  0.00000000000E+00  0.50653001241E+03  0.13014955662E+04  0.11988820022E+04 0.  0.
        5    1    3    3  502    0  0.14872949652E+03 -0.26033899529E+03 -0.31020858485E+03  0.43144908357E+03  0.46999998093E+01 0.  1.
       -5    1    3    3    0  502 -0.14872949652E+03  0.26033899529E+03  0.81673859726E+03  0.87004648258E+03  0.46999998093E+01 0. -1.
</event>
<event>
 5   0  0.3883890E-04  0.1200328E+04  0.7818609E-02  0.9112570E-01
        2   -1    0    0  501    0  0.00000000000E+00  0.00000000000E+00  0.10432169505E+04  0.10432169505E+04  0.25500000920E-02 0. -1.
       -2   -1    0    0    0  501  0.00000000000E+00  0.00000000000E+00 -0.34527498620E+03  0.34527498621E+03  0.25500000920E-02 0.  1.
    10030    2    1    2    0    0  0.00000000000E+00  0.00000000000E+00  0.69794196432E+03  0.13884919367E+04  0.12003278189E+04 0.  0.
        2    1    3    3  502    0 -0.51114498980E+03 -0.50119463752E+02 -0.10213071724E+02  0.51369783734E+03  0.25500000920E-02 0.  1.
       -2    1    3    3    0  502  0.51114498980E+03  0.50119463752E+02  0.70815503604E+03  0.87479409939E+03  0.25500000920E-02 0. -1.
</event>
<event>
 5   0  0.2315038E-04  0.1196390E+04  0.7818609E-02  0.9116022E-01
       -1   -1    0    0    0  501  0.00000000000E+00  0.00000000000E+00  0.42782730925E+03  0.42782730928E+03  0.50400001928E-02 0. -1.
        1   -1    0    0  501    0  0.00000000000E+00  0.00000000000E+00 -0.83640638451E+03  0.83640638453E+03  0.50400001928E-02 0.  1.
    10030    2    1    2    0    0  0.00000000000E+00  0.00000000000E+00 -0.40857907526E+03  0.12642336938E+04  0.11963903927E+04 0.  0.
        1    1    3    3  502    0  0.11987199687E+03 -0.15679464170E+03 -0.80100949299E+03  0.82496670429E+03  0.50400001928E-02 0.  1.
       -1    1    3    3    0  502 -0.11987199687E+03  0.15679464170E+03  0.39243041772E+03  0.43926698952E+03  0.50400001928E-02 0. -1.
</event>
<event>
 5   0  0.2204090E-04  0.1199254E+04  0.7818609E-02  0.9113510E-01
        1   -1    0    0  501    0  0.00000000000E+00  0.00000000000E+00  0.89712885390E+03  0.89712885392E+03  0.50400001928E-02 0. -1.
       -1   -1    0    0    0  501  0.00000000000E+00  0.00000000000E+00 -0.40078156175E+03  0.40078156178E+03  0.50400001928E-02 0.  1.
    10030    2    1    2    0    0  0.00000000000E+00  0.00000000000E+00  0.49634729215E+03  0.12979104157E+04  0.11992542736E+04 0.  0.
        2    1    3    3  502    0  0.28994193940E+03  0.49890635317E+03  0.71731903765E+02  0.58148030360E+03  0.25500000920E-02 0.  1.
       -2    1    3    3    0  502 -0.28994193940E+03 -0.49890635317E+03  0.42461538839E+03  0.71643011210E+03  0.25500000920E-02 0. -1.
</event>
<event>
 5   0  0.4122956E-04  0.1196483E+04  0.7818609E-02  0.9115941E-01
        2   -1    0    0  501    0  0.00000000000E+00  0.00000000000E+00  0.10481352661E+04  0.10481352661E+04  0.25500000920E-02 0.  1.
       -2   -1    0    0    0  501  0.00000000000E+00  0.00000000000E+00 -0.34145668901E+03  0.34145668902E+03  0.25500000920E-02 0. -1.
    10030    2    1    2    0    0  0.00000000000E+00  0.00000000000E+00  0.70667857704E+03  0.13895919551E+04  0.11964828417E+04 0.  0.
        5    1    3    3  502    0 -0.32157212057E+03  0.39130866587E+02 -0.23075333492E+03  0.39775500628E+03  0.46999998093E+01 0. -1.
       -5    1    3    3    0  502  0.32157212057E+03 -0.39130866587E+02  0.93743191196E+03  0.99183694880E+03  0.46999998093E+01 0.  1.
</event>
<event>
 5   0  0.3832662E-04  0.1200019E+04  0.7818609E-02  0.9112840E-01
       -2   -1    0    0    0  501  0.00000000000E+00  0.00000000000E+00  0.74599505607E+03  0.74599505607E+03  0.25500000920E-02 0.  1.
        2   -1    0    0  501    0  0.00000000000E+00  0.00000000000E+00 -0.48259248705E+03  0.48259248706E+03  0.25500000920E-02 0. -1.
    10030    2    1    2    0    0  0.00000000000E+00  0.00000000000E+00  0.26340256902E+03  0.12285875431E+04  0.12000193489E+04 0.  0.
        4    1    3    3  502    0  0.46869461046E+03  0.37252147204E+03  0.91223862605E+02  0.60561562976E+03  0.12699999809E+01 0. -1.
       -4    1    3    3    0  502 -0.46869461046E+03 -0.37252147204E+03  0.17217870641E+03  0.62297191337E+03  0.12699999809E+01 0.  1.
</event>
<event>
 5   0  0.2204090E-04  0.1200246E+04  0.7818609E-02  0.9112641E-01
        1   -1    0    0  501    0  0.00000000000E+00  0.00000000000E+00  0.87547976328E+03  0.87547976329E+03  0.50400001928E-02 0.  1.
       -1   -1    0    0    0  501  0.00000000000E+00  0.00000000000E+00 -0.41137172354E+03  0.41137172357E+03  0.50400001928E-02 0. -1.
    10030    2    1    2    0    0  0.00000000000E+00  0.00000000000E+00  0.46410803974E+03  0.12868514869E+04  0.12002460067E+04 0.  0.
        2    1    3    3  502    0  0.21673866056E+03 -0.45695835736E+03 -0.11430566923E+03  0.51850976207E+03  0.25500000920E-02 0. -1.
       -2    1    3    3    0  502 -0.21673866056E+03  0.45695835736E+03  0.57841370897E+03  0.76834172480E+03  0.25500000920E-02 0.  1.
</event>
<event>
 5   0  0.2340731E-04  0.1197550E+04  0.7818609E-02  0.9115004E-01
       -1   -1    0    0    0  501  0.00000000000E+00  0.00000000000E+00  0.87868748828E+03  0.87868748829E+03  0.50400001928E-02 0.  1.
        1   -1    0    0  501    0  0.00000000000E+00  0.00000000000E+00 -0.40803061144E+03  0.40803061147E+03  0.50400001928E-02 0. -1.
    10030    2    1    2    0    0  0.00000000000E+00  0.00000000000E+00  0.47065687684E+03  0.12867180998E+04  0.11975498205E+04 0.  0.
        3    1    3    3  502    0 -0.46389347610E+03 -0.37356117147E+03  0.30144283032E+03  0.66754243023E+03  0.10100000352E+00 0.  1.
       -3    1    3    3    0  502  0.46389347610E+03  0.37356117147E+03  0.16921404652E+03  0.61917566953E+03  0.10100000352E+00 0. -1.
</event>
<event>
 5   0  0.2204090E-04  0.1206394E+04  0.7818609E-02  0.9107278E-01
        1   -1    0    0  501    0  0.00000000000E+00  0.00000000000E+00  0.17290890879E+04  0.17290890879E+04  0.50400001928E-02 0.  1.
       -1   -1    0    0    0  501  0.00000000000E+00  0.00000000000E+00 -0.21042675160E+03  0.21042675166E+03  0.50400001928E-02 0. -1.
    10030    2    1    2    0    0  0.00000000000E+00  0.00000000000E+00  0.15186623363E+04  0.19395158395E+04  0.12063939656E+04 0.  0.
        2    1    3    3  502    0 -0.22901180596E+03 -0.48013525539E+03  0.12165233343E+04  0.13277444384E+04  0.25500000920E-02 0.  1.
       -2    1    3    3    0  502  0.22901180596E+03  0.48013525539E+03  0.30213900192E+03  0.61177140112E+03  0.25500000920E-02 0. -1.
</event>
<event>
 5   0  0.3993723E-04  0.1200892E+04  0.7818609E-02  0.9112076E-01
        2   -1    0    0  501    0  0.00000000000E+00  0.00000000000E+00  0.33943731266E+03  0.33943731267E+03  0.25500000920E-02 0. -1.
       -2   -1    0    0    0  501  0.00000000000E+00  0.00000000000E+00 -0.10621568492E+04  0.10621568492E+04  0.25500000920E-02 0.  1.
    10030    2    1    2    0    0  0.00000000000E+00  0.00000000000E+00 -0.72271953655E+03  0.14015941619E+04  0.12008924457E+04 0.  0.
        3    1    3    3  502    0 -0.16956109720E+01  0.49724019812E+03 -0.75418946117E+03  0.90335621062E+03  0.10100000352E+00 0. -1.
       -3    1    3    3    0  502  0.16956109720E+01 -0.49724019812E+03  0.31469924628E+02  0.49823795126E+03  0.10100000352E+00 0.  1.
</event>
<event>
 5   0  0.2244308E-04  0.1202917E+04  0.7818609E-02  0.9110307E-01
        1   -1    0    0  501    0  0.00000000000E+00  0.00000000000E+00  0.74117294517E+03  0.74117294519E+03  0.50400001928E-02 0.  1.
       -1   -1    0    0    0  501  0.00000000000E+00  0.00000000000E+00 -0.48808123155E+03  0.48808123157E+03  0.50400001928E-02 0. -1.
    10030    2    1    2    0    0  0.00000000000E+00  0.00000000000E+00  0.25309171362E+03  0.12292541768E+04  0.12029174600E+04 0.  0.
        5    1    3    3  502    0 -0.38219484339E+03 -0.37524103366E+03 -0.15303468151E+03  0.55706412144E+03  0.46999998093E+01 0. -1.
       -5    1    3    3    0  502  0.38219484339E+03  0.37524103366E+03  0.40612639513E+03  0.67219005532E+03  0.46999998093E+01 0.  1.
</event>
<event>
 5   0  0.2304842E-04  0.1200233E+04  0.7818609E-02  0.9112653E-01
       -1   -1    0    0    0  501  0.00000000000E+00  0.00000000000E+00  0.52022716091E+03  0.52022716093E+03  0.50400001928E-02 0. -1.
        1   -1    0    0  501    0  0.00000000000E+00  0.00000000000E+00 -0.69227382219E+03  0.69227382221E+03  0.50400001928E-02 0.  1.
    10030    2    1    2    0    0  0.00000000000E+00  0.00000000000E+00 -0.17204666128E+03  0.12125009831E+04  0.12002327193E+04 0.  0.
        4    1    3    3  502    0  0.42653375018E+03  0.35783242503E+03 -0.31228352836E+03  0.63835546480E+03  0.12699999809E+01 0.  1.
       -4    1    3    3    0  502 -0.42653375018E+03 -0.35783242503E+03  0.14023686708E+03  0.57414551835E+03  0.12699999809E+01 0. -1.
</event>
<event>
 5   0  0.2315038E-04  0.1200552E+04  0.7818609E-02  0.9112374E-01
       -1   -1    0    0    0  501  0.00000000000E+00  0.00000000000E+00  0.15641783053E+03  0.15641783061E+03  0.50400001928E-02 0. -1.
        1   -1    0    0  501    0  0.00000000000E+00  0.00000000000E+00 -0.23036457396E+04  0.23036457396E+04  0.50400001928E-02 0.  1.
    10030    2    1    2    0    0  0.00000000000E+00  0.00000000000E+00 -0.21472279091E+04  0.24600635702E+04  0.12005519881E+04 0.  0.
        1    1    3    3  502    0 -0.78639715309E+02  0.35318528237E+03 -0.92162325893E+02  0.37338712196E+03  0.50400001928E-02 0. -1.
       -1    1    3    3    0  502  0.78639715309E+02 -0.35318528237E+03 -0.20550655832E+04  0.20866764483E+04  0.50400001928E-02 0.  1.
</event>
<event>
 5   0  0.4024486E-04  0.1198896E+04  0.7818609E-02  0.9113824E-01
       -2   -1    0    0    0  501  0.00000000000E+00  0.00000000000E+00  0.40884317154E+03  0.40884317155E+03  0.25500000920E-02 0. -1.
        2   -1    0    0  501    0  0.00000000000E+00  0.00000000000E+00 -0.87891325098E+03  0.87891325098E+03  0.25500000920E-02 0.  1.
    10030    2    1    2    0    0  0.00000000000E+00  0.00000000000E+00 -0.47007007944E+03  0.12877564225E+04  0.11988956269E+04 0.  0.
        1    1    3    3  502    0 -0.59680775252E+03 -0.40547949364E+02 -0.19324020120E+03  0.62862182992E+03  0.50400001928E-02 0.  1.
       -1    1    3    3    0  502  0.59680775252E+03  0.40547949364E+02 -0.27682987824E+03  0.65913459261E+03  0.50400001928E-02 0. -1.
</event>
<event>
 5   0  0.2315038E-04  0.1200197E+04  0.7818609E-02  0.9112684E-01
        1   -1    0    0  501    0  0.00000000000E+00  0.00000000000E+00  0.13703683908E+04  0.13703683908E+04  0.50400001928E-02 0. -1.
       -1   -1    0    0    0  501  0.00000000000E+00  0.00000000000E+00 -0.26278920252E+03  0.26278920256E+03  0.50400001928E-02 0.  1.
    10030    2    1    2    0    0  0.00000000000E+00  0.00000000000E+00  0.11075791883E+04  0.16331575934E+04  0.12001966783E+04 0.  0.
        1    1    3    3  502    0 -0.48987918394E+03 -0.33012698501E+03  0.69749174225E+03  0.91403510415E+03  0.50400001928E-02 0. -1.
       -1    1    3    3    0  502  0.48987918394E+03  0.33012698501E+03  0.41008744605E+03  0.71912248924E+03  0.50400001928E-02 0.  1.
</event>
<event>
 5   0  0.3993723E-04  0.1201827E+04  0.7818609E-02  0.9111259E-01
        2   -1    0    0  501    0  0.00000000000E+00  0.00000000000E+00  0.10096748404E+04  0.10096748404E+04  0.25500000920E-02 0.  1.
       -2   -1    0    0    0  501  0.00000000000E+00  0.00000000000E+00 -0.35763702388E+03  0.35763702389E+03  0.25500000920E-02 0. -1.
    10030    2    1    2    0    0  0.00000000000E+00  0.00000000000E+00  0.65203781654E+03  0.13673118643E+04  0.12018271174E+04 0.  0.
        3    1    3    3  502    0 -0.42355121044E+02  0.15863789655E+03  0.98365852773E+03  0.99726829282E+03  0.10100000352E+00 0.  1.
       -3    1    3    3    0  502  0.42355121044E+02 -0.15863789655E+03 -0.33162071119E+03  0.37004357148E+03  0.10100000352E+00 0. -1.
</event>
<event>
 5   0  0.3993723E-04  0.1193418E+04  0.7818609E-02  0.9118638E-01
        2   -1    0    0  501    0  0.00000000000E+00  0.00000000000E+00  0.76497558200E+03  0.76497558200E+03  0.25500000920E-02 0.  1.
       -2   -1    0    0    0  501  0.00000000000E+00  0.00000000000E+00 -0.46545473221E+03  0.46545473222E+03  0.25500000920E-02 0. -1.
    10030    2    1    2    0    0  0.00000000000E+00  0.00000000000E+00  0.29952084979E+03  0.12304303142E+04  0.11934177888E+04 0.  0.
        3    1    3    3  502    0 -0.26894987715E+03  0.24840756365E+03  0.63556508869E+03  0.73347348027E+03  0.10100000352E+00 0.  1.
       -3    1    3    3    0  502  0.26894987715E+03 -0.24840756365E+03 -0.33604423891E+03  0.49695683394E+03  0.10100000352E+00 0. -1.
</event>
<event>
 5   0  0.3832662E-04  0.1199463E+04  0.7818609E-02  0.9113327E-01
       -2   -1    0    0    0  501  0.00000000000E+00  0.00000000000E+00  0.30933107490E+03  0.30933107491E+03  0.25500000920E-02 0. -1.
        2   -1    0    0  501    0  0.00000000000E+00  0.00000000000E+00 -0.11627595616E+04  0.11627595616E+04  0.25500000920E-02 0.  1.
    10030    2    1    2    0    0  0.00000000000E+00  0.00000000000E+00 -0.85342848667E+03  0.14720906365E+04  0.11994626547E+04 0.  0.
        4    1    3    3  502    0  0.14207667510E+03  0.13311033378E+03  0.26946630302E+03  0.33244224149E+03  0.12699999809E+01 0. -1.
       -4    1    3    3    0  502 -0.14207667510E+03 -0.13311033378E+03 -0.11228947897E+04  0.11396483950E+04  0.12699999809E+01 0.  1.
</event>
<event>
 5   0  0.2340731E-04  0.1198489E+04  0.7818609E-02  0.9114180E-01
       -1   -1    0    0    0  501  0.00000000000E+00  0.00000000000E+00  0.58150047218E+03  0.58150047220E+03  0.50400001928E-02 0.  1.
        1   -1    0    0  501    0  0.00000000000E+00  0.00000000000E+00 -0.61753042689E+03  0.61753042691E+03  0.50400001928E-02 0. -1.
    10030    2    1    2    0    0  0.00000000000E+00  0.00000000000E+00 -0.36029954710E+02  0.11990308991E+04  0.11984894407E+04 0.  0.
        3    1    3    3  502    0  0.18801495538E+02  0.53925586753E+03 -0.27879312732E+03  0.60735163204E+03  0.10100000352E+00 0. -1.
       -3    1    3    3    0  502 -0.18801495538E+02 -0.53925586753E+03  0.24276317261E+03  0.59167926707E+03  0.10100000352E+00 0.  1.
</event>
<event>
 5   0  0.3832662E-04  0.1204620E+04  0.7818609E-02  0.9108822E-01
        2   -1    0    0  501    0  0.00000000000E+00  0.00000000000E+00  0.13715474924E+04  0.13715474924E+04  0.25500000920E-02 0. -1.
       -2   -1    0    0    0  501  0.00000000000E+00  0.00000000000E+00 -0.26450217645E+03  0.26450217646E+03  0.25500000920E-02 0.  1.
    10030    2    1    2    0    0  0.00000000000E+00  0.00000000000E+00  0.11070453159E+04  0.16360496688E+04  0.12046199348E+04 0.  0.
        4    1    3    3  502    0  0.45999944874E+03  0.28637287027E+03  0.19633603406E+03  0.57633181835E+03  0.12699999809E+01 0.  1.
       -4    1    3    3    0  502 -0.45999944874E+03 -0.28637287027E+03  0.91070928185E+03  0.10597178505E+04  0.12699999809E+01 0. -1.
</event>
<event>
 5   0  0.2244308E-04  0.1198927E+04  0.7818609E-02  0.9113796E-01
       -1   -1    0    0    0  501  0.00000000000E+00  0.00000000000E+00  0.49474549498E+03  0.49474549501E+03  0.50400001928E-02 0. -1.
        1   -1    0    0  501    0  0.00000000000E+00  0.00000000000E+00 -0.72634640996E+03  0.72634640998E+03  0.50400001928E-02 0.  1.
    10030    2    1    2    0    0  0.00000000000E+00  0.00000000000E+00 -0.23160091498E+03  0.12210919050E+04  0.11989272107E+04 0.  0.
        5    1    3    3  502    0 -0.53525797682E+03  0.16963297450E+03 -0.32958106203E+03  0.65109309183E+03  0.46999998093E+01 0.  1.
       -5    1    3    3    0  502  0.53525797682E+03 -0.16963297450E+03  0.97980147043E+02  0.56999881316E+03  0.46999998093E+01 0. -1.
</event>
<event>
 5   0  0.4024486E-04  0.1197815E+04  0.7818609E-02  0.9114771E-01
       -2   -1    0    0    0  501  0.00000000000E+00  0.00000000000E+00  0.39227994363E+03  0.39227994364E+03  0.25500000920E-02 0. -1.
        2   -1    0    0  501    0  0.00000000000E+00  0.00000000000E+00 -0.91437342129E+03  0.91437342130E+03  0.25500000920E-02 0.  1.
    10030    2    1    2    0    0  0.00000000000E+00  0.00000000000E+00 -0.52209347766E+03  0.13066533649E+04  0.11978152682E+04 0.  0.
        1    1    3    3  502    0 -0.52213625426E+01 -0.59050398111E+03 -0.15213426892E+03  0.60980902760E+03  0.50400001928E-02 0. -1.
       -1    1    3    3    0  502  0.52213625426E+01  0.59050398111E+03 -0.36995920874E+03  0.69684433735E+03  0.50400001928E-02 0.  1.
</event>
<event>
 5   0  0.2204090E-04  0.1201531E+04  0.7818609E-02  0.9111518E-01
        1   -1    0    0  501    0  0.00000000000E+00  0.00000000000E+00  0.47226257666E+03  0.47226257669E+03  0.50400001928E-02 0. -1.
       -1   -1    0    0    0  501  0.00000000000E+00  0.00000000000E+00 -0.76423411909E+03  0.76423411911E+03  0.50400001928E-02 0.  1.
    10030    2    1    2    0    0  0.00000000000E+00  0.00000000000E+00 -0.29197154243E+03  0.12364966958E+04  0.12015309805E+04 0.  0.
        2    1    3    3  502    0  0.79506724936E+02  0.34759695644E+03  0.35158663385E+03  0.50075755066E+03  0.25500000920E-02 0. -1.
       -2    1    3    3    0  502 -0.79506724936E+02 -0.34759695644E+03 -0.64355817628E+03  0.73573914514E+03  0.25500000920E-02 0.  1.
</event>
<event>
 5   0  0.4122956E-04  0.1196585E+04  0.7818609E-02  0.9115851E-01
        2   -1    0    0  501    0  0.00000000000E+00  0.00000000000E+00  0.22237770075E+03  0.22237770077E+03  0.25500000920E-02 0.  1.
       -2   -1    0    0    0  501  0.00000000000E+00  0.00000000000E+00 -0.16096661855E+04  0.16096661855E+04  0.25500000920E-02 0. -1.
    10030    2    1    2    0    0  0.00000000000E+00  0.00000000000E+00 -0.13872884847E+04  0.18320438863E+04  0.11965849160E+04 0.  0.
        5    1    3    3  502    0  0.13518165445E+03  0.57992247214E+03 -0.78222931608E+03  0.98310169684E+03  0.46999998093E+01 0.  1.
       -5    1    3    3    0  502 -0.13518165445E+03 -0.57992247214E+03 -0.60505916866E+03  0.84894218942E+03  0.46999998093E+01 0. -1.
</event>
<event>
 5   0  0.2340731E-04  0.1194874E+04  0.7818609E-02  0.9117356E-01
        1   -1    0    0  501    0  0.00000000000E+00  0.00000000000E+00  0.11922701859E+04  0.11922701859E+04  0.50400001928E-02 0.  1.
       -1   -1    0    0    0  501  0.00000000000E+00  0.00000000000E+00 -0.29937065414E+03  0.29937065418E+03  0.50400001928E-02 0. -1.
    10030    2    1    2    0    0  0.00000000000E+00  0.00000000000E+00  0.89289953173E+03  0.14916408401E+04  0.11948735590E+04 0.  0.
        3    1    3    3  502    0  0.48753389643E+03 -0.33850833066E+03  0.36129040045E+03  0.69484383408E+03  0.10100000352E+00 0.  1.
       -3    1    3    3    0  502 -0.48753389643E+03  0.33850833066E+03  0.53160913128E+03  0.79679700599E+03  0.10100000352E+00 0. -1.
</event>
<event>
 5   0  0.2315038E-04  0.1198413E+04  0.7818609E-02  0.9114246E-01
        1   -1    0    0  501    0  0.00000000000E+00  0.00000000000E+00  0.58055637356E+03  0.58055637359E+03  0.50400001928E-02 0. -1.
       -1   -1    0    0    0  501  0.00000000000E+00  0.00000000000E+00 -0.61845609761E+03  0.61845609763E+03  0.50400001928E-02 0.  1.
    10030    2    1    2    0    0  0.00000000000E+00  0.00000000000E+00 -0.37899724049E+02  0.11990124712E+04  0.11984133331E+04 0.  0.
        1    1    3    3  502    0  0.26273715865E+03  0.51783844141E+03 -0.16687899176E+03  0.60418214460E+03  0.50400001928E-02 0. -1.
       -1    1    3    3    0  502 -0.26273715865E+03 -0.51783844141E+03  0.12897926771E+03  0.59483032662E+03  0.50400001928E-02 0.  1.
</event>
<event>
 5   0  0.2244308E-04  0.1200326E+04  0.7818609E-02  0.9112571E-01
       -1   -1    0    0    0  501  0.00000000000E+00  0.00000000000E+00  0.32131124434E+03  0.32131124438E+03  0.50400001928E-02 0. -1.
        1   -1    0    0  501    0  0.00000000000E+00  0.00000000000E+00 -0.11210185629E+04  0.11210185629E+04  0.50400001928E-02 0.  1.
    10030    2    1    2    0    0  0.00000000000E+00  0.00000000000E+00 -0.79970731856E+03  0.14423298073E+04  0.12003264046E+04 0.  0.
        5    1    3    3  502    0  0.12608484467E+03 -0.10334869884E+03 -0.10938789079E+04  0.11059708390E+04  0.46999998093E+01 0.  1.
       -5    1    3    3    0  502 -0.12608484467E+03  0.10334869884E+03  0.29417158931E+03  0.33635896831E+03  0.46999998093E+01 0. -1.
</event>
<event>
 5   0  0.2315038E-04  0.1192127E+04  0.7818609E-02  0.9119775E-01
       -1   -1    0    0    0  501  0.00000000000E+00  0.00000000000E+00  0.50828986829E+03  0.50828986832E+03  0.50400001928E-02 0.  1.
        1   -1    0    0  501    0  0.00000000000E+00  0.00000000000E+00 -0.69899465354E+03  0.69899465355E+03  0.50400001928E-02 0. -1.
    10030    2    1    2    0    0  0.00000000000E+00  0.00000000000E+00 -0.19070478524E+03  0.12072845219E+04  0.11921273429E+04 0.  0.
        1    1    3    3  502    0 -0.96994290054E+02  0.16764038197E+03  0.47553539061E+03  0.51346382319E+03  0.50400001928E-02 0.  1.
       -1    1    3    3    0  502  0.96994290054E+02 -0.16764038197E+03 -0.66624017586E+03  0.69382069868E+03  0.50400001928E-02 0. -1.
</event>
<event>
 5   0  0.2204090E-04  0.1198067E+04  0.7818609E-02  0.9114550E-01
        1   -1    0    0  501    0  0.00000000000E+00  0.00000000000E+00  0.28708054375E+03  0.28708054379E+03  0.50400001928E-02 0.  1.
       -1   -1    0    0    0  501  0.00000000000E+00  0.00000000000E+00 -0.12499674518E+04  0.12499674518E+04  0.50400001928E-02 0. -1.
    10030    2    1    2    0    0  0.00000000000E+00  0.00000000000E+00 -0.96288690804E+03  0.15370479956E+04  0.11980673366E+04 0.  0.
        2    1    3    3  502    0  0.11532085953E+03  0.49036800103E+03 -0.65561897624E+02  0.50799413334E+03  0.25500000920E-02 0.  1.
       -2    1    3    3    0  502 -0.11532085953E+03 -0.49036800103E+03 -0.89732501042E+03  0.10290538622E+04  0.25500000920E-02 0. -1.
</event>
<event>
 5   0  0.2244308E-04  0.1199684E+04  0.7818609E-02  0.9113133E-01
        1   -1    0    0  501    0  0.00000000000E+00  0.00000000000E+00  0.47157039249E+03  0.47157039252E+03  0.50400001928E-02 0.  1.
       -1   -1    0    0    0  501  0.00000000000E+00  0.00000000000E+00 -0.76300462041E+03  0.76300462043E+03  0.50400001928E-02 0. -1.
    10030    2    1    2    0    0  0.00000000000E+00  0.00000000000E+00 -0.29143422792E+03  0.12345750129E+04  0.11996839390E+04 0.  0.
        5    1    3    3  502    0 -0.31978004050E+03 -0.17735648509E+03 -0.63501761500E+03  0.73279196124E+03  0.46999998093E+01 0. -1.
       -5    1    3    3    0  502  0.31978004050E+03  0.17735648509E+03  0.34358338708E+03  0.50178305170E+03  0.46999998093E+01 0.  1.
</event>
<event>
 5   0  0.4122956E-04  0.1207531E+04  0.7818609E-02  0.9106290E-01
       -2   -1    0    0    0  501  0.00000000000E+00  0.00000000000E+00  0.40397239663E+03  0.40397239664E+03  0.25500000920E-02 0. -1.
        2   -1    0    0  501    0  0.00000000000E+00  0.00000000000E+00 -0.90236999684E+03  0.90236999684E+03  0.25500000920E-02 0.  1.
    10030    2    1    2    0    0  0.00000000000E+00  0.00000000000E+00 -0.49839760021E+03  0.13063423935E+04  0.12075306543E+04 0.  0.
        5    1    3    3  502    0 -0.47731592541E+03 -0.12049053299E+03 -0.62731645642E+03  0.79743118053E+03  0.46999998093E+01 0.  1.
       -5    1    3    3    0  502  0.47731592541E+03  0.12049053299E+03  0.12891885621E+03  0.50891121296E+03  0.46999998093E+01 0. -1.
</event>
<event>
 5   0  0.2244308E-04  0.1201105E+04  0.7818609E-02  0.9111890E-01
       -1   -1    0    0    0  501  0.00000000000E+00  0.00000000000E+00  0.27384162574E+03  0.27384162579E+03  0.50400001928E-02 0.  1.
        1   -1    0    0  501    0  0.00000000000E+00  0.00000000000E+00 -0.13170514128E+04  0.13170514128E+04  0.50400001928E-02 0. -1.
    10030    2    1    2    0    0  0.00000000000E+00  0.00000000000E+00 -0.10432097870E+04  0.15908930386E+04  0.12011053245E+04 0.  0.
        5    1    3    3  502    0  0.60037078262E+03 -0.87221475518E+00 -0.50308177774E+03  0.78330019946E+03  0.46999998093E+01 0. -1.
       -5    1    3    3    0  502 -0.60037078262E+03  0.87221475518E+00 -0.54012800931E+03  0.80759283913E+03  0.46999998093E+01 0.  1.
</event>
<event>
 5   0  0.4024486E-04  0.1201616E+04  0.7818609E-02  0.9111443E-01
       -2   -1    0    0    0  501  0.00000000000E+00  0.00000000000E+00  0.19524397856E+03  0.19524397858E+03  0.25500000920E-02 0. -1.
        2   -1    0    0  501    0  0.00000000000E+00  0.00000000000E+00 -0.18488160033E+04  0.18488160033E+04  0.25500000920E-02 0.  1.
    10030    2    1    2    0    0  0.00000000000E+00  0.00000000000E+00 -0.16535720247E+04  0.20440599818E+04  0.12016158989E+04 0.  0.
        1    1    3    3  502    0 -0.43157144961E+03 -0.41621746240E+03 -0.76135914984E+03  0.96910197977E+03  0.50400001928E-02 0. -1.
       -1    1    3    3    0  502  0.43157144961E+03  0.41621746240E+03 -0.89221287486E+03  0.10749580021E+04  0.50400001928E-02 0.  1.
</event>
<event>
 5   0  0.2315038E-04  0.1199666E+04  0.7818609E-02  0.9113149E-01
        1   -1    0    0  501    0  0.00000000000E+00  0.00000000000E+00  0.19706351066E+04  0.19706351066E+04  0.50400001928E-02 0.  1.
       -1   -1    0    0    0  501  0.00000000000E+00  0.00000000000E+00 -0.18258068857E+03  0.18258068864E+03  0.50400001928E-02 0. -1.
    10030    2    1    2    0    0  0.00000000000E+00  0.00000000000E+00  0.17880544180E+04  0.21532157952E+04  0.11996664783E+04 0.  0.
        1    1    3    3  502    0  0.19142247091E+03 -0.20639809210E+03  0.18447145850E+04  0.18660693007E+04  0.50400001928E-02 0.  1.
       -1    1    3    3    0  502 -0.19142247091E+03  0.20639809210E+03 -0.56660166983E+02  0.28714649456E+03  0.50400001928E-02 0. -1.
</event>
<event>
 5   0  0.3832662E-04  0.1201832E+04  0.7818609E-02  0.9111255E-01
        2   -1    0    0  501    0  0.00000000000E+00  0.00000000000E+00  0.26840335208E+04  0.26840335208E+04  0.25500000920E-02 0. -1.
       -2   -1    0    0    0  501  0.00000000000E+00  0.00000000000E+00 -0.13453623787E+03  0.13453623789E+03  0.25500000920E-02 0.  1.
    10030    2    1    2    0    0  0.00000000000E+00  0.00000000000E+00  0.25494972829E+04  0.28185697587E+04  0.12018315560E+04 0.  0.
        4    1    3    3  502    0 -0.33182232578E+02  0.53900117359E+03  0.65659142617E+03  0.85013954120E+03  0.12699999809E+01 0.  1.
       -4    1    3    3    0  502  0.33182232578E+02 -0.53900117359E+03  0.18929058567E+04  0.19684302175E+04  0.12699999809E+01 0. -1.
</event>
<event>
 5   0  0.3993723E-04  0.1198913E+04  0.7818609E-02  0.9113808E-01
       -2   -1    0    0    0  501  0.00000000000E+00  0.00000000000E+00  0.80177414076E+03  0.80177414076E+03  0.25500000920E-02 0. -1.
        2   -1    0    0  501    0  0.00000000000E+00  0.00000000000E+00 -0.44819127104E+03  0.44819127104E+03  0.25500000920E-02 0.  1.
    10030    2    1    2    0    0  0.00000000000E+00  0.00000000000E+00  0.35358286972E+03  0.12499654118E+04  0.11989131265E+04 0.  0.
        3    1    3    3  502    0 -0.29650120579E+03  0.16034148619E+02 -0.36613075099E+03  0.47140406869E+03  0.10100000352E+00 0.  1.
       -3    1    3    3    0  502  0.29650120579E+03 -0.16034148619E+02  0.71971362071E+03  0.77856134311E+03  0.10100000352E+00 0. -1.
</event>
<event>
 5   0  0.2340731E-04  0.1200066E+04  0.7818609E-02  0.9112799E-01
        1   -1    0    0  501    0  0.00000000000E+00  0.00000000000E+00  0.10275251191E+04  0.10275251191E+04  0.50400001928E-02 0.  1.
       -1   -1    0    0    0  501  0.00000000000E+00  0.00000000000E+00 -0.35039511490E+03  0.35039511494E+03  0.50400001928E-02 0. -1.
    10030    2    1    2    0    0  0.00000000000E+00  0.00000000000E+00  0.67713000417E+03  0.13779202340E+04  0.12000663018E+04 0.  0.
        3    1    3    3  502    0 -0.27292444086E+03  0.54585546791E+02 -0.27179172756E+03  0.38902196044E+03  0.10100000352E+00 0. -1.
       -3    1    3    3    0  502  0.27292444086E+03 -0.54585546791E+02  0.94892173173E+03  0.98889827358E+03  0.10100000352E+00 0.  1.
</event>
<event>
 5   0  0.2244308E-04  0.1199208E+04  0.7818609E-02  0.9113550E-01
        1   -1    0    0  501    0  0.00000000000E+00  0.00000000000E+00  0.82279327570E+03  0.82279327571E+03  0.50400001928E-02 0. -1.
       -1   -1    0    0    0  501  0.00000000000E+00  0.00000000000E+00 -0.43695632602E+03  0.43695632605E+03  0.50400001928E-02 0.  1.
    10030    2    1    2    0    0  0.00000000000E+00  0.00000000000E+00  0.38583694968E+03  0.12597496018E+04  0.11992076165E+04 0.  0.
        5    1    3    3  502    0  0.10129081670E+03 -0.12822158097E+03  0.79893272592E+03  0.81548525059E+03  0.46999998093E+01 0. -1.
       -5    1    3    3    0  502 -0.10129081670E+03  0.12822158097E+03 -0.41309577624E+03  0.44426435117E+03  0.46999998093E+01 0.  1.
</event>
<event>
 5   0  0.1541375E-04  0.1200754E+04  0.7818609E-02  0.9112196E-01
        3   -1    0    0  501    0  0.00000000000E+00  0.00000000000E+00  0.37188615789E+03  0.37188617160E+03  0.10100000352E+00 0. -1.
       -3   -1    0    0    0  501  0.00000000000E+00  0.00000000000E+00 -0.96925582775E+03  0.96925583301E+03  0.10100000352E+00 0.  1.
    10030    2    1    2    0    0  0.00000000000E+00  0.00000000000E+00 -0.59736966986E+03  0.13411420046E+04  0.12007544937E+04 0.  0.
        2    1    3    3  502    0  0.26541095294E+03  0.44898308603E+03  0.33443365979E+02  0.52263490528E+03  0.25500000920E-02 0. -1.
       -2    1    3    3    0  502 -0.26541095294E+03 -0.44898308603E+03 -0.63081303584E+03  0.81850709934E+03  0.25500000920E-02 0.  1.
</event>
<event>
 5   0  0.2204090E-04  0.1198756E+04  0.7818609E-02  0.9113946E-01
       -1   -1    0    0    0  501  0.00000000000E+00  0.00000000000E+00  0.69591919427E+03  0.69591919429E+03  0.50400001928E-02 0. -1.
        1   -1    0    0  501    0  0.00000000000E+00  0.00000000000E+00 -0.51622933852E+03  0.51622933855E+03  0.50400001928E-02 0.  1.
    10030    2    1    2    0    0  0.00000000000E+00  0.00000000000E+00  0.17968985575E+03  0.12121485328E+04  0.11987558640E+04 0.  0.
        2    1    3    3  502    0  0.35777413194E+03 -0.29080244269E+03  0.47711925744E+03  0.66348411887E+03  0.25500000920E-02 0. -1.
       -2    1    3    3    0  502 -0.35777413194E+03  0.29080244269E+03 -0.29742940170E+03  0.54866441397E+03  0.25500000920E-02 0.  1.
</event>
<event>
 5   0  0.3993723E-04  0.1203132E+04  0.7818609E-02  0.9110119E-01
       -2   -1    0    0    0  501  0.00000000000E+00  0.00000000000E+00  0.20173034064E+03  0.20173034066E+03  0.25500000920E-02 0. -1.
        2   -1    0    0  501    0  0.00000000000E+00  0.00000000000E+00 -0.17938891611E+04  0.17938891611E+04  0.25500000920E-02 0.  1.
    10030    2    1    2    0    0  0.00000000000E+00  0.00000000000E+00 -0.15921588204E+04  0.19956195017E+04  0.12031323644E+04 0.  0.
        3    1    3    3  502    0  0.49521888534E+03 -0.15928165232E+03 -0.12971825216E+04  0.13976032676E+04  0.10100000352E+00 0.  1.
       -3    1    3    3    0  502 -0.49521888534E+03  0.15928165232E+03 -0.29497629883E+03  0.59801623409E+03  0.10100000352E+00 0. -1.
</event>
<event>
 5   0  0.3883890E-04  0.1205510E+04  0.7818609E-02  0.9108048E-01
       -2   -1    0    0    0  501  0.00000000000E+00  0.00000000000E+00  0.72004420935E+03  0.72004420935E+03  0.25500000920E-02 0. -1.
        2   -1    0    0  501    0  0.00000000000E+00  0.00000000000E+00 -0.50457100163E+03  0.50457100163E+03  0.25500000920E-02 0.  1.
    10030    2    1    2    0    0  0.00000000000E+00  0.00000000000E+00  0.21547320772E+03  0.12246152110E+04  0.12055097311E+04 0.  0.
        2    1    3    3  502    0 -0.53204575738E+03  0.24382640261E+03 -0.38733898738E+02  0.58653586205E+03  0.25500000920E-02 0.  1.
       -2    1    3    3    0  502  0.53204575738E+03 -0.24382640261E+03  0.25420710646E+03  0.63807934893E+03  0.25500000920E-02 0. -1.
</event>
<event>
 5   0  0.3993723E-04  0.1199228E+04  0.7818609E-02  0.9113533E-01
        2   -1    0    0  501    0  0.00000000000E+00  0.00000000000E+00  0.53080596065E+03  0.53080596065E+03  0.25500000920E-02 0. -1.
       -2   -1    0    0    0  501  0.00000000000E+00  0.00000000000E+00 -0.67734102650E+03  0.67734102651E+03  0.25500000920E-02 0.  1.
    10030    2    1    2    0    0  0.00000000000E+00  0.00000000000E+00 -0.14653506586E+03  0.12081469872E+04  0.11992275085E+04 0.  0.
        3    1    3    3  502    0 -0.36041954821E+03 -0.47103966734E+03 -0.16199085542E+03  0.61483466589E+03  0.10100000352E+00 0. -1.
       -3    1    3    3    0  502  0.36041954821E+03  0.47103966734E+03  0.15455789564E+02  0.59331232127E+03  0.10100000352E+00 0.  1.
</event>
<event>
 5   0  0.3883890E-04  0.1194708E+04  0.7818609E-02  0.9117501E-01
       -2   -1    0    0    0  501  0.00000000000E+00  0.00000000000E+00  0.98545651833E+03  0.98545651834E+03  0.25500000920E-02 0. -1.
        2   -1    0    0  501    0  0.00000000000E+00  0.00000000000E+00 -0.36209792225E+03  0.36209792226E+03  0.25500000920E-02 0.  1.
    10030    2    1    2    0    0  0.00000000000E+00  0.00000000000E+00  0.62335859608E+03  0.13475544406E+04  0.11947079271E+04 0.  0.
        2    1    3    3  502    0 -0.46958049605E+02  0.52149744034E+03 -0.12623708964E+02  0.52375948368E+03  0.25500000920E-02 0. -1.
       -2    1    3    3    0  502  0.46958049605E+02 -0.52149744034E+03  0.63598230505E+03  0.82379495692E+03  0.25500000920E-02 0.  1.
</event>
<event>
 5   0  0.3993723E-04  0.1200085E+04  0.7818609E-02  0.9112782E-01
        2   -1    0    0  501    0  0.00000000000E+00  0.00000000000E+00  0.11044339658E+04  0.11044339658E+04  0.25500000920E-02 0.  1.
       -2   -1    0    0    0  501  0.00000000000E+00  0.00000000000E+00 -0.32600508205E+03  0.32600508206E+03  0.25500000920E-02 0. -1.
    10030    2    1    2    0    0  0.00000000000E+00  0.00000000000E+00  0.77842888380E+03  0.14304390479E+04  0.12000851398E+04 0.  0.
        3    1    3    3  502    0  0.90380273506E+02 -0.54478094245E+03  0.10943348759E+03  0.56296586709E+03  0.10100000352E+00 0.  1.
       -3    1    3    3    0  502 -0.90380273506E+02  0.54478094245E+03  0.66899539621E+03  0.86747318082E+03  0.10100000352E+00 0. -1.
</event>
<event>
 5   0  0.4122956E-04  0.1200949E+04  0.7818609E-02  0.9112026E-01
       -2   -1    0    0    0  501  0.00000000000E+00  0.00000000000E+00  0.86467417530E+03  0.86467417530E+03  0.25500000920E-02 0. -1.
        2   -1    0    0  501    0  0.00000000000E+00  0.00000000000E+00 -0.41700054060E+03  0.41700054061E+03  0.25500000920E-02 0.  1.
    10030    2    1    2    0    0  0.00000000000E+00  0.00000000000E+00  0.44767363470E+03  0.12816747159E+04  0.12009489557E+04 0.  0.
        5    1    3    3  502    0  0.27406342866E+03 -0.52791442562E+03  0.31147295409E+03  0.67144761139E+03  0.46999998093E+01 0. -1.
       -5    1    3    3    0  502 -0.27406342866E+03  0.52791442562E+03  0.13620068060E+03  0.61022710453E+03  0.46999998093E+01 0.  1.
</event>
<event>
 5   0  0.3832662E-04  0.1199241E+04  0.7818609E-02  0.9113521E-01
       -2   -1    0    0    0  501  0.00000000000E+00  0.00000000000E+00  0.29659683979E+03  0.29659683980E+03  0.25500000920E-02 0. -1.
        2   -1    0    0  501    0  0.00000000000E+00  0.00000000000E+00 -0.12122332208E+04  0.12122332208E+04  0.25500000920E-02 0.  1.
    10030    2    1    2    0    0  0.00000000000E+00  0.00000000000E+00 -0.91563638101E+03  0.15088300606E+04  0.11992406637E+04 0.  0.
        4    1    3    3  502    0 -0.70253740096E+02 -0.30371205599E+02  0.29042411671E+03  0.30034276850E+03  0.12699999809E+01 0. -1.
       -4    1    3    3    0  502  0.70253740096E+02  0.30371205599E+02 -0.12060604977E+04  0.12084872921E+04  0.12699999809E+01 0.  1.
</event>
<event>
 5   0  0.3832662E-04  0.1198944E+04  0.7818609E-02  0.9113781E-01
       -2   -1    0    0    0  501  0.00000000000E+00  0.00000000000E+00  0.32568732259E+03  0.32568732260E+03  0.25500000920E-02 0. -1.
        2   -1    0    0  501    0  0.00000000000E+00  0.00000000000E+00 -0.11034109883E+04  0.11034109883E+04  0.25500000920E-02 0.  1.
    10030    2    1    2    0    0  0.00000000000E+00  0.00000000000E+00 -0.77772366575E+03  0.14290983109E+04  0.11989444867E+04 0.  0.
        4    1    3    3  502    0  0.49629189998E+03 -0.82113382802E+02 -0.20653512350E+00  0.50304066752E+03  0.12699999809E+01 0. -1.
       -4    1    3    3    0  502 -0.49629189998E+03  0.82113382802E+02 -0.77751713063E+03  0.92605764343E+03  0.12699999809E+01 0.  1.
</event>
<event>
 5   0  0.2315038E-04  0.1199252E+04  0.7818609E-02  0.9113512E-01
       -1   -1    0    0    0  501  0.00000000000E+00  0.00000000000E+00  0.76123874675E+03  0.76123874677E+03  0.50400001928E-02 0. -1.
        1   -1    0    0  501    0  0.00000000000E+00  0.00000000000E+00 -0.47232388970E+03  0.47232388973E+03  0.50400001928E-02 0.  1.
    10030    2    1    2    0    0  0.00000000000E+00  0.00000000000E+00  0.28891485705E+03  0.12335626365E+04  0.11992518432E+04 0.  0.
        1    1    3    3  502    0  0.44654019479E+03 -0.26395449168E+03 -0.16494934116E+03  0.54431461896E+03  0.50400001928E-02 0.  1.
       -1    1    3    3    0  502 -0.44654019479E+03  0.26395449168E+03  0.45386419821E+03  0.68924801754E+03  0.50400001928E-02 0. -1.
</event>
<event>
 5   0  0.3883890E-04  0.1201221E+04  0.7818609E-02  0.9111789E-01
       -2   -1    0    0    0  501  0.00000000000E+00  0.00000000000E+00  0.43342303260E+03  0.43342303261E+03  0.25500000920E-02 0.  1.
        2   -1    0    0  501    0  0.00000000000E+00  0.00000000000E+00 -0.83228773451E+03  0.83228773451E+03  0.25500000920E-02 0. -1.
    10030    2    1    2    0    0  0.00000000000E+00  0.00000000000E+00 -0.39886470191E+03  0.12657107671E+04  0.12012205025E+04 0.  0.
        2    1    3    3  502    0 -0.27487147275E+03 -0.32587461332E+03  0.24634597076E+03  0.49237681450E+03  0.25500000920E-02 0.  1.
       -2    1    3    3    0  502  0.27487147275E+03  0.32587461332E+03 -0.64521067267E+03  0.77333395262E+03  0.25500000920E-02 0. -1.
</event>
<event>
 5   0  0.2244308E-04  0.1200981E+04  0.7818609E-02  0.9111998E-01
        1   -1    0    0  501    0  0.00000000000E+00  0.00000000000E+00  0.68951472958E+03  0.68951472960E+03  0.50400001928E-02 0. -1.
       -1   -1    0    0    0  501  0.00000000000E+00  0.00000000000E+00 -0.52296070848E+03  0.52296070850E+03  0.50400001928E-02 0.  1.
    10030    2    1    2    0    0  0.00000000000E+00  0.00000000000E+00  0.16655402110E+03  0.12124754381E+04  0.12009814512E+04 0.  0.
        5    1    3    3  502    0 -0.53102922997E+03  0.20137383828E+03 -0.11358549714E+03  0.57919532196E+03  0.46999998093E+01 0.  1.
       -5    1    3    3    0  502  0.53102922997E+03 -0.20137383828E+03  0.28013951824E+03  0.63328011614E+03  0.46999998093E+01 0. -1.
</event>
<event>
 5   0  0.2304842E-04  0.1200937E+04  0.7818609E-02  0.9112037E-01
       -1   -1    0    0    0  501  0.00000000000E+00  0.00000000000E+00  0.78421067996E+03  0.78421067997E+03  0.50400001928E-02 0.  1.
        1   -1    0    0  501    0  0.00000000000E+00  0.00000000000E+00 -0.45977771404E+03  0.45977771407E+03  0.50400001928E-02 0. -1.
    10030    2    1    2    0    0  0.00000000000E+00  0.00000000000E+00  0.32443296592E+03  0.12439883940E+04  0.12009372903E+04 0.  0.
        4    1    3    3  502    0  0.30656630143E+03  0.27855937392E+03 -0.28808885038E+03  0.50455427912E+03  0.12699999809E+01 0. -1.
       -4    1    3    3    0  502 -0.30656630143E+03 -0.27855937392E+03  0.61252181629E+03  0.73943411492E+03  0.12699999809E+01 0.  1.
</event>
<event>
 5   0  0.2244308E-04  0.1199466E+04  0.7818609E-02  0.9113324E-01
        1   -1    0    0  501    0  0.00000000000E+00  0.00000000000E+00  0.11134787858E+04  0.11134787859E+04  0.50400001928E-02 0. -1.
       -1   -1    0    0    0  501  0.00000000000E+00  0.00000000000E+00 -0.32302315338E+03  0.32302315342E+03  0.50400001928E-02 0.  1.
    10030    2    1    2    0    0  0.00000000000E+00  0.00000000000E+00  0.79045563246E+03  0.14365019393E+04  0.11994655954E+04 0.  0.
        5    1    3    3  502    0 -0.35979401302E+03  0.10096661019E+03  0.95697507852E+03  0.10273603940E+04  0.46999998093E+01 0. -1.
       -5    1    3    3    0  502  0.35979401302E+03 -0.10096661019E+03 -0.16651944605E+03  0.40914154530E+03  0.46999998093E+01 0.  1.
</event>
<event>
 5   0  0.4024486E-04  0.1199322E+04  0.7818609E-02  0.9113450E-01
       -2   -1    0    0    0  501  0.00000000000E+00  0.00000000000E+00  0.20338954661E+03  0.20338954662E+03  0.25500000920E-02 0.  1.
        2   -1    0    0  501    0  0.00000000000E+00  0.00000000000E+00 -0.17680028716E+04  0.17680028716E+04  0.25500000920E-02 0. -1.
    10030    2    1    2    0    0  0.00000000000E+00  0.00000000000E+00 -0.15646133250E+04  0.19713924182E+04  0.11993219792E+04 0.  0.
        1    1    3    3  502    0  0.23433714373E+03  0.45941216388E+02 -0.16864751523E+04  0.17032976639E+04  0.50400001928E-02 0. -1.
       -1    1    3    3    0  502 -0.23433714373E+03 -0.45941216388E+02  0.12186182737E+03  0.26809475432E+03  0.50400001928E-02 0.  1.
</event>
<event>
 5   0  0.3993723E-04  0.1200569E+04  0.7818609E-02  0.9112359E-01
       -2   -1    0    0    0  501  0.00000000000E+00  0.00000000000E+00  0.37292253347E+03  0.37292253348E+03  0.25500000920E-02 0.  1.
        2   -1    0    0  501    0  0.00000000000E+00  0.00000000000E+00 -0.96626307259E+03  0.96626307260E+03  0.25500000920E-02 0. -1.
    10030    2    1    2    0    0  0.00000000000E+00  0.00000000000E+00 -0.59334053912E+03  0.13391856061E+04  0.12005686537E+04 0.  0.
        3    1    3    3  502    0 -0.24175696988E+03  0.39736596644E+03  0.12660964268E+03  0.48205410027E+03  0.10100000352E+00 0.  1.
       -3    1    3    3    0  502  0.24175696988E+03 -0.39736596644E+03 -0.71995018180E+03  0.85713150581E+03  0.10100000352E+00 0. -1.
</event>
<event>
 5   0  0.4122956E-04  0.1187040E+04  0.7818609E-02  0.9124276E-01
       -2   -1    0    0    0  501  0.00000000000E+00  0.00000000000E+00  0.21351344112E+03  0.21351344114E+03  0.25500000920E-02 0.  1.
        2   -1    0    0  501    0  0.00000000000E+00  0.00000000000E+00 -0.16498548827E+04  0.16498548827E+04  0.25500000920E-02 0. -1.
    10030    2    1    2    0    0  0.00000000000E+00  0.00000000000E+00 -0.14363414415E+04  0.18633683238E+04  0.11870403420E+04 0.  0.
        5    1    3    3  502    0  0.39370109229E+03  0.40080637627E+03 -0.10184744542E+04  0.11631674880E+04  0.46999998093E+01 0. -1.
       -5    1    3    3    0  502 -0.39370109229E+03 -0.40080637627E+03 -0.41786698734E+03  0.70020083579E+03  0.46999998093E+01 0.  1.
</event>
<event>
 5   0  0.2244308E-04  0.1199880E+04  0.7818609E-02  0.9112962E-01
       -1   -1    0    0    0  501  0.00000000000E+00  0.00000000000E+00  0.71749786090E+03  0.71749786091E+03  0.50400001928E-02 0. -1.
        1   -1    0    0  501    0  0.00000000000E+00  0.00000000000E+00 -0.50164325892E+03  0.50164325894E+03  0.50400001928E-02 0.  1.
    10030    2    1    2    0    0  0.00000000000E+00  0.00000000000E+00  0.21585460198E+03  0.12191411199E+04  0.11998799360E+04 0.  0.
        5    1    3    3  502    0  0.23886071253E+03 -0.25682692789E+03  0.60245520618E+03  0.69712902416E+03  0.46999998093E+01 0. -1.
       -5    1    3    3    0  502 -0.23886071253E+03  0.25682692789E+03 -0.38660060420E+03  0.52201209569E+03  0.46999998093E+01 0.  1.
</event>
<event>
 5   0  0.3993723E-04  0.1200861E+04  0.7818609E-02  0.9112103E-01
       -2   -1    0    0    0  501  0.00000000000E+00  0.00000000000E+00  0.27417430793E+03  0.27417430794E+03  0.25500000920E-02 0. -1.
        2   -1    0    0  501    0  0.00000000000E+00  0.00000000000E+00 -0.13149189750E+04  0.13149189750E+04  0.25500000920E-02 0.  1.
    10030    2    1    2    0    0  0.00000000000E+00  0.00000000000E+00 -0.10407446671E+04  0.15890932830E+04  0.12008613575E+04 0.  0.
        3    1    3    3  502    0 -0.18373367874E+03  0.53426558373E+03 -0.25138456474E+03  0.61837851535E+03  0.10100000352E+00 0.  1.
       -3    1    3    3    0  502  0.18373367874E+03 -0.53426558373E+03 -0.78936010236E+03  0.97071476761E+03  0.10100000352E+00 0. -1.
</event>
<event>
 5   0  0.3832662E-04  0.1198951E+04  0.7818609E-02  0.9113775E-01
        2   -1    0    0  501    0  0.00000000000E+00  0.00000000000E+00  0.56585082472E+03  0.56585082472E+03  0.25500000920E-02 0.  1.
       -2   -1    0    0    0  501  0.00000000000E+00  0.00000000000E+00 -0.63509810930E+03  0.63509810931E+03  0.25500000920E-02 0. -1.
    10030    2    1    2    0    0  0.00000000000E+00  0.00000000000E+00 -0.69247284583E+02  0.12009489340E+04  0.11989508563E+04 0.  0.
        4    1    3    3  502    0 -0.39194106868E+03  0.13027032229E+03 -0.46983710431E+03  0.62556908145E+03  0.12699999809E+01 0. -1.
       -4    1    3    3    0  502  0.39194106868E+03 -0.13027032229E+03  0.40058981973E+03  0.57537985258E+03  0.12699999809E+01 0.  1.
</event>
<event>
 5   0  0.4122956E-04  0.1197617E+04  0.7818609E-02  0.9114945E-01
       -2   -1    0    0    0  501  0.00000000000E+00  0.00000000000E+00  0.28453726738E+03  0.28453726739E+03  0.25500000920E-02 0. -1.
        2   -1    0    0  501    0  0.00000000000E+00  0.00000000000E+00 -0.12601928848E+04  0.12601928848E+04  0.25500000920E-02 0.  1.
    10030    2    1    2    0    0  0.00000000000E+00  0.00000000000E+00 -0.97565561737E+03  0.15447301521E+04  0.11976173676E+04 0.  0.
        5    1    3    3  502    0 -0.29424698222E+03  0.46117958027E+03 -0.17378023548E+03  0.57401180479E+03  0.46999998093E+01 0.  1.
       -5    1    3    3    0  502  0.29424698222E+03 -0.46117958027E+03 -0.80187538190E+03  0.97071834735E+03  0.46999998093E+01 0. -1.
</event>
<event>
 5   0  0.2244308E-04  0.1202495E+04  0.7818609E-02  0.9110676E-01
        1   -1    0    0  501    0  0.00000000000E+00  0.00000000000E+00  0.40174914821E+03  0.40174914825E+03  0.50400001928E-02 0. -1.
       -1   -1    0    0    0  501  0.00000000000E+00  0.00000000000E+00 -0.89981152040E+03  0.89981152041E+03  0.50400001928E-02 0.  1.
    10030    2    1    2    0    0  0.00000000000E+00  0.00000000000E+00 -0.49806237219E+03  0.13015606687E+04  0.12024949262E+04 0.  0.
        5    1    3    3  502    0  0.32775717955E+03  0.34868536233E+03 -0.64298037679E+03  0.80153110082E+03  0.46999998093E+01 0.  1.
       -5    1    3    3    0  502 -0.32775717955E+03 -0.34868536233E+03  0.14491800461E+03  0.50002956783E+03  0.46999998093E+01 0. -1.
</event>
<event>
 5   0  0.3993723E-04  0.1197354E+04  0.7818609E-02  0.9115176E-01
        2   -1    0    0  501    0  0.00000000000E+00  0.00000000000E+00  0.67930660946E+03  0.67930660947E+03  0.25500000920E-02 0. -1.
       -2   -1    0    0    0  501  0.00000000000E+00  0.00000000000E+00 -0.52761781805E+03  0.52761781805E+03  0.25500000920E-02 0.  1.
    10030    2    1    2    0    0  0.00000000000E+00  0.00000000000E+00  0.15168879142E+03  0.12069244275E+04  0.11973542017E+04 0.  0.
        3    1    3    3  502    0 -0.32924801490E+03  0.19945574296E+03  0.53801477391E+03  0.66154875547E+03  0.10100000352E+00 0. -1.
       -3    1    3    3    0  502  0.32924801490E+03 -0.19945574296E+03 -0.38632598250E+03  0.54537567205E+03  0.10100000352E+00 0.  1.
</event>
<event>
 5   0  0.4024486E-04  0.1199413E+04  0.7818609E-02  0.9113370E-01
        2   -1    0    0  501    0  0.00000000000E+00  0.00000000000E+00  0.78840968296E+03  0.78840968296E+03  0.25500000920E-02 0.  1.
       -2   -1    0    0    0  501  0.00000000000E+00  0.00000000000E+00 -0.45616901996E+03  0.45616901997E+03  0.25500000920E-02 0. -1.
    10030    2    1    2    0    0  0.00000000000E+00  0.00000000000E+00  0.33224066299E+03  0.12445787029E+04  0.11994133106E+04 0.  0.
        1    1    3    3  502    0 -0.58826500229E+03  0.79843701365E+02  0.25427436089E+03  0.64582209640E+03  0.50400001928E-02 0.  1.
       -1    1    3    3    0  502  0.58826500229E+03 -0.79843701365E+02  0.77966302101E+02  0.59875660653E+03  0.50400001928E-02 0. -1.
</event>
<event>
 5   0  0.3832662E-04  0.1197050E+04  0.7818609E-02  0.9115443E-01
        2   -1    0    0  501    0  0.00000000000E+00  0.00000000000E+00  0.15449949793E+04  0.15449949793E+04  0.25500000920E-02 0. -1.
       -2   -1    0    0    0  501  0.00000000000E+00  0.00000000000E+00 -0.23186617067E+03  0.23186617068E+03  0.25500000920E-02 0.  1.
    10030    2    1    2    0    0  0.00000000000E+00  0.00000000000E+00  0.13131288087E+04  0.17768611500E+04  0.11970498228E+04 0.  0.
        4    1    3    3  502    0 -0.31451421540E+03  0.47144486383E+03  0.94228481364E+03  0.10995825273E+04  0.12699999809E+01 0. -1.
       -4    1    3    3    0  502  0.31451421540E+03 -0.47144486383E+03  0.37084399503E+03  0.67727862277E+03  0.12699999809E+01 0.  1.
</event>
<event>
 5   0  0.4024486E-04  0.1199828E+04  0.7818609E-02  0.9113007E-01
       -2   -1    0    0    0  501  0.00000000000E+00  0.00000000000E+00  0.68005768067E+03  0.68005768067E+03  0.25500000920E-02 0. -1.
        2   -1    0    0  501    0  0.00000000000E+00  0.00000000000E+00 -0.52921500559E+03  0.52921500560E+03  0.25500000920E-02 0.  1.
    10030    2    1    2    0    0  0.00000000000E+00  0.00000000000E+00  0.15084267508E+03  0.12092726863E+04  0.11998278698E+04 0.  0.
        1    1    3    3  502    0  0.23516677272E+03  0.55099566400E+03  0.43595935521E+02  0.60066649512E+03  0.50400001928E-02 0.  1.
       -1    1    3    3    0  502 -0.23516677272E+03 -0.55099566400E+03  0.10724673955E+03  0.60860619115E+03  0.50400001928E-02 0. -1.
</event>
<event>
 5   0  0.3993723E-04  0.1201525E+04  0.7818609E-02  0.9111522E-01
       -2   -1    0    0    0  501  0.00000000000E+00  0.00000000000E+00  0.12169193854E+04  0.12169193854E+04  0.25500000920E-02 0. -1.
        2   -1    0    0  501    0  0.00000000000E+00  0.00000000000E+00 -0.29658152720E+03  0.29658152721E+03  0.25500000920E-02 0.  1.
    10030    2    1    2    0    0  0.00000000000E+00  0.00000000000E+00  0.92033785818E+03  0.15135009126E+04  0.12015253802E+04 0.  0.
        3    1    3    3  502    0 -0.17036286666E+03 -0.12968869962E+03  0.11672275550E+04  0.11867025072E+04  0.10100000352E+00 0. -1.
       -3    1    3    3    0  502  0.17036286666E+03  0.12968869962E+03 -0.24688969686E+03  0.32679840538E+03  0.10100000352E+00 0.  1.
</event>
<event>
 5   0  0.3883890E-04  0.1199401E+04  0.7818609E-02  0.9113381E-01
        2   -1    0    0  501    0  0.00000000000E+00  0.00000000000E+00  0.32591857444E+03  0.32591857445E+03  0.25500000920E-02 0. -1.
       -2   -1    0    0    0  501  0.00000000000E+00  0.00000000000E+00 -0.11034671539E+04  0.11034671539E+04  0.25500000920E-02 0.  1.
    10030    2    1    2    0    0  0.00000000000E+00  0.00000000000E+00 -0.77754857948E+03  0.14293857284E+04  0.11994005866E+04 0.  0.
        2    1    3    3  502    0  0.53591718103E+03  0.18994039097E+03 -0.61600782437E+03  0.83830198421E+03  0.25500000920E-02 0. -1.
       -2    1    3    3    0  502 -0.53591718103E+03 -0.18994039097E+03 -0.16154075511E+03  0.59108374416E+03  0.25500000920E-02 0.  1.
</event>
<event>
 5   0  0.4024486E-04  0.1198836E+04  0.7818609E-02  0.9113876E-01
        2   -1    0    0  501    0  0.00000000000E+00  0.00000000000E+00  0.95293716950E+03  0.95293716950E+03  0.25500000920E-02 0.  1.
       -2   -1    0    0    0  501  0.00000000000E+00  0.00000000000E+00 -0.37704670429E+03  0.37704670430E+03  0.25500000920E-02 0. -1.
    10030    2    1    2    0    0  0.00000000000E+00  0.00000000000E+00  0.57589046521E+03  0.13299838738E+04  0.11988358005E+04 0.  0.
        1    1    3    3  502    0  0.24389145870E+03  0.18499494456E+03  0.85968334966E+03  0.91255774330E+03  0.50400001928E-02 0.  1.
       -1    1    3    3    0  502 -0.24389145870E+03 -0.18499494456E+03 -0.28379288446E+03  0.41742613051E+03  0.50400001928E-02 0. -1.
</event>
<event>
 5   0  0.3883890E-04  0.1198909E+04  0.7818609E-02  0.9113812E-01
        2   -1    0    0  501    0  0.00000000000E+00  0.00000000000E+00  0.75632684844E+03  0.75632684844E+03  0.25500000920E-02 0.  1.
       -2   -1    0    0    0  501  0.00000000000E+00  0.00000000000E+00 -0.47511962552E+03  0.47511962552E+03  0.25500000920E-02 0. -1.
    10030    2    1    2    0    0  0.00000000000E+00  0.00000000000E+00  0.28120722292E+03  0.12314464740E+04  0.11989090524E+04 0.  0.
        2    1    3    3  502    0  0.60170200461E+02 -0.31690086402E+03 -0.37838037503E+03  0.49721053776E+03  0.25500000920E-02 0. -1.
       -2    1    3    3    0  502 -0.60170200461E+02  0.31690086402E+03  0.65958759795E+03  0.73423593621E+03  0.25500000920E-02 0.  1.
</event>
<event>
 5   0  0.2315038E-04  0.1206489E+04  0.7818609E-02  0.9107195E-01
       -1   -1    0    0    0  501  0.00000000000E+00  0.00000000000E+00  0.73341655898E+03  0.73341655900E+03  0.50400001928E-02 0.  1.
        1   -1    0    0  501    0  0.00000000000E+00  0.00000000000E+00 -0.49617649070E+03  0.49617649072E+03  0.50400001928E-02 0. -1.
    10030    2    1    2    0    0  0.00000000000E+00  0.00000000000E+00  0.23724006828E+03  0.12295930497E+04  0.12064892117E+04 0.  0.
        1    1    3    3  502    0  0.48439810077E+03  0.17558211458E+03  0.43836912796E+03  0.67648953530E+03  0.50400001928E-02 0.  1.
       -1    1    3    3    0  502 -0.48439810077E+03 -0.17558211458E+03 -0.20112905968E+03  0.55310351442E+03  0.50400001928E-02 0. -1.
</event>
<event>
 5   0  0.2204090E-04  0.1195847E+04  0.7818609E-02  0.9116499E-01
       -1   -1    0    0    0  501  0.00000000000E+00  0.00000000000E+00  0.32815360822E+03  0.32815360826E+03  0.50400001928E-02 0. -1.
        1   -1    0    0  501    0  0.00000000000E+00  0.00000000000E+00 -0.10894677848E+04  0.10894677848E+04  0.50400001928E-02 0.  1.
    10030    2    1    2    0    0  0.00000000000E+00  0.00000000000E+00 -0.76131417660E+03  0.14176213931E+04  0.11958474563E+04 0.  0.
        2    1    3    3  502    0 -0.11787816240E+03  0.19063716875E+03  0.27646805297E+03  0.35591062867E+03  0.25500000920E-02 0. -1.
       -2    1    3    3    0  502  0.11787816240E+03 -0.19063716875E+03 -0.10377822296E+04  0.10617107644E+04  0.25500000920E-02 0.  1.
</event>
<event>
 5   0  0.2304842E-04  0.1201095E+04  0.7818609E-02  0.9111898E-01
        1   -1    0    0  501    0  0.00000000000E+00  0.00000000000E+00  0.30532617923E+03  0.30532617927E+03  0.50400001928E-02 0. -1.
       -1   -1    0    0    0  501  0.00000000000E+00  0.00000000000E+00 -0.11812204122E+04  0.11812204122E+04  0.50400001928E-02 0.  1.
    10030    2    1    2    0    0  0.00000000000E+00  0.00000000000E+00 -0.87589423300E+03  0.14865465915E+04  0.12010953590E+04 0.  0.
        4    1    3    3  502    0  0.25472528147E+03 -0.51907570505E+03 -0.23711296525E+03  0.62493897925E+03  0.12699999809E+01 0. -1.
       -4    1    3    3    0  502 -0.25472528147E+03  0.51907570505E+03 -0.63878126775E+03  0.86160761227E+03  0.12699999809E+01 0.  1.
</event>
<event>
 5   0  0.2244308E-04  0.1200232E+04  0.7818609E-02  0.9112653E-01
        1   -1    0    0  501    0  0.00000000000E+00  0.00000000000E+00  0.21523611778E+04  0.21523611778E+04  0.50400001928E-02 0.  1.
       -1   -1    0    0    0  501  0.00000000000E+00  0.00000000000E+00 -0.16732297766E+03  0.16732297774E+03  0.50400001928E-02 0. -1.
    10030    2    1    2    0    0  0.00000000000E+00  0.00000000000E+00  0.19850382001E+04  0.23196841555E+04  0.12002324464E+04 0.  0.
        5    1    3    3  502    0  0.47914980034E+02  0.10453939590E+03 -0.14579286060E+03  0.18574708290E+03  0.46999998093E+01 0. -1.
       -5    1    3    3    0  502 -0.47914980034E+02 -0.10453939590E+03  0.21308310607E+04  0.21339370726E+04  0.46999998093E+01 0.  1.
</event>
<event>
 5   0  0.3993723E-04  0.1198386E+04  0.7818609E-02  0.9114270E-01
        2   -1    0    0  501    0  0.00000000000E+00  0.00000000000E+00  0.74500443000E+03  0.74500443000E+03  0.25500000920E-02 0.  1.
       -2   -1    0    0    0  501  0.00000000000E+00  0.00000000000E+00 -0.48191993796E+03  0.48191993797E+03  0.25500000920E-02 0. -1.
    10030    2    1    2    0    0  0.00000000000E+00  0.00000000000E+00  0.26308449204E+03  0.12269243680E+04  0.11983863963E+04 0.  0.
        3    1    3    3  502    0 -0.21599192394E+03 -0.38040154351E+03 -0.28768992669E+03  0.52356790355E+03  0.10100000352E+00 0. -1.
       -3    1    3    3    0  502  0.21599192394E+03  0.38040154351E+03  0.55077441873E+03  0.70335646442E+03  0.10100000352E+00 0.  1.
</event>
<event>
 5   0  0.1541375E-04  0.1199766E+04  0.7818609E-02  0.9113061E-01
        3   -1    0    0  501    0  0.00000000000E+00  0.00000000000E+00  0.37612010664E+03  0.37612012020E+03  0.10100000352E+00 0.  1.
       -3   -1    0    0    0  501  0.00000000000E+00  0.00000000000E+00 -0.95676785084E+03  0.95676785617E+03  0.10100000352E+00 0. -1.
    10030    2    1    2    0    0  0.00000000000E+00  0.00000000000E+00 -0.58064774420E+03  0.13328879764E+04  0.11997660417E+04 0.  0.
        4    1    3    3  502    0 -0.27085991443E+03 -0.49928612111E+03 -0.50461556569E+03  0.75979616083E+03  0.12699999809E+01 0.  1.
       -4    1    3    3    0  502  0.27085991443E+03  0.49928612111E+03 -0.76032178515E+02  0.57309181554E+03  0.12699999809E+01 0. -1.
</event>
<event>
 5   0  0.3993723E-04  0.1197903E+04  0.7818609E-02  0.9114694E-01
       -2   -1    0    0    0  501  0.00000000000E+00  0.00000000000E+00  0.65703045061E+03  0.65703045062E+03  0.25500000920E-02 0.  1.
        2   -1    0    0  501    0  0.00000000000E+00  0.00000000000E+00 -0.54600651329E+03  0.54600651330E+03  0.25500000920E-02 0. -1.
    10030    2    1    2    0    0  0.00000000000E+00  0.00000000000E+00  0.11102393732E+03  0.12030369639E+04  0.11979030102E+04 0.  0.
        3    1    3    3  502    0 -0.58475678683E+03 -0.26883311937E+02  0.18286112068E+03  0.61327107535E+03  0.10100000352E+00 0.  1.
       -3    1    3    3    0  502  0.58475678683E+03  0.26883311937E+02 -0.71837183360E+02  0.58976588856E+03  0.10100000352E+00 0. -1.
</event>
<event>
 5   0  0.2340731E-04  0.1199606E+04  0.7818609E-02  0.9113202E-01
       -1   -1    0    0    0  501  0.00000000000E+00  0.00000000000E+00  0.20029385130E+03  0.20029385137E+03  0.50400001928E-02 0.  1.
        1   -1    0    0  501    0  0.00000000000E+00  0.00000000000E+00 -0.17961776739E+04  0.17961776739E+04  0.50400001928E-02 0. -1.
    10030    2    1    2    0    0  0.00000000000E+00  0.00000000000E+00 -0.15958838226E+04  0.19964715253E+04  0.11996055085E+04 0.  0.
        3    1    3    3  502    0 -0.43280730323E+03 -0.29335317377E+03 -0.30878965868E+03  0.60723085380E+03  0.10100000352E+00 0.  1.
       -3    1    3    3    0  502  0.43280730323E+03  0.29335317377E+03 -0.12870941639E+04  0.13892406715E+04  0.10100000352E+00 0. -1.
</event>
<event>
 5   0  0.2204090E-04  0.1197087E+04  0.7818609E-02  0.9115411E-01
       -1   -1    0    0    0  501  0.00000000000E+00  0.00000000000E+00  0.59970949424E+03  0.59970949426E+03  0.50400001928E-02 0. -1.
        1   -1    0    0  501    0  0.00000000000E+00  0.00000000000E+00 -0.59737930509E+03  0.59737930511E+03  0.50400001928E-02 0.  1.
    10030    2    1    2    0    0  0.00000000000E+00  0.00000000000E+00  0.23301891480E+01  0.11970887994E+04  0.11970865315E+04 0.  0.
        2    1    3    3  502    0  0.26543489046E+03 -0.37368642967E+03 -0.38374706881E+03  0.59779515021E+03  0.25500000920E-02 0.  1.
       -2    1    3    3    0  502 -0.26543489046E+03  0.37368642967E+03  0.38607725796E+03  0.59929364915E+03  0.25500000920E-02 0. -1.
</event>
<event>
 5   0  0.2244308E-04  0.1199432E+04  0.7818609E-02  0.9113354E-01
       -1   -1    0    0    0  501  0.00000000000E+00  0.00000000000E+00  0.29487547049E+03  0.29487547053E+03  0.50400001928E-02 0. -1.
        1   -1    0    0  501    0  0.00000000000E+00  0.00000000000E+00 -0.12196981679E+04  0.12196981679E+04  0.50400001928E-02 0.  1.
    10030    2    1    2    0    0  0.00000000000E+00  0.00000000000E+00 -0.92482269739E+03  0.15145736384E+04  0.11994316506E+04 0.  0.
        5    1    3    3  502    0 -0.10955640106E+03  0.21722942698E+03  0.22973498502E+03  0.33465128463E+03  0.46999998093E+01 0. -1.
       -5    1    3    3    0  502  0.10955640106E+03 -0.21722942698E+03 -0.11545576824E+04  0.11799223538E+04  0.46999998093E+01 0.  1.
</event>
<event>
 5   0  0.3832662E-04  0.1198199E+04  0.7818609E-02  0.9114435E-01
        2   -1    0    0  501    0  0.00000000000E+00  0.00000000000E+00  0.39819685119E+03  0.39819685120E+03  0.25500000920E-02 0.  1.
       -2   -1    0    0    0  501  0.00000000000E+00  0.00000000000E+00 -0.90136305124E+03  0.90136305125E+03  0.25500000920E-02 0. -1.
    10030    2    1    2    0    0  0.00000000000E+00  0.00000000000E+00 -0.50316620005E+03  0.12995599024E+04  0.11981985291E+04 0.  0.
        4    1    3    3  502    0 -0.17071118324E+03 -0.29162173195E+03 -0.78813728489E+03  0.85752407276E+03  0.12699999809E+01 0. -1.
       -4    1    3    3    0  502  0.17071118324E+03  0.29162173195E+03  0.28497108484E+03  0.44203582969E+03  0.12699999809E+01 0.  1.
</event>
<event>
 5   0  0.3832662E-04  0.1200741E+04  0.7818609E-02  0.9112208E-01
       -2   -1    0    0    0  501  0.00000000000E+00  0.00000000000E+00  0.23457196514E+03  0.23457196515E+03  0.25500000920E-02 0.  1.
        2   -1    0    0  501    0  0.00000000000E+00  0.00000000000E+00 -0.15366053318E+04  0.15366053318E+04  0.25500000920E-02 0. -1.
    10030    2    1    2    0    0  0.00000000000E+00  0.00000000000E+00 -0.13020333667E+04  0.17711772970E+04  0.12007406587E+04 0.  0.
        4    1    3    3  502    0 -0.33444234512E+03  0.10642414527E+03  0.67488302303E+02  0.35739902736E+03  0.12699999809E+01 0.  1.
       -4    1    3    3    0  502  0.33444234512E+03 -0.10642414527E+03 -0.13695216690E+04  0.14137782696E+04  0.12699999809E+01 0. -1.
</event>
<event>
 5   0  0.3993723E-04  0.1200446E+04  0.7818609E-02  0.9112467E-01
       -2   -1    0    0    0  501  0.00000000000E+00  0.00000000000E+00  0.40306150331E+03  0.40306150332E+03  0.25500000920E-02 0.  1.
        2   -1    0    0  501    0  0.00000000000E+00  0.00000000000E+00 -0.89382727016E+03  0.89382727017E+03  0.25500000920E-02 0. -1.
    10030    2    1    2    0    0  0.00000000000E+00  0.00000000000E+00 -0.49076576685E+03  0.12968887735E+04  0.12004455227E+04 0.  0.
        3    1    3    3  502    0  0.38639960474E+03  0.21315065446E+03  0.19415667982E+03  0.48211480226E+03  0.10100000352E+00 0.  1.
       -3    1    3    3    0  502 -0.38639960474E+03 -0.21315065446E+03 -0.68492244666E+03  0.81477397123E+03  0.10100000352E+00 0. -1.
</event>
<event>
 5   0  0.2315038E-04  0.1204115E+04  0.7818609E-02  0.9109263E-01
        1   -1    0    0  501    0  0.00000000000E+00  0.00000000000E+00  0.20152562692E+04  0.20152562692E+04  0.50400001928E-02 0.  1.
       -1   -1    0    0    0  501  0.00000000000E+00  0.00000000000E+00 -0.17986444453E+03  0.17986444460E+03  0.50400001928E-02 0. -1.
    10030    2    1    2    0    0  0.00000000000E+00  0.00000000000E+00  0.18353918246E+04  0.21951207138E+04  0.12041145287E+04 0.  0.
        1    1    3    3  502    0 -0.28273041307E+03  0.37763469803E+03  0.15996320372E+04  0.16677431175E+04  0.50400001928E-02 0.  1.
       -1    1    3    3    0  502  0.28273041307E+03 -0.37763469803E+03  0.23575978745E+03  0.52737759626E+03  0.50400001928E-02 0. -1.
</event>
<event>
 5   0  0.3832662E-04  0.1202758E+04  0.7818609E-02  0.9110446E-01
        2   -1    0    0  501    0  0.00000000000E+00  0.00000000000E+00  0.24165563420E+04  0.24165563420E+04  0.25500000920E-02 0.  1.
       -2   -1    0    0    0  501  0.00000000000E+00  0.00000000000E+00 -0.14965795481E+03  0.14965795483E+03  0.25500000920E-02 0. -1.
    10030    2    1    2    0    0  0.00000000000E+00  0.00000000000E+00  0.22668983872E+04  0.25662142969E+04  0.12027582963E+04 0.  0.
        4    1    3    3  502    0 -0.40007771839E+03 -0.37334533309E+03  0.60130183188E+03  0.81302793582E+03  0.12699999809E+01 0. -1.
       -4    1    3    3    0  502  0.40007771839E+03  0.37334533309E+03  0.16655965553E+04  0.17531863610E+04  0.12699999809E+01 0.  1.
</event>
<event>
 5   0  0.2304842E-04  0.1199461E+04  0.7818609E-02  0.9113329E-01
       -1   -1    0    0    0  501  0.00000000000E+00  0.00000000000E+00  0.54049485870E+03  0.54049485872E+03  0.50400001928E-02 0.  1.
        1   -1    0    0  501    0  0.00000000000E+00  0.00000000000E+00 -0.66545790828E+03  0.66545790830E+03  0.50400001928E-02 0. -1.
    10030    2    1    2    0    0  0.00000000000E+00  0.00000000000E+00 -0.12496304958E+03  0.12059527670E+04  0.11994608424E+04 0.  0.
        4    1    3    3  502    0  0.92844719698E+02 -0.33671333084E+03 -0.55264346842E+03  0.65376786800E+03  0.12699999809E+01 0. -1.
       -4    1    3    3    0  502 -0.92844719698E+02  0.33671333084E+03  0.42768041884E+03  0.55218489902E+03  0.12699999809E+01 0.  1.
</event>
<event>
 5   0  0.4024486E-04  0.1200796E+04  0.7818609E-02  0.9112160E-01
        2   -1    0    0  501    0  0.00000000000E+00  0.00000000000E+00  0.61381439615E+03  0.61381439616E+03  0.25500000920E-02 0. -1.
       -2   -1    0    0    0  501  0.00000000000E+00  0.00000000000E+00 -0.58727443464E+03  0.58727443464E+03  0.25500000920E-02 0.  1.
    10030    2    1    2    0    0  0.00000000000E+00  0.00000000000E+00  0.26539961518E+02  0.12010888308E+04  0.12007955737E+04 0.  0.
        1    1    3    3  502    0  0.12208688484E+03  0.29213376453E+02  0.60054101527E+03  0.61352109977E+03  0.50400001928E-02 0. -1.
       -1    1    3    3    0  502 -0.12208688484E+03 -0.29213376453E+02 -0.57400105375E+03  0.58756773103E+03  0.50400001928E-02 0.  1.
</event>
<event>
 5   0  0.4122956E-04  0.1203772E+04  0.7818609E-02  0.9109561E-01
        2   -1    0    0  501    0  0.00000000000E+00  0.00000000000E+00  0.16761902276E+04  0.16761902276E+04  0.25500000920E-02 0. -1.
       -2   -1    0    0    0  501  0.00000000000E+00  0.00000000000E+00 -0.21612522805E+03  0.21612522806E+03  0.25500000920E-02 0.  1.
    10030    2    1    2    0    0  0.00000000000E+00  0.00000000000E+00  0.14600649995E+04  0.18923154556E+04  0.12037723958E+04 0.  0.
        5    1    3    3  502    0 -0.23940021223E+03  0.13515356160E+02 -0.13776991825E+03  0.27658229669E+03  0.46999998093E+01 0.  1.
       -5    1    3    3    0  502  0.23940021223E+03 -0.13515356160E+02  0.15978349178E+04  0.16157331589E+04  0.46999998093E+01 0. -1.
</event>
<event>
 5   0  0.2304842E-04  0.1198169E+04  0.7818609E-02  0.9114461E-01
        1   -1    0    0  501    0  0.00000000000E+00  0.00000000000E+00  0.19865032075E+04  0.19865032075E+04  0.50400001928E-02 0. -1.
       -1   -1    0    0    0  501  0.00000000000E+00  0.00000000000E+00 -0.18067030971E+03  0.18067030978E+03  0.50400001928E-02 0.  1.
    10030    2    1    2    0    0  0.00000000000E+00  0.00000000000E+00  0.18058328978E+04  0.21671735173E+04  0.11981688526E+04 0.  0.
        4    1    3    3  502    0 -0.41435539613E+03  0.17143027109E+03  0.16214700367E+04  0.16823333275E+04  0.12699999809E+01 0. -1.
       -4    1    3    3    0  502  0.41435539613E+03 -0.17143027109E+03  0.18436286110E+03  0.48484018976E+03  0.12699999809E+01 0.  1.
</event>
<event>
 5   0  0.2315038E-04  0.1198299E+04  0.7818609E-02  0.9114346E-01
        1   -1    0    0  501    0  0.00000000000E+00  0.00000000000E+00  0.96168380646E+03  0.96168380647E+03  0.50400001928E-02 0.  1.
       -1   -1    0    0    0  501  0.00000000000E+00  0.00000000000E+00 -0.37328320410E+03  0.37328320413E+03  0.50400001928E-02 0. -1.
    10030    2    1    2    0    0  0.00000000000E+00  0.00000000000E+00  0.58840060236E+03  0.13349670106E+04  0.11982994828E+04 0.  0.
        1    1    3    3  502    0 -0.22413345978E+03 -0.53712347406E+03  0.13569551963E+03  0.59762087334E+03  0.50400001928E-02 0. -1.
       -1    1    3    3    0  502  0.22413345978E+03  0.53712347406E+03  0.45270508273E+03  0.73734613726E+03  0.50400001928E-02 0.  1.
</event>
<event>
 5   0  0.2304842E-04  0.1193692E+04  0.7818609E-02  0.9118396E-01
       -1   -1    0    0    0  501  0.00000000000E+00  0.00000000000E+00  0.19833800205E+03  0.19833800211E+03  0.50400001928E-02 0.  1.
        1   -1    0    0  501    0  0.00000000000E+00  0.00000000000E+00 -0.17960496512E+04  0.17960496512E+04  0.50400001928E-02 0. -1.
    10030    2    1    2    0    0  0.00000000000E+00  0.00000000000E+00 -0.15977116492E+04  0.19943876534E+04  0.11936915841E+04 0.  0.
        4    1    3    3  502    0 -0.54673851445E+03  0.18725864018E+03 -0.10479886670E+04  0.11967751086E+04  0.12699999809E+01 0. -1.
       -4    1    3    3    0  502  0.54673851445E+03 -0.18725864018E+03 -0.54972298217E+03  0.79761254474E+03  0.12699999809E+01 0.  1.
</event>
<event>
 5   0  0.3832662E-04  0.1193572E+04  0.7818609E-02  0.9118501E-01
       -2   -1    0    0    0  501  0.00000000000E+00  0.00000000000E+00  0.19618337638E+03  0.19618337640E+03  0.25500000920E-02 0.  1.
        2   -1    0    0  501    0  0.00000000000E+00  0.00000000000E+00 -0.18154123746E+04  0.18154123746E+04  0.25500000920E-02 0. -1.
    10030    2    1    2    0    0  0.00000000000E+00  0.00000000000E+00 -0.16192289982E+04  0.20115957510E+04  0.11935723341E+04 0.  0.
        4    1    3    3  502    0  0.29126271697E+03  0.28059474054E+03 -0.15492247111E+04  0.16011452767E+04  0.12699999809E+01 0. -1.
       -4    1    3    3    0  502 -0.29126271697E+03 -0.28059474054E+03 -0.70004287088E+02  0.41045047427E+03  0.12699999809E+01 0.  1.
</event>
<event>
 5   0  0.2315038E-04  0.1213298E+04  0.7818609E-02  0.9101296E-01
        1   -1    0    0  501    0  0.00000000000E+00  0.00000000000E+00  0.70269895478E+03  0.70269895480E+03  0.50400001928E-02 0.  1.
       -1   -1    0    0    0  501  0.00000000000E+00  0.00000000000E+00 -0.52372771817E+03  0.52372771820E+03  0.50400001928E-02 0. -1.
    10030    2    1    2    0    0  0.00000000000E+00  0.00000000000E+00  0.17897123661E+03  0.12264266730E+04  0.12132978532E+04 0.  0.
        1    1    3    3  502    0  0.55085094044E+03 -0.91424131137E+02  0.32917547978E+03  0.64819104194E+03  0.50400001928E-02 0.  1.
       -1    1    3    3    0  502 -0.55085094044E+03  0.91424131137E+02 -0.15020424317E+03  0.57823563106E+03  0.50400001928E-02 0. -1.
</event>
<event>
 5   0  0.3832662E-04  0.1196167E+04  0.7818609E-02  0.9116219E-01
        2   -1    0    0  501    0  0.00000000000E+00  0.00000000000E+00  0.15945832379E+04  0.15945832379E+04  0.25500000920E-02 0.  1.
       -2   -1    0    0    0  501  0.00000000000E+00  0.00000000000E+00 -0.22432420315E+03  0.22432420316E+03  0.25500000920E-02 0. -1.
    10030    2    1    2    0    0  0.00000000000E+00  0.00000000000E+00  0.13702590347E+04  0.18189074410E+04  0.11961665673E+04 0.  0.
        4    1    3    3  502    0 -0.52657190038E+03 -0.54865255601E+02  0.26204391975E+03  0.59072564810E+03  0.12699999809E+01 0.  1.
       -4    1    3    3    0  502  0.52657190038E+03  0.54865255601E+02  0.11082151150E+04  0.12281817929E+04  0.12699999809E+01 0. -1.
</event>
<event>
 5   0  0.1541375E-04  0.1200134E+04  0.7818609E-02  0.9112739E-01
       -3   -1    0    0    0  501  0.00000000000E+00  0.00000000000E+00  0.41216809667E+03  0.41216810904E+03  0.10100000352E+00 0. -1.
        3   -1    0    0  501    0  0.00000000000E+00  0.00000000000E+00 -0.87362509403E+03  0.87362509986E+03  0.10100000352E+00 0.  1.
    10030    2    1    2    0    0  0.00000000000E+00  0.00000000000E+00 -0.46145699736E+03  0.12857932089E+04  0.12001339990E+04 0.  0.
        2    1    3    3  502    0 -0.37846366881E+03  0.34493643480E+03 -0.56588990511E+03  0.76318233561E+03  0.25500000920E-02 0.  1.
       -2    1    3    3    0  502  0.37846366881E+03 -0.34493643480E+03  0.10443290776E+03  0.52261087330E+03  0.25500000920E-02 0. -1.
</event>
<event>
 5   0  0.2244308E-04  0.1202312E+04  0.7818609E-02  0.9110835E-01
        1   -1    0    0  501    0  0.00000000000E+00  0.00000000000E+00  0.26125938764E+03  0.26125938769E+03  0.50400001928E-02 0. -1.
       -1   -1    0    0    0  501  0.00000000000E+00  0.00000000000E+00 -0.13832564274E+04  0.13832564274E+04  0.50400001928E-02 0.  1.
    10030    2    1    2    0    0  0.00000000000E+00  0.00000000000E+00 -0.11219970398E+04  0.16445158151E+04  0.12023123175E+04 0.  0.
        5    1    3    3  502    0  0.12594093940E+03 -0.23689875033E+03  0.17479911949E+03  0.32024827915E+03  0.46999998093E+01 0. -1.
       -5    1    3    3    0  502 -0.12594093940E+03  0.23689875033E+03 -0.12967961593E+04  0.13242675360E+04  0.46999998093E+01 0.  1.
</event>
<event>
 5   0  0.3993723E-04  0.1199520E+04  0.7818609E-02  0.9113276E-01
        2   -1    0    0  501    0  0.00000000000E+00  0.00000000000E+00  0.12107508246E+04  0.12107508246E+04  0.25500000920E-02 0. -1.
       -2   -1    0    0    0  501  0.00000000000E+00  0.00000000000E+00 -0.29709855627E+03  0.29709855628E+03  0.25500000920E-02 0.  1.
    10030    2    1    2    0    0  0.00000000000E+00  0.00000000000E+00  0.91365226833E+03  0.15078493809E+04  0.11995204408E+04 0.  0.
        3    1    3    3  502    0 -0.45197396359E+03  0.38711391935E+03  0.55068159770E+03  0.81079459949E+03  0.10100000352E+00 0. -1.
       -3    1    3    3    0  502  0.45197396359E+03 -0.38711391935E+03  0.36297067062E+03  0.69705478139E+03  0.10100000352E+00 0.  1.
</event>
<event>
 5   0  0.2315038E-04  0.1200478E+04  0.7818609E-02  0.9112438E-01
       -1   -1    0    0    0  501  0.00000000000E+00  0.00000000000E+00  0.47543391990E+03  0.47543391993E+03  0.50400001928E-02 0.  1.
        1   -1    0    0  501    0  0.00000000000E+00  0.00000000000E+00 -0.75780618527E+03  0.75780618529E+03  0.50400001928E-02 0. -1.
    10030    2    1    2    0    0  0.00000000000E+00  0.00000000000E+00 -0.28237226537E+03  0.12332401052E+04  0.12004778469E+04 0.  0.
        1    1    3    3  502    0 -0.74294828027E+02  0.24515830663E+03  0.41645828610E+03  0.48893744065E+03  0.50400001928E-02 0.  1.
       -1    1    3    3    0  502  0.74294828027E+02 -0.24515830663E+03 -0.69883055147E+03  0.74430266456E+03  0.50400001928E-02 0. -1.
</event>
<event>
 5   0  0.2244308E-04  0.1200247E+04  0.7818609E-02  0.9112641E-01
        1   -1    0    0  501    0  0.00000000000E+00  0.00000000000E+00  0.53745134152E+03  0.53745134154E+03  0.50400001928E-02 0. -1.
       -1   -1    0    0    0  501  0.00000000000E+00  0.00000000000E+00 -0.67010350360E+03  0.67010350362E+03  0.50400001928E-02 0.  1.
    10030    2    1    2    0    0  0.00000000000E+00  0.00000000000E+00 -0.13265216208E+03  0.12075548452E+04  0.12002466863E+04 0.  0.
        5    1    3    3  502    0  0.31687453020E+03  0.22654170218E+03  0.39295688291E+03  0.55332432853E+03  0.46999998093E+01 0. -1.
       -5    1    3    3    0  502 -0.31687453020E+03 -0.22654170218E+03 -0.52560904499E+03  0.65423051663E+03  0.46999998093E+01 0.  1.
</event>
<event>
 5   0  0.1541375E-04  0.1199434E+04  0.7818609E-02  0.9113352E-01
        3   -1    0    0  501    0  0.00000000000E+00  0.00000000000E+00  0.15350402443E+03  0.15350405766E+03  0.10100000352E+00 0. -1.
       -3   -1    0    0    0  501  0.00000000000E+00  0.00000000000E+00 -0.23430048076E+04  0.23430048098E+04  0.10100000352E+00 0.  1.
    10030    2    1    2    0    0  0.00000000000E+00  0.00000000000E+00 -0.21895007832E+04  0.24965088675E+04  0.11994343858E+04 0.  0.
        1    1    3    3  502    0 -0.24625535582E+03 -0.16226552485E+03 -0.78484707803E+01  0.29501423583E+03  0.50400001928E-02 0. -1.
       -1    1    3    3    0  502  0.24625535582E+03  0.16226552485E+03 -0.21816523124E+04  0.22014946316E+04  0.50400001928E-02 0.  1.
</event>
<event>
 5   0  0.4122956E-04  0.1198445E+04  0.7818609E-02  0.9114218E-01
        2   -1    0    0  501    0  0.00000000000E+00  0.00000000000E+00  0.70237118356E+03  0.70237118357E+03  0.25500000920E-02 0.  1.
       -2   -1    0    0    0  501  0.00000000000E+00  0.00000000000E+00 -0.51122233103E+03  0.51122233104E+03  0.25500000920E-02 0. -1.
    10030    2    1    2    0    0  0.00000000000E+00  0.00000000000E+00  0.19114885253E+03  0.12135935146E+04  0.11984453825E+04 0.  0.
        5    1    3    3  502    0  0.55234676736E+03 -0.89722261310E+02 -0.12139699632E+03  0.57262235050E+03  0.46999998093E+01 0. -1.
       -5    1    3    3    0  502 -0.55234676736E+03  0.89722261310E+02  0.31254584884E+03  0.64097116410E+03  0.46999998093E+01 0.  1.
</event>
<event>
 5   0  0.2315038E-04  0.1197389E+04  0.7818609E-02  0.9115145E-01
        1   -1    0    0  501    0  0.00000000000E+00  0.00000000000E+00  0.16846570216E+04  0.16846570216E+04  0.50400001928E-02 0.  1.
       -1   -1    0    0    0  501  0.00000000000E+00  0.00000000000E+00 -0.21276452732E+03  0.21276452738E+03  0.50400001928E-02 0. -1.
    10030    2    1    2    0    0  0.00000000000E+00  0.00000000000E+00  0.14718924943E+04  0.18974215490E+04  0.11973892516E+04 0.  0.
        1    1    3    3  502    0  0.37088147537E+03 -0.35492726621E+03  0.12241282495E+04  0.13274096596E+04  0.50400001928E-02 0.  1.
       -1    1    3    3    0  502 -0.37088147537E+03  0.35492726621E+03  0.24776424479E+03  0.57001188943E+03  0.50400001928E-02 0. -1.
</event>
<event>
 5   0  0.2244308E-04  0.1199833E+04  0.7818609E-02  0.9113002E-01
       -1   -1    0    0    0  501  0.00000000000E+00  0.00000000000E+00  0.18364729872E+03  0.18364729879E+03  0.50400001928E-02 0.  1.
        1   -1    0    0  501    0  0.00000000000E+00  0.00000000000E+00 -0.19597346395E+04  0.19597346395E+04  0.50400001928E-02 0. -1.
    10030    2    1    2    0    0  0.00000000000E+00  0.00000000000E+00 -0.17760873407E+04  0.21433819383E+04  0.11998332765E+04 0.  0.
        5    1    3    3  502    0 -0.13167135143E+02 -0.30742068612E+03  0.31903722659E+02  0.30938776514E+03  0.46999998093E+01 0.  1.
       -5    1    3    3    0  502  0.13167135143E+02  0.30742068612E+03 -0.18079910634E+04  0.18339941731E+04  0.46999998093E+01 0. -1.
</event>
<event>
 5   0  0.2340731E-04  0.1203221E+04  0.7818609E-02  0.9110042E-01
       -1   -1    0    0    0  501  0.00000000000E+00  0.00000000000E+00  0.51567404688E+03  0.51567404691E+03  0.50400001928E-02 0. -1.
        1   -1    0    0  501    0  0.00000000000E+00  0.00000000000E+00 -0.70186791884E+03  0.70186791886E+03  0.50400001928E-02 0.  1.
    10030    2    1    2    0    0  0.00000000000E+00  0.00000000000E+00 -0.18619387196E+03  0.12175419658E+04  0.12032207946E+04 0.  0.
        3    1    3    3  502    0  0.45214407440E+03  0.20236168081E+02 -0.49416184752E+03  0.67010425179E+03  0.10100000352E+00 0.  1.
       -3    1    3    3    0  502 -0.45214407440E+03 -0.20236168081E+02  0.30796797557E+03  0.54743771398E+03  0.10100000352E+00 0. -1.
</event>
<event>
 5   0  0.3832662E-04  0.1198728E+04  0.7818609E-02  0.9113971E-01
        2   -1    0    0  501    0  0.00000000000E+00  0.00000000000E+00  0.90146455186E+03  0.90146455187E+03  0.25500000920E-02 0. -1.
       -2   -1    0    0    0  501  0.00000000000E+00  0.00000000000E+00 -0.39850373342E+03  0.39850373343E+03  0.25500000920E-02 0.  1.
    10030    2    1    2    0    0  0.00000000000E+00  0.00000000000E+00  0.50296081844E+03  0.12999682853E+04  0.11987276412E+04 0.  0.
        4    1    3    3  502    0  0.84089073312E+02  0.12737475320E+03 -0.37707438871E+03  0.40679479781E+03  0.12699999809E+01 0.  1.
       -4    1    3    3    0  502 -0.84089073312E+02 -0.12737475320E+03  0.88003520716E+03  0.89317348748E+03  0.12699999809E+01 0. -1.
</event>
<event>
 5   0  0.2204090E-04  0.1195768E+04  0.7818609E-02  0.9116569E-01
       -1   -1    0    0    0  501  0.00000000000E+00  0.00000000000E+00  0.16277627481E+03  0.16277627489E+03  0.50400001928E-02 0. -1.
        1   -1    0    0  501    0  0.00000000000E+00  0.00000000000E+00 -0.21960538593E+04  0.21960538593E+04  0.50400001928E-02 0.  1.
    10030    2    1    2    0    0  0.00000000000E+00  0.00000000000E+00 -0.20332775845E+04  0.23588301342E+04  0.11957683163E+04 0.  0.
        2    1    3    3  502    0  0.21668245132E+03  0.33958350547E+02 -0.21138302441E+04  0.21251782879E+04  0.25500000920E-02 0.  1.
       -2    1    3    3    0  502 -0.21668245132E+03 -0.33958350547E+02  0.80552659671E+02  0.23365184628E+03  0.25500000920E-02 0. -1.
</event>
<event>
 5   0  0.2244308E-04  0.1200597E+04  0.7818609E-02  0.9112334E-01
       -1   -1    0    0    0  501  0.00000000000E+00  0.00000000000E+00  0.65431923753E+03  0.65431923755E+03  0.50400001928E-02 0. -1.
        1   -1    0    0  501    0  0.00000000000E+00  0.00000000000E+00 -0.55073799289E+03  0.55073799291E+03  0.50400001928E-02 0.  1.
    10030    2    1    2    0    0  0.00000000000E+00  0.00000000000E+00  0.10358124464E+03  0.12050572305E+04  0.12005972907E+04 0.  0.
        5    1    3    3  502    0  0.52151357879E+03 -0.12301539493E+03  0.32340105603E+03  0.62587501411E+03  0.46999998093E+01 0.  1.
       -5    1    3    3    0  502 -0.52151357879E+03  0.12301539493E+03 -0.21981981139E+03  0.57918221634E+03  0.46999998093E+01 0. -1.
</event>
<event>
 5   0  0.4024486E-04  0.1203103E+04  0.7818609E-02  0.9110145E-01
       -2   -1    0    0    0  501  0.00000000000E+00  0.00000000000E+00  0.31437300507E+03  0.31437300508E+03  0.25500000920E-02 0. -1.
        2   -1    0    0  501    0  0.00000000000E+00  0.00000000000E+00 -0.11510657866E+04  0.11510657866E+04  0.25500000920E-02 0.  1.
    10030    2    1    2    0    0  0.00000000000E+00  0.00000000000E+00 -0.83669278152E+03  0.14654387917E+04  0.12031026729E+04 0.  0.
        1    1    3    3  502    0  0.19010112736E+03  0.44278317743E+03 -0.85696035299E+03  0.98314618824E+03  0.50400001928E-02 0.  1.
       -1    1    3    3    0  502 -0.19010112736E+03 -0.44278317743E+03  0.20267571470E+02  0.48229260342E+03  0.50400001928E-02 0. -1.
</event>
<event>
 5   0  0.3832662E-04  0.1196713E+04  0.7818609E-02  0.9115739E-01
        2   -1    0    0  501    0  0.00000000000E+00  0.00000000000E+00  0.35098854273E+03  0.35098854274E+03  0.25500000920E-02 0. -1.
       -2   -1    0    0    0  501  0.00000000000E+00  0.00000000000E+00 -0.10200631774E+04  0.10200631774E+04  0.25500000920E-02 0.  1.
    10030    2    1    2    0    0  0.00000000000E+00  0.00000000000E+00 -0.66907463466E+03  0.13710517201E+04  0.11967129783E+04 0.  0.
        4    1    3    3  502    0 -0.22025804034E+03  0.17902119962E+03 -0.93802617579E+03  0.98002903713E+03  0.12699999809E+01 0.  1.
       -4    1    3    3    0  502  0.22025804034E+03 -0.17902119962E+03  0.26895154113E+03  0.39102268300E+03  0.12699999809E+01 0. -1.
</event>
<event>
 5   0  0.3832662E-04  0.1199566E+04  0.7818609E-02  0.9113236E-01
       -2   -1    0    0    0  501  0.00000000000E+00  0.00000000000E+00  0.25794518034E+03  0.25794518035E+03  0.25500000920E-02 0.  1.
        2   -1    0    0  501    0  0.00000000000E+00  0.00000000000E+00 -0.13946363263E+04  0.13946363263E+04  0.25500000920E-02 0. -1.
    10030    2    1    2    0    0  0.00000000000E+00  0.00000000000E+00 -0.11366911459E+04  0.16525815066E+04  0.11995661194E+04 0.  0.
        4    1    3    3  502    0 -0.16059981552E+03 -0.35649449168E+03  0.58231233404E+02  0.39531394206E+03  0.12699999809E+01 0.  1.
       -4    1    3    3    0  502  0.16059981552E+03  0.35649449168E+03 -0.11949223794E+04  0.12572675646E+04  0.12699999809E+01 0. -1.
</event>
<event>
 5   0  0.3883890E-04  0.1199863E+04  0.7818609E-02  0.9112977E-01
        2   -1    0    0  501    0  0.00000000000E+00  0.00000000000E+00  0.14518593834E+04  0.14518593834E+04  0.25500000920E-02 0.  1.
       -2   -1    0    0    0  501  0.00000000000E+00  0.00000000000E+00 -0.24790110108E+03  0.24790110109E+03  0.25500000920E-02 0. -1.
    10030    2    1    2    0    0  0.00000000000E+00  0.00000000000E+00  0.12039582823E+04  0.16997604845E+04  0.11998625584E+04 0.  0.
        2    1    3    3  502    0 -0.40383970125E+03 -0.39269728482E+03  0.89443634813E+03  0.10570307671E+04  0.25500000920E-02 0. -1.
       -2    1    3    3    0  502  0.40383970125E+03  0.39269728482E+03  0.30952193418E+03  0.64272971734E+03  0.25500000920E-02 0.  1.
</event>
<event>
 5   0  0.3993723E-04  0.1199179E+04  0.7818609E-02  0.9113575E-01
        2   -1    0    0  501    0  0.00000000000E+00  0.00000000000E+00  0.48588341478E+03  0.48588341479E+03  0.25500000920E-02 0. -1.
       -2   -1    0    0    0  501  0.00000000000E+00  0.00000000000E+00 -0.73990531885E+03  0.73990531885E+03  0.25500000920E-02 0.  1.
    10030    2    1    2    0    0  0.00000000000E+00  0.00000000000E+00 -0.25402190407E+03  0.12257887336E+04  0.11991792576E+04 0.  0.
        3    1    3    3  502    0  0.11776031116E+03  0.31833114602E+03 -0.63225143620E+03  0.71759605503E+03  0.10100000352E+00 0.  1.
       -3    1    3    3    0  502 -0.11776031116E+03 -0.31833114602E+03  0.37822953214E+03  0.50819267861E+03  0.10100000352E+00 0. -1.
</event>
<event>
 5   0  0.2340731E-04  0.1200555E+04  0.7818609E-02  0.9112371E-01
        1   -1    0    0  501    0  0.00000000000E+00  0.00000000000E+00  0.80535186757E+03  0.80535186759E+03  0.50400001928E-02 0.  1.
       -1   -1    0    0    0  501  0.00000000000E+00  0.00000000000E+00 -0.44742339934E+03  0.44742339937E+03  0.50400001928E-02 0. -1.
    10030    2    1    2    0    0  0.00000000000E+00  0.00000000000E+00  0.35792846823E+03  0.12527752670E+04  0.12005553220E+04 0.  0.
        3    1    3    3  502    0  0.50859981116E+03  0.28796988215E+03  0.32178547281E+03  0.66719286690E+03  0.10100000352E+00 0.  1.
       -3    1    3    3    0  502 -0.50859981116E+03 -0.28796988215E+03  0.36142995423E+02  0.58558240005E+03  0.10100000352E+00 0. -1.
</event>
<event>
 5   0  0.2304842E-04  0.1172148E+04  0.7818609E-02  0.9137591E-01
       -1   -1    0    0    0  501  0.00000000000E+00  0.00000000000E+00  0.23498717029E+03  0.23498717034E+03  0.50400001928E-02 0. -1.
        1   -1    0    0  501    0  0.00000000000E+00  0.00000000000E+00 -0.14617087725E+04  0.14617087725E+04  0.50400001928E-02 0.  1.
    10030    2    1    2    0    0  0.00000000000E+00  0.00000000000E+00 -0.12267216022E+04  0.16966959429E+04  0.11721481277E+04 0.  0.
        4    1    3    3  502    0 -0.17314798078E+03  0.31980733022E+03 -0.12786238550E+04  0.13293372511E+04  0.12699999809E+01 0.  1.
       -4    1    3    3    0  502  0.17314798078E+03 -0.31980733022E+03  0.51902252721E+02  0.36735869181E+03  0.12699999809E+01 0. -1.
</event>
<event>
 5   0  0.3993723E-04  0.1202549E+04  0.7818609E-02  0.9110628E-01
        2   -1    0    0  501    0  0.00000000000E+00  0.00000000000E+00  0.62720555270E+03  0.62720555270E+03  0.25500000920E-02 0.  1.
       -2   -1    0    0    0  501  0.00000000000E+00  0.00000000000E+00 -0.57641582884E+03  0.57641582884E+03  0.25500000920E-02 0. -1.
    10030    2    1    2    0    0  0.00000000000E+00  0.00000000000E+00  0.50789723859E+02  0.12036213815E+04  0.12025493063E+04 0.  0.
        3    1    3    3  502    0  0.52011776546E+03 -0.25418463460E+03  0.18801703200E+03  0.60867292772E+03  0.10100000352E+00 0. -1.
       -3    1    3    3    0  502 -0.52011776546E+03  0.25418463460E+03 -0.13722730814E+03  0.59494845383E+03  0.10100000352E+00 0.  1.
</event>
<event>
 5   0  0.3883890E-04  0.1200063E+04  0.7818609E-02  0.9112802E-01
       -2   -1    0    0    0  501  0.00000000000E+00  0.00000000000E+00  0.23384074064E+03  0.23384074066E+03  0.25500000920E-02 0.  1.
        2   -1    0    0  501    0  0.00000000000E+00  0.00000000000E+00 -0.15396703612E+04  0.15396703612E+04  0.25500000920E-02 0. -1.
    10030    2    1    2    0    0  0.00000000000E+00  0.00000000000E+00 -0.13058296206E+04  0.17735111019E+04  0.12000627611E+04 0.  0.
        2    1    3    3  502    0 -0.52009511210E+03 -0.28106257030E+03 -0.50117376684E+03  0.77502918566E+03  0.25500000920E-02 0. -1.
       -2    1    3    3    0  502  0.52009511210E+03  0.28106257030E+03 -0.80465585375E+03  0.99848191623E+03  0.25500000920E-02 0.  1.
</event>
<event>
 5   0  0.2315038E-04  0.1200331E+04  0.7818609E-02  0.9112567E-01
        1   -1    0    0  501    0  0.00000000000E+00  0.00000000000E+00  0.36019639516E+03  0.36019639520E+03  0.50400001928E-02 0.  1.
       -1   -1    0    0    0  501  0.00000000000E+00  0.00000000000E+00 -0.10000054875E+04  0.10000054875E+04  0.50400001928E-02 0. -1.
    10030    2    1    2    0    0  0.00000000000E+00  0.00000000000E+00 -0.63980909235E+03  0.13602018827E+04  0.12003305741E+04 0.  0.
        1    1    3    3  502    0  0.16782273560E+03  0.31775627769E+03  0.22481059204E+03  0.42387890359E+03  0.50400001928E-02 0.  1.
       -1    1    3    3    0  502 -0.16782273560E+03 -0.31775627769E+03 -0.86461968438E+03  0.93632297913E+03  0.50400001928E-02 0. -1.
</event>
<event>
 5   0  0.4024486E-04  0.1206060E+04  0.7818609E-02  0.9107569E-01
       -2   -1    0    0    0  501  0.00000000000E+00  0.00000000000E+00  0.61494142325E+03  0.61494142325E+03  0.25500000920E-02 0. -1.
        2   -1    0    0  501    0  0.00000000000E+00  0.00000000000E+00 -0.59134890871E+03  0.59134890872E+03  0.25500000920E-02 0.  1.
    10030    2    1    2    0    0  0.00000000000E+00  0.00000000000E+00  0.23592514532E+02  0.12062903320E+04  0.12060595998E+04 0.  0.
        1    1    3    3  502    0  0.10525408361E+03  0.39378472193E+03  0.45629112250E+03  0.61183855537E+03  0.50400001928E-02 0. -1.
       -1    1    3    3    0  502 -0.10525408361E+03 -0.39378472193E+03 -0.43269860796E+03  0.59445177660E+03  0.50400001928E-02 0.  1.
</event>
<event>
 5   0  0.2204090E-04  0.1199647E+04  0.7818609E-02  0.9113165E-01
        1   -1    0    0  501    0  0.00000000000E+00  0.00000000000E+00  0.79159607715E+03  0.79159607717E+03  0.50400001928E-02 0. -1.
       -1   -1    0    0    0  501  0.00000000000E+00  0.00000000000E+00 -0.45451018249E+03  0.45451018252E+03  0.50400001928E-02 0.  1.
    10030    2    1    2    0    0  0.00000000000E+00  0.00000000000E+00  0.33708589467E+03  0.12461062597E+04  0.11996474107E+04 0.  0.
        2    1    3    3  502    0 -0.40400366934E+03  0.15730780546E+03 -0.26202636631E+03  0.50657924074E+03  0.25500000920E-02 0.  1.
       -2    1    3    3    0  502  0.40400366934E+03 -0.15730780546E+03  0.59911226097E+03  0.73952701895E+03  0.25500000920E-02 0. -1.
</event>
<event>
 5   0  0.4122956E-04  0.1207916E+04  0.7818609E-02  0.9105956E-01
        2   -1    0    0  501    0  0.00000000000E+00  0.00000000000E+00  0.56002717042E+03  0.56002717042E+03  0.25500000920E-02 0.  1.
       -2   -1    0    0    0  501  0.00000000000E+00  0.00000000000E+00 -0.65133455135E+03  0.65133455136E+03  0.25500000920E-02 0. -1.
    10030    2    1    2    0    0  0.00000000000E+00  0.00000000000E+00 -0.91307380936E+02  0.12113617218E+04  0.12079156358E+04 0.  0.
        5    1    3    3  502    0  0.55291622234E+03 -0.13648674561E+03  0.15591220022E+03  0.59048766696E+03  0.46999998093E+01 0.  1.
       -5    1    3    3    0  502 -0.55291622234E+03  0.13648674561E+03 -0.24721958115E+03  0.62087405483E+03  0.46999998093E+01 0. -1.
</event>
<event>
 5   0  0.2204090E-04  0.1200174E+04  0.7818609E-02  0.9112704E-01
        1   -1    0    0  501    0  0.00000000000E+00  0.00000000000E+00  0.20522467212E+04  0.20522467212E+04  0.50400001928E-02 0.  1.
       -1   -1    0    0    0  501  0.00000000000E+00  0.00000000000E+00 -0.17546830318E+03  0.17546830325E+03  0.50400001928E-02 0. -1.
    10030    2    1    2    0    0  0.00000000000E+00  0.00000000000E+00  0.18767784180E+04  0.22277150244E+04  0.12001737373E+04 0.  0.
        2    1    3    3  502    0 -0.40775903089E+03  0.24866925858E+03  0.16127668696E+04  0.16819990496E+04  0.25500000920E-02 0.  1.
       -2    1    3    3    0  502  0.40775903089E+03 -0.24866925858E+03  0.26401154845E+03  0.54571597480E+03  0.25500000920E-02 0. -1.
</event>
<event>
 5   0  0.2315038E-04  0.1197270E+04  0.7818609E-02  0.9115249E-01
        1   -1    0    0  501    0  0.00000000000E+00  0.00000000000E+00  0.48571748027E+03  0.48571748030E+03  0.50400001928E-02 0.  1.
       -1   -1    0    0    0  501  0.00000000000E+00  0.00000000000E+00 -0.73780364504E+03  0.73780364506E+03  0.50400001928E-02 0. -1.
    10030    2    1    2    0    0  0.00000000000E+00  0.00000000000E+00 -0.25208616477E+03  0.12235211254E+04  0.11972704413E+04 0.  0.
        1    1    3    3  502    0  0.10144956398E+03 -0.16961010362E+03  0.45141670820E+03  0.49278458352E+03  0.50400001928E-02 0.  1.
       -1    1    3    3    0  502 -0.10144956398E+03  0.16961010362E+03 -0.70350287297E+03  0.73073654184E+03  0.50400001928E-02 0. -1.
</event>
<event>
 5   0  0.2244308E-04  0.1201613E+04  0.7818609E-02  0.9111446E-01
       -1   -1    0    0    0  501  0.00000000000E+00  0.00000000000E+00  0.60947211508E+03  0.60947211510E+03  0.50400001928E-02 0. -1.
        1   -1    0    0  501    0  0.00000000000E+00  0.00000000000E+00 -0.59226374103E+03  0.59226374105E+03  0.50400001928E-02 0.  1.
    10030    2    1    2    0    0  0.00000000000E+00  0.00000000000E+00  0.17208374046E+02  0.12017358562E+04  0.12016126413E+04 0.  0.
        5    1    3    3  502    0 -0.48736826341E+03  0.34971339376E+03  0.42057026637E+02  0.60134695928E+03  0.46999998093E+01 0. -1.
       -5    1    3    3    0  502  0.48736826341E+03 -0.34971339376E+03 -0.24848652591E+02  0.60038889687E+03  0.46999998093E+01 0.  1.
</event>
<event>
 5   0  0.4024486E-04  0.1199112E+04  0.7818609E-02  0.9113634E-01
        2   -1    0    0  501    0  0.00000000000E+00  0.00000000000E+00  0.14419019344E+04  0.14419019344E+04  0.25500000920E-02 0.  1.
       -2   -1    0    0    0  501  0.00000000000E+00  0.00000000000E+00 -0.24930094578E+03  0.24930094579E+03  0.25500000920E-02 0. -1.
    10030    2    1    2    0    0  0.00000000000E+00  0.00000000000E+00  0.11926009886E+04  0.16912028802E+04  0.11991121982E+04 0.  0.
        1    1    3    3  502    0  0.30030927013E+03  0.63266166507E+02  0.13227200539E+04  0.13578573587E+04  0.50400001928E-02 0.  1.
       -1    1    3    3    0  502 -0.30030927013E+03 -0.63266166507E+02 -0.13011906526E+03  0.33334552152E+03  0.50400001928E-02 0. -1.
</event>
<event>
 5   0  0.2340731E-04  0.1172624E+04  0.7818609E-02  0.9137162E-01
        1   -1    0    0  501    0  0.00000000000E+00  0.00000000000E+00  0.84587008095E+03  0.84587008097E+03  0.50400001928E-02 0. -1.
       -1   -1    0    0    0  501  0.00000000000E+00  0.00000000000E+00 -0.40640041182E+03  0.40640041185E+03  0.50400001928E-02 0.  1.
    10030    2    1    2    0    0  0.00000000000E+00  0.00000000000E+00  0.43946966913E+03  0.12522704928E+04  0.11726243205E+04 0.  0.
        3    1    3    3  502    0  0.37580188647E+03  0.22751718172E+02 -0.26025657780E+03  0.45768787950E+03  0.10100000352E+00 0.  1.
       -3    1    3    3    0  502 -0.37580188647E+03 -0.22751718172E+02  0.69972624693E+03  0.79458261332E+03  0.10100000352E+00 0. -1.
</event>
<event>
 5   0  0.3883890E-04  0.1198766E+04  0.7818609E-02  0.9113938E-01
        2   -1    0    0  501    0  0.00000000000E+00  0.00000000000E+00  0.87893971270E+03  0.87893971270E+03  0.25500000920E-02 0. -1.
       -2   -1    0    0    0  501  0.00000000000E+00  0.00000000000E+00 -0.40874214454E+03  0.40874214455E+03  0.25500000920E-02 0.  1.
    10030    2    1    2    0    0  0.00000000000E+00  0.00000000000E+00  0.47019756816E+03  0.12876818573E+04  0.11987655369E+04 0.  0.
        2    1    3    3  502    0  0.16722469928E+03  0.27064378323E+03 -0.31056382360E+03  0.44459199946E+03  0.25500000920E-02 0.  1.
       -2    1    3    3    0  502 -0.16722469928E+03 -0.27064378323E+03  0.78076139176E+03  0.84308985779E+03  0.25500000920E-02 0. -1.
</event>
<event>
 5   0  0.2304842E-04  0.1199217E+04  0.7818609E-02  0.9113542E-01
       -1   -1    0    0    0  501  0.00000000000E+00  0.00000000000E+00  0.30638871330E+03  0.30638871334E+03  0.50400001928E-02 0. -1.
        1   -1    0    0  501    0  0.00000000000E+00  0.00000000000E+00 -0.11734449274E+04  0.11734449274E+04  0.50400001928E-02 0.  1.
    10030    2    1    2    0    0  0.00000000000E+00  0.00000000000E+00 -0.86705621406E+03  0.14798336407E+04  0.11992168802E+04 0.  0.
        4    1    3    3  502    0  0.22222999311E+02  0.53366282332E+03 -0.97302622423E+02  0.54291738222E+03  0.12699999809E+01 0. -1.
       -4    1    3    3    0  502 -0.22222999311E+02 -0.53366282332E+03 -0.76975359164E+03  0.93691625850E+03  0.12699999809E+01 0.  1.
</event>
<event>
 5   0  0.2244308E-04  0.1200557E+04  0.7818609E-02  0.9112369E-01
        1   -1    0    0  501    0  0.00000000000E+00  0.00000000000E+00  0.12510751406E+04  0.12510751406E+04  0.50400001928E-02 0.  1.
       -1   -1    0    0    0  501  0.00000000000E+00  0.00000000000E+00 -0.28801980812E+03  0.28801980817E+03  0.50400001928E-02 0. -1.
    10030    2    1    2    0    0  0.00000000000E+00  0.00000000000E+00  0.96305533245E+03  0.15390949488E+04  0.12005572406E+04 0.  0.
        5    1    3    3  502    0  0.27614207252E+03 -0.48927303416E+03  0.21057746585E+03  0.60000625438E+03  0.46999998093E+01 0. -1.
       -5    1    3    3    0  502 -0.27614207252E+03  0.48927303416E+03  0.75247786660E+03  0.93908869437E+03  0.46999998093E+01 0.  1.
</event>
<event>
 5   0  0.4122956E-04  0.1203192E+04  0.7818609E-02  0.9110068E-01
       -2   -1    0    0    0  501  0.00000000000E+00  0.00000000000E+00  0.20446350564E+04  0.20446350564E+04  0.25500000920E-02 0.  1.
        2   -1    0    0  501    0  0.00000000000E+00  0.00000000000E+00 -0.17700834358E+03  0.17700834359E+03  0.25500000920E-02 0. -1.
    10030    2    1    2    0    0  0.00000000000E+00  0.00000000000E+00  0.18676267129E+04  0.22216434000E+04  0.12031915302E+04 0.  0.
        5    1    3    3  502    0  0.29188044428E+03  0.48508944580E+03  0.55816265452E+03  0.79503056739E+03  0.46999998093E+01 0. -1.
       -5    1    3    3    0  502 -0.29188044428E+03 -0.48508944580E+03  0.13094640583E+04  0.14266128326E+04  0.46999998093E+01 0.  1.
</event>
<event>
 5   0  0.2244308E-04  0.1199978E+04  0.7818609E-02  0.9112875E-01
       -1   -1    0    0    0  501  0.00000000000E+00  0.00000000000E+00  0.72376853668E+03  0.72376853669E+03  0.50400001928E-02 0. -1.
        1   -1    0    0  501    0  0.00000000000E+00  0.00000000000E+00 -0.49737866364E+03  0.49737866367E+03  0.50400001928E-02 0.  1.
    10030    2    1    2    0    0  0.00000000000E+00  0.00000000000E+00  0.22638987303E+03  0.12211472004E+04  0.11999783791E+04 0.  0.
        5    1    3    3  502    0 -0.50133009657E+03 -0.19038236728E+03  0.38699072541E+03  0.66133291394E+03  0.46999998093E+01 0.  1.
       -5    1    3    3    0  502  0.50133009657E+03  0.19038236728E+03 -0.16060085238E+03  0.55981428642E+03  0.46999998093E+01 0. -1.
</event>
<event>
 5   0  0.1541375E-04  0.1199938E+04  0.7818609E-02  0.9112911E-01
        4   -1    0    0  501    0  0.00000000000E+00  0.00000000000E+00  0.66432441239E+03  0.66432562633E+03  0.12699999809E+01 0.  1.
       -4   -1    0    0    0  501  0.00000000000E+00  0.00000000000E+00 -0.54184517940E+03  0.54184666774E+03  0.12699999809E+01 0. -1.
    10030    2    1    2    0    0  0.00000000000E+00  0.00000000000E+00  0.12247923299E+03  0.12061722941E+04  0.11999376819E+04 0.  0.
        5    1    3    3  502    0 -0.40439738885E+03 -0.42388048790E+03  0.19125073862E+03  0.61628796123E+03  0.46999998093E+01 0.  1.
       -5    1    3    3    0  502  0.40439738885E+03  0.42388048790E+03 -0.68771505632E+02  0.58988433283E+03  0.46999998093E+01 0. -1.
</event>
<event>
 5   0  0.4024486E-04  0.1198202E+04  0.7818609E-02  0.9114432E-01
        2   -1    0    0  501    0  0.00000000000E+00  0.00000000000E+00  0.63083510795E+03  0.63083510796E+03  0.25500000920E-02 0.  1.
       -2   -1    0    0    0  501  0.00000000000E+00  0.00000000000E+00 -0.56896316962E+03  0.56896316963E+03  0.25500000920E-02 0. -1.
    10030    2    1    2    0    0  0.00000000000E+00  0.00000000000E+00  0.61871938330E+02  0.11997982776E+04  0.11982018904E+04 0.  0.
        1    1    3    3  502    0 -0.11621515501E+03 -0.52868989519E+03  0.28799374389E+03  0.61315525283E+03  0.50400001928E-02 0.  1.
       -1    1    3    3    0  502  0.11621515501E+03  0.52868989519E+03 -0.22612180556E+03  0.58664302476E+03  0.50400001928E-02 0. -1.
</event>
<event>
 5   0  0.2304842E-04  0.1201128E+04  0.7818609E-02  0.9111870E-01
        1   -1    0    0  501    0  0.00000000000E+00  0.00000000000E+00  0.19220333750E+04  0.19220333750E+04  0.50400001928E-02 0.  1.
       -1   -1    0    0    0  501  0.00000000000E+00  0.00000000000E+00 -0.18765390721E+03  0.18765390728E+03  0.50400001928E-02 0. -1.
    10030    2    1    2    0    0  0.00000000000E+00  0.00000000000E+00  0.17343794678E+04  0.21096872823E+04  0.12011279244E+04 0.  0.
        4    1    3    3  502    0 -0.51569953893E+03 -0.15314180577E+03  0.13361149926E+04  0.14403483306E+04  0.12699999809E+01 0.  1.
       -4    1    3    3    0  502  0.51569953893E+03  0.15314180577E+03  0.39826447517E+03  0.66933895166E+03  0.12699999809E+01 0. -1.
</event>
<event>
 5   0  0.4024486E-04  0.1214303E+04  0.7818609E-02  0.9100429E-01
        2   -1    0    0  501    0  0.00000000000E+00  0.00000000000E+00  0.91455871587E+03  0.91455871587E+03  0.25500000920E-02 0.  1.
       -2   -1    0    0    0  501  0.00000000000E+00  0.00000000000E+00 -0.40307172323E+03  0.40307172324E+03  0.25500000920E-02 0. -1.
    10030    2    1    2    0    0  0.00000000000E+00  0.00000000000E+00  0.51148699263E+03  0.13176304391E+04  0.12143026931E+04 0.  0.
        1    1    3    3  502    0  0.42362675969E+02  0.36808685123E+03  0.77766072082E+03  0.86141669539E+03  0.50400001928E-02 0.  1.
       -1    1    3    3    0  502 -0.42362675969E+02 -0.36808685123E+03 -0.26617372818E+03  0.45621374373E+03  0.50400001928E-02 0. -1.
</event>
<event>
 5   0  0.4024486E-04  0.1201752E+04  0.7818609E-02  0.9111324E-01
        2   -1    0    0  501    0  0.00000000000E+00  0.00000000000E+00  0.30105806513E+03  0.30105806514E+03  0.25500000920E-02 0. -1.
       -2   -1    0    0    0  501  0.00000000000E+00  0.00000000000E+00 -0.11992777424E+04  0.11992777424E+04  0.25500000920E-02 0.  1.
    10030    2    1    2    0    0  0.00000000000E+00  0.00000000000E+00 -0.89821967727E+03  0.15003358075E+04  0.12017524482E+04 0.  0.
        1    1    3    3  502    0  0.19949617516E+03 -0.16790148985E+03  0.22674536176E+03  0.34554752684E+03  0.50400001928E-02 0. -1.
       -1    1    3    3    0  502 -0.19949617516E+03  0.16790148985E+03 -0.11249650390E+04  0.11547882807E+04  0.50400001928E-02 0.  1.
</event>
<event>
 5   0  0.2304842E-04  0.1205613E+04  0.7818609E-02  0.9107957E-01
       -1   -1    0    0    0  501  0.00000000000E+00  0.00000000000E+00  0.96060923853E+03  0.96060923855E+03  0.50400001928E-02 0.  1.
        1   -1    0    0  501    0  0.00000000000E+00  0.00000000000E+00 -0.37827641712E+03  0.37827641716E+03  0.50400001928E-02 0. -1.
    10030    2    1    2    0    0  0.00000000000E+00  0.00000000000E+00  0.58233282141E+03  0.13388856557E+04  0.12056132399E+04 0.  0.
        4    1    3    3  502    0 -0.45615733398E+02  0.27233547106E+03  0.88624229221E+03  0.92826419587E+03  0.12699999809E+01 0.  1.
       -4    1    3    3    0  502  0.45615733398E+02 -0.27233547106E+03 -0.30390947080E+03  0.41062145983E+03  0.12699999809E+01 0. -1.
</event>
<event>
 5   0  0.2340731E-04  0.1200908E+04  0.7818609E-02  0.9112063E-01
        1   -1    0    0  501    0  0.00000000000E+00  0.00000000000E+00  0.74517000664E+03  0.74517000665E+03  0.50400001928E-02 0. -1.
       -1   -1    0    0    0  501  0.00000000000E+00  0.00000000000E+00 -0.48384225475E+03  0.48384225477E+03  0.50400001928E-02 0.  1.
    10030    2    1    2    0    0  0.00000000000E+00  0.00000000000E+00  0.26132775189E+03  0.12290122614E+04  0.12009075505E+04 0.  0.
        3    1    3    3  502    0 -0.49026608460E+03  0.98988439401E+02 -0.20935421739E+03  0.54220728820E+03  0.10100000352E+00 0.  1.
       -3    1    3    3    0  502  0.49026608460E+03 -0.98988439401E+02  0.47068196928E+03  0.68680497322E+03  0.10100000352E+00 0. -1.
</event>
<event>
 5   0  0.1541375E-04  0.1204608E+04  0.7818609E-02  0.9108833E-01
        3   -1    0    0  501    0  0.00000000000E+00  0.00000000000E+00  0.67302448406E+03  0.67302449164E+03  0.10100000352E+00 0. -1.
       -3   -1    0    0    0  501  0.00000000000E+00  0.00000000000E+00 -0.53901454182E+03  0.53901455128E+03  0.10100000352E+00 0.  1.
    10030    2    1    2    0    0  0.00000000000E+00  0.00000000000E+00  0.13400994225E+03  0.12120390429E+04  0.12046078104E+04 0.  0.
        5    1    3    3  502    0  0.50837578071E+03  0.30747241376E+03 -0.32410863887E+02  0.59502754031E+03  0.46999998093E+01 0.  1.
       -5    1    3    3    0  502 -0.50837578071E+03 -0.30747241376E+03  0.16642080614E+03  0.61701150261E+03  0.46999998093E+01 0. -1.
</event>
<event>
 5   0  0.3832662E-04  0.1203636E+04  0.7818609E-02  0.9109680E-01
       -2   -1    0    0    0  501  0.00000000000E+00  0.00000000000E+00  0.86111714538E+03  0.86111714538E+03  0.25500000920E-02 0. -1.
        2   -1    0    0  501    0  0.00000000000E+00  0.00000000000E+00 -0.42059881946E+03  0.42059881947E+03  0.25500000920E-02 0.  1.
    10030    2    1    2    0    0  0.00000000000E+00  0.00000000000E+00  0.44051832592E+03  0.12817159649E+04  0.12036359163E+04 0.  0.
        4    1    3    3  502    0  0.75207501759E+02 -0.33299380506E+02  0.85510240668E+03  0.85904991466E+03  0.12699999809E+01 0. -1.
       -4    1    3    3    0  502 -0.75207501759E+02  0.33299380506E+02 -0.41458408076E+03  0.42266605019E+03  0.12699999809E+01 0.  1.
</event>
<event>
 5   0  0.2304842E-04  0.1199413E+04  0.7818609E-02  0.9113371E-01
       -1   -1    0    0    0  501  0.00000000000E+00  0.00000000000E+00  0.22484887287E+04  0.22484887288E+04  0.50400001928E-02 0. -1.
        1   -1    0    0  501    0  0.00000000000E+00  0.00000000000E+00 -0.15995089394E+03  0.15995089402E+03  0.50400001928E-02 0.  1.
    10030    2    1    2    0    0  0.00000000000E+00  0.00000000000E+00  0.20885378348E+04  0.24084396228E+04  0.11994128268E+04 0.  0.
        4    1    3    3  502    0 -0.54974594724E+03  0.23023448255E+03  0.11777324225E+04  0.13199559823E+04  0.12699999809E+01 0.  1.
       -4    1    3    3    0  502  0.54974594724E+03 -0.23023448255E+03  0.91080541232E+03  0.10884836404E+04  0.12699999809E+01 0. -1.
</event>
<event>
 5   0  0.2315038E-04  0.1199362E+04  0.7818609E-02  0.9113416E-01
       -1   -1    0    0    0  501  0.00000000000E+00  0.00000000000E+00  0.20345946254E+03  0.20345946260E+03  0.50400001928E-02 0. -1.
        1   -1    0    0  501    0  0.00000000000E+00  0.00000000000E+00 -0.17675118831E+04  0.17675118831E+04  0.50400001928E-02 0.  1.
    10030    2    1    2    0    0  0.00000000000E+00  0.00000000000E+00 -0.15640524206E+04  0.19709713457E+04  0.11993615265E+04 0.  0.
        1    1    3    3  502    0  0.16827413823E+02 -0.48374944222E+03 -0.20027008123E+03  0.52383660636E+03  0.50400001928E-02 0. -1.
       -1    1    3    3    0  502 -0.16827413823E+02  0.48374944222E+03 -0.13637823394E+04  0.14471347394E+04  0.50400001928E-02 0.  1.
</event>
<event>
 5   0  0.2244308E-04  0.1201479E+04  0.7818609E-02  0.9111563E-01
        1   -1    0    0  501    0  0.00000000000E+00  0.00000000000E+00  0.59249943447E+03  0.59249943449E+03  0.50400001928E-02 0.  1.
       -1   -1    0    0    0  501  0.00000000000E+00  0.00000000000E+00 -0.60909427938E+03  0.60909427940E+03  0.50400001928E-02 0. -1.
    10030    2    1    2    0    0  0.00000000000E+00  0.00000000000E+00 -0.16594844917E+02  0.12015937139E+04  0.12014791153E+04 0.  0.
        5    1    3    3  502    0  0.47222648340E+03 -0.31385776193E+03 -0.20671337137E+03  0.60353711920E+03  0.46999998093E+01 0. -1.
       -5    1    3    3    0  502 -0.47222648340E+03  0.31385776193E+03  0.19011852645E+03  0.59805659469E+03  0.46999998093E+01 0.  1.
</event>
<event>
 5   0  0.3832662E-04  0.1201479E+04  0.7818609E-02  0.9111563E-01
        2   -1    0    0  501    0  0.00000000000E+00  0.00000000000E+00  0.69240614882E+03  0.69240614882E+03  0.25500000920E-02 0. -1.
       -2   -1    0    0    0  501  0.00000000000E+00  0.00000000000E+00 -0.52120858004E+03  0.52120858004E+03  0.25500000920E-02 0.  1.
    10030    2    1    2    0    0  0.00000000000E+00  0.00000000000E+00  0.17119756878E+03  0.12136147289E+04  0.12014791311E+04 0.  0.
        4    1    3    3  502    0 -0.19533092208E+03  0.15436451614E+03 -0.46664438621E+03  0.52890563340E+03  0.12699999809E+01 0.  1.
       -4    1    3    3    0  502  0.19533092208E+03 -0.15436451614E+03  0.63784195499E+03  0.68470909546E+03  0.12699999809E+01 0. -1.
</event>
<event>
 5   0  0.3883890E-04  0.1200458E+04  0.7818609E-02  0.9112455E-01
       -2   -1    0    0    0  501  0.00000000000E+00  0.00000000000E+00  0.16106209052E+03  0.16106209054E+03  0.25500000920E-02 0.  1.
        2   -1    0    0  501    0  0.00000000000E+00  0.00000000000E+00 -0.22368704472E+04  0.22368704472E+04  0.25500000920E-02 0. -1.
    10030    2    1    2    0    0  0.00000000000E+00  0.00000000000E+00 -0.20758083567E+04  0.23979325378E+04  0.12004582966E+04 0.  0.
        2    1    3    3  502    0 -0.49514965725E+03  0.32994501021E+02 -0.17123816844E+04  0.17828384260E+04  0.25500000920E-02 0. -1.
       -2    1    3    3    0  502  0.49514965725E+03 -0.32994501021E+02 -0.36342667228E+03  0.61509411174E+03  0.25500000920E-02 0.  1.
</event>
<event>
 5   0  0.2244308E-04  0.1199035E+04  0.7818609E-02  0.9113702E-01
       -1   -1    0    0    0  501  0.00000000000E+00  0.00000000000E+00  0.29068739006E+04  0.29068739006E+04  0.50400001928E-02 0.  1.
        1   -1    0    0  501    0  0.00000000000E+00  0.00000000000E+00 -0.12364527141E+03  0.12364527151E+03  0.50400001928E-02 0. -1.
    10030    2    1    2    0    0  0.00000000000E+00  0.00000000000E+00  0.27832286292E+04  0.30305191721E+04  0.11990349662E+04 0.  0.
        5    1    3    3  502    0 -0.47154642383E+03 -0.22341882772E+03  0.21376538920E+04  0.22004222900E+04  0.46999998093E+01 0.  1.
       -5    1    3    3    0  502  0.47154642383E+03  0.22341882772E+03  0.64557473725E+03  0.83009688217E+03  0.46999998093E+01 0. -1.
</event>
<event>
 5   0  0.2315038E-04  0.1200540E+04  0.7818609E-02  0.9112384E-01
        1   -1    0    0  501    0  0.00000000000E+00  0.00000000000E+00  0.66139689882E+03  0.66139689884E+03  0.50400001928E-02 0. -1.
       -1   -1    0    0    0  501  0.00000000000E+00  0.00000000000E+00 -0.54479268406E+03  0.54479268408E+03  0.50400001928E-02 0.  1.
    10030    2    1    2    0    0  0.00000000000E+00  0.00000000000E+00  0.11660421477E+03  0.12061895829E+04  0.12005401980E+04 0.  0.
        1    1    3    3  502    0  0.24547627722E+02  0.55577790587E+03 -0.16821953869E+03  0.58119659317E+03  0.50400001928E-02 0.  1.
       -1    1    3    3    0  502 -0.24547627722E+02 -0.55577790587E+03  0.28482375346E+03  0.62499298976E+03  0.50400001928E-02 0. -1.
</event>
<event>
 5   0  0.3993723E-04  0.1199503E+04  0.7818609E-02  0.9113292E-01
       -2   -1    0    0    0  501  0.00000000000E+00  0.00000000000E+00  0.50373455883E+03  0.50373455884E+03  0.25500000920E-02 0.  1.
        2   -1    0    0  501    0  0.00000000000E+00  0.00000000000E+00 -0.71407006531E+03  0.71407006532E+03  0.25500000920E-02 0. -1.
    10030    2    1    2    0    0  0.00000000000E+00  0.00000000000E+00 -0.21033550648E+03  0.12178046242E+04  0.11995028459E+04 0.  0.
        3    1    3    3  502    0  0.39471173089E+02  0.33839627821E+03  0.39595402089E+03  0.52235008516E+03  0.10100000352E+00 0.  1.
       -3    1    3    3    0  502 -0.39471173089E+02 -0.33839627821E+03 -0.60628952737E+03  0.69545453900E+03  0.10100000352E+00 0. -1.
</event>
<event>
 5   0  0.3832662E-04  0.1209303E+04  0.7818609E-02  0.9104752E-01
       -2   -1    0    0    0  501  0.00000000000E+00  0.00000000000E+00  0.22863717168E+04  0.22863717168E+04  0.25500000920E-02 0. -1.
        2   -1    0    0  501    0  0.00000000000E+00  0.00000000000E+00 -0.15990563796E+03  0.15990563798E+03  0.25500000920E-02 0.  1.
    10030    2    1    2    0    0  0.00000000000E+00  0.00000000000E+00  0.21264660788E+04  0.24462773548E+04  0.12093034822E+04 0.  0.
        4    1    3    3  502    0  0.63308348972E+02 -0.37712735105E+02 -0.15078549101E+03  0.16783347294E+03  0.12699999809E+01 0.  1.
       -4    1    3    3    0  502 -0.63308348972E+02  0.37712735105E+02  0.22772515698E+04  0.22784438818E+04  0.12699999809E+01 0. -1.
</event>
<event>
 5   0  0.3832662E-04  0.1213115E+04  0.7818609E-02  0.9101454E-01
        2   -1    0    0  501    0  0.00000000000E+00  0.00000000000E+00  0.13985260903E+04  0.13985260903E+04  0.25500000920E-02 0.  1.
       -2   -1    0    0    0  501  0.00000000000E+00  0.00000000000E+00 -0.26307116307E+03  0.26307116308E+03  0.25500000920E-02 0. -1.
    10030    2    1    2    0    0  0.00000000000E+00  0.00000000000E+00  0.11354549272E+04  0.16615972534E+04  0.12131148093E+04 0.  0.
        4    1    3    3  502    0 -0.36763771043E+03  0.29466101498E+03  0.44497400968E+02  0.47324859374E+03  0.12699999809E+01 0. -1.
       -4    1    3    3    0  502  0.36763771043E+03 -0.29466101498E+03  0.10909575262E+04  0.11883486596E+04  0.12699999809E+01 0.  1.
</event>
<event>
 5   0  0.2340731E-04  0.1202691E+04  0.7818609E-02  0.9110504E-01
       -1   -1    0    0    0  501  0.00000000000E+00  0.00000000000E+00  0.59551682475E+03  0.59551682477E+03  0.50400001928E-02 0. -1.
        1   -1    0    0  501    0  0.00000000000E+00  0.00000000000E+00 -0.60723117475E+03  0.60723117477E+03  0.50400001928E-02 0.  1.
    10030    2    1    2    0    0  0.00000000000E+00  0.00000000000E+00 -0.11714349998E+02  0.12027479995E+04  0.12026909513E+04 0.  0.
        3    1    3    3  502    0  0.21195257707E+03 -0.55287827670E+03 -0.11082923040E+03  0.60239639133E+03  0.10100000352E+00 0.  1.
       -3    1    3    3    0  502 -0.21195257707E+03  0.55287827670E+03  0.99114880405E+02  0.60035160822E+03  0.10100000352E+00 0. -1.
</event>
<event>
 5   0  0.2340731E-04  0.1199914E+04  0.7818609E-02  0.9112932E-01
        1   -1    0    0  501    0  0.00000000000E+00  0.00000000000E+00  0.32552592635E+03  0.32552592638E+03  0.50400001928E-02 0. -1.
       -1   -1    0    0    0  501  0.00000000000E+00  0.00000000000E+00 -0.11057447002E+04  0.11057447002E+04  0.50400001928E-02 0.  1.
    10030    2    1    2    0    0  0.00000000000E+00  0.00000000000E+00 -0.78021877383E+03  0.14312706266E+04  0.11999142767E+04 0.  0.
        3    1    3    3  502    0 -0.12477713758E+03  0.58442886532E+03 -0.32674289577E+03  0.68109277108E+03  0.10100000352E+00 0.  1.
       -3    1    3    3    0  502  0.12477713758E+03 -0.58442886532E+03 -0.45347587806E+03  0.75017785549E+03  0.10100000352E+00 0. -1.
</event>
<event>
 5   0  0.2315038E-04  0.1198871E+04  0.7818609E-02  0.9113845E-01
       -1   -1    0    0    0  501  0.00000000000E+00  0.00000000000E+00  0.43366889338E+03  0.43366889341E+03  0.50400001928E-02 0. -1.
        1   -1    0    0  501    0  0.00000000000E+00  0.00000000000E+00 -0.82856533206E+03  0.82856533207E+03  0.50400001928E-02 0.  1.
    10030    2    1    2    0    0  0.00000000000E+00  0.00000000000E+00 -0.39489643868E+03  0.12622342255E+04  0.11988711535E+04 0.  0.
        1    1    3    3  502    0  0.31014081908E+03  0.36137743192E+03  0.18585658077E+03  0.51119824393E+03  0.50400001928E-02 0. -1.
       -1    1    3    3    0  502 -0.31014081908E+03 -0.36137743192E+03 -0.58075301944E+03  0.75103598155E+03  0.50400001928E-02 0.  1.
</event>
<event>
 5   0  0.1541375E-04  0.1199545E+04  0.7818609E-02  0.9113255E-01
        4   -1    0    0  501    0  0.00000000000E+00  0.00000000000E+00  0.12017768517E+04  0.12017775228E+04  0.12699999809E+01 0. -1.
       -4   -1    0    0    0  501  0.00000000000E+00  0.00000000000E+00 -0.29932731268E+03  0.29933000688E+03  0.12699999809E+01 0.  1.
    10030    2    1    2    0    0  0.00000000000E+00  0.00000000000E+00  0.90244953906E+03  0.15011075297E+04  0.11995451826E+04 0.  0.
        3    1    3    3  502    0  0.44636616625E+02  0.27404285766E+03 -0.21406116903E+03  0.35059108612E+03  0.10100000352E+00 0.  1.
       -3    1    3    3    0  502 -0.44636616625E+02 -0.27404285766E+03  0.11165107081E+04  0.11505164435E+04  0.10100000352E+00 0. -1.
</event>
<event>
 5   0  0.3993723E-04  0.1201227E+04  0.7818609E-02  0.9111783E-01
        2   -1    0    0  501    0  0.00000000000E+00  0.00000000000E+00  0.27433368238E+04  0.27433368238E+04  0.25500000920E-02 0.  1.
       -2   -1    0    0    0  501  0.00000000000E+00  0.00000000000E+00 -0.13149554305E+03  0.13149554308E+03  0.25500000920E-02 0. -1.
    10030    2    1    2    0    0  0.00000000000E+00  0.00000000000E+00  0.26118412808E+04  0.28748323669E+04  0.12012269818E+04 0.  0.
        3    1    3    3  502    0 -0.13268192230E+03 -0.19175544611E+03  0.26305818913E+04  0.26408967683E+04  0.10100000352E+00 0.  1.
       -3    1    3    3    0  502  0.13268192230E+03  0.19175544611E+03 -0.18740610539E+02  0.23393559862E+03  0.10100000352E+00 0. -1.
</event>
<event>
 5   0  0.3993723E-04  0.1200569E+04  0.7818609E-02  0.9112359E-01
       -2   -1    0    0    0  501  0.00000000000E+00  0.00000000000E+00  0.14968684370E+03  0.14968684372E+03  0.25500000920E-02 0. -1.
        2   -1    0    0  501    0  0.00000000000E+00  0.00000000000E+00 -0.24073018880E+04  0.24073018880E+04  0.25500000920E-02 0.  1.
    10030    2    1    2    0    0  0.00000000000E+00  0.00000000000E+00 -0.22576150443E+04  0.25569887318E+04  0.12005689009E+04 0.  0.
        3    1    3    3  502    0  0.58588077716E+03 -0.11470264765E+03 -0.99531677289E+03  0.11606327890E+04  0.10100000352E+00 0. -1.
       -3    1    3    3    0  502 -0.58588077716E+03  0.11470264765E+03 -0.12622982715E+04  0.13963559427E+04  0.10100000352E+00 0.  1.
</event>
<event>
 5   0  0.2340731E-04  0.1199477E+04  0.7818609E-02  0.9113315E-01
       -1   -1    0    0    0  501  0.00000000000E+00  0.00000000000E+00  0.52270325580E+03  0.52270325583E+03  0.50400001928E-02 0. -1.
        1   -1    0    0  501    0  0.00000000000E+00  0.00000000000E+00 -0.68812654713E+03  0.68812654714E+03  0.50400001928E-02 0.  1.
    10030    2    1    2    0    0  0.00000000000E+00  0.00000000000E+00 -0.16542329132E+03  0.12108298030E+04  0.11994765302E+04 0.  0.
        3    1    3    3  502    0 -0.53281991619E+03  0.10725158382E+02 -0.36040428014E+03  0.64335320583E+03  0.10100000352E+00 0.  1.
       -3    1    3    3    0  502  0.53281991619E+03 -0.10725158382E+02  0.19498098881E+03  0.56747659714E+03  0.10100000352E+00 0. -1.
</event>
<event>
 5   0  0.3883890E-04  0.1200551E+04  0.7818609E-02  0.9112374E-01
        2   -1    0    0  501    0  0.00000000000E+00  0.00000000000E+00  0.22380668582E+04  0.22380668582E+04  0.25500000920E-02 0. -1.
       -2   -1    0    0    0  501  0.00000000000E+00  0.00000000000E+00 -0.16100086725E+03  0.16100086727E+03  0.25500000920E-02 0.  1.
    10030    2    1    2    0    0  0.00000000000E+00  0.00000000000E+00  0.20770659910E+04  0.23990677255E+04  0.12005510488E+04 0.  0.
        2    1    3    3  502    0 -0.42780427962E+03  0.48075029108E+02  0.20257468897E+03  0.47577748444E+03  0.25500000920E-02 0.  1.
       -2    1    3    3    0  502  0.42780427962E+03 -0.48075029108E+02  0.18744913020E+04  0.19232902411E+04  0.25500000920E-02 0. -1.
</event>
<event>
 5   0  0.4024486E-04  0.1199543E+04  0.7818609E-02  0.9113257E-01
        2   -1    0    0  501    0  0.00000000000E+00  0.00000000000E+00  0.88598713125E+03  0.88598713125E+03  0.25500000920E-02 0.  1.
       -2   -1    0    0    0  501  0.00000000000E+00  0.00000000000E+00 -0.40601682910E+03  0.40601682911E+03  0.25500000920E-02 0. -1.
    10030    2    1    2    0    0  0.00000000000E+00  0.00000000000E+00  0.47997030215E+03  0.12920039604E+04  0.11995427223E+04 0.  0.
        1    1    3    3  502    0  0.44962046184E+03 -0.34394454715E+03  0.26545764988E+02  0.56671076299E+03  0.50400001928E-02 0.  1.
       -1    1    3    3    0  502 -0.44962046184E+03  0.34394454715E+03  0.45342453716E+03  0.72529319737E+03  0.50400001928E-02 0. -1.
</event>
<event>
 5   0  0.3832662E-04  0.1198681E+04  0.7818609E-02  0.9114012E-01
       -2   -1    0    0    0  501  0.00000000000E+00  0.00000000000E+00  0.41383115783E+03  0.41383115784E+03  0.25500000920E-02 0.  1.
        2   -1    0    0  501    0  0.00000000000E+00  0.00000000000E+00 -0.86800802952E+03  0.86800802953E+03  0.25500000920E-02 0. -1.
    10030    2    1    2    0    0  0.00000000000E+00  0.00000000000E+00 -0.45417687169E+03  0.12818391874E+04  0.11986805544E+04 0.  0.
        4    1    3    3  502    0 -0.40859196094E+03  0.42039286190E+03 -0.36035165633E+03  0.68813696165E+03  0.12699999809E+01 0. -1.
       -4    1    3    3    0  502  0.40859196094E+03 -0.42039286190E+03 -0.93825215362E+02  0.59370222571E+03  0.12699999809E+01 0.  1.
</event>
<event>
 5   0  0.2244308E-04  0.1200918E+04  0.7818609E-02  0.9112053E-01
        1   -1    0    0  501    0  0.00000000000E+00  0.00000000000E+00  0.38870440701E+03  0.38870440704E+03  0.50400001928E-02 0. -1.
       -1   -1    0    0    0  501  0.00000000000E+00  0.00000000000E+00 -0.92757163740E+03  0.92757163741E+03  0.50400001928E-02 0.  1.
    10030    2    1    2    0    0  0.00000000000E+00  0.00000000000E+00 -0.53886723039E+03  0.13162760445E+04  0.12009182875E+04 0.  0.
        5    1    3    3  502    0 -0.37174908044E+03 -0.71241308629E+02 -0.78031467137E+03  0.86728644589E+03  0.46999998093E+01 0.  1.
       -5    1    3    3    0  502  0.37174908044E+03  0.71241308629E+02  0.24144744099E+03  0.44898959857E+03  0.46999998093E+01 0. -1.
</event>
<event>
 5   0  0.4024486E-04  0.1198868E+04  0.7818609E-02  0.9113848E-01
       -2   -1    0    0    0  501  0.00000000000E+00  0.00000000000E+00  0.17873717645E+03  0.17873717647E+03  0.25500000920E-02 0.  1.
        2   -1    0    0  501    0  0.00000000000E+00  0.00000000000E+00 -0.20103311074E+04  0.20103311074E+04  0.25500000920E-02 0. -1.
    10030    2    1    2    0    0  0.00000000000E+00  0.00000000000E+00 -0.18315939309E+04  0.21890682839E+04  0.11988676422E+04 0.  0.
        1    1    3    3  502    0 -0.41978271207E+03  0.41932875210E+03 -0.76014341855E+03  0.96429878383E+03  0.50400001928E-02 0.  1.
       -1    1    3    3    0  502  0.41978271207E+03 -0.41932875210E+03 -0.10714505124E+04  0.12247695000E+04  0.50400001928E-02 0. -1.
</event>
<event>
 5   0  0.3993723E-04  0.1199840E+04  0.7818609E-02  0.9112997E-01
        2   -1    0    0  501    0  0.00000000000E+00  0.00000000000E+00  0.82227007087E+03  0.82227007088E+03  0.25500000920E-02 0. -1.
       -2   -1    0    0    0  501  0.00000000000E+00  0.00000000000E+00 -0.43769526266E+03  0.43769526267E+03  0.25500000920E-02 0.  1.
    10030    2    1    2    0    0  0.00000000000E+00  0.00000000000E+00  0.38457480821E+03  0.12599653335E+04  0.11998395137E+04 0.  0.
        3    1    3    3  502    0 -0.16034266307E+03 -0.48075029312E+03 -0.14485088999E+03  0.52707912543E+03  0.10100000352E+00 0. -1.
       -3    1    3    3    0  502  0.16034266307E+03  0.48075029312E+03  0.52942569820E+03  0.73288620812E+03  0.10100000352E+00 0.  1.
</event>
<event>
 5   0  0.2304842E-04  0.1200317E+04  0.7818609E-02  0.9112579E-01
       -1   -1    0    0    0  501  0.00000000000E+00  0.00000000000E+00  0.43402092417E+03  0.43402092420E+03  0.50400001928E-02 0. -1.
        1   -1    0    0  501    0  0.00000000000E+00  0.00000000000E+00 -0.82989193297E+03  0.82989193299E+03  0.50400001928E-02 0.  1.
    10030    2    1    2    0    0  0.00000000000E+00  0.00000000000E+00 -0.39587100881E+03  0.12639128572E+04  0.12003173976E+04 0.  0.
        4    1    3    3  502    0 -0.36799973265E+03  0.19501820619E+03 -0.65295657332E+03  0.77447388821E+03  0.12699999809E+01 0.  1.
       -4    1    3    3    0  502  0.36799973265E+03 -0.19501820619E+03  0.25708556452E+03  0.48943896898E+03  0.12699999809E+01 0. -1.
</event>
<event>
 5   0  0.4122956E-04  0.1202574E+04  0.7818609E-02  0.9110606E-01
        2   -1    0    0  501    0  0.00000000000E+00  0.00000000000E+00  0.14223919729E+04  0.14223919730E+04  0.25500000920E-02 0. -1.
       -2   -1    0    0    0  501  0.00000000000E+00  0.00000000000E+00 -0.25418185243E+03  0.25418185244E+03  0.25500000920E-02 0.  1.
    10030    2    1    2    0    0  0.00000000000E+00  0.00000000000E+00  0.11682101205E+04  0.16765738254E+04  0.12025742831E+04 0.  0.
        5    1    3    3  502    0 -0.28657943014E+03 -0.36492193517E+03  0.11172270009E+04  0.12097578477E+04  0.46999998093E+01 0. -1.
       -5    1    3    3    0  502  0.28657943014E+03  0.36492193517E+03  0.50983119633E+02  0.46681597770E+03  0.46999998093E+01 0.  1.
</event>
<event>
 5   0  0.3883890E-04  0.1194225E+04  0.7818609E-02  0.9117926E-01
        2   -1    0    0  501    0  0.00000000000E+00  0.00000000000E+00  0.12772435176E+04  0.12772435176E+04  0.25500000920E-02 0.  1.
       -2   -1    0    0    0  501  0.00000000000E+00  0.00000000000E+00 -0.27915077431E+03  0.27915077432E+03  0.25500000920E-02 0. -1.
    10030    2    1    2    0    0  0.00000000000E+00  0.00000000000E+00  0.99809274326E+03  0.15563942919E+04  0.11942253002E+04 0.  0.
        2    1    3    3  502    0 -0.41377610611E+03 -0.39213736229E+03  0.26751507564E+03  0.62971953487E+03  0.25500000920E-02 0.  1.
       -2    1    3    3    0  502  0.41377610611E+03  0.39213736229E+03  0.73057766762E+03  0.92667475703E+03  0.25500000920E-02 0. -1.
</event>
<event>
 5   0  0.3883890E-04  0.1200929E+04  0.7818609E-02  0.9112044E-01
       -2   -1    0    0    0  501  0.00000000000E+00  0.00000000000E+00  0.10229245534E+04  0.10229245534E+04  0.25500000920E-02 0. -1.
        2   -1    0    0  501    0  0.00000000000E+00  0.00000000000E+00 -0.35247724597E+03  0.35247724598E+03  0.25500000920E-02 0.  1.
    10030    2    1    2    0    0  0.00000000000E+00  0.00000000000E+00  0.67044730744E+03  0.13754017994E+04  0.12009290228E+04 0.  0.
        2    1    3    3  502    0 -0.25173108644E+03 -0.51475960071E+03  0.54077422418E+03  0.78789767606E+03  0.25500000920E-02 0. -1.
       -2    1    3    3    0  502  0.25173108644E+03  0.51475960071E+03  0.12967308326E+03  0.58750412333E+03  0.25500000920E-02 0.  1.
</event>
<event>
 5   0  0.2340731E-04  0.1200281E+04  0.7818609E-02  0.9112610E-01
        1   -1    0    0  501    0  0.00000000000E+00  0.00000000000E+00  0.75002622699E+03  0.75002622701E+03  0.50400001928E-02 0. -1.
       -1   -1    0    0    0  501  0.00000000000E+00  0.00000000000E+00 -0.48020814989E+03  0.48020814991E+03  0.50400001928E-02 0.  1.
    10030    2    1    2    0    0  0.00000000000E+00  0.00000000000E+00  0.26981807710E+03  0.12302343769E+04  0.12002811452E+04 0.  0.
        3    1    3    3  502    0  0.40056757669E+03 -0.27801594902E+03  0.49352831147E+03  0.69377046335E+03  0.10100000352E+00 0. -1.
       -3    1    3    3    0  502 -0.40056757669E+03  0.27801594902E+03 -0.22371023436E+03  0.53646391357E+03  0.10100000352E+00 0.  1.
</event>
<event>
 5   0  0.2204090E-04  0.1200061E+04  0.7818609E-02  0.9112803E-01
        1   -1    0    0  501    0  0.00000000000E+00  0.00000000000E+00  0.14022963319E+04  0.14022963319E+04  0.50400001928E-02 0.  1.
       -1   -1    0    0    0  501  0.00000000000E+00  0.00000000000E+00 -0.25674802645E+03  0.25674802650E+03  0.50400001928E-02 0. -1.
    10030    2    1    2    0    0  0.00000000000E+00  0.00000000000E+00  0.11455483054E+04  0.16590443584E+04  0.12000613580E+04 0.  0.
        2    1    3    3  502    0 -0.58444504772E+03  0.11520871078E+03  0.67234776705E+03  0.89827645004E+03  0.25500000920E-02 0.  1.
       -2    1    3    3    0  502  0.58444504772E+03 -0.11520871078E+03  0.47320053840E+03  0.76076790836E+03  0.25500000920E-02 0. -1.
</event>
<event>
 5   0  0.4024486E-04  0.1199700E+04  0.7818609E-02  0.9113119E-01
       -2   -1    0    0    0  501  0.00000000000E+00  0.00000000000E+00  0.13648589326E+03  0.13648589328E+03  0.25500000920E-02 0. -1.
        2   -1    0    0  501    0  0.00000000000E+00  0.00000000000E+00 -0.26363167269E+04  0.26363167269E+04  0.25500000920E-02 0.  1.
    10030    2    1    2    0    0  0.00000000000E+00  0.00000000000E+00 -0.24998308337E+04  0.27728026202E+04  0.11997000349E+04 0.  0.
        1    1    3    3  502    0 -0.28956570265E+03  0.45448836267E+03 -0.64099042447E+03  0.83742264851E+03  0.50400001928E-02 0. -1.
       -1    1    3    3    0  502  0.28956570265E+03 -0.45448836267E+03 -0.18588404092E+04  0.19353799717E+04  0.50400001928E-02 0.  1.
</event>
<event>
 5   0  0.1541375E-04  0.1198972E+04  0.7818609E-02  0.9113757E-01
       -4   -1    0    0    0  501  0.00000000000E+00  0.00000000000E+00  0.28427225827E+03  0.28427509515E+03  0.12699999809E+01 0. -1.
        4   -1    0    0  501    0  0.00000000000E+00  0.00000000000E+00 -0.12642122695E+04  0.12642129074E+04  0.12699999809E+01 0.  1.
    10030    2    1    2    0    0  0.00000000000E+00  0.00000000000E+00 -0.97994001122E+03  0.15484880025E+04  0.11989715044E+04 0.  0.
        4    1    3    3  502    0  0.50603594799E+03 -0.19060648361E+03 -0.82421597555E+03  0.98576711220E+03  0.12699999809E+01 0.  1.
       -4    1    3    3    0  502 -0.50603594799E+03  0.19060648361E+03 -0.15572403567E+03  0.56272089035E+03  0.12699999809E+01 0. -1.
</event>
<event>
 5   0  0.2244308E-04  0.1199680E+04  0.7818609E-02  0.9113137E-01
       -1   -1    0    0    0  501  0.00000000000E+00  0.00000000000E+00  0.40001692511E+03  0.40001692514E+03  0.50400001928E-02 0.  1.
        1   -1    0    0  501    0  0.00000000000E+00  0.00000000000E+00 -0.89948153900E+03  0.89948153901E+03  0.50400001928E-02 0. -1.
    10030    2    1    2    0    0  0.00000000000E+00  0.00000000000E+00 -0.49946461389E+03  0.12994984642E+04  0.11996796897E+04 0.  0.
        5    1    3    3  502    0 -0.51429035482E+03  0.28417198736E+03 -0.38033579027E+03  0.69994692001E+03  0.46999998093E+01 0. -1.
       -5    1    3    3    0  502  0.51429035482E+03 -0.28417198736E+03 -0.11912882362E+03  0.59955154414E+03  0.46999998093E+01 0.  1.
</event>
<event>
 5   0  0.4122956E-04  0.1201448E+04  0.7818609E-02  0.9111590E-01
       -2   -1    0    0    0  501  0.00000000000E+00  0.00000000000E+00  0.25674791671E+03  0.25674791672E+03  0.25500000920E-02 0. -1.
        2   -1    0    0  501    0  0.00000000000E+00  0.00000000000E+00 -0.14055383098E+04  0.14055383098E+04  0.25500000920E-02 0.  1.
    10030    2    1    2    0    0  0.00000000000E+00  0.00000000000E+00 -0.11487903931E+04  0.16622862265E+04  0.12014475152E+04 0.  0.
        5    1    3    3  502    0  0.69834447056E+02  0.59431520662E+03 -0.50171461175E+03  0.78091424399E+03  0.46999998093E+01 0.  1.
       -5    1    3    3    0  502 -0.69834447056E+02 -0.59431520662E+03 -0.64707578135E+03  0.88137198255E+03  0.46999998093E+01 0. -1.
</event>
<event>
 5   0  0.1541375E-04  0.1193380E+04  0.7818609E-02  0.9118671E-01
       -4   -1    0    0    0  501  0.00000000000E+00  0.00000000000E+00  0.39436183735E+03  0.39436388230E+03  0.12699999809E+01 0.  1.
        4   -1    0    0  501    0  0.00000000000E+00  0.00000000000E+00 -0.90281801271E+03  0.90281890597E+03  0.12699999809E+01 0. -1.
    10030    2    1    2    0    0  0.00000000000E+00  0.00000000000E+00 -0.50845617536E+03  0.12971827883E+04  0.11933798657E+04 0.  0.
        3    1    3    3  502    0  0.26461121042E+03 -0.88858767447E+02 -0.82747486354E+03  0.87328668444E+03  0.10100000352E+00 0. -1.
       -3    1    3    3    0  502 -0.26461121042E+03  0.88858767447E+02  0.31901868818E+03  0.42389610383E+03  0.10100000352E+00 0.  1.
</event>
<event>
 5   0  0.2340731E-04  0.1201889E+04  0.7818609E-02  0.9111205E-01
        1   -1    0    0  501    0  0.00000000000E+00  0.00000000000E+00  0.56077332417E+03  0.56077332420E+03  0.50400001928E-02 0. -1.
       -1   -1    0    0    0  501  0.00000000000E+00  0.00000000000E+00 -0.64399298100E+03  0.64399298102E+03  0.50400001928E-02 0.  1.
    10030    2    1    2    0    0  0.00000000000E+00  0.00000000000E+00 -0.83219656825E+02  0.12047663052E+04  0.12018886549E+04 0.  0.
        3    1    3    3  502    0 -0.34237506043E+03 -0.36214168711E+03  0.29500185664E+03  0.57913158191E+03  0.10100000352E+00 0. -1.
       -3    1    3    3    0  502  0.34237506043E+03  0.36214168711E+03 -0.37822151347E+03  0.62563472330E+03  0.10100000352E+00 0.  1.
</event>
<event>
 5   0  0.2340731E-04  0.1201594E+04  0.7818609E-02  0.9111463E-01
       -1   -1    0    0    0  501  0.00000000000E+00  0.00000000000E+00  0.28595128766E+03  0.28595128771E+03  0.50400001928E-02 0.  1.
        1   -1    0    0  501    0  0.00000000000E+00  0.00000000000E+00 -0.12623017584E+04  0.12623017584E+04  0.50400001928E-02 0. -1.
    10030    2    1    2    0    0  0.00000000000E+00  0.00000000000E+00 -0.97635047073E+03  0.15482530461E+04  0.12015936306E+04 0.  0.
        3    1    3    3  502    0  0.38573706431E+03 -0.45984563286E+03 -0.45394587672E+03  0.75254100090E+03  0.10100000352E+00 0.  1.
       -3    1    3    3    0  502 -0.38573706431E+03  0.45984563286E+03 -0.52240459401E+03  0.79571204521E+03  0.10100000352E+00 0. -1.
</event>
<event>
 5   0  0.3883890E-04  0.1199863E+04  0.7818609E-02  0.9112976E-01
        2   -1    0    0  501    0  0.00000000000E+00  0.00000000000E+00  0.14995635699E+04  0.14995635699E+04  0.25500000920E-02 0.  1.
       -2   -1    0    0    0  501  0.00000000000E+00  0.00000000000E+00 -0.24001516879E+03  0.24001516880E+03  0.25500000920E-02 0. -1.
    10030    2    1    2    0    0  0.00000000000E+00  0.00000000000E+00  0.12595484011E+04  0.17395787387E+04  0.11998633311E+04 0.  0.
        2    1    3    3  502    0 -0.48639781990E+03 -0.16178278514E+03  0.17785644663E+03  0.54257665300E+03  0.25500000920E-02 0. -1.
       -2    1    3    3    0  502  0.48639781990E+03  0.16178278514E+03  0.10816919545E+04  0.11970020857E+04  0.25500000920E-02 0.  1.
</event>
<event>
 5   0  0.4024486E-04  0.1207114E+04  0.7818609E-02  0.9106652E-01
       -2   -1    0    0    0  501  0.00000000000E+00  0.00000000000E+00  0.24368397782E+03  0.24368397783E+03  0.25500000920E-02 0. -1.
        2   -1    0    0  501    0  0.00000000000E+00  0.00000000000E+00 -0.14948914759E+04  0.14948914759E+04  0.25500000920E-02 0.  1.
    10030    2    1    2    0    0  0.00000000000E+00  0.00000000000E+00 -0.12512074981E+04  0.17385754538E+04  0.12071140812E+04 0.  0.
        1    1    3    3  502    0  0.34960584500E+03  0.29939859076E+03 -0.63311089411E+02  0.46462033649E+03  0.50400001928E-02 0. -1.
       -1    1    3    3    0  502 -0.34960584500E+03 -0.29939859076E+03 -0.11878964087E+04  0.12739551173E+04  0.50400001928E-02 0.  1.
</event>
<event>
 5   0  0.2315038E-04  0.1200733E+04  0.7818609E-02  0.9112215E-01
       -1   -1    0    0    0  501  0.00000000000E+00  0.00000000000E+00  0.39540490488E+03  0.39540490492E+03  0.50400001928E-02 0.  1.
        1   -1    0    0  501    0  0.00000000000E+00  0.00000000000E+00 -0.91157121858E+03  0.91157121859E+03  0.50400001928E-02 0. -1.
    10030    2    1    2    0    0  0.00000000000E+00  0.00000000000E+00 -0.51616631369E+03  0.13069761235E+04  0.12007326613E+04 0.  0.
        1    1    3    3  502    0  0.50450696722E+02 -0.28661597578E+03 -0.82966146153E+03  0.87922245828E+03  0.50400001928E-02 0. -1.
       -1    1    3    3    0  502 -0.50450696722E+02  0.28661597578E+03  0.31349514784E+03  0.42775366523E+03  0.50400001928E-02 0.  1.
</event>
<event>
 5   0  0.4024486E-04  0.1203267E+04  0.7818609E-02  0.9110002E-01
        2   -1    0    0  501    0  0.00000000000E+00  0.00000000000E+00  0.16196604325E+04  0.16196604326E+04  0.25500000920E-02 0.  1.
       -2   -1    0    0    0  501  0.00000000000E+00  0.00000000000E+00 -0.22348054443E+03  0.22348054444E+03  0.25500000920E-02 0. -1.
    10030    2    1    2    0    0  0.00000000000E+00  0.00000000000E+00  0.13961798881E+04  0.18431409770E+04  0.12032665461E+04 0.  0.
        1    1    3    3  502    0 -0.58732839462E+03 -0.64222490247E+01  0.89761410355E+03  0.10727101041E+04  0.50400001928E-02 0. -1.
       -1    1    3    3    0  502  0.58732839462E+03  0.64222490247E+01  0.49856578457E+03  0.77043087294E+03  0.50400001928E-02 0.  1.
</event>
<event>
 5   0  0.4024486E-04  0.1200152E+04  0.7818609E-02  0.9112724E-01
       -2   -1    0    0    0  501  0.00000000000E+00  0.00000000000E+00  0.42488037467E+03  0.42488037468E+03  0.25500000920E-02 0.  1.
        2   -1    0    0  501    0  0.00000000000E+00  0.00000000000E+00 -0.84751144519E+03  0.84751144519E+03  0.25500000920E-02 0. -1.
    10030    2    1    2    0    0  0.00000000000E+00  0.00000000000E+00 -0.42263107051E+03  0.12723918199E+04  0.12001516244E+04 0.  0.
        1    1    3    3  502    0 -0.17185499690E+03  0.12185832244E+03 -0.80701488332E+03  0.83406031715E+03  0.50400001928E-02 0. -1.
       -1    1    3    3    0  502  0.17185499690E+03 -0.12185832244E+03  0.38438381281E+03  0.43833150273E+03  0.50400001928E-02 0.  1.
</event>
<event>
 5   0  0.4122956E-04  0.1202308E+04  0.7818609E-02  0.9110839E-01
       -2   -1    0    0    0  501  0.00000000000E+00  0.00000000000E+00  0.75849162619E+03  0.75849162620E+03  0.25500000920E-02 0.  1.
        2   -1    0    0  501    0  0.00000000000E+00  0.00000000000E+00 -0.47645379392E+03  0.47645379393E+03  0.25500000920E-02 0. -1.
    10030    2    1    2    0    0  0.00000000000E+00  0.00000000000E+00  0.28203783227E+03  0.12349454201E+04  0.12023081351E+04 0.  0.
        5    1    3    3  502    0  0.89879594786E+01  0.56655861297E+03 -0.65165492228E+02  0.57038414838E+03  0.46999998093E+01 0. -1.
       -5    1    3    3    0  502 -0.89879594786E+01 -0.56655861297E+03  0.34720332450E+03  0.66456127174E+03  0.46999998093E+01 0.  1.
</event>
<event>
 5   0  0.4024486E-04  0.1199119E+04  0.7818609E-02  0.9113628E-01
        2   -1    0    0  501    0  0.00000000000E+00  0.00000000000E+00  0.16030801271E+03  0.16030801273E+03  0.25500000920E-02 0. -1.
       -2   -1    0    0    0  501  0.00000000000E+00  0.00000000000E+00 -0.22423801208E+04  0.22423801208E+04  0.25500000920E-02 0.  1.
    10030    2    1    2    0    0  0.00000000000E+00  0.00000000000E+00 -0.20820721081E+04  0.24026881335E+04  0.11991188447E+04 0.  0.
        1    1    3    3  502    0 -0.46516151446E+03  0.56468872920E+02 -0.29156351579E+03  0.55188155605E+03  0.50400001928E-02 0. -1.
       -1    1    3    3    0  502  0.46516151446E+03 -0.56468872920E+02 -0.17905085923E+04  0.18508065775E+04  0.50400001928E-02 0.  1.
</event>
<event>
 5   0  0.2304842E-04  0.1203191E+04  0.7818609E-02  0.9110068E-01
       -1   -1    0    0    0  501  0.00000000000E+00  0.00000000000E+00  0.26314104431E+03  0.26314104436E+03  0.50400001928E-02 0. -1.
        1   -1    0    0  501    0  0.00000000000E+00  0.00000000000E+00 -0.13753731180E+04  0.13753731180E+04  0.50400001928E-02 0.  1.
    10030    2    1    2    0    0  0.00000000000E+00  0.00000000000E+00 -0.11122320737E+04  0.16385141624E+04  0.12031909551E+04 0.  0.
        4    1    3    3  502    0 -0.13401080324E+03 -0.38637214304E+02 -0.13530511484E+04  0.13602208471E+04  0.12699999809E+01 0.  1.
       -4    1    3    3    0  502  0.13401080324E+03  0.38637214304E+02  0.24081907469E+03  0.27829331532E+03  0.12699999809E+01 0. -1.
</event>
<event>
 5   0  0.2315038E-04  0.1199863E+04  0.7818609E-02  0.9112976E-01
       -1   -1    0    0    0  501  0.00000000000E+00  0.00000000000E+00  0.15119785062E+03  0.15119785071E+03  0.50400001928E-02 0.  1.
        1   -1    0    0  501    0  0.00000000000E+00  0.00000000000E+00 -0.23804435096E+04  0.23804435096E+04  0.50400001928E-02 0. -1.
    10030    2    1    2    0    0  0.00000000000E+00  0.00000000000E+00 -0.22292456590E+04  0.25316413603E+04  0.11998632294E+04 0.  0.
        1    1    3    3  502    0 -0.42186341446E+03  0.13613333564E+03 -0.19675637374E+04  0.20168807814E+04  0.50400001928E-02 0. -1.
       -1    1    3    3    0  502  0.42186341446E+03 -0.13613333564E+03 -0.26168192160E+03  0.51476057896E+03  0.50400001928E-02 0.  1.
</event>
<event>
 5   0  0.2315038E-04  0.1196395E+04  0.7818609E-02  0.9116017E-01
        1   -1    0    0  501    0  0.00000000000E+00  0.00000000000E+00  0.90218214124E+03  0.90218214126E+03  0.50400001928E-02 0.  1.
       -1   -1    0    0    0  501  0.00000000000E+00  0.00000000000E+00 -0.39663888372E+03  0.39663888376E+03  0.50400001928E-02 0. -1.
    10030    2    1    2    0    0  0.00000000000E+00  0.00000000000E+00  0.50554325752E+03  0.12988210250E+04  0.11963954488E+04 0.  0.
        1    1    3    3  502    0 -0.50072768783E+03  0.32090109164E+03  0.32257899575E+03  0.67658180326E+03  0.50400001928E-02 0. -1.
       -1    1    3    3    0  502  0.50072768783E+03 -0.32090109164E+03  0.18296426177E+03  0.62223922175E+03  0.50400001928E-02 0.  1.
</event>
<event>
 5   0  0.4122956E-04  0.1199010E+04  0.7818609E-02  0.9113724E-01
        2   -1    0    0  501    0  0.00000000000E+00  0.00000000000E+00  0.52472446136E+03  0.52472446136E+03  0.25500000920E-02 0.  1.
       -2   -1    0    0    0  501  0.00000000000E+00  0.00000000000E+00 -0.68494245742E+03  0.68494245742E+03  0.25500000920E-02 0. -1.
    10030    2    1    2    0    0  0.00000000000E+00  0.00000000000E+00 -0.16021799606E+03  0.12096669188E+04  0.11990096948E+04 0.  0.
        5    1    3    3  502    0 -0.34019800430E+03 -0.13858073721E+02 -0.57790850227E+03  0.67076602130E+03  0.46999998093E+01 0. -1.
       -5    1    3    3    0  502  0.34019800430E+03  0.13858073721E+02  0.41769050621E+03  0.53890089749E+03  0.46999998093E+01 0.  1.
</event>
<event>
 5   0  0.4024486E-04  0.1201204E+04  0.7818609E-02  0.9111804E-01
       -2   -1    0    0    0  501  0.00000000000E+00  0.00000000000E+00  0.57531785327E+03  0.57531785327E+03  0.25500000920E-02 0.  1.
        2   -1    0    0  501    0  0.00000000000E+00  0.00000000000E+00 -0.62699697954E+03  0.62699697955E+03  0.25500000920E-02 0. -1.
    10030    2    1    2    0    0  0.00000000000E+00  0.00000000000E+00 -0.51679126275E+02  0.12023148328E+04  0.12012036568E+04 0.  0.
        1    1    3    3  502    0  0.14920467020E+03  0.54744471986E+03 -0.22290948331E+03  0.60962807735E+03  0.50400001928E-02 0.  1.
       -1    1    3    3    0  502 -0.14920467020E+03 -0.54744471986E+03  0.17123035704E+03  0.59268675547E+03  0.50400001928E-02 0. -1.
</event>
<event>
 5   0  0.2340731E-04  0.1196801E+04  0.7818609E-02  0.9115661E-01
        1   -1    0    0  501    0  0.00000000000E+00  0.00000000000E+00  0.73098787113E+03  0.73098787115E+03  0.50400001928E-02 0.  1.
       -1   -1    0    0    0  501  0.00000000000E+00  0.00000000000E+00 -0.48986207706E+03  0.48986207709E+03  0.50400001928E-02 0. -1.
    10030    2    1    2    0    0  0.00000000000E+00  0.00000000000E+00  0.24112579407E+03  0.12208499482E+04  0.11968011312E+04 0.  0.
        3    1    3    3  502    0  0.32246613002E+03 -0.46229402893E+03 -0.84430498833E+02  0.56993744703E+03  0.10100000352E+00 0. -1.
       -3    1    3    3    0  502 -0.32246613002E+03  0.46229402893E+03  0.32555629290E+03  0.65091250121E+03  0.10100000352E+00 0.  1.
</event>
<event>
 5   0  0.2340731E-04  0.1203303E+04  0.7818609E-02  0.9109970E-01
        1   -1    0    0  501    0  0.00000000000E+00  0.00000000000E+00  0.11038912728E+04  0.11038912728E+04  0.50400001928E-02 0. -1.
       -1   -1    0    0    0  501  0.00000000000E+00  0.00000000000E+00 -0.32791708336E+03  0.32791708340E+03  0.50400001928E-02 0.  1.
    10030    2    1    2    0    0  0.00000000000E+00  0.00000000000E+00  0.77597418940E+03  0.14318083562E+04  0.12033034639E+04 0.  0.
        3    1    3    3  502    0 -0.44361113978E+03  0.28754551129E+03  0.72978315382E+03  0.90114190126E+03  0.10100000352E+00 0. -1.
       -3    1    3    3    0  502  0.44361113978E+03 -0.28754551129E+03  0.46191035577E+02  0.53066645491E+03  0.10100000352E+00 0.  1.
</event>
<event>
 5   0  0.4024486E-04  0.1197345E+04  0.7818609E-02  0.9115183E-01
        2   -1    0    0  501    0  0.00000000000E+00  0.00000000000E+00  0.10037708731E+04  0.10037708731E+04  0.25500000920E-02 0. -1.
       -2   -1    0    0    0  501  0.00000000000E+00  0.00000000000E+00 -0.35706256083E+03  0.35706256084E+03  0.25500000920E-02 0.  1.
    10030    2    1    2    0    0  0.00000000000E+00  0.00000000000E+00  0.64670831229E+03  0.13608334340E+04  0.11973453945E+04 0.  0.
        1    1    3    3  502    0 -0.34226811363E+03 -0.31289547795E+03  0.75367900402E+03  0.88491981719E+03  0.50400001928E-02 0. -1.
       -1    1    3    3    0  502  0.34226811363E+03  0.31289547795E+03 -0.10697069172E+03  0.47591361678E+03  0.50400001928E-02 0.  1.
</event>
<event>
 5   0  0.2315038E-04  0.1201329E+04  0.7818609E-02  0.9111694E-01
       -1   -1    0    0    0  501  0.00000000000E+00  0.00000000000E+00  0.34075589520E+03  0.34075589524E+03  0.50400001928E-02 0. -1.
        1   -1    0    0  501    0  0.00000000000E+00  0.00000000000E+00 -0.10588163027E+04  0.10588163027E+04  0.50400001928E-02 0.  1.
    10030    2    1    2    0    0  0.00000000000E+00  0.00000000000E+00 -0.71806040753E+03  0.13995721980E+04  0.12013290925E+04 0.  0.
        1    1    3    3  502    0  0.81713264021E+02 -0.10488252603E+03 -0.10414578970E+04  0.10499104500E+04  0.50400001928E-02 0.  1.
       -1    1    3    3    0  502 -0.81713264021E+02  0.10488252603E+03  0.32339748946E+03  0.34966174798E+03  0.50400001928E-02 0. -1.
</event>
<event>
 5   0  0.2204090E-04  0.1203422E+04  0.7818609E-02  0.9109867E-01
       -1   -1    0    0    0  501  0.00000000000E+00  0.00000000000E+00  0.47063095045E+03  0.47063095048E+03  0.50400001928E-02 0.  1.
        1   -1    0    0  501    0  0.00000000000E+00  0.00000000000E+00 -0.76929891127E+03  0.76929891129E+03  0.50400001928E-02 0. -1.
    10030    2    1    2    0    0  0.00000000000E+00  0.00000000000E+00 -0.29866796082E+03  0.12399298618E+04  0.12034215850E+04 0.  0.
        2    1    3    3  502    0 -0.50445252843E+03  0.60381545776E+02 -0.48150799149E+03  0.69997730705E+03  0.25500000920E-02 0. -1.
       -2    1    3    3    0  502  0.50445252843E+03 -0.60381545776E+02  0.18284003067E+03  0.53995255471E+03  0.25500000920E-02 0.  1.
</event>
<event>
 5   0  0.2304842E-04  0.1199307E+04  0.7818609E-02  0.9113463E-01
        1   -1    0    0  501    0  0.00000000000E+00  0.00000000000E+00  0.39427599499E+03  0.39427599502E+03  0.50400001928E-02 0.  1.
       -1   -1    0    0    0  501  0.00000000000E+00  0.00000000000E+00 -0.91201243286E+03  0.91201243287E+03  0.50400001928E-02 0. -1.
    10030    2    1    2    0    0  0.00000000000E+00  0.00000000000E+00 -0.51773643787E+03  0.13062884279E+04  0.11993074826E+04 0.  0.
        4    1    3    3  502    0  0.44338216631E+03 -0.37148075464E+03 -0.43107691883E+03  0.72139768458E+03  0.12699999809E+01 0. -1.
       -4    1    3    3    0  502 -0.44338216631E+03  0.37148075464E+03 -0.86659519042E+02  0.58489074331E+03  0.12699999809E+01 0.  1.
</event>
<event>
 5   0  0.2204090E-04  0.1200213E+04  0.7818609E-02  0.9112670E-01
       -1   -1    0    0    0  501  0.00000000000E+00  0.00000000000E+00  0.20996977062E+03  0.20996977068E+03  0.50400001928E-02 0.  1.
        1   -1    0    0  501    0  0.00000000000E+00  0.00000000000E+00 -0.17151421973E+04  0.17151421973E+04  0.50400001928E-02 0. -1.
    10030    2    1    2    0    0  0.00000000000E+00  0.00000000000E+00 -0.15051724267E+04  0.19251119680E+04  0.12002133374E+04 0.  0.
        2    1    3    3  502    0  0.54691998382E+03  0.22210441956E+03 -0.92590585627E+03  0.10980680747E+04  0.25500000920E-02 0.  1.
       -2    1    3    3    0  502 -0.54691998382E+03 -0.22210441956E+03 -0.57926657040E+03  0.82704389332E+03  0.25500000920E-02 0. -1.
</event>
<event>
 5   0  0.2315038E-04  0.1198598E+04  0.7818609E-02  0.9114084E-01
       -1   -1    0    0    0  501  0.00000000000E+00  0.00000000000E+00  0.99966999520E+03  0.99966999521E+03  0.50400001928E-02 0.  1.
        1   -1    0    0  501    0  0.00000000000E+00  0.00000000000E+00 -0.35927806547E+03  0.35927806550E+03  0.50400001928E-02 0. -1.
    10030    2    1    2    0    0  0.00000000000E+00  0.00000000000E+00  0.64039192973E+03  0.13589480607E+04  0.11985983514E+04 0.  0.
        1    1    3    3  502    0  0.36564520871E+03  0.42165775177E+03  0.72657983817E+02  0.56282400528E+03  0.50400001928E-02 0. -1.
       -1    1    3    3    0  502 -0.36564520871E+03 -0.42165775177E+03  0.56773394591E+03  0.79612405544E+03  0.50400001928E-02 0.  1.
</event>
<event>
 5   0  0.2340731E-04  0.1202524E+04  0.7818609E-02  0.9110650E-01
       -1   -1    0    0    0  501  0.00000000000E+00  0.00000000000E+00  0.31219189167E+03  0.31219189171E+03  0.50400001928E-02 0. -1.
        1   -1    0    0  501    0  0.00000000000E+00  0.00000000000E+00 -0.11579922486E+04  0.11579922486E+04  0.50400001928E-02 0.  1.
    10030    2    1    2    0    0  0.00000000000E+00  0.00000000000E+00 -0.84580035690E+03  0.14701841403E+04  0.12025236641E+04 0.  0.
        3    1    3    3  502    0 -0.59668211672E+03  0.22901997808E+02 -0.33678202888E+03  0.68554809830E+03  0.10100000352E+00 0.  1.
       -3    1    3    3    0  502  0.59668211672E+03 -0.22901997808E+02 -0.50901832802E+03  0.78463604198E+03  0.10100000352E+00 0. -1.
</event>
<event>
 5   0  0.2304842E-04  0.1202395E+04  0.7818609E-02  0.9110763E-01
        1   -1    0    0  501    0  0.00000000000E+00  0.00000000000E+00  0.10814948161E+04  0.10814948161E+04  0.50400001928E-02 0. -1.
       -1   -1    0    0    0  501  0.00000000000E+00  0.00000000000E+00 -0.33420260550E+03  0.33420260554E+03  0.50400001928E-02 0.  1.
    10030    2    1    2    0    0  0.00000000000E+00  0.00000000000E+00  0.74729221063E+03  0.14156974217E+04  0.12023949192E+04 0.  0.
        4    1    3    3  502    0 -0.23166979035E+03  0.69029582050E+02  0.10217508405E+04  0.10499582696E+04  0.12699999809E+01 0. -1.
       -4    1    3    3    0  502  0.23166979035E+03 -0.69029582050E+02 -0.27445862987E+03  0.36573915208E+03  0.12699999809E+01 0.  1.
</event>
<event>
 5   0  0.3993723E-04  0.1200445E+04  0.7818609E-02  0.9112467E-01
       -2   -1    0    0    0  501  0.00000000000E+00  0.00000000000E+00  0.24046540170E+03  0.24046540172E+03  0.25500000920E-02 0.  1.
        2   -1    0    0  501    0  0.00000000000E+00  0.00000000000E+00 -0.14982071823E+04  0.14982071823E+04  0.25500000920E-02 0. -1.
    10030    2    1    2    0    0  0.00000000000E+00  0.00000000000E+00 -0.12577417806E+04  0.17386725841E+04  0.12004449041E+04 0.  0.
        3    1    3    3  502    0  0.21508674924E+03 -0.48644603264E+03 -0.22599089209E+03  0.57789613762E+03  0.10100000352E+00 0.  1.
       -3    1    3    3    0  502 -0.21508674924E+03  0.48644603264E+03 -0.10317508886E+04  0.11607764464E+04  0.10100000352E+00 0. -1.
</event>
<event>
 5   0  0.2204090E-04  0.1201162E+04  0.7818609E-02  0.9111840E-01
        1   -1    0    0  501    0  0.00000000000E+00  0.00000000000E+00  0.91208991731E+03  0.91208991732E+03  0.50400001928E-02 0.  1.
       -1   -1    0    0    0  501  0.00000000000E+00  0.00000000000E+00 -0.39546242670E+03  0.39546242673E+03  0.50400001928E-02 0. -1.
    10030    2    1    2    0    0  0.00000000000E+00  0.00000000000E+00  0.51662749061E+03  0.13075523441E+04  0.12011615913E+04 0.  0.
        2    1    3    3  502    0  0.34107357610E+02 -0.58938482191E+03  0.13827658332E+03  0.60634824453E+03  0.25500000920E-02 0.  1.
       -2    1    3    3    0  502 -0.34107357610E+02  0.58938482191E+03  0.37835090729E+03  0.70120409953E+03  0.25500000920E-02 0. -1.
</event>
<event>
 5   0  0.2340731E-04  0.1199707E+04  0.7818609E-02  0.9113113E-01
        1   -1    0    0  501    0  0.00000000000E+00  0.00000000000E+00  0.65712563757E+03  0.65712563759E+03  0.50400001928E-02 0.  1.
       -1   -1    0    0    0  501  0.00000000000E+00  0.00000000000E+00 -0.54757286537E+03  0.54757286540E+03  0.50400001928E-02 0. -1.
    10030    2    1    2    0    0  0.00000000000E+00  0.00000000000E+00  0.10955277220E+03  0.12046985030E+04  0.11997069114E+04 0.  0.
        3    1    3    3  502    0 -0.13993011463E+03 -0.14745508188E+02 -0.53076751128E+03  0.54910110929E+03  0.10100000352E+00 0. -1.
       -3    1    3    3    0  502  0.13993011463E+03  0.14745508188E+02  0.64032028347E+03  0.65559739370E+03  0.10100000352E+00 0.  1.
</event>
<event>
 5   0  0.1541375E-04  0.1202699E+04  0.7818609E-02  0.9110498E-01
       -4   -1    0    0    0  501  0.00000000000E+00  0.00000000000E+00  0.30111736541E+03  0.30112004359E+03  0.12699999809E+01 0.  1.
        4   -1    0    0  501    0  0.00000000000E+00  0.00000000000E+00 -0.12009224377E+04  0.12009231092E+04  0.12699999809E+01 0. -1.
    10030    2    1    2    0    0  0.00000000000E+00  0.00000000000E+00 -0.89980507230E+03  0.15020431528E+04  0.12026988255E+04 0.  0.
        3    1    3    3  502    0 -0.10670028507E+03 -0.50514494805E+03 -0.83496860184E+03  0.98169697241E+03  0.10100000352E+00 0. -1.
       -3    1    3    3    0  502  0.10670028507E+03  0.50514494805E+03 -0.64836470464E+02  0.52034618042E+03  0.10100000352E+00 0.  1.
</event>
<event>
 5   0  0.4024486E-04  0.1197065E+04  0.7818609E-02  0.9115430E-01
        2   -1    0    0  501    0  0.00000000000E+00  0.00000000000E+00  0.54549706083E+03  0.54549706083E+03  0.25500000920E-02 0.  1.
       -2   -1    0    0    0  501  0.00000000000E+00  0.00000000000E+00 -0.65672413866E+03  0.65672413867E+03  0.25500000920E-02 0. -1.
    10030    2    1    2    0    0  0.00000000000E+00  0.00000000000E+00 -0.11122707784E+03  0.12022211995E+04  0.11970648895E+04 0.  0.
        1    1    3    3  502    0  0.23754034178E+03 -0.33019107830E+03 -0.49658289036E+03  0.64190819373E+03  0.50400001928E-02 0. -1.
       -1    1    3    3    0  502 -0.23754034178E+03  0.33019107830E+03  0.38535581252E+03  0.56031300577E+03  0.50400001928E-02 0.  1.
</event>
<event>
 5   0  0.1541375E-04  0.1200236E+04  0.7818609E-02  0.9112650E-01
        3   -1    0    0  501    0  0.00000000000E+00  0.00000000000E+00  0.93970679977E+03  0.93970680520E+03  0.10100000352E+00 0.  1.
       -3   -1    0    0    0  501  0.00000000000E+00  0.00000000000E+00 -0.38324886228E+03  0.38324887559E+03  0.10100000352E+00 0. -1.
    10030    2    1    2    0    0  0.00000000000E+00  0.00000000000E+00  0.55645793749E+03  0.13229556808E+04  0.12002359340E+04 0.  0.
        5    1    3    3  502    0 -0.20660367977E+03  0.29419065888E+03 -0.25140729714E+03  0.43870370789E+03  0.46999998093E+01 0. -1.
       -5    1    3    3    0  502  0.20660367977E+03 -0.29419065888E+03  0.80786523463E+03  0.88425197290E+03  0.46999998093E+01 0.  1.
</event>
<event>
 5   0  0.2315038E-04  0.1208170E+04  0.7818609E-02  0.9105736E-01
       -1   -1    0    0    0  501  0.00000000000E+00  0.00000000000E+00  0.59490287724E+03  0.59490287726E+03  0.50400001928E-02 0. -1.
        1   -1    0    0  501    0  0.00000000000E+00  0.00000000000E+00 -0.61340855086E+03  0.61340855088E+03  0.50400001928E-02 0.  1.
    10030    2    1    2    0    0  0.00000000000E+00  0.00000000000E+00 -0.18505673622E+02  0.12083114281E+04  0.12081697097E+04 0.  0.
        1    1    3    3  502    0  0.76742183070E+02 -0.55458567918E+03 -0.23613595157E+03  0.60763050110E+03  0.50400001928E-02 0.  1.
       -1    1    3    3    0  502 -0.76742183070E+02  0.55458567918E+03  0.21763027795E+03  0.60068092705E+03  0.50400001928E-02 0. -1.
</event>
<event>
 5   0  0.3883890E-04  0.1199575E+04  0.7818609E-02  0.9113229E-01
        2   -1    0    0  501    0  0.00000000000E+00  0.00000000000E+00  0.21465556422E+04  0.21465556422E+04  0.25500000920E-02 0.  1.
       -2   -1    0    0    0  501  0.00000000000E+00  0.00000000000E+00 -0.16759174218E+03  0.16759174220E+03  0.25500000920E-02 0. -1.
    10030    2    1    2    0    0  0.00000000000E+00  0.00000000000E+00  0.19789639000E+04  0.23141473844E+04  0.11995749244E+04 0.  0.
        2    1    3    3  502    0  0.33218049840E+03  0.41005998625E+03  0.15393778263E+04  0.16273220849E+04  0.25500000920E-02 0.  1.
       -2    1    3    3    0  502 -0.33218049840E+03 -0.41005998625E+03  0.43958607371E+03  0.68682529951E+03  0.25500000920E-02 0. -1.
</event>
<event>
 5   0  0.2244308E-04  0.1200315E+04  0.7818609E-02  0.9112580E-01
        1   -1    0    0  501    0  0.00000000000E+00  0.00000000000E+00  0.88420594510E+03  0.88420594512E+03  0.50400001928E-02 0. -1.
       -1   -1    0    0    0  501  0.00000000000E+00  0.00000000000E+00 -0.40735905199E+03  0.40735905202E+03  0.50400001928E-02 0.  1.
    10030    2    1    2    0    0  0.00000000000E+00  0.00000000000E+00  0.47684689311E+03  0.12915649971E+04  0.12003154512E+04 0.  0.
        5    1    3    3  502    0 -0.22835422634E+03 -0.17206700880E+03 -0.32933916896E+03  0.43616405905E+03  0.46999998093E+01 0.  1.
       -5    1    3    3    0  502  0.22835422634E+03  0.17206700880E+03  0.80618606207E+03  0.85540093809E+03  0.46999998093E+01 0. -1.
</event>
<event>
 5   0  0.2304842E-04  0.1197814E+04  0.7818609E-02  0.9114772E-01
       -1   -1    0    0    0  501  0.00000000000E+00  0.00000000000E+00  0.22817411298E+03  0.22817411303E+03  0.50400001928E-02 0. -1.
        1   -1    0    0  501    0  0.00000000000E+00  0.00000000000E+00 -0.15719987556E+04  0.15719987556E+04  0.50400001928E-02 0.  1.
    10030    2    1    2    0    0  0.00000000000E+00  0.00000000000E+00 -0.13438246426E+04  0.18001728686E+04  0.11978137112E+04 0.  0.
        4    1    3    3  502    0  0.34520902274E+03  0.73312468626E+01 -0.14073498142E+04  0.14490887236E+04  0.12699999809E+01 0.  1.
       -4    1    3    3    0  502 -0.34520902274E+03 -0.73312468626E+01  0.63525171559E+02  0.35108414502E+03  0.12699999809E+01 0. -1.
</event>
<event>
 5   0  0.2340731E-04  0.1218305E+04  0.7818609E-02  0.9096984E-01
        1   -1    0    0  501    0  0.00000000000E+00  0.00000000000E+00  0.59051643305E+03  0.59051643307E+03  0.50400001928E-02 0.  1.
       -1   -1    0    0    0  501  0.00000000000E+00  0.00000000000E+00 -0.62837621393E+03  0.62837621395E+03  0.50400001928E-02 0. -1.
    10030    2    1    2    0    0  0.00000000000E+00  0.00000000000E+00 -0.37859780879E+02  0.12188926470E+04  0.12183045276E+04 0.  0.
        3    1    3    3  502    0  0.25475112603E+03 -0.15157548571E+03 -0.55134578736E+03  0.62598358727E+03  0.10100000352E+00 0. -1.
       -3    1    3    3    0  502 -0.25475112603E+03  0.15157548571E+03  0.51348600648E+03  0.59290905975E+03  0.10100000352E+00 0.  1.
</event>
<event>
 5   0  0.1541375E-04  0.1195380E+04  0.7818609E-02  0.9116910E-01
        3   -1    0    0  501    0  0.00000000000E+00  0.00000000000E+00  0.58492320047E+03  0.58492320919E+03  0.10100000352E+00 0.  1.
       -3   -1    0    0    0  501  0.00000000000E+00  0.00000000000E+00 -0.61073592273E+03  0.61073593108E+03  0.10100000352E+00 0. -1.
    10030    2    1    2    0    0  0.00000000000E+00  0.00000000000E+00 -0.25812722264E+02  0.11956591403E+04  0.11953804763E+04 0.  0.
        4    1    3    3  502    0  0.44348305145E+03 -0.29453420839E+03 -0.28463932789E+03  0.60369593067E+03  0.12699999809E+01 0. -1.
       -4    1    3    3    0  502 -0.44348305145E+03  0.29453420839E+03  0.25882660563E+03  0.59196320959E+03  0.12699999809E+01 0.  1.
</event>
<event>
 5   0  0.3993723E-04  0.1205167E+04  0.7818609E-02  0.9108346E-01
       -2   -1    0    0    0  501  0.00000000000E+00  0.00000000000E+00  0.23552308140E+03  0.23552308141E+03  0.25500000920E-02 0. -1.
        2   -1    0    0  501    0  0.00000000000E+00  0.00000000000E+00 -0.15417028673E+04  0.15417028673E+04  0.25500000920E-02 0.  1.
    10030    2    1    2    0    0  0.00000000000E+00  0.00000000000E+00 -0.13061797859E+04  0.17772259487E+04  0.12051665610E+04 0.  0.
        3    1    3    3  502    0  0.59130157225E+03  0.10146474707E+03 -0.73616979725E+03  0.94967290413E+03  0.10100000352E+00 0.  1.
       -3    1    3    3    0  502 -0.59130157225E+03 -0.10146474707E+03 -0.57000998865E+03  0.82755304459E+03  0.10100000352E+00 0. -1.
</event>
<event>
 5   0  0.3832662E-04  0.1200947E+04  0.7818609E-02  0.9112028E-01
       -2   -1    0    0    0  501  0.00000000000E+00  0.00000000000E+00  0.20440845788E+03  0.20440845790E+03  0.25500000920E-02 0. -1.
        2   -1    0    0  501    0  0.00000000000E+00  0.00000000000E+00 -0.17639615466E+04  0.17639615466E+04  0.25500000920E-02 0.  1.
    10030    2    1    2    0    0  0.00000000000E+00  0.00000000000E+00 -0.15595530887E+04  0.19683700045E+04  0.12009473919E+04 0.  0.
        4    1    3    3  502    0 -0.53438746365E+03  0.26751785620E+03 -0.68376776324E+03  0.90811658483E+03  0.12699999809E+01 0. -1.
       -4    1    3    3    0  502  0.53438746365E+03 -0.26751785620E+03 -0.87578532545E+03  0.10602534196E+04  0.12699999809E+01 0.  1.
</event>
<event>
 5   0  0.2304842E-04  0.1200844E+04  0.7818609E-02  0.9112119E-01
       -1   -1    0    0    0  501  0.00000000000E+00  0.00000000000E+00  0.35427562984E+03  0.35427562987E+03  0.50400001928E-02 0.  1.
        1   -1    0    0  501    0  0.00000000000E+00  0.00000000000E+00 -0.10175870361E+04  0.10175870361E+04  0.50400001928E-02 0. -1.
    10030    2    1    2    0    0  0.00000000000E+00  0.00000000000E+00 -0.66331140624E+03  0.13718626660E+04  0.12008435171E+04 0.  0.
        4    1    3    3  502    0 -0.67428953765E+02  0.39290392964E+03  0.18126803885E+03  0.43792679359E+03  0.12699999809E+01 0.  1.
       -4    1    3    3    0  502  0.67428953765E+02 -0.39290392964E+03 -0.84457944510E+03  0.93393587238E+03  0.12699999809E+01 0. -1.
</event>
<event>
 5   0  0.2244308E-04  0.1197152E+04  0.7818609E-02  0.9115353E-01
        1   -1    0    0  501    0  0.00000000000E+00  0.00000000000E+00  0.12487524418E+04  0.12487524418E+04  0.50400001928E-02 0. -1.
       -1   -1    0    0    0  501  0.00000000000E+00  0.00000000000E+00 -0.28692111308E+03  0.28692111312E+03  0.50400001928E-02 0.  1.
    10030    2    1    2    0    0  0.00000000000E+00  0.00000000000E+00  0.96183132875E+03  0.15356735550E+04  0.11971523556E+04 0.  0.
        5    1    3    3  502    0 -0.11497311738E+03 -0.21921089272E+03  0.11799959589E+04  0.12056885113E+04  0.46999998093E+01 0. -1.
       -5    1    3    3    0  502  0.11497311738E+03  0.21921089272E+03 -0.21816463015E+03  0.32998504368E+03  0.46999998093E+01 0.  1.
</event>
<event>
 5   0  0.3993723E-04  0.1200429E+04  0.7818609E-02  0.9112481E-01
       -2   -1    0    0    0  501  0.00000000000E+00  0.00000000000E+00  0.24108872434E+03  0.24108872436E+03  0.25500000920E-02 0.  1.
        2   -1    0    0  501    0  0.00000000000E+00  0.00000000000E+00 -0.14942937147E+04  0.14942937147E+04  0.25500000920E-02 0. -1.
    10030    2    1    2    0    0  0.00000000000E+00  0.00000000000E+00 -0.12532049903E+04  0.17353824390E+04  0.12004288658E+04 0.  0.
        3    1    3    3  502    0 -0.28598104649E+02 -0.13278739425E+03 -0.14717825739E+04  0.14780373130E+04  0.10100000352E+00 0. -1.
       -3    1    3    3    0  502  0.28598104649E+02  0.13278739425E+03  0.21857758355E+03  0.25734512603E+03  0.10100000352E+00 0.  1.
</event>
<event>
 5   0  0.2304842E-04  0.1196169E+04  0.7818609E-02  0.9116217E-01
       -1   -1    0    0    0  501  0.00000000000E+00  0.00000000000E+00  0.33194400968E+03  0.33194400972E+03  0.50400001928E-02 0. -1.
        1   -1    0    0  501    0  0.00000000000E+00  0.00000000000E+00 -0.10776061810E+04  0.10776061810E+04  0.50400001928E-02 0.  1.
    10030    2    1    2    0    0  0.00000000000E+00  0.00000000000E+00 -0.74566217130E+03  0.14095501907E+04  0.11961687450E+04 0.  0.
        4    1    3    3  502    0 -0.22202265414E+03  0.36058636404E+02 -0.10258629605E+04  0.10502336459E+04  0.12699999809E+01 0.  1.
       -4    1    3    3    0  502  0.22202265414E+03 -0.36058636404E+02  0.28020078924E+03  0.35931654485E+03  0.12699999809E+01 0. -1.
</event>
<event>
 5   0  0.3993723E-04  0.1200336E+04  0.7818609E-02  0.9112563E-01
        2   -1    0    0  501    0  0.00000000000E+00  0.00000000000E+00  0.10012370241E+04  0.10012370241E+04  0.25500000920E-02 0.  1.
       -2   -1    0    0    0  501  0.00000000000E+00  0.00000000000E+00 -0.35975658146E+03  0.35975658147E+03  0.25500000920E-02 0. -1.
    10030    2    1    2    0    0  0.00000000000E+00  0.00000000000E+00  0.64148044266E+03  0.13609936056E+04  0.12003359680E+04 0.  0.
        3    1    3    3  502    0  0.12997680268E+03  0.42070862827E+03 -0.14165666488E+03  0.46255414823E+03  0.10100000352E+00 0. -1.
       -3    1    3    3    0  502 -0.12997680268E+03 -0.42070862827E+03  0.78313710753E+03  0.89843945736E+03  0.10100000352E+00 0.  1.
</event>
<event>
 5   0  0.2244308E-04  0.1199329E+04  0.7818609E-02  0.9113444E-01
       -1   -1    0    0    0  501  0.00000000000E+00  0.00000000000E+00  0.63823461524E+03  0.63823461526E+03  0.50400001928E-02 0.  1.
        1   -1    0    0  501    0  0.00000000000E+00  0.00000000000E+00 -0.56342492267E+03  0.56342492269E+03  0.50400001928E-02 0. -1.
    10030    2    1    2    0    0  0.00000000000E+00  0.00000000000E+00  0.74809692571E+02  0.12016595379E+04  0.11993286268E+04 0.  0.
        5    1    3    3  502    0 -0.45072583053E+03  0.30572521170E+03  0.28879788354E+03  0.61648032160E+03  0.46999998093E+01 0.  1.
       -5    1    3    3    0  502  0.45072583053E+03 -0.30572521170E+03 -0.21398819097E+03  0.58517921635E+03  0.46999998093E+01 0. -1.
</event>
<event>
 5   0  0.2204090E-04  0.1200359E+04  0.7818609E-02  0.9112542E-01
       -1   -1    0    0    0  501  0.00000000000E+00  0.00000000000E+00  0.21137649355E+03  0.21137649361E+03  0.50400001928E-02 0.  1.
        1   -1    0    0  501    0  0.00000000000E+00  0.00000000000E+00 -0.17041420277E+04  0.17041420278E+04  0.50400001928E-02 0. -1.
    10030    2    1    2    0    0  0.00000000000E+00  0.00000000000E+00 -0.14927655342E+04  0.19155185214E+04  0.12003592236E+04 0.  0.
        2    1    3    3  502    0  0.49394816440E+03  0.28235823308E+03 -0.44148871562E+03  0.72015501590E+03  0.25500000920E-02 0.  1.
       -2    1    3    3    0  502 -0.49394816440E+03 -0.28235823308E+03 -0.10512768186E+04  0.11953635055E+04  0.25500000920E-02 0. -1.
</event>
<event>
 5   0  0.4122956E-04  0.1199060E+04  0.7818609E-02  0.9113679E-01
       -2   -1    0    0    0  501  0.00000000000E+00  0.00000000000E+00  0.44722661784E+03  0.44722661785E+03  0.25500000920E-02 0.  1.
        2   -1    0    0  501    0  0.00000000000E+00  0.00000000000E+00 -0.80370078310E+03  0.80370078311E+03  0.25500000920E-02 0. -1.
    10030    2    1    2    0    0  0.00000000000E+00  0.00000000000E+00 -0.35647416526E+03  0.12509274010E+04  0.11990602704E+04 0.  0.
        5    1    3    3  502    0  0.24676572261E+03 -0.43754252679E+03  0.16314460481E+03  0.52818087497E+03  0.46999998093E+01 0.  1.
       -5    1    3    3    0  502 -0.24676572261E+03  0.43754252679E+03 -0.51961877007E+03  0.72274652598E+03  0.46999998093E+01 0. -1.
</event>
<event>
 5   0  0.2315038E-04  0.1198861E+04  0.7818609E-02  0.9113854E-01
       -1   -1    0    0    0  501  0.00000000000E+00  0.00000000000E+00  0.29007293182E+03  0.29007293186E+03  0.50400001928E-02 0.  1.
        1   -1    0    0  501    0  0.00000000000E+00  0.00000000000E+00 -0.12387115576E+04  0.12387115577E+04  0.50400001928E-02 0. -1.
    10030    2    1    2    0    0  0.00000000000E+00  0.00000000000E+00 -0.94863862583E+03  0.15287844895E+04  0.11988606145E+04 0.  0.
        1    1    3    3  502    0 -0.77902222196E+01 -0.56052033485E+03 -0.20358979225E+03  0.59639964527E+03  0.50400001928E-02 0.  1.
       -1    1    3    3    0  502  0.77902222196E+01  0.56052033485E+03 -0.74504883358E+03  0.93238484425E+03  0.50400001928E-02 0. -1.
</event>
<event>
 5   0  0.2315038E-04  0.1199006E+04  0.7818609E-02  0.9113727E-01
        1   -1    0    0  501    0  0.00000000000E+00  0.00000000000E+00  0.30623527056E+03  0.30623527060E+03  0.50400001928E-02 0.  1.
       -1   -1    0    0    0  501  0.00000000000E+00  0.00000000000E+00 -0.11736194224E+04  0.11736194224E+04  0.50400001928E-02 0. -1.
    10030    2    1    2    0    0  0.00000000000E+00  0.00000000000E+00 -0.86738415182E+03  0.14798546930E+04  0.11990056904E+04 0.  0.
        1    1    3    3  502    0  0.35499491921E+03  0.19237353015E+03 -0.98063321410E+03  0.10605048177E+04  0.50400001928E-02 0. -1.
       -1    1    3    3    0  502 -0.35499491921E+03 -0.19237353015E+03  0.11324906228E+03  0.41934987528E+03  0.50400001928E-02 0.  1.
</event>
<event>
 5   0  0.3993723E-04  0.1201901E+04  0.7818609E-02  0.9111194E-01
        2   -1    0    0  501    0  0.00000000000E+00  0.00000000000E+00  0.10673743882E+04  0.10673743882E+04  0.25500000920E-02 0. -1.
       -2   -1    0    0    0  501  0.00000000000E+00  0.00000000000E+00 -0.33834592641E+03  0.33834592642E+03  0.25500000920E-02 0.  1.
    10030    2    1    2    0    0  0.00000000000E+00  0.00000000000E+00  0.72902846183E+03  0.14057203147E+04  0.12019014539E+04 0.  0.
        3    1    3    3  502    0  0.19475052443E+03 -0.49889302489E+03  0.68336111524E+03  0.86821912042E+03  0.10100000352E+00 0. -1.
       -3    1    3    3    0  502 -0.19475052443E+03  0.49889302489E+03  0.45667346589E+02  0.53750119423E+03  0.10100000352E+00 0.  1.
</event>
<event>
 5   0  0.2304842E-04  0.1199733E+04  0.7818609E-02  0.9113090E-01
        1   -1    0    0  501    0  0.00000000000E+00  0.00000000000E+00  0.34432011933E+03  0.34432011937E+03  0.50400001928E-02 0. -1.
       -1   -1    0    0    0  501  0.00000000000E+00  0.00000000000E+00 -0.10450732616E+04  0.10450732617E+04  0.50400001928E-02 0.  1.
    10030    2    1    2    0    0  0.00000000000E+00  0.00000000000E+00 -0.70075314231E+03  0.13893933810E+04  0.11997328873E+04 0.  0.
        4    1    3    3  502    0 -0.42394185592E+03  0.17170661700E+03 -0.79983954082E+03  0.92138741226E+03  0.12699999809E+01 0.  1.
       -4    1    3    3    0  502  0.42394185592E+03 -0.17170661700E+03  0.99086398510E+02  0.46800596876E+03  0.12699999809E+01 0. -1.
</event>
<event>
 5   0  0.2315038E-04  0.1199362E+04  0.7818609E-02  0.9113415E-01
       -1   -1    0    0    0  501  0.00000000000E+00  0.00000000000E+00  0.48499934647E+03  0.48499934649E+03  0.50400001928E-02 0. -1.
        1   -1    0    0  501    0  0.00000000000E+00  0.00000000000E+00 -0.74148014455E+03  0.74148014457E+03  0.50400001928E-02 0.  1.
    10030    2    1    2    0    0  0.00000000000E+00  0.00000000000E+00 -0.25648079809E+03  0.12264794911E+04  0.11993621397E+04 0.  0.
        1    1    3    3  502    0  0.38101515566E+03  0.36434511592E+03 -0.42053060771E+03  0.67436333262E+03  0.50400001928E-02 0. -1.
       -1    1    3    3    0  502 -0.38101515566E+03 -0.36434511592E+03  0.16404980963E+03  0.55211615843E+03  0.50400001928E-02 0.  1.
</event>
<event>
 5   0  0.4122956E-04  0.1202208E+04  0.7818609E-02  0.9110926E-01
       -2   -1    0    0    0  501  0.00000000000E+00  0.00000000000E+00  0.54565309126E+03  0.54565309127E+03  0.25500000920E-02 0. -1.
        2   -1    0    0  501    0  0.00000000000E+00  0.00000000000E+00 -0.66218949324E+03  0.66218949324E+03  0.25500000920E-02 0.  1.
    10030    2    1    2    0    0  0.00000000000E+00  0.00000000000E+00 -0.11653640197E+03  0.12078425845E+04  0.12022075428E+04 0.  0.
        5    1    3    3  502    0 -0.36462254523E+03 -0.18525478837E+03 -0.50082662259E+03  0.64662070257E+03  0.46999998093E+01 0.  1.
       -5    1    3    3    0  502  0.36462254523E+03  0.18525478837E+03  0.38429022062E+03  0.56122188194E+03  0.46999998093E+01 0. -1.
</event>
<event>
 5   0  0.2244308E-04  0.1196360E+04  0.7818609E-02  0.9116049E-01
        1   -1    0    0  501    0  0.00000000000E+00  0.00000000000E+00  0.37996373152E+03  0.37996373155E+03  0.50400001928E-02 0.  1.
       -1   -1    0    0    0  501  0.00000000000E+00  0.00000000000E+00 -0.94171930973E+03  0.94171930974E+03  0.50400001928E-02 0. -1.
    10030    2    1    2    0    0  0.00000000000E+00  0.00000000000E+00 -0.56175557821E+03  0.13216830413E+04  0.11963597837E+04 0.  0.
        5    1    3    3  502    0  0.54155725823E+03  0.18887452385E+03 -0.93267158830E+02  0.58110128430E+03  0.46999998093E+01 0.  1.
       -5    1    3    3    0  502 -0.54155725823E+03 -0.18887452385E+03 -0.46848841938E+03  0.74058175700E+03  0.46999998093E+01 0. -1.
</event>
<event>
 5   0  0.3993723E-04  0.1201615E+04  0.7818609E-02  0.9111444E-01
       -2   -1    0    0    0  501  0.00000000000E+00  0.00000000000E+00  0.72153496927E+03  0.72153496928E+03  0.25500000920E-02 0. -1.
        2   -1    0    0  501    0  0.00000000000E+00  0.00000000000E+00 -0.50027997733E+03  0.50027997733E+03  0.25500000920E-02 0.  1.
    10030    2    1    2    0    0  0.00000000000E+00  0.00000000000E+00  0.22125499194E+03  0.12218149466E+04  0.12016147437E+04 0.  0.
        3    1    3    3  502    0 -0.36571579338E+03 -0.44670907988E+03 -0.58519366386E+02  0.58027714932E+03  0.10100000352E+00 0.  1.
       -3    1    3    3    0  502  0.36571579338E+03  0.44670907988E+03  0.27977435833E+03  0.64153779729E+03  0.10100000352E+00 0. -1.
</event>
<event>
 5   0  0.2204090E-04  0.1199393E+04  0.7818609E-02  0.9113388E-01
       -1   -1    0    0    0  501  0.00000000000E+00  0.00000000000E+00  0.96154757294E+03  0.96154757296E+03  0.50400001928E-02 0. -1.
        1   -1    0    0  501    0  0.00000000000E+00  0.00000000000E+00 -0.37401770525E+03  0.37401770528E+03  0.50400001928E-02 0.  1.
    10030    2    1    2    0    0  0.00000000000E+00  0.00000000000E+00  0.58752986770E+03  0.13355652782E+04  0.11993928743E+04 0.  0.
        2    1    3    3  502    0 -0.12302427781E+03  0.38289399997E+03  0.78912261655E+03  0.88569593660E+03  0.25500000920E-02 0. -1.
       -2    1    3    3    0  502  0.12302427781E+03 -0.38289399997E+03 -0.20159274886E+03  0.44986934164E+03  0.25500000920E-02 0.  1.
</event>
<event>
 5   0  0.2304842E-04  0.1200859E+04  0.7818609E-02  0.9112105E-01
        1   -1    0    0  501    0  0.00000000000E+00  0.00000000000E+00  0.67431828237E+03  0.67431828239E+03  0.50400001928E-02 0. -1.
       -1   -1    0    0    0  501  0.00000000000E+00  0.00000000000E+00 -0.53463743700E+03  0.53463743702E+03  0.50400001928E-02 0.  1.
    10030    2    1    2    0    0  0.00000000000E+00  0.00000000000E+00  0.13968084537E+03  0.12089557194E+04  0.12008593560E+04 0.  0.
        4    1    3    3  502    0 -0.40745483751E+02  0.12379512556E+03  0.65990534470E+03  0.67265303421E+03  0.12699999809E+01 0. -1.
       -4    1    3    3    0  502  0.40745483751E+02 -0.12379512556E+03 -0.52022449933E+03  0.53630268521E+03  0.12699999809E+01 0.  1.
</event>
<event>
 5   0  0.2315038E-04  0.1199950E+04  0.7818609E-02  0.9112900E-01
       -1   -1    0    0    0  501  0.00000000000E+00  0.00000000000E+00  0.74520950730E+03  0.74520950732E+03  0.50400001928E-02 0.  1.
        1   -1    0    0  501    0  0.00000000000E+00  0.00000000000E+00 -0.48304540136E+03  0.48304540138E+03  0.50400001928E-02 0. -1.
    10030    2    1    2    0    0  0.00000000000E+00  0.00000000000E+00  0.26216410594E+03  0.12282549087E+04  0.11999500416E+04 0.  0.
        1    1    3    3  502    0  0.63607962515E+02 -0.10393411505E+03  0.73241016814E+03  0.74247756032E+03  0.50400001928E-02 0.  1.
       -1    1    3    3    0  502 -0.63607962515E+02  0.10393411505E+03 -0.47024606219E+03  0.48577734838E+03  0.50400001928E-02 0. -1.
</event>
<event>
 5   0  0.2304842E-04  0.1200575E+04  0.7818609E-02  0.9112353E-01
        1   -1    0    0  501    0  0.00000000000E+00  0.00000000000E+00  0.12395650294E+04  0.12395650294E+04  0.50400001928E-02 0.  1.
       -1   -1    0    0    0  501  0.00000000000E+00  0.00000000000E+00 -0.29070287290E+03  0.29070287295E+03  0.50400001928E-02 0. -1.
    10030    2    1    2    0    0  0.00000000000E+00  0.00000000000E+00  0.94886215652E+03  0.15302679024E+04  0.12005750543E+04 0.  0.
        4    1    3    3  502    0  0.16249919142E+03 -0.57600499300E+03  0.41525057176E+03  0.72843832232E+03  0.12699999809E+01 0. -1.
       -4    1    3    3    0  502 -0.16249919142E+03  0.57600499300E+03  0.53361158476E+03  0.80182958006E+03  0.12699999809E+01 0.  1.
</event>
<event>
 5   0  0.3883890E-04  0.1199845E+04  0.7818609E-02  0.9112993E-01
        2   -1    0    0  501    0  0.00000000000E+00  0.00000000000E+00  0.75693060087E+03  0.75693060087E+03  0.25500000920E-02 0.  1.
       -2   -1    0    0    0  501  0.00000000000E+00  0.00000000000E+00 -0.47548190146E+03  0.47548190147E+03  0.25500000920E-02 0. -1.
    10030    2    1    2    0    0  0.00000000000E+00  0.00000000000E+00  0.28144869940E+03  0.12324125023E+04  0.11998446589E+04 0.  0.
        2    1    3    3  502    0  0.10223588038E+03  0.13203897709E+02  0.74776546634E+03  0.75483753935E+03  0.25500000920E-02 0.  1.
       -2    1    3    3    0  502 -0.10223588038E+03 -0.13203897709E+02 -0.46631676693E+03  0.47757496300E+03  0.25500000920E-02 0. -1.
</event>
<event>
 5   0  0.4024486E-04  0.1199158E+04  0.7818609E-02  0.9113594E-01
       -2   -1    0    0    0  501  0.00000000000E+00  0.00000000000E+00  0.51935919185E+03  0.51935919185E+03  0.25500000920E-02 0.  1.
        2   -1    0    0  501    0  0.00000000000E+00  0.00000000000E+00 -0.69218954459E+03  0.69218954459E+03  0.25500000920E-02 0. -1.
    10030    2    1    2    0    0  0.00000000000E+00  0.00000000000E+00 -0.17283035274E+03  0.12115487364E+04  0.11991580421E+04 0.  0.
        1    1    3    3  502    0 -0.56389215964E+03  0.19987578569E+03 -0.46378641777E+02  0.60006305989E+03  0.50400001928E-02 0. -1.
       -1    1    3    3    0  502  0.56389215964E+03 -0.19987578569E+03 -0.12645171096E+03  0.61148567656E+03  0.50400001928E-02 0.  1.
</event>
<event>
 5   0  0.3993723E-04  0.1197476E+04  0.7818609E-02  0.9115068E-01
        2   -1    0    0  501    0  0.00000000000E+00  0.00000000000E+00  0.78162259345E+03  0.78162259345E+03  0.25500000920E-02 0.  1.
       -2   -1    0    0    0  501  0.00000000000E+00  0.00000000000E+00 -0.45864504935E+03  0.45864504936E+03  0.25500000920E-02 0. -1.
    10030    2    1    2    0    0  0.00000000000E+00  0.00000000000E+00  0.32297754410E+03  0.12402676428E+04  0.11974762343E+04 0.  0.
        3    1    3    3  502    0 -0.59742230322E+03  0.18562058393E+02  0.12517354043E+03  0.61067698813E+03  0.10100000352E+00 0. -1.
       -3    1    3    3    0  502  0.59742230322E+03 -0.18562058393E+02  0.19780400366E+03  0.62959065469E+03  0.10100000352E+00 0.  1.
</event>
<event>
 5   0  0.4024486E-04  0.1197110E+04  0.7818609E-02  0.9115390E-01
        2   -1    0    0  501    0  0.00000000000E+00  0.00000000000E+00  0.66207195654E+03  0.66207195655E+03  0.25500000920E-02 0.  1.
       -2   -1    0    0    0  501  0.00000000000E+00  0.00000000000E+00 -0.54113160051E+03  0.54113160052E+03  0.25500000920E-02 0. -1.
    10030    2    1    2    0    0  0.00000000000E+00  0.00000000000E+00  0.12094035603E+03  0.12032035571E+04  0.11971099490E+04 0.  0.
        1    1    3    3  502    0  0.34767545221E+03  0.48635803336E+03  0.31241212979E+02  0.59866382060E+03  0.50400001928E-02 0.  1.
       -1    1    3    3    0  502 -0.34767545221E+03 -0.48635803336E+03  0.89699143052E+02  0.60453973647E+03  0.50400001928E-02 0. -1.
</event>
<event>
 5   0  0.3832662E-04  0.1201181E+04  0.7818609E-02  0.9111823E-01
       -2   -1    0    0    0  501  0.00000000000E+00  0.00000000000E+00  0.36077471403E+03  0.36077471404E+03  0.25500000920E-02 0.  1.
        2   -1    0    0  501    0  0.00000000000E+00  0.00000000000E+00 -0.99981813164E+03  0.99981813164E+03  0.25500000920E-02 0. -1.
    10030    2    1    2    0    0  0.00000000000E+00  0.00000000000E+00 -0.63904341761E+03  0.13605928457E+04  0.12011812528E+04 0.  0.
        4    1    3    3  502    0  0.55163491971E+03 -0.15447273522E+03 -0.52386432698E+03  0.77627208926E+03  0.12699999809E+01 0. -1.
       -4    1    3    3    0  502 -0.55163491971E+03  0.15447273522E+03 -0.11517909063E+03  0.58432075643E+03  0.12699999809E+01 0.  1.
</event>
<event>
 5   0  0.2340731E-04  0.1199425E+04  0.7818609E-02  0.9113360E-01
        1   -1    0    0  501    0  0.00000000000E+00  0.00000000000E+00  0.41899831031E+03  0.41899831034E+03  0.50400001928E-02 0. -1.
       -1   -1    0    0    0  501  0.00000000000E+00  0.00000000000E+00 -0.85836874462E+03  0.85836874463E+03  0.50400001928E-02 0.  1.
    10030    2    1    2    0    0  0.00000000000E+00  0.00000000000E+00 -0.43937043431E+03  0.12773670550E+04  0.11994249516E+04 0.  0.
        3    1    3    3  502    0 -0.19138723044E+03  0.15683284851E+03  0.36210103671E+03  0.43856902004E+03  0.10100000352E+00 0. -1.
       -3    1    3    3    0  502  0.19138723044E+03 -0.15683284851E+03 -0.80147147102E+03  0.83879803494E+03  0.10100000352E+00 0.  1.
</event>
<event>
 5   0  0.2315038E-04  0.1200862E+04  0.7818609E-02  0.9112103E-01
        1   -1    0    0  501    0  0.00000000000E+00  0.00000000000E+00  0.98050484011E+03  0.98050484012E+03  0.50400001928E-02 0. -1.
       -1   -1    0    0    0  501  0.00000000000E+00  0.00000000000E+00 -0.36768522749E+03  0.36768522752E+03  0.50400001928E-02 0.  1.
    10030    2    1    2    0    0  0.00000000000E+00  0.00000000000E+00  0.61281961262E+03  0.13481900676E+04  0.12008615994E+04 0.  0.
        1    1    3    3  502    0  0.58165525655E+03 -0.93006656467E+02  0.43706682792E+03  0.73348516530E+03  0.50400001928E-02 0. -1.
       -1    1    3    3    0  502 -0.58165525655E+03  0.93006656467E+02  0.17575278470E+03  0.61470490235E+03  0.50400001928E-02 0.  1.
</event>
<event>
 5   0  0.2244308E-04  0.1193942E+04  0.7818609E-02  0.9118176E-01
        1   -1    0    0  501    0  0.00000000000E+00  0.00000000000E+00  0.64443153461E+03  0.64443153463E+03  0.50400001928E-02 0. -1.
       -1   -1    0    0    0  501  0.00000000000E+00  0.00000000000E+00 -0.55300548570E+03  0.55300548572E+03  0.50400001928E-02 0.  1.
    10030    2    1    2    0    0  0.00000000000E+00  0.00000000000E+00  0.91426048912E+02  0.11974370204E+04  0.11939416633E+04 0.  0.
        5    1    3    3  502    0 -0.73927091910E+02 -0.31141779385E+03 -0.45965284385E+03  0.56013309499E+03  0.46999998093E+01 0.  1.
       -5    1    3    3    0  502  0.73927091910E+02  0.31141779385E+03  0.55107889276E+03  0.63730392537E+03  0.46999998093E+01 0. -1.
</event>
<event>
 5   0  0.2315038E-04  0.1200300E+04  0.7818609E-02  0.9112594E-01
       -1   -1    0    0    0  501  0.00000000000E+00  0.00000000000E+00  0.52853853829E+03  0.52853853831E+03  0.50400001928E-02 0. -1.
        1   -1    0    0  501    0  0.00000000000E+00  0.00000000000E+00 -0.68146444378E+03  0.68146444380E+03  0.50400001928E-02 0.  1.
    10030    2    1    2    0    0  0.00000000000E+00  0.00000000000E+00 -0.15292590550E+03  0.12100029821E+04  0.12003003308E+04 0.  0.
        1    1    3    3  502    0 -0.55677339997E+03  0.11924186237E+03  0.11471439338E+03  0.58083959295E+03  0.50400001928E-02 0. -1.
       -1    1    3    3    0  502  0.55677339997E+03 -0.11924186237E+03 -0.26764029887E+03  0.62916338917E+03  0.50400001928E-02 0.  1.
</event>
<event>
 5   0  0.2304842E-04  0.1195391E+04  0.7818609E-02  0.9116900E-01
        1   -1    0    0  501    0  0.00000000000E+00  0.00000000000E+00  0.90058619462E+03  0.90058619464E+03  0.50400001928E-02 0.  1.
       -1   -1    0    0    0  501  0.00000000000E+00  0.00000000000E+00 -0.39667509645E+03  0.39667509649E+03  0.50400001928E-02 0. -1.
    10030    2    1    2    0    0  0.00000000000E+00  0.00000000000E+00  0.50391109817E+03  0.12972612911E+04  0.11953913429E+04 0.  0.
        4    1    3    3  502    0  0.35735992179E+03  0.44578471404E+02 -0.26571224121E+03  0.44754660299E+03  0.12699999809E+01 0. -1.
       -4    1    3    3    0  502 -0.35735992179E+03 -0.44578471404E+02  0.76962333938E+03  0.84971468814E+03  0.12699999809E+01 0.  1.
</event>
<event>
 5   0  0.2340731E-04  0.1199645E+04  0.7818609E-02  0.9113167E-01
        1   -1    0    0  501    0  0.00000000000E+00  0.00000000000E+00  0.70713834184E+03  0.70713834186E+03  0.50400001928E-02 0.  1.
       -1   -1    0    0    0  501  0.00000000000E+00  0.00000000000E+00 -0.50879333595E+03  0.50879333598E+03  0.50400001928E-02 0. -1.
    10030    2    1    2    0    0  0.00000000000E+00  0.00000000000E+00  0.19834500589E+03  0.12159316778E+04  0.11996454075E+04 0.  0.
        3    1    3    3  502    0  0.19938750570E+03  0.53282261115E+03  0.29183713515E+03  0.63939364716E+03  0.10100000352E+00 0.  1.
       -3    1    3    3    0  502 -0.19938750570E+03 -0.53282261115E+03 -0.93492129257E+02  0.57653803068E+03  0.10100000352E+00 0. -1.
</event>
<event>
 5   0  0.3832662E-04  0.1200597E+04  0.7818609E-02  0.9112334E-01
        2   -1    0    0  501    0  0.00000000000E+00  0.00000000000E+00  0.69869198214E+03  0.69869198214E+03  0.25500000920E-02 0. -1.
       -2   -1    0    0    0  501  0.00000000000E+00  0.00000000000E+00 -0.51576122948E+03  0.51576122948E+03  0.25500000920E-02 0.  1.
    10030    2    1    2    0    0  0.00000000000E+00  0.00000000000E+00  0.18293075266E+03  0.12144532116E+04  0.12005969111E+04 0.  0.
        4    1    3    3  502    0  0.49873932392E+03 -0.26043559224E+03 -0.12020795206E+03  0.57534265927E+03  0.12699999809E+01 0.  1.
       -4    1    3    3    0  502 -0.49873932392E+03  0.26043559224E+03  0.30313870473E+03  0.63911055236E+03  0.12699999809E+01 0. -1.
</event>
<event>
 5   0  0.2204090E-04  0.1199321E+04  0.7818609E-02  0.9113451E-01
       -1   -1    0    0    0  501  0.00000000000E+00  0.00000000000E+00  0.23182189248E+03  0.23182189253E+03  0.50400001928E-02 0.  1.
        1   -1    0    0  501    0  0.00000000000E+00  0.00000000000E+00 -0.15511603665E+04  0.15511603665E+04  0.50400001928E-02 0. -1.
    10030    2    1    2    0    0  0.00000000000E+00  0.00000000000E+00 -0.13193384740E+04  0.17829822591E+04  0.11993213610E+04 0.  0.
        2    1    3    3  502    0 -0.30660881823E+03 -0.26451254098E+03 -0.13171981264E+04  0.13780372840E+04  0.25500000920E-02 0. -1.
       -2    1    3    3    0  502  0.30660881823E+03  0.26451254098E+03 -0.21403476181E+01  0.40494497509E+03  0.25500000920E-02 0.  1.
</event>
<event>
 5   0  0.2340731E-04  0.1199357E+04  0.7818609E-02  0.9113419E-01
       -1   -1    0    0    0  501  0.00000000000E+00  0.00000000000E+00  0.22366909175E+03  0.22366909181E+03  0.50400001928E-02 0.  1.
        1   -1    0    0  501    0  0.00000000000E+00  0.00000000000E+00 -0.16077974275E+04  0.16077974275E+04  0.50400001928E-02 0. -1.
    10030    2    1    2    0    0  0.00000000000E+00  0.00000000000E+00 -0.13841283357E+04  0.18314665193E+04  0.11993574786E+04 0.  0.
        3    1    3    3  502    0 -0.10940736896E+03 -0.58959280423E+03 -0.68443920801E+03  0.90997070658E+03  0.10100000352E+00 0.  1.
       -3    1    3    3    0  502  0.10940736896E+03  0.58959280423E+03 -0.69968912772E+03  0.92149581270E+03  0.10100000352E+00 0. -1.
</event>
<event>
 5   0  0.4122956E-04  0.1200225E+04  0.7818609E-02  0.9112659E-01
       -2   -1    0    0    0  501  0.00000000000E+00  0.00000000000E+00  0.42815186702E+03  0.42815186703E+03  0.25500000920E-02 0.  1.
        2   -1    0    0  501    0  0.00000000000E+00  0.00000000000E+00 -0.84113884627E+03  0.84113884627E+03  0.25500000920E-02 0. -1.
    10030    2    1    2    0    0  0.00000000000E+00  0.00000000000E+00 -0.41298697924E+03  0.12692907133E+04  0.12002252580E+04 0.  0.
        5    1    3    3  502    0 -0.32828750430E+03 -0.21387404965E+03 -0.68717973415E+03  0.79104542955E+03  0.46999998093E+01 0. -1.
       -5    1    3    3    0  502  0.32828750430E+03  0.21387404965E+03  0.27419275490E+03  0.47824528375E+03  0.46999998093E+01 0.  1.
</event>
<event>
 5   0  0.2204090E-04  0.1199464E+04  0.7818609E-02  0.9113326E-01
        1   -1    0    0  501    0  0.00000000000E+00  0.00000000000E+00  0.32138136151E+03  0.32138136155E+03  0.50400001928E-02 0.  1.
       -1   -1    0    0    0  501  0.00000000000E+00  0.00000000000E+00 -0.11191634294E+04  0.11191634294E+04  0.50400001928E-02 0. -1.
    10030    2    1    2    0    0  0.00000000000E+00  0.00000000000E+00 -0.79778206792E+03  0.14405447910E+04  0.11994636581E+04 0.  0.
        2    1    3    3  502    0 -0.31940423538E+03 -0.43956181938E+03 -0.70377386317E+03  0.88911827622E+03  0.25500000920E-02 0. -1.
       -2    1    3    3    0  502  0.31940423538E+03  0.43956181938E+03 -0.94008204752E+02  0.55142651478E+03  0.25500000920E-02 0.  1.
</event>
<event>
 5   0  0.2340731E-04  0.1201963E+04  0.7818609E-02  0.9111140E-01
       -1   -1    0    0    0  501  0.00000000000E+00  0.00000000000E+00  0.24622962440E+03  0.24622962445E+03  0.50400001928E-02 0. -1.
        1   -1    0    0  501    0  0.00000000000E+00  0.00000000000E+00 -0.14668373942E+04  0.14668373942E+04  0.50400001928E-02 0.  1.
    10030    2    1    2    0    0  0.00000000000E+00  0.00000000000E+00 -0.12206077698E+04  0.17130670186E+04  0.12019630954E+04 0.  0.
        3    1    3    3  502    0 -0.55227220856E+02  0.11201642475E+03  0.22753054318E+03  0.25955323851E+03  0.10100000352E+00 0. -1.
       -3    1    3    3    0  502  0.55227220856E+02 -0.11201642475E+03 -0.14481383130E+04  0.14535137801E+04  0.10100000352E+00 0.  1.
</event>
<event>
 5   0  0.2244308E-04  0.1198964E+04  0.7818609E-02  0.9113764E-01
        1   -1    0    0  501    0  0.00000000000E+00  0.00000000000E+00  0.61493399416E+03  0.61493399418E+03  0.50400001928E-02 0.  1.
       -1   -1    0    0    0  501  0.00000000000E+00  0.00000000000E+00 -0.58441784449E+03  0.58441784451E+03  0.50400001928E-02 0. -1.
    10030    2    1    2    0    0  0.00000000000E+00  0.00000000000E+00  0.30516149673E+02  0.11993518387E+04  0.11989635514E+04 0.  0.
        5    1    3    3  502    0  0.19396576259E+03  0.56619098300E+03  0.49347889251E+02  0.60054329608E+03  0.46999998093E+01 0. -1.
       -5    1    3    3    0  502 -0.19396576259E+03 -0.56619098300E+03 -0.18831739578E+02  0.59880854261E+03  0.46999998093E+01 0.  1.
</event>
<event>
 5   0  0.3883890E-04  0.1200613E+04  0.7818609E-02  0.9112320E-01
        2   -1    0    0  501    0  0.00000000000E+00  0.00000000000E+00  0.54364243466E+03  0.54364243467E+03  0.25500000920E-02 0.  1.
       -2   -1    0    0    0  501  0.00000000000E+00  0.00000000000E+00 -0.66287665727E+03  0.66287665727E+03  0.25500000920E-02 0. -1.
    10030    2    1    2    0    0  0.00000000000E+00  0.00000000000E+00 -0.11923422261E+03  0.12065190919E+04  0.12006129765E+04 0.  0.
        2    1    3    3  502    0  0.21611755896E+03 -0.33107476463E+03 -0.51355881488E+03  0.64812032480E+03  0.25500000920E-02 0. -1.
       -2    1    3    3    0  502 -0.21611755896E+03  0.33107476463E+03  0.39432459227E+03  0.55839876714E+03  0.25500000920E-02 0.  1.
</event>
<event>
 5   0  0.3883890E-04  0.1198814E+04  0.7818609E-02  0.9113895E-01
        2   -1    0    0  501    0  0.00000000000E+00  0.00000000000E+00  0.99758081567E+03  0.99758081567E+03  0.25500000920E-02 0.  1.
       -2   -1    0    0    0  501  0.00000000000E+00  0.00000000000E+00 -0.36016003227E+03  0.36016003228E+03  0.25500000920E-02 0. -1.
    10030    2    1    2    0    0  0.00000000000E+00  0.00000000000E+00  0.63742078340E+03  0.13577408479E+04  0.11988139785E+04 0.  0.
        2    1    3    3  502    0  0.24354761182E+03 -0.41408174377E+03  0.72471679856E+03  0.86947890594E+03  0.25500000920E-02 0.  1.
       -2    1    3    3    0  502 -0.24354761182E+03  0.41408174377E+03 -0.87296015161E+02  0.48826194201E+03  0.25500000920E-02 0. -1.
</event>
<event>
 5   0  0.3993723E-04  0.1200640E+04  0.7818609E-02  0.9112296E-01
        2   -1    0    0  501    0  0.00000000000E+00  0.00000000000E+00  0.42241739197E+03  0.42241739198E+03  0.25500000920E-02 0.  1.
       -2   -1    0    0    0  501  0.00000000000E+00  0.00000000000E+00 -0.85314716959E+03  0.85314716959E+03  0.25500000920E-02 0. -1.
    10030    2    1    2    0    0  0.00000000000E+00  0.00000000000E+00 -0.43072977762E+03  0.12755645616E+04  0.12006401665E+04 0.  0.
        3    1    3    3  502    0 -0.47740613712E+03 -0.34589961492E+03 -0.33566084104E+03  0.67840354788E+03  0.10100000352E+00 0. -1.
       -3    1    3    3    0  502  0.47740613712E+03  0.34589961492E+03 -0.95068936577E+02  0.59716101369E+03  0.10100000352E+00 0.  1.
</event>
<event>
 5   0  0.3832662E-04  0.1207177E+04  0.7818609E-02  0.9106598E-01
        2   -1    0    0  501    0  0.00000000000E+00  0.00000000000E+00  0.53910266566E+03  0.53910266566E+03  0.25500000920E-02 0. -1.
       -2   -1    0    0    0  501  0.00000000000E+00  0.00000000000E+00 -0.67578741293E+03  0.67578741294E+03  0.25500000920E-02 0.  1.
    10030    2    1    2    0    0  0.00000000000E+00  0.00000000000E+00 -0.13668474728E+03  0.12148900786E+04  0.12071765335E+04 0.  0.
        4    1    3    3  502    0 -0.19597811621E+03  0.42858786715E+03 -0.44787568402E+03  0.65014553997E+03  0.12699999809E+01 0.  1.
       -4    1    3    3    0  502  0.19597811621E+03 -0.42858786715E+03  0.31119093674E+03  0.56474453863E+03  0.12699999809E+01 0. -1.
</event>
<event>
 5   0  0.2315038E-04  0.1199931E+04  0.7818609E-02  0.9112917E-01
       -1   -1    0    0    0  501  0.00000000000E+00  0.00000000000E+00  0.22420315686E+03  0.22420315692E+03  0.50400001928E-02 0.  1.
        1   -1    0    0  501    0  0.00000000000E+00  0.00000000000E+00 -0.16055023197E+04  0.16055023197E+04  0.50400001928E-02 0. -1.
    10030    2    1    2    0    0  0.00000000000E+00  0.00000000000E+00 -0.13812991628E+04  0.18297054766E+04  0.11999311455E+04 0.  0.
        1    1    3    3  502    0  0.48562695161E+03  0.32921328897E+03 -0.49932131813E+03  0.77041333356E+03  0.50400001928E-02 0.  1.
       -1    1    3    3    0  502 -0.48562695161E+03 -0.32921328897E+03 -0.88197784467E+03  0.10592921430E+04  0.50400001928E-02 0. -1.
</event>
<event>
 5   0  0.3832662E-04  0.1197384E+04  0.7818609E-02  0.9115149E-01
        2   -1    0    0  501    0  0.00000000000E+00  0.00000000000E+00  0.32878174396E+03  0.32878174397E+03  0.25500000920E-02 0. -1.
       -2   -1    0    0    0  501  0.00000000000E+00  0.00000000000E+00 -0.10901833111E+04  0.10901833111E+04  0.25500000920E-02 0.  1.
    10030    2    1    2    0    0  0.00000000000E+00  0.00000000000E+00 -0.76140156711E+03  0.14189650550E+04  0.11973844333E+04 0.  0.
        4    1    3    3  502    0  0.40945759297E+03  0.16786228640E+03  0.97152979768E+02  0.45307127697E+03  0.12699999809E+01 0. -1.
       -4    1    3    3    0  502 -0.40945759297E+03 -0.16786228640E+03 -0.85855454687E+03  0.96589377806E+03  0.12699999809E+01 0.  1.
</event>
<event>
 5   0  0.2304842E-04  0.1199872E+04  0.7818609E-02  0.9112968E-01
        1   -1    0    0  501    0  0.00000000000E+00  0.00000000000E+00  0.51489105657E+03  0.51489105659E+03  0.50400001928E-02 0. -1.
       -1   -1    0    0    0  501  0.00000000000E+00  0.00000000000E+00 -0.69902826975E+03  0.69902826977E+03  0.50400001928E-02 0.  1.
    10030    2    1    2    0    0  0.00000000000E+00  0.00000000000E+00 -0.18413721319E+03  0.12139193264E+04  0.11998723339E+04 0.  0.
        4    1    3    3  502    0  0.53749949872E+03  0.22781423398E+02  0.17655264754E+03  0.56621299405E+03  0.12699999809E+01 0. -1.
       -4    1    3    3    0  502 -0.53749949872E+03 -0.22781423398E+02 -0.36068986073E+03  0.64770633231E+03  0.12699999809E+01 0.  1.
</event>
<event>
 5   0  0.4024486E-04  0.1196890E+04  0.7818609E-02  0.9115583E-01
        2   -1    0    0  501    0  0.00000000000E+00  0.00000000000E+00  0.14454515777E+03  0.14454515780E+03  0.25500000920E-02 0. -1.
       -2   -1    0    0    0  501  0.00000000000E+00  0.00000000000E+00 -0.24776804308E+04  0.24776804308E+04  0.25500000920E-02 0.  1.
    10030    2    1    2    0    0  0.00000000000E+00  0.00000000000E+00 -0.23331352730E+04  0.26222255886E+04  0.11968904859E+04 0.  0.
        1    1    3    3  502    0 -0.51507088475E+03  0.20895562293E+03 -0.68072760461E+03  0.87883476284E+03  0.50400001928E-02 0. -1.
       -1    1    3    3    0  502  0.51507088475E+03 -0.20895562293E+03 -0.16524076684E+04  0.17433908258E+04  0.50400001928E-02 0.  1.
</event>
<event>
 5   0  0.2340731E-04  0.1199506E+04  0.7818609E-02  0.9113289E-01
       -1   -1    0    0    0  501  0.00000000000E+00  0.00000000000E+00  0.42376168406E+03  0.42376168409E+03  0.50400001928E-02 0.  1.
        1   -1    0    0  501    0  0.00000000000E+00  0.00000000000E+00 -0.84883420824E+03  0.84883420825E+03  0.50400001928E-02 0. -1.
    10030    2    1    2    0    0  0.00000000000E+00  0.00000000000E+00 -0.42507252418E+03  0.12725958923E+04  0.11995055875E+04 0.  0.
        3    1    3    3  502    0 -0.47809932124E+02  0.23656007865E+02 -0.84631251817E+03  0.84799191325E+03  0.10100000352E+00 0. -1.
       -3    1    3    3    0  502  0.47809932124E+02 -0.23656007865E+02  0.42123999399E+03  0.42460397909E+03  0.10100000352E+00 0.  1.
</event>
<event>
 5   0  0.3993723E-04  0.1199624E+04  0.7818609E-02  0.9113186E-01
       -2   -1    0    0    0  501  0.00000000000E+00  0.00000000000E+00  0.37149556864E+03  0.37149556865E+03  0.25500000920E-02 0. -1.
        2   -1    0    0  501    0  0.00000000000E+00  0.00000000000E+00 -0.96844814547E+03  0.96844814547E+03  0.25500000920E-02 0.  1.
    10030    2    1    2    0    0  0.00000000000E+00  0.00000000000E+00 -0.59695257683E+03  0.13399437141E+04  0.11996235985E+04 0.  0.
        3    1    3    3  502    0  0.34730025938E+03 -0.26278799138E+03 -0.75914919672E+03  0.87520426853E+03  0.10100000352E+00 0.  1.
       -3    1    3    3    0  502 -0.34730025938E+03  0.26278799138E+03  0.16219661988E+03  0.46473944559E+03  0.10100000352E+00 0. -1.
</event>
<event>
 5   0  0.2244308E-04  0.1195704E+04  0.7818609E-02  0.9116625E-01
        1   -1    0    0  501    0  0.00000000000E+00  0.00000000000E+00  0.50839686735E+03  0.50839686738E+03  0.50400001928E-02 0.  1.
       -1   -1    0    0    0  501  0.00000000000E+00  0.00000000000E+00 -0.70304758784E+03  0.70304758786E+03  0.50400001928E-02 0. -1.
    10030    2    1    2    0    0  0.00000000000E+00  0.00000000000E+00 -0.19465072049E+03  0.12114444552E+04  0.11957042967E+04 0.  0.
        5    1    3    3  502    0 -0.19397142980E+03 -0.56412112841E+03 -0.57468745895E+02  0.59931820417E+03  0.46999998093E+01 0.  1.
       -5    1    3    3    0  502  0.19397142980E+03  0.56412112841E+03 -0.13718197459E+03  0.61212625107E+03  0.46999998093E+01 0. -1.
</event>
<event>
 5   0  0.4024486E-04  0.1209555E+04  0.7818609E-02  0.9104534E-01
        2   -1    0    0  501    0  0.00000000000E+00  0.00000000000E+00  0.15160662534E+04  0.15160662534E+04  0.25500000920E-02 0.  1.
       -2   -1    0    0    0  501  0.00000000000E+00  0.00000000000E+00 -0.24125309206E+03  0.24125309207E+03  0.25500000920E-02 0. -1.
    10030    2    1    2    0    0  0.00000000000E+00  0.00000000000E+00  0.12748131613E+04  0.17573193455E+04  0.12095547469E+04 0.  0.
        1    1    3    3  502    0  0.26615747413E+03 -0.23440935277E+03 -0.74301570006E+02  0.36236482863E+03  0.50400001928E-02 0. -1.
       -1    1    3    3    0  502 -0.26615747413E+03  0.23440935277E+03  0.13491147313E+04  0.13949545168E+04  0.50400001928E-02 0.  1.
</event>
<event>
 5   0  0.3993723E-04  0.1205653E+04  0.7818609E-02  0.9107923E-01
        2   -1    0    0  501    0  0.00000000000E+00  0.00000000000E+00  0.11137891802E+04  0.11137891802E+04  0.25500000920E-02 0. -1.
       -2   -1    0    0    0  501  0.00000000000E+00  0.00000000000E+00 -0.32627323429E+03  0.32627323430E+03  0.25500000920E-02 0.  1.
    10030    2    1    2    0    0  0.00000000000E+00  0.00000000000E+00  0.78751594588E+03  0.14400624145E+04  0.12056526832E+04 0.  0.
        3    1    3    3  502    0  0.31890753673E+03  0.16735161756E+02 -0.21693993383E+03  0.38606350218E+03  0.10100000352E+00 0.  1.
       -3    1    3    3    0  502 -0.31890753673E+03 -0.16735161756E+02  0.10044558797E+04  0.10539989123E+04  0.10100000352E+00 0. -1.
</event>
<event>
 5   0  0.2244308E-04  0.1203235E+04  0.7818609E-02  0.9110030E-01
       -1   -1    0    0    0  501  0.00000000000E+00  0.00000000000E+00  0.25608086949E+03  0.25608086954E+03  0.50400001928E-02 0.  1.
        1   -1    0    0  501    0  0.00000000000E+00  0.00000000000E+00 -0.14133950031E+04  0.14133950031E+04  0.50400001928E-02 0. -1.
    10030    2    1    2    0    0  0.00000000000E+00  0.00000000000E+00 -0.11573141336E+04  0.16694758727E+04  0.12032346760E+04 0.  0.
        5    1    3    3  502    0  0.95094166030E+02 -0.33776152035E+03  0.99363636733E+02  0.36472039612E+03  0.46999998093E+01 0.  1.
       -5    1    3    3    0  502 -0.95094166030E+02  0.33776152035E+03 -0.12566777704E+04  0.13047554765E+04  0.46999998093E+01 0. -1.
</event>
<event>
 5   0  0.2304842E-04  0.1203050E+04  0.7818609E-02  0.9110191E-01
        1   -1    0    0  501    0  0.00000000000E+00  0.00000000000E+00  0.15862577470E+04  0.15862577470E+04  0.50400001928E-02 0.  1.
       -1   -1    0    0    0  501  0.00000000000E+00  0.00000000000E+00 -0.22810442214E+03  0.22810442219E+03  0.50400001928E-02 0. -1.
    10030    2    1    2    0    0  0.00000000000E+00  0.00000000000E+00  0.13581533249E+04  0.18143621692E+04  0.12030501350E+04 0.  0.
        4    1    3    3  502    0 -0.16440466571E+03  0.56974034367E+03  0.52677860454E+03  0.79317732217E+03  0.12699999809E+01 0.  1.
       -4    1    3    3    0  502  0.16440466571E+03 -0.56974034367E+03  0.83137472036E+03  0.10211848471E+04  0.12699999809E+01 0. -1.
</event>
<event>
 5   0  0.2204090E-04  0.1199450E+04  0.7818609E-02  0.9113338E-01
        1   -1    0    0  501    0  0.00000000000E+00  0.00000000000E+00  0.11796150121E+04  0.11796150121E+04  0.50400001928E-02 0.  1.
       -1   -1    0    0    0  501  0.00000000000E+00  0.00000000000E+00 -0.30490469841E+03  0.30490469845E+03  0.50400001928E-02 0. -1.
    10030    2    1    2    0    0  0.00000000000E+00  0.00000000000E+00  0.87471031370E+03  0.14845197106E+04  0.11994501399E+04 0.  0.
        2    1    3    3  502    0 -0.36634663331E+03  0.44221376478E+02  0.10224781579E+04  0.10870266645E+04  0.25500000920E-02 0.  1.
       -2    1    3    3    0  502  0.36634663331E+03 -0.44221376478E+02 -0.14776784423E+03  0.39749304607E+03  0.25500000920E-02 0. -1.
</event>
<event>
 5   0  0.3832662E-04  0.1196617E+04  0.7818609E-02  0.9115823E-01
       -2   -1    0    0    0  501  0.00000000000E+00  0.00000000000E+00  0.55228728144E+03  0.55228728145E+03  0.25500000920E-02 0. -1.
        2   -1    0    0  501    0  0.00000000000E+00  0.00000000000E+00 -0.64816459277E+03  0.64816459277E+03  0.25500000920E-02 0.  1.
    10030    2    1    2    0    0  0.00000000000E+00  0.00000000000E+00 -0.95877311325E+02  0.12004518742E+04  0.11966169995E+04 0.  0.
        4    1    3    3  502    0  0.11526753613E+03  0.31867909477E+02 -0.63605052152E+03  0.64719706996E+03  0.12699999809E+01 0.  1.
       -4    1    3    3    0  502 -0.11526753613E+03 -0.31867909477E+02  0.54017321019E+03  0.55325480427E+03  0.12699999809E+01 0. -1.
</event>
<event>
 5   0  0.4024486E-04  0.1173376E+04  0.7818609E-02  0.9136485E-01
       -2   -1    0    0    0  501  0.00000000000E+00  0.00000000000E+00  0.20693090289E+03  0.20693090290E+03  0.25500000920E-02 0.  1.
        2   -1    0    0  501    0  0.00000000000E+00  0.00000000000E+00 -0.16633708244E+04  0.16633708244E+04  0.25500000920E-02 0. -1.
    10030    2    1    2    0    0  0.00000000000E+00  0.00000000000E+00 -0.14564399215E+04  0.18703017273E+04  0.11733760293E+04 0.  0.
        1    1    3    3  502    0 -0.17204403918E+03 -0.54298796186E+03 -0.50411417686E+03  0.76063538011E+03  0.50400001928E-02 0.  1.
       -1    1    3    3    0  502  0.17204403918E+03  0.54298796186E+03 -0.95232574468E+03  0.11096663472E+04  0.50400001928E-02 0. -1.
</event>
<event>
 5   0  0.2315038E-04  0.1196677E+04  0.7818609E-02  0.9115770E-01
        1   -1    0    0  501    0  0.00000000000E+00  0.00000000000E+00  0.61097372508E+03  0.61097372510E+03  0.50400001928E-02 0.  1.
       -1   -1    0    0    0  501  0.00000000000E+00  0.00000000000E+00 -0.58596477353E+03  0.58596477355E+03  0.50400001928E-02 0. -1.
    10030    2    1    2    0    0  0.00000000000E+00  0.00000000000E+00  0.25008951552E+02  0.11969384986E+04  0.11966772004E+04 0.  0.
        1    1    3    3  502    0 -0.48110342139E+03 -0.34275585892E+02  0.36666336678E+03  0.60586908027E+03  0.50400001928E-02 0.  1.
       -1    1    3    3    0  502  0.48110342139E+03  0.34275585892E+02 -0.34165441523E+03  0.59106941837E+03  0.50400001928E-02 0. -1.
</event>
<event>
 5   0  0.4122956E-04  0.1196670E+04  0.7818609E-02  0.9115776E-01
       -2   -1    0    0    0  501  0.00000000000E+00  0.00000000000E+00  0.63810849632E+03  0.63810849632E+03  0.25500000920E-02 0. -1.
        2   -1    0    0  501    0  0.00000000000E+00  0.00000000000E+00 -0.56104054641E+03  0.56104054642E+03  0.25500000920E-02 0.  1.
    10030    2    1    2    0    0  0.00000000000E+00  0.00000000000E+00  0.77067949902E+02  0.11991490427E+04  0.11966699452E+04 0.  0.
        5    1    3    3  502    0  0.26324514238E+03 -0.42593669368E+03 -0.28965417495E+03  0.57848224093E+03  0.46999998093E+01 0.  1.
       -5    1    3    3    0  502 -0.26324514238E+03  0.42593669368E+03  0.36672212485E+03  0.62066680181E+03  0.46999998093E+01 0. -1.
</event>
<event>
 5   0  0.2304842E-04  0.1200284E+04  0.7818609E-02  0.9112608E-01
        1   -1    0    0  501    0  0.00000000000E+00  0.00000000000E+00  0.65520374111E+03  0.65520374113E+03  0.50400001928E-02 0. -1.
       -1   -1    0    0    0  501  0.00000000000E+00  0.00000000000E+00 -0.54970751188E+03  0.54970751191E+03  0.50400001928E-02 0.  1.
    10030    2    1    2    0    0  0.00000000000E+00  0.00000000000E+00  0.10549622922E+03  0.12049112530E+04  0.12002839969E+04 0.  0.
        4    1    3    3  502    0  0.29870367599E+03  0.27328966810E+03  0.49746576989E+03  0.64139296367E+03  0.12699999809E+01 0. -1.
       -4    1    3    3    0  502 -0.29870367599E+03 -0.27328966810E+03 -0.39196954066E+03  0.56351828936E+03  0.12699999809E+01 0.  1.
</event>
<event>
 5   0  0.2340731E-04  0.1196203E+04  0.7818609E-02  0.9116186E-01
       -1   -1    0    0    0  501  0.00000000000E+00  0.00000000000E+00  0.81801100455E+03  0.81801100457E+03  0.50400001928E-02 0. -1.
        1   -1    0    0  501    0  0.00000000000E+00  0.00000000000E+00 -0.43731139649E+03  0.43731139652E+03  0.50400001928E-02 0.  1.
    10030    2    1    2    0    0  0.00000000000E+00  0.00000000000E+00  0.38069960806E+03  0.12553224011E+04  0.11962032181E+04 0.  0.
        3    1    3    3  502    0  0.25609072759E+03  0.17207397180E+03  0.72805318752E+03  0.79072964190E+03  0.10100000352E+00 0. -1.
       -3    1    3    3    0  502 -0.25609072759E+03 -0.17207397180E+03 -0.34735357945E+03  0.46459275918E+03  0.10100000352E+00 0.  1.
</event>
<event>
 5   0  0.1541375E-04  0.1201048E+04  0.7818609E-02  0.9111940E-01
        3   -1    0    0  501    0  0.00000000000E+00  0.00000000000E+00  0.30548140474E+03  0.30548142144E+03  0.10100000352E+00 0.  1.
       -3   -1    0    0    0  501  0.00000000000E+00  0.00000000000E+00 -0.11805272502E+04  0.11805272545E+04  0.10100000352E+00 0. -1.
    10030    2    1    2    0    0  0.00000000000E+00  0.00000000000E+00 -0.87504584541E+03  0.14860086759E+04  0.12010481062E+04 0.  0.
        4    1    3    3  502    0 -0.32311109246E+03 -0.42325389777E+03 -0.78103334925E+03  0.94528268025E+03  0.12699999809E+01 0. -1.
       -4    1    3    3    0  502  0.32311109246E+03  0.42325389777E+03 -0.94012496167E+02  0.54072599566E+03  0.12699999809E+01 0.  1.
</event>
<event>
 5   0  0.2204090E-04  0.1203447E+04  0.7818609E-02  0.9109845E-01
       -1   -1    0    0    0  501  0.00000000000E+00  0.00000000000E+00  0.51313713842E+03  0.51313713844E+03  0.50400001928E-02 0.  1.
        1   -1    0    0  501    0  0.00000000000E+00  0.00000000000E+00 -0.70560279858E+03  0.70560279860E+03  0.50400001928E-02 0. -1.
    10030    2    1    2    0    0  0.00000000000E+00  0.00000000000E+00 -0.19246566016E+03  0.12187399370E+04  0.12034467183E+04 0.  0.
        2    1    3    3  502    0 -0.17034690226E+03  0.50695668908E+03 -0.37550498992E+03  0.65347314343E+03  0.25500000920E-02 0. -1.
       -2    1    3    3    0  502  0.17034690226E+03 -0.50695668908E+03  0.18303932976E+03  0.56526679362E+03  0.25500000920E-02 0.  1.
</event>
<event>
 5   0  0.1541375E-04  0.1194514E+04  0.7818609E-02  0.9117672E-01
        3   -1    0    0  501    0  0.00000000000E+00  0.00000000000E+00  0.25497647327E+03  0.25497649327E+03  0.10100000352E+00 0. -1.
       -3   -1    0    0    0  501  0.00000000000E+00  0.00000000000E+00 -0.13990160403E+04  0.13990160440E+04  0.10100000352E+00 0.  1.
    10030    2    1    2    0    0  0.00000000000E+00  0.00000000000E+00 -0.11440395671E+04  0.16539925372E+04  0.11945144546E+04 0.  0.
        3    1    3    3  502    0 -0.28885867575E+02 -0.35735291015E+03  0.89406700542E+02  0.36949839518E+03  0.10100000352E+00 0. -1.
       -3    1    3    3    0  502  0.28885867575E+02  0.35735291015E+03 -0.12334462676E+04  0.12844941421E+04  0.10100000352E+00 0.  1.
</event>
<event>
 5   0  0.3832662E-04  0.1200771E+04  0.7818609E-02  0.9112182E-01
        2   -1    0    0  501    0  0.00000000000E+00  0.00000000000E+00  0.12322062095E+04  0.12322062095E+04  0.25500000920E-02 0. -1.
       -2   -1    0    0    0  501  0.00000000000E+00  0.00000000000E+00 -0.29253462840E+03  0.29253462841E+03  0.25500000920E-02 0.  1.
    10030    2    1    2    0    0  0.00000000000E+00  0.00000000000E+00  0.93967158110E+03  0.15247408379E+04  0.12007713947E+04 0.  0.
        4    1    3    3  502    0 -0.40492472240E+02 -0.59901031564E+03  0.46616122352E+03  0.76010584643E+03  0.12699999809E+01 0.  1.
       -4    1    3    3    0  502  0.40492472240E+02  0.59901031564E+03  0.47351035758E+03  0.76463499148E+03  0.12699999809E+01 0. -1.
</event>
<event>
 5   0  0.2315038E-04  0.1198666E+04  0.7818609E-02  0.9114025E-01
        1   -1    0    0  501    0  0.00000000000E+00  0.00000000000E+00  0.92263389198E+03  0.92263389199E+03  0.50400001928E-02 0. -1.
       -1   -1    0    0    0  501  0.00000000000E+00  0.00000000000E+00 -0.38932043781E+03  0.38932043784E+03  0.50400001928E-02 0.  1.
    10030    2    1    2    0    0  0.00000000000E+00  0.00000000000E+00  0.53331345417E+03  0.13119543298E+04  0.11986663102E+04 0.  0.
        1    1    3    3  502    0 -0.58424627773E+03 -0.81426127829E+02  0.15068855647E+03  0.60883574830E+03  0.50400001928E-02 0.  1.
       -1    1    3    3    0  502  0.58424627773E+03  0.81426127829E+02  0.38262489770E+03  0.70311858153E+03  0.50400001928E-02 0. -1.
</event>
<event>
 5   0  0.2340731E-04  0.1200201E+04  0.7818609E-02  0.9112680E-01
       -1   -1    0    0    0  501  0.00000000000E+00  0.00000000000E+00  0.19234419253E+03  0.19234419259E+03  0.50400001928E-02 0. -1.
        1   -1    0    0  501    0  0.00000000000E+00  0.00000000000E+00 -0.18722731799E+04  0.18722731799E+04  0.50400001928E-02 0.  1.
    10030    2    1    2    0    0  0.00000000000E+00  0.00000000000E+00 -0.16799289874E+04  0.20646173725E+04  0.12002014382E+04 0.  0.
        3    1    3    3  502    0  0.94616096950E+02 -0.35368532327E+02 -0.18575441244E+04  0.18602885053E+04  0.10100000352E+00 0.  1.
       -3    1    3    3    0  502 -0.94616096950E+02  0.35368532327E+02  0.17761513698E+03  0.20432886719E+03  0.10100000352E+00 0. -1.
</event>
<event>
 5   0  0.3883890E-04  0.1198408E+04  0.7818609E-02  0.9114251E-01
       -2   -1    0    0    0  501  0.00000000000E+00  0.00000000000E+00  0.67686015265E+03  0.67686015266E+03  0.25500000920E-02 0.  1.
        2   -1    0    0  501    0  0.00000000000E+00  0.00000000000E+00 -0.53045720738E+03  0.53045720739E+03  0.25500000920E-02 0. -1.
    10030    2    1    2    0    0  0.00000000000E+00  0.00000000000E+00  0.14640294527E+03  0.12073173600E+04  0.11984078544E+04 0.  0.
        2    1    3    3  502    0 -0.33073685150E+02 -0.53902794846E+03  0.33474734450E+03  0.63537452147E+03  0.25500000920E-02 0.  1.
       -2    1    3    3    0  502  0.33073685150E+02  0.53902794846E+03 -0.18834439923E+03  0.57194283858E+03  0.25500000920E-02 0. -1.
</event>
<event>
 5   0  0.3832662E-04  0.1200771E+04  0.7818609E-02  0.9112182E-01
       -2   -1    0    0    0  501  0.00000000000E+00  0.00000000000E+00  0.13762747673E+04  0.13762747673E+04  0.25500000920E-02 0. -1.
        2   -1    0    0  501    0  0.00000000000E+00  0.00000000000E+00 -0.26191191735E+03  0.26191191737E+03  0.25500000920E-02 0.  1.
    10030    2    1    2    0    0  0.00000000000E+00  0.00000000000E+00  0.11143628499E+04  0.16381866846E+04  0.12007710242E+04 0.  0.
        4    1    3    3  502    0 -0.28077545871E+03  0.21972382086E+03  0.12162111244E+04  0.12673928072E+04  0.12699999809E+01 0. -1.
       -4    1    3    3    0  502  0.28077545871E+03 -0.21972382086E+03 -0.10184827446E+03  0.37079387749E+03  0.12699999809E+01 0.  1.
</event>
<event>
 5   0  0.2244308E-04  0.1192521E+04  0.7818609E-02  0.9119428E-01
       -1   -1    0    0    0  501  0.00000000000E+00  0.00000000000E+00  0.44518533068E+03  0.44518533071E+03  0.50400001928E-02 0.  1.
        1   -1    0    0  501    0  0.00000000000E+00  0.00000000000E+00 -0.79860375077E+03  0.79860375079E+03  0.50400001928E-02 0. -1.
    10030    2    1    2    0    0  0.00000000000E+00  0.00000000000E+00 -0.35341842009E+03  0.12437890815E+04  0.11925211527E+04 0.  0.
        5    1    3    3  502    0 -0.69097637047E+02 -0.38006665313E+03  0.29699650181E+03  0.48729268038E+03  0.46999998093E+01 0.  1.
       -5    1    3    3    0  502  0.69097637047E+02  0.38006665313E+03 -0.65041492190E+03  0.75649640111E+03  0.46999998093E+01 0. -1.
</event>
<event>
 5   0  0.3832662E-04  0.1201184E+04  0.7818609E-02  0.9111821E-01
        2   -1    0    0  501    0  0.00000000000E+00  0.00000000000E+00  0.18356380283E+04  0.18356380283E+04  0.25500000920E-02 0.  1.
       -2   -1    0    0    0  501  0.00000000000E+00  0.00000000000E+00 -0.19650429584E+03  0.19650429586E+03  0.25500000920E-02 0. -1.
    10030    2    1    2    0    0  0.00000000000E+00  0.00000000000E+00  0.16391337325E+04  0.20321423242E+04  0.12011840129E+04 0.  0.
        4    1    3    3  502    0 -0.39776069216E+03  0.42359441455E+03  0.10764915103E+04  0.12233075578E+04  0.12699999809E+01 0. -1.
       -4    1    3    3    0  502  0.39776069216E+03 -0.42359441455E+03  0.56264222219E+03  0.80883476641E+03  0.12699999809E+01 0.  1.
</event>
<event>
 5   0  0.2204090E-04  0.1199989E+04  0.7818609E-02  0.9112866E-01
        1   -1    0    0  501    0  0.00000000000E+00  0.00000000000E+00  0.19189469471E+04  0.19189469471E+04  0.50400001928E-02 0.  1.
       -1   -1    0    0    0  501  0.00000000000E+00  0.00000000000E+00 -0.18759958763E+03  0.18759958770E+03  0.50400001928E-02 0. -1.
    10030    2    1    2    0    0  0.00000000000E+00  0.00000000000E+00  0.17313473595E+04  0.21065465348E+04  0.11999894267E+04 0.  0.
        2    1    3    3  502    0  0.45546509974E+03  0.47860683118E+01  0.18009026924E+03  0.48979982504E+03  0.25500000920E-02 0. -1.
       -2    1    3    3    0  502 -0.45546509974E+03 -0.47860683118E+01  0.15512570902E+04  0.16167467097E+04  0.25500000920E-02 0.  1.
</event>
<event>
 5   0  0.4122956E-04  0.1194990E+04  0.7818609E-02  0.9117253E-01
       -2   -1    0    0    0  501  0.00000000000E+00  0.00000000000E+00  0.23252221419E+03  0.23252221421E+03  0.25500000920E-02 0.  1.
        2   -1    0    0  501    0  0.00000000000E+00  0.00000000000E+00 -0.15353377793E+04  0.15353377793E+04  0.25500000920E-02 0. -1.
    10030    2    1    2    0    0  0.00000000000E+00  0.00000000000E+00 -0.13028155651E+04  0.17678599935E+04  0.11949897740E+04 0.  0.
        5    1    3    3  502    0  0.18660934253E+02  0.54190491389E+03 -0.10226408694E+04  0.11575083602E+04  0.46999998093E+01 0. -1.
       -5    1    3    3    0  502 -0.18660934253E+02 -0.54190491389E+03 -0.28017469570E+03  0.61035163330E+03  0.46999998093E+01 0.  1.
</event>
<event>
 5   0  0.2204090E-04  0.1207375E+04  0.7818609E-02  0.9106426E-01
        1   -1    0    0  501    0  0.00000000000E+00  0.00000000000E+00  0.63734342644E+03  0.63734342646E+03  0.50400001928E-02 0.  1.
       -1   -1    0    0    0  501  0.00000000000E+00  0.00000000000E+00 -0.57180838750E+03  0.57180838752E+03  0.50400001928E-02 0. -1.
    10030    2    1    2    0    0  0.00000000000E+00  0.00000000000E+00  0.65535038942E+02  0.12091518140E+04  0.12073745351E+04 0.  0.
        2    1    3    3  502    0 -0.30299252962E+02 -0.23166137219E+03 -0.52469653538E+03  0.57436181136E+03  0.25500000920E-02 0. -1.
       -2    1    3    3    0  502  0.30299252962E+02  0.23166137219E+03  0.59023157433E+03  0.63479000262E+03  0.25500000920E-02 0.  1.
</event>
<event>
 5   0  0.4024486E-04  0.1201257E+04  0.7818609E-02  0.9111757E-01
        2   -1    0    0  501    0  0.00000000000E+00  0.00000000000E+00  0.51708566046E+03  0.51708566047E+03  0.25500000920E-02 0.  1.
       -2   -1    0    0    0  501  0.00000000000E+00  0.00000000000E+00 -0.69766887049E+03  0.69766887050E+03  0.25500000920E-02 0. -1.
    10030    2    1    2    0    0  0.00000000000E+00  0.00000000000E+00 -0.18058321003E+03  0.12147545310E+04  0.12012569562E+04 0.  0.
        1    1    3    3  502    0  0.23222618131E+03 -0.25988682983E+03 -0.58495504079E+03  0.68091303657E+03  0.50400001928E-02 0. -1.
       -1    1    3    3    0  502 -0.23222618131E+03  0.25988682983E+03  0.40437183076E+03  0.53384149440E+03  0.50400001928E-02 0.  1.
</event>
<event>
 5   0  0.1541375E-04  0.1200334E+04  0.7818609E-02  0.9112564E-01
        4   -1    0    0  501    0  0.00000000000E+00  0.00000000000E+00  0.87572439848E+03  0.87572531938E+03  0.12699999809E+01 0.  1.
       -4   -1    0    0    0  501  0.00000000000E+00  0.00000000000E+00 -0.41131478835E+03  0.41131674900E+03  0.12699999809E+01 0. -1.
    10030    2    1    2    0    0  0.00000000000E+00  0.00000000000E+00  0.46440961014E+03  0.12870420684E+04  0.12003337035E+04 0.  0.
        2    1    3    3  502    0  0.26723693157E+03 -0.44100898461E+03  0.56146315432E+03  0.76232891574E+03  0.25500000920E-02 0.  1.
       -2    1    3    3    0  502 -0.26723693157E+03  0.44100898461E+03 -0.97053544189E+02  0.52471315264E+03  0.25500000920E-02 0. -1.
</event>
<event>
 5   0  0.3883890E-04  0.1202325E+04  0.7818609E-02  0.9110823E-01
       -2   -1    0    0    0  501  0.00000000000E+00  0.00000000000E+00  0.17814960137E+03  0.17814960139E+03  0.25500000920E-02 0. -1.
        2   -1    0    0  501    0  0.00000000000E+00  0.00000000000E+00 -0.20286132632E+04  0.20286132632E+04  0.25500000920E-02 0.  1.
    10030    2    1    2    0    0  0.00000000000E+00  0.00000000000E+00 -0.18504636619E+04  0.22067628646E+04  0.12023254871E+04 0.  0.
        2    1    3    3  502    0 -0.11780527447E+03 -0.58742793491E+03 -0.10160241420E+04  0.11795146115E+04  0.25500000920E-02 0.  1.
       -2    1    3    3    0  502  0.11780527447E+03  0.58742793491E+03 -0.83443951981E+03  0.10272482532E+04  0.25500000920E-02 0. -1.
</event>
<event>
 5   0  0.2244308E-04  0.1220132E+04  0.7818609E-02  0.9095416E-01
       -1   -1    0    0    0  501  0.00000000000E+00  0.00000000000E+00  0.25688054674E+03  0.25688054679E+03  0.50400001928E-02 0.  1.
        1   -1    0    0  501    0  0.00000000000E+00  0.00000000000E+00 -0.14488460581E+04  0.14488460581E+04  0.50400001928E-02 0. -1.
    10030    2    1    2    0    0  0.00000000000E+00  0.00000000000E+00 -0.11919655114E+04  0.17057266049E+04  0.12201317431E+04 0.  0.
        5    1    3    3  502    0  0.35740154506E+03 -0.43027102071E+03 -0.25558184016E+03  0.61499039236E+03  0.46999998093E+01 0.  1.
       -5    1    3    3    0  502 -0.35740154506E+03  0.43027102071E+03 -0.93638367122E+03  0.10907362126E+04  0.46999998093E+01 0. -1.
</event>
<event>
 5   0  0.3832662E-04  0.1202818E+04  0.7818609E-02  0.9110393E-01
       -2   -1    0    0    0  501  0.00000000000E+00  0.00000000000E+00  0.15553077707E+04  0.15553077707E+04  0.25500000920E-02 0. -1.
        2   -1    0    0  501    0  0.00000000000E+00  0.00000000000E+00 -0.23255389443E+03  0.23255389445E+03  0.25500000920E-02 0.  1.
    10030    2    1    2    0    0  0.00000000000E+00  0.00000000000E+00  0.13227538763E+04  0.17878616651E+04  0.12028181560E+04 0.  0.
        4    1    3    3  502    0  0.34637295089E+03  0.25159841305E+03  0.12892183599E+04  0.13584408618E+04  0.12699999809E+01 0. -1.
       -4    1    3    3    0  502 -0.34637295089E+03 -0.25159841305E+03  0.33535516305E+02  0.42942080330E+03  0.12699999809E+01 0.  1.
</event>
<event>
 5   0  0.4122956E-04  0.1201789E+04  0.7818609E-02  0.9111292E-01
        2   -1    0    0  501    0  0.00000000000E+00  0.00000000000E+00  0.19189154783E+04  0.19189154783E+04  0.25500000920E-02 0. -1.
       -2   -1    0    0    0  501  0.00000000000E+00  0.00000000000E+00 -0.18816586040E+03  0.18816586042E+03  0.25500000920E-02 0.  1.
    10030    2    1    2    0    0  0.00000000000E+00  0.00000000000E+00  0.17307496179E+04  0.21070813387E+04  0.12017893027E+04 0.  0.
        5    1    3    3  502    0  0.41600768236E+03  0.36722029236E+03  0.46120832370E+03  0.72155965987E+03  0.46999998093E+01 0.  1.
       -5    1    3    3    0  502 -0.41600768236E+03 -0.36722029236E+03  0.12695412942E+04  0.13855216789E+04  0.46999998093E+01 0. -1.
</event>
<event>
 5   0  0.2304842E-04  0.1227565E+04  0.7818609E-02  0.9089066E-01
       -1   -1    0    0    0  501  0.00000000000E+00  0.00000000000E+00  0.47475180241E+03  0.47475180243E+03  0.50400001928E-02 0. -1.
        1   -1    0    0  501    0  0.00000000000E+00  0.00000000000E+00 -0.79352773319E+03  0.79352773321E+03  0.50400001928E-02 0.  1.
    10030    2    1    2    0    0  0.00000000000E+00  0.00000000000E+00 -0.31877593078E+03  0.12682795356E+04  0.12275646160E+04 0.  0.
        4    1    3    3  502    0 -0.33363869329E+03  0.48889958497E+03  0.84485388835E+01  0.59195487375E+03  0.12699999809E+01 0. -1.
       -4    1    3    3    0  502  0.33363869329E+03 -0.48889958497E+03 -0.32722446967E+03  0.67632466190E+03  0.12699999809E+01 0.  1.
</event>
<event>
 5   0  0.1541375E-04  0.1200710E+04  0.7818609E-02  0.9112236E-01
       -4   -1    0    0    0  501  0.00000000000E+00  0.00000000000E+00  0.73570006468E+03  0.73570116084E+03  0.12699999809E+01 0.  1.
        4   -1    0    0  501    0  0.00000000000E+00  0.00000000000E+00 -0.48990646516E+03  0.48990811129E+03  0.12699999809E+01 0. -1.
    10030    2    1    2    0    0  0.00000000000E+00  0.00000000000E+00  0.24579359951E+03  0.12256092721E+04  0.12007096212E+04 0.  0.
        4    1    3    3  502    0  0.12001782961E+03 -0.50822485599E+03  0.42522727653E+03  0.67343643595E+03  0.12699999809E+01 0.  1.
       -4    1    3    3    0  502 -0.12001782961E+03  0.50822485599E+03 -0.17943367702E+03  0.55217283618E+03  0.12699999809E+01 0. -1.
</event>
<event>
 5   0  0.4122956E-04  0.1200499E+04  0.7818609E-02  0.9112419E-01
        2   -1    0    0  501    0  0.00000000000E+00  0.00000000000E+00  0.15468500071E+04  0.15468500071E+04  0.25500000920E-02 0.  1.
       -2   -1    0    0    0  501  0.00000000000E+00  0.00000000000E+00 -0.23292482123E+03  0.23292482125E+03  0.25500000920E-02 0. -1.
    10030    2    1    2    0    0  0.00000000000E+00  0.00000000000E+00  0.13139251859E+04  0.17797748284E+04  0.12004994984E+04 0.  0.
        5    1    3    3  502    0 -0.25366990107E+03  0.37166008792E+03  0.68045895213E+02  0.45511753813E+03  0.46999998093E+01 0. -1.
       -5    1    3    3    0  502  0.25366990107E+03 -0.37166008792E+03  0.12458792907E+04  0.13246572902E+04  0.46999998093E+01 0.  1.
</event>
<event>
 5   0  0.2340731E-04  0.1198547E+04  0.7818609E-02  0.9114129E-01
       -1   -1    0    0    0  501  0.00000000000E+00  0.00000000000E+00  0.79065393340E+03  0.79065393342E+03  0.50400001928E-02 0.  1.
        1   -1    0    0  501    0  0.00000000000E+00  0.00000000000E+00 -0.45421730380E+03  0.45421730383E+03  0.50400001928E-02 0. -1.
    10030    2    1    2    0    0  0.00000000000E+00  0.00000000000E+00  0.33643662960E+03  0.12448712372E+04  0.11985469501E+04 0.  0.
        3    1    3    3  502    0  0.20475672526E+03 -0.31120707460E+02 -0.41586427563E+03  0.46458252326E+03  0.10100000352E+00 0. -1.
       -3    1    3    3    0  502 -0.20475672526E+03  0.31120707460E+02  0.75230090523E+03  0.78028871399E+03  0.10100000352E+00 0.  1.
</event>
<event>
 5   0  0.4024486E-04  0.1226314E+04  0.7818609E-02  0.9090131E-01
       -2   -1    0    0    0  501  0.00000000000E+00  0.00000000000E+00  0.52699162378E+03  0.52699162379E+03  0.25500000920E-02 0.  1.
        2   -1    0    0  501    0  0.00000000000E+00  0.00000000000E+00 -0.71341093498E+03  0.71341093498E+03  0.25500000920E-02 0. -1.
    10030    2    1    2    0    0  0.00000000000E+00  0.00000000000E+00 -0.18641931119E+03  0.12404025588E+04  0.12263141311E+04 0.  0.
        1    1    3    3  502    0 -0.44835487238E+02  0.10206958819E+03 -0.70307357373E+03  0.71185733954E+03  0.50400001928E-02 0. -1.
       -1    1    3    3    0  502  0.44835487238E+02 -0.10206958819E+03  0.51665426254E+03  0.52854521923E+03  0.50400001928E-02 0.  1.
</event>
<event>
 5   0  0.2315038E-04  0.1202210E+04  0.7818609E-02  0.9110924E-01
       -1   -1    0    0    0  501  0.00000000000E+00  0.00000000000E+00  0.41761362809E+03  0.41761362812E+03  0.50400001928E-02 0.  1.
        1   -1    0    0  501    0  0.00000000000E+00  0.00000000000E+00 -0.86521917700E+03  0.86521917701E+03  0.50400001928E-02 0. -1.
    10030    2    1    2    0    0  0.00000000000E+00  0.00000000000E+00 -0.44760554891E+03  0.12828328051E+04  0.12022101640E+04 0.  0.
        1    1    3    3  502    0 -0.31016192968E+03  0.91103032226E+02 -0.76456969219E+03  0.83010059592E+03  0.50400001928E-02 0. -1.
       -1    1    3    3    0  502  0.31016192968E+03 -0.91103032226E+02  0.31696414328E+03  0.45273220921E+03  0.50400001928E-02 0.  1.
</event>
<event>
 5   0  0.4024486E-04  0.1222048E+04  0.7818609E-02  0.9093774E-01
       -2   -1    0    0    0  501  0.00000000000E+00  0.00000000000E+00  0.37080292499E+03  0.37080292499E+03  0.25500000920E-02 0.  1.
        2   -1    0    0  501    0  0.00000000000E+00  0.00000000000E+00 -0.10068698111E+04  0.10068698111E+04  0.25500000920E-02 0. -1.
    10030    2    1    2    0    0  0.00000000000E+00  0.00000000000E+00 -0.63606688611E+03  0.13776727361E+04  0.12220479058E+04 0.  0.
        1    1    3    3  502    0  0.38206029769E+03  0.68946798933E+02 -0.84995341859E+03  0.93442203845E+03  0.50400001928E-02 0. -1.
       -1    1    3    3    0  502 -0.38206029769E+03 -0.68946798933E+02  0.21388653248E+03  0.44325069764E+03  0.50400001928E-02 0.  1.
</event>
<event>
 5   0  0.4024486E-04  0.1184689E+04  0.7818609E-02  0.9126365E-01
        2   -1    0    0  501    0  0.00000000000E+00  0.00000000000E+00  0.29129644583E+03  0.29129644584E+03  0.25500000920E-02 0.  1.
       -2   -1    0    0    0  501  0.00000000000E+00  0.00000000000E+00 -0.12045190753E+04  0.12045190753E+04  0.25500000920E-02 0. -1.
    10030    2    1    2    0    0  0.00000000000E+00  0.00000000000E+00 -0.91322262945E+03  0.14958155211E+04  0.11846892007E+04 0.  0.
        1    1    3    3  502    0 -0.21511431192E+02 -0.58317521187E+03 -0.58485336541E+03  0.82620186908E+03  0.50400001928E-02 0.  1.
       -1    1    3    3    0  502  0.21511431192E+02  0.58317521187E+03 -0.32836926405E+03  0.66961365205E+03  0.50400001928E-02 0. -1.
</event>
<event>
 5   0  0.4122956E-04  0.1200098E+04  0.7818609E-02  0.9112771E-01
       -2   -1    0    0    0  501  0.00000000000E+00  0.00000000000E+00  0.36403337629E+03  0.36403337630E+03  0.25500000920E-02 0.  1.
        2   -1    0    0  501    0  0.00000000000E+00  0.00000000000E+00 -0.98908175741E+03  0.98908175741E+03  0.25500000920E-02 0. -1.
    10030    2    1    2    0    0  0.00000000000E+00  0.00000000000E+00 -0.62504838111E+03  0.13531151337E+04  0.12000979486E+04 0.  0.
        5    1    3    3  502    0 -0.23604921864E+03 -0.38587418406E+03  0.13197349215E+03  0.47122946870E+03  0.46999998093E+01 0.  1.
       -5    1    3    3    0  502  0.23604921864E+03  0.38587418406E+03 -0.75702187327E+03  0.88188566501E+03  0.46999998093E+01 0. -1.
</event>
<event>
 5   0  0.3993723E-04  0.1200179E+04  0.7818609E-02  0.9112700E-01
        2   -1    0    0  501    0  0.00000000000E+00  0.00000000000E+00  0.67428686496E+03  0.67428686496E+03  0.25500000920E-02 0.  1.
       -2   -1    0    0    0  501  0.00000000000E+00  0.00000000000E+00 -0.53405677085E+03  0.53405677086E+03  0.25500000920E-02 0. -1.
    10030    2    1    2    0    0  0.00000000000E+00  0.00000000000E+00  0.14023009411E+03  0.12083436358E+04  0.12001790962E+04 0.  0.
        3    1    3    3  502    0 -0.12657822334E+02 -0.33844037282E+03  0.56886907167E+03  0.66205297169E+03  0.10100000352E+00 0.  1.
       -3    1    3    3    0  502  0.12657822334E+02  0.33844037282E+03 -0.42863897756E+03  0.54629066413E+03  0.10100000352E+00 0. -1.
</event>
<event>
 5   0  0.2204090E-04  0.1194169E+04  0.7818609E-02  0.9117976E-01
        1   -1    0    0  501    0  0.00000000000E+00  0.00000000000E+00  0.56016830319E+03  0.56016830321E+03  0.50400001928E-02 0. -1.
       -1   -1    0    0    0  501  0.00000000000E+00  0.00000000000E+00 -0.63643337292E+03  0.63643337294E+03  0.50400001928E-02 0.  1.
    10030    2    1    2    0    0  0.00000000000E+00  0.00000000000E+00 -0.76265069729E+02  0.11966016762E+04  0.11941688367E+04 0.  0.
        2    1    3    3  502    0 -0.83565935445E+02 -0.81071373055E+02 -0.62494832351E+03  0.63570137656E+03  0.25500000920E-02 0.  1.
       -2    1    3    3    0  502  0.83565935445E+02  0.81071373055E+02  0.54868325378E+03  0.56090029959E+03  0.25500000920E-02 0. -1.
</event>
<event>
 5   0  0.2340731E-04  0.1199559E+04  0.7818609E-02  0.9113243E-01
       -1   -1    0    0    0  501  0.00000000000E+00  0.00000000000E+00  0.37744114839E+03  0.37744114842E+03  0.50400001928E-02 0. -1.
        1   -1    0    0  501    0  0.00000000000E+00  0.00000000000E+00 -0.95308989547E+03  0.95308989548E+03  0.50400001928E-02 0.  1.
    10030    2    1    2    0    0  0.00000000000E+00  0.00000000000E+00 -0.57564874708E+03  0.13305310439E+04  0.11995588267E+04 0.  0.
        3    1    3    3  502    0  0.30577191641E+03 -0.87181193441E+02 -0.85191630446E+03  0.90931756024E+03  0.10100000352E+00 0.  1.
       -3    1    3    3    0  502 -0.30577191641E+03  0.87181193441E+02  0.27626755738E+03  0.42121348366E+03  0.10100000352E+00 0. -1.
</event>
<event>
 5   0  0.1541375E-04  0.1200495E+04  0.7818609E-02  0.9112423E-01
       -3   -1    0    0    0  501  0.00000000000E+00  0.00000000000E+00  0.84623930692E+03  0.84623931295E+03  0.10100000352E+00 0.  1.
        3   -1    0    0  501    0  0.00000000000E+00  0.00000000000E+00 -0.42576256293E+03  0.42576257491E+03  0.10100000352E+00 0. -1.
    10030    2    1    2    0    0  0.00000000000E+00  0.00000000000E+00  0.42047674399E+03  0.12720018879E+04  0.12004949440E+04 0.  0.
        2    1    3    3  502    0  0.10284350588E+02 -0.59101933928E+03  0.32079620484E+03  0.67254727143E+03  0.25500000920E-02 0.  1.
       -2    1    3    3    0  502 -0.10284350588E+02  0.59101933928E+03  0.99680539149E+02  0.59945461643E+03  0.25500000920E-02 0. -1.
</event>
<event>
 5   0  0.1541375E-04  0.1200324E+04  0.7818609E-02  0.9112573E-01
        3   -1    0    0  501    0  0.00000000000E+00  0.00000000000E+00  0.66920812344E+03  0.66920813106E+03  0.10100000352E+00 0. -1.
       -3   -1    0    0    0  501  0.00000000000E+00  0.00000000000E+00 -0.53824001830E+03  0.53824002778E+03  0.10100000352E+00 0.  1.
    10030    2    1    2    0    0  0.00000000000E+00  0.00000000000E+00  0.13096810514E+03  0.12074481588E+04  0.12003242944E+04 0.  0.
        5    1    3    3  502    0  0.57996105715E+03  0.12924090395E+03 -0.19363885283E+02  0.59452089039E+03  0.46999998093E+01 0. -1.
       -5    1    3    3    0  502 -0.57996105715E+03 -0.12924090395E+03  0.15033199042E+03  0.61292726845E+03  0.46999998093E+01 0.  1.
</event>
<event>
 5   0  0.2204090E-04  0.1200957E+04  0.7818609E-02  0.9112019E-01
       -1   -1    0    0    0  501  0.00000000000E+00  0.00000000000E+00  0.58041490676E+03  0.58041490678E+03  0.50400001928E-02 0.  1.
        1   -1    0    0  501    0  0.00000000000E+00  0.00000000000E+00 -0.62123612351E+03  0.62123612353E+03  0.50400001928E-02 0. -1.
    10030    2    1    2    0    0  0.00000000000E+00  0.00000000000E+00 -0.40821216746E+02  0.12016510303E+04  0.12009574626E+04 0.  0.
        2    1    3    3  502    0 -0.11816740329E+02 -0.60011445519E+03 -0.37674906836E+02  0.60141199963E+03  0.25500000920E-02 0.  1.
       -2    1    3    3    0  502  0.11816740329E+02  0.60011445519E+03 -0.31463099103E+01  0.60023903068E+03  0.25500000920E-02 0. -1.
</event>
<event>
 5   0  0.2315038E-04  0.1200775E+04  0.7818609E-02  0.9112178E-01
       -1   -1    0    0    0  501  0.00000000000E+00  0.00000000000E+00  0.90398412508E+03  0.90398412509E+03  0.50400001928E-02 0. -1.
        1   -1    0    0  501    0  0.00000000000E+00  0.00000000000E+00 -0.39875165454E+03  0.39875165457E+03  0.50400001928E-02 0.  1.
    10030    2    1    2    0    0  0.00000000000E+00  0.00000000000E+00  0.50523247054E+03  0.13027357797E+04  0.12007750257E+04 0.  0.
        1    1    3    3  502    0  0.41322553368E+03 -0.46500086946E+02  0.72245669244E+03  0.83358339250E+03  0.50400001928E-02 0. -1.
       -1    1    3    3    0  502 -0.41322553368E+03  0.46500086946E+02 -0.21722422190E+03  0.46915238716E+03  0.50400001928E-02 0.  1.
</event>
<event>
 5   0  0.3832662E-04  0.1200369E+04  0.7818609E-02  0.9112534E-01
       -2   -1    0    0    0  501  0.00000000000E+00  0.00000000000E+00  0.37273958765E+03  0.37273958765E+03  0.25500000920E-02 0.  1.
        2   -1    0    0  501    0  0.00000000000E+00  0.00000000000E+00 -0.96641521629E+03  0.96641521630E+03  0.25500000920E-02 0. -1.
    10030    2    1    2    0    0  0.00000000000E+00  0.00000000000E+00 -0.59367562865E+03  0.13391548040E+04  0.12003686254E+04 0.  0.
        4    1    3    3  502    0  0.35492715007E+02  0.49863083620E+03  0.73721174925E+02  0.50530077000E+03  0.12699999809E+01 0.  1.
       -4    1    3    3    0  502 -0.35492715007E+02 -0.49863083620E+03 -0.66739680357E+03  0.83385403396E+03  0.12699999809E+01 0. -1.
</event>
<event>
 5   0  0.2340731E-04  0.1198550E+04  0.7818609E-02  0.9114127E-01
        1   -1    0    0  501    0  0.00000000000E+00  0.00000000000E+00  0.27115760061E+03  0.27115760065E+03  0.50400001928E-02 0.  1.
       -1   -1    0    0    0  501  0.00000000000E+00  0.00000000000E+00 -0.13244346603E+04  0.13244346603E+04  0.50400001928E-02 0. -1.
    10030    2    1    2    0    0  0.00000000000E+00  0.00000000000E+00 -0.10532770597E+04  0.15955922609E+04  0.11985499984E+04 0.  0.
        3    1    3    3  502    0  0.58766618423E+02 -0.54015455552E+03 -0.86318912416E+03  0.10199587901E+04  0.10100000352E+00 0. -1.
       -3    1    3    3    0  502 -0.58766618423E+02  0.54015455552E+03 -0.19008793552E+03  0.57563347082E+03  0.10100000352E+00 0.  1.
</event>
<event>
 5   0  0.3883890E-04  0.1200995E+04  0.7818609E-02  0.9111986E-01
       -2   -1    0    0    0  501  0.00000000000E+00  0.00000000000E+00  0.22268442791E+03  0.22268442793E+03  0.25500000920E-02 0.  1.
        2   -1    0    0  501    0  0.00000000000E+00  0.00000000000E+00 -0.16193187576E+04  0.16193187576E+04  0.25500000920E-02 0. -1.
    10030    2    1    2    0    0  0.00000000000E+00  0.00000000000E+00 -0.13966343297E+04  0.18420031855E+04  0.12009947063E+04 0.  0.
        2    1    3    3  502    0 -0.12931321979E+03  0.38136451069E+03 -0.13815359736E+04  0.14390282990E+04  0.25500000920E-02 0. -1.
       -2    1    3    3    0  502  0.12931321979E+03 -0.38136451069E+03 -0.15098356058E+02  0.40297488655E+03  0.25500000920E-02 0.  1.
</event>
<event>
 5   0  0.2244308E-04  0.1198769E+04  0.7818609E-02  0.9113935E-01
        1   -1    0    0  501    0  0.00000000000E+00  0.00000000000E+00  0.47786218703E+03  0.47786218706E+03  0.50400001928E-02 0. -1.
       -1   -1    0    0    0  501  0.00000000000E+00  0.00000000000E+00 -0.75181046475E+03  0.75181046477E+03  0.50400001928E-02 0.  1.
    10030    2    1    2    0    0  0.00000000000E+00  0.00000000000E+00 -0.27394827772E+03  0.12296726518E+04  0.11987690235E+04 0.  0.
        5    1    3    3  502    0  0.10743305711E+03 -0.88857042502E+02  0.46097898389E+03  0.48162345183E+03  0.46999998093E+01 0. -1.
       -5    1    3    3    0  502 -0.10743305711E+03  0.88857042502E+02 -0.73492726161E+03  0.74804920000E+03  0.46999998093E+01 0.  1.
</event>
<event>
 5   0  0.3832662E-04  0.1198701E+04  0.7818609E-02  0.9113995E-01
       -2   -1    0    0    0  501  0.00000000000E+00  0.00000000000E+00  0.22930900845E+03  0.22930900846E+03  0.25500000920E-02 0. -1.
        2   -1    0    0  501    0  0.00000000000E+00  0.00000000000E+00 -0.15665362159E+04  0.15665362159E+04  0.25500000920E-02 0.  1.
    10030    2    1    2    0    0  0.00000000000E+00  0.00000000000E+00 -0.13372272074E+04  0.17958452243E+04  0.11987007406E+04 0.  0.
        4    1    3    3  502    0  0.51979538867E+03  0.15747864011E+03 -0.10483091417E+04  0.11806525474E+04  0.12699999809E+01 0.  1.
       -4    1    3    3    0  502 -0.51979538867E+03 -0.15747864011E+03 -0.28891806573E+03  0.61519267695E+03  0.12699999809E+01 0. -1.
</event>
<event>
 5   0  0.4024486E-04  0.1200304E+04  0.7818609E-02  0.9112590E-01
       -2   -1    0    0    0  501  0.00000000000E+00  0.00000000000E+00  0.41498445996E+03  0.41498445997E+03  0.25500000920E-02 0. -1.
        2   -1    0    0  501    0  0.00000000000E+00  0.00000000000E+00 -0.86794232602E+03  0.86794232602E+03  0.25500000920E-02 0.  1.
    10030    2    1    2    0    0  0.00000000000E+00  0.00000000000E+00 -0.45295786606E+03  0.12829267860E+04  0.12003042572E+04 0.  0.
        1    1    3    3  502    0  0.23431822871E+03 -0.33572603345E+03 -0.69550810203E+03  0.80706165926E+03  0.50400001928E-02 0.  1.
       -1    1    3    3    0  502 -0.23431822871E+03  0.33572603345E+03  0.24255023597E+03  0.47586512673E+03  0.50400001928E-02 0. -1.
</event>
<event>
 5   0  0.4024486E-04  0.1201296E+04  0.7818609E-02  0.9111723E-01
        2   -1    0    0  501    0  0.00000000000E+00  0.00000000000E+00  0.67110223873E+03  0.67110223873E+03  0.25500000920E-02 0.  1.
       -2   -1    0    0    0  501  0.00000000000E+00  0.00000000000E+00 -0.53759061544E+03  0.53759061545E+03  0.25500000920E-02 0. -1.
    10030    2    1    2    0    0  0.00000000000E+00  0.00000000000E+00  0.13351162329E+03  0.12086928542E+04  0.12012964090E+04 0.  0.
        1    1    3    3  502    0  0.54878030398E+03  0.18852104016E+03  0.22288292628E+03  0.62159215204E+03  0.50400001928E-02 0.  1.
       -1    1    3    3    0  502 -0.54878030398E+03 -0.18852104016E+03 -0.89371302994E+02  0.58710070214E+03  0.50400001928E-02 0. -1.
</event>
<event>
 5   0  0.2204090E-04  0.1182637E+04  0.7818609E-02  0.9128192E-01
        1   -1    0    0  501    0  0.00000000000E+00  0.00000000000E+00  0.43529212928E+03  0.43529212931E+03  0.50400001928E-02 0. -1.
       -1   -1    0    0    0  501  0.00000000000E+00  0.00000000000E+00 -0.80327082234E+03  0.80327082235E+03  0.50400001928E-02 0.  1.
    10030    2    1    2    0    0  0.00000000000E+00  0.00000000000E+00 -0.36797869306E+03  0.12385629517E+04  0.11826368279E+04 0.  0.
        2    1    3    3  502    0  0.49517147080E+03  0.12620230244E+03 -0.49560968915E+03  0.71186429228E+03  0.25500000920E-02 0. -1.
       -2    1    3    3    0  502 -0.49517147080E+03 -0.12620230244E+03  0.12763099609E+03  0.52669865939E+03  0.25500000920E-02 0.  1.
</event>
<event>
 5   0  0.3832662E-04  0.1199420E+04  0.7818609E-02  0.9113364E-01
        2   -1    0    0  501    0  0.00000000000E+00  0.00000000000E+00  0.96741484295E+03  0.96741484295E+03  0.25500000920E-02 0.  1.
       -2   -1    0    0    0  501  0.00000000000E+00  0.00000000000E+00 -0.37176644512E+03  0.37176644513E+03  0.25500000920E-02 0. -1.
    10030    2    1    2    0    0  0.00000000000E+00  0.00000000000E+00  0.59564839783E+03  0.13391812881E+04  0.11994204886E+04 0.  0.
        4    1    3    3  502    0  0.42797166056E+03  0.28127015352E+03 -0.50592216351E+02  0.51462008003E+03  0.12699999809E+01 0. -1.
       -4    1    3    3    0  502 -0.42797166056E+03 -0.28127015352E+03  0.64624061418E+03  0.82456120805E+03  0.12699999809E+01 0.  1.
</event>
<event>
 5   0  0.3832662E-04  0.1199585E+04  0.7818609E-02  0.9113220E-01
        2   -1    0    0  501    0  0.00000000000E+00  0.00000000000E+00  0.74096139977E+03  0.74096139978E+03  0.25500000920E-02 0. -1.
       -2   -1    0    0    0  501  0.00000000000E+00  0.00000000000E+00 -0.48551914015E+03  0.48551914016E+03  0.25500000920E-02 0.  1.
    10030    2    1    2    0    0  0.00000000000E+00  0.00000000000E+00  0.25544225962E+03  0.12264805399E+04  0.11995848310E+04 0.  0.
        4    1    3    3  502    0 -0.48957667145E+03  0.31760793086E+03  0.26935211876E+03  0.64273812066E+03  0.12699999809E+01 0.  1.
       -4    1    3    3    0  502  0.48957667145E+03 -0.31760793086E+03 -0.13909859134E+02  0.58374241927E+03  0.12699999809E+01 0. -1.
</event>
<event>
 5   0  0.1541375E-04  0.1201734E+04  0.7818609E-02  0.9111341E-01
       -4   -1    0    0    0  501  0.00000000000E+00  0.00000000000E+00  0.16110220065E+03  0.16110720640E+03  0.12699999809E+01 0. -1.
        4   -1    0    0  501    0  0.00000000000E+00  0.00000000000E+00 -0.22410272556E+04  0.22410276155E+04  0.12699999809E+01 0.  1.
    10030    2    1    2    0    0  0.00000000000E+00  0.00000000000E+00 -0.20799250550E+04  0.24021348219E+04  0.12017335263E+04 0.  0.
        4    1    3    3  502    0  0.18287271916E+03  0.54760371051E+03 -0.13728064524E+04  0.14892653974E+04  0.12699999809E+01 0.  1.
       -4    1    3    3    0  502 -0.18287271916E+03 -0.54760371051E+03 -0.70711860257E+03  0.91286942449E+03  0.12699999809E+01 0. -1.
</event>
<event>
 5   0  0.3832662E-04  0.1202643E+04  0.7818609E-02  0.9110547E-01
        2   -1    0    0  501    0  0.00000000000E+00  0.00000000000E+00  0.13137983803E+04  0.13137983803E+04  0.25500000920E-02 0. -1.
       -2   -1    0    0    0  501  0.00000000000E+00  0.00000000000E+00 -0.27522284156E+03  0.27522284157E+03  0.25500000920E-02 0.  1.
    10030    2    1    2    0    0  0.00000000000E+00  0.00000000000E+00  0.10385755388E+04  0.15890212219E+04  0.12026426293E+04 0.  0.
        4    1    3    3  502    0  0.25781558279E+03  0.32684240930E+03  0.10926218267E+04  0.11692386003E+04  0.12699999809E+01 0. -1.
       -4    1    3    3    0  502 -0.25781558279E+03 -0.32684240930E+03 -0.54046287980E+02  0.41978262159E+03  0.12699999809E+01 0.  1.
</event>
<event>
 5   0  0.2340731E-04  0.1198346E+04  0.7818609E-02  0.9114306E-01
       -1   -1    0    0    0  501  0.00000000000E+00  0.00000000000E+00  0.31154373111E+03  0.31154373115E+03  0.50400001928E-02 0. -1.
        1   -1    0    0  501    0  0.00000000000E+00  0.00000000000E+00 -0.11523519332E+04  0.11523519332E+04  0.50400001928E-02 0.  1.
    10030    2    1    2    0    0  0.00000000000E+00  0.00000000000E+00 -0.84080820207E+03  0.14638956643E+04  0.11983455609E+04 0.  0.
        3    1    3    3  502    0  0.35335791551E+03 -0.26792074953E+03 -0.91264060213E+03  0.10146704999E+04  0.10100000352E+00 0.  1.
       -3    1    3    3    0  502 -0.35335791551E+03  0.26792074953E+03  0.71832400060E+02  0.44922516446E+03  0.10100000352E+00 0. -1.
</event>
<event>
 5   0  0.2244308E-04  0.1198343E+04  0.7818609E-02  0.9114308E-01
       -1   -1    0    0    0  501  0.00000000000E+00  0.00000000000E+00  0.41464594786E+03  0.41464594789E+03  0.50400001928E-02 0.  1.
        1   -1    0    0  501    0  0.00000000000E+00  0.00000000000E+00 -0.86581518319E+03  0.86581518320E+03  0.50400001928E-02 0. -1.
    10030    2    1    2    0    0  0.00000000000E+00  0.00000000000E+00 -0.45116923533E+03  0.12804611311E+04  0.11983434522E+04 0.  0.
        5    1    3    3  502    0 -0.57186065600E+03  0.17819954620E+03 -0.21028643010E+03  0.63484026402E+03  0.46999998093E+01 0. -1.
       -5    1    3    3    0  502  0.57186065600E+03 -0.17819954620E+03 -0.24088280523E+03  0.64562086707E+03  0.46999998093E+01 0.  1.
</event>
<event>
 5   0  0.2340731E-04  0.1201290E+04  0.7818609E-02  0.9111728E-01
        1   -1    0    0  501    0  0.00000000000E+00  0.00000000000E+00  0.34124185378E+03  0.34124185381E+03  0.50400001928E-02 0. -1.
       -1   -1    0    0    0  501  0.00000000000E+00  0.00000000000E+00 -0.10572404499E+04  0.10572404499E+04  0.50400001928E-02 0.  1.
    10030    2    1    2    0    0  0.00000000000E+00  0.00000000000E+00 -0.71599859613E+03  0.13984823037E+04  0.12012904579E+04 0.  0.
        3    1    3    3  502    0 -0.52798867531E+03  0.35010904030E+02 -0.27133043763E+02  0.52984338905E+03  0.10100000352E+00 0. -1.
       -3    1    3    3    0  502  0.52798867531E+03 -0.35010904030E+02 -0.68886555236E+03  0.86863891468E+03  0.10100000352E+00 0.  1.
</event>
<event>
 5   0  0.1541375E-04  0.1200227E+04  0.7818609E-02  0.9112658E-01
        4   -1    0    0  501    0  0.00000000000E+00  0.00000000000E+00  0.21293462118E+03  0.21293840846E+03  0.12699999809E+01 0.  1.
       -4   -1    0    0    0  501  0.00000000000E+00  0.00000000000E+00 -0.16912806778E+04  0.16912811546E+04  0.12699999809E+01 0. -1.
    10030    2    1    2    0    0  0.00000000000E+00  0.00000000000E+00 -0.14783460566E+04  0.19042195631E+04  0.12002270957E+04 0.  0.
        5    1    3    3  502    0 -0.81752622922E+02  0.42714433296E+03 -0.83142227815E+02  0.44279847852E+03  0.46999998093E+01 0.  1.
       -5    1    3    3    0  502  0.81752622922E+02 -0.42714433296E+03 -0.13952038288E+04  0.14614210846E+04  0.46999998093E+01 0. -1.
</event>
<event>
 5   0  0.3993723E-04  0.1199611E+04  0.7818609E-02  0.9113197E-01
       -2   -1    0    0    0  501  0.00000000000E+00  0.00000000000E+00  0.53276602308E+03  0.53276602309E+03  0.25500000920E-02 0.  1.
        2   -1    0    0  501    0  0.00000000000E+00  0.00000000000E+00 -0.67528086541E+03  0.67528086541E+03  0.25500000920E-02 0. -1.
    10030    2    1    2    0    0  0.00000000000E+00  0.00000000000E+00 -0.14251484233E+03  0.12080468885E+04  0.11996111055E+04 0.  0.
        3    1    3    3  502    0 -0.21256377765E+03  0.31417863716E+03  0.39663348535E+03  0.54882575333E+03  0.10100000352E+00 0.  1.
       -3    1    3    3    0  502  0.21256377765E+03 -0.31417863716E+03 -0.53914832768E+03  0.65922113517E+03  0.10100000352E+00 0. -1.
</event>
<event>
 5   0  0.4122956E-04  0.1197262E+04  0.7818609E-02  0.9115257E-01
        2   -1    0    0  501    0  0.00000000000E+00  0.00000000000E+00  0.21349499547E+04  0.21349499547E+04  0.25500000920E-02 0.  1.
       -2   -1    0    0    0  501  0.00000000000E+00  0.00000000000E+00 -0.16785356693E+03  0.16785356695E+03  0.25500000920E-02 0. -1.
    10030    2    1    2    0    0  0.00000000000E+00  0.00000000000E+00  0.19670963877E+04  0.23028035216E+04  0.11972618179E+04 0.  0.
        5    1    3    3  502    0  0.20382084945E+03 -0.50241531061E+03  0.14715471869E+04  0.15682593205E+04  0.46999998093E+01 0.  1.
       -5    1    3    3    0  502 -0.20382084945E+03  0.50241531061E+03  0.49554920088E+03  0.73454420118E+03  0.46999998093E+01 0. -1.
</event>
<event>
 5   0  0.3883890E-04  0.1201777E+04  0.7818609E-02  0.9111302E-01
       -2   -1    0    0    0  501  0.00000000000E+00  0.00000000000E+00  0.79233414984E+03  0.79233414985E+03  0.25500000920E-02 0. -1.
        2   -1    0    0  501    0  0.00000000000E+00  0.00000000000E+00 -0.45570068716E+03  0.45570068716E+03  0.25500000920E-02 0.  1.
    10030    2    1    2    0    0  0.00000000000E+00  0.00000000000E+00  0.33663346269E+03  0.12480348370E+04  0.12017773780E+04 0.  0.
        2    1    3    3  502    0 -0.23294066647E+03  0.43753272663E+03 -0.18442022730E+03  0.52887338864E+03  0.25500000920E-02 0.  1.
       -2    1    3    3    0  502  0.23294066647E+03 -0.43753272663E+03  0.52105368999E+03  0.71916144837E+03  0.25500000920E-02 0. -1.
</event>
<event>
 5   0  0.2204090E-04  0.1201699E+04  0.7818609E-02  0.9111371E-01
        1   -1    0    0  501    0  0.00000000000E+00  0.00000000000E+00  0.82808483031E+03  0.82808483032E+03  0.50400001928E-02 0.  1.
       -1   -1    0    0    0  501  0.00000000000E+00  0.00000000000E+00 -0.43597003913E+03  0.43597003916E+03  0.50400001928E-02 0. -1.
    10030    2    1    2    0    0  0.00000000000E+00  0.00000000000E+00  0.39211479117E+03  0.12640548695E+04  0.12016990903E+04 0.  0.
        2    1    3    3  502    0  0.10192152301E+02 -0.33908253681E+03  0.71771337001E+03  0.79384716932E+03  0.25500000920E-02 0.  1.
       -2    1    3    3    0  502 -0.10192152301E+02  0.33908253681E+03 -0.32559857884E+03  0.47020770016E+03  0.25500000920E-02 0. -1.
</event>
<event>
 5   0  0.4024486E-04  0.1200109E+04  0.7818609E-02  0.9112761E-01
       -2   -1    0    0    0  501  0.00000000000E+00  0.00000000000E+00  0.10413668672E+04  0.10413668672E+04  0.25500000920E-02 0.  1.
        2   -1    0    0  501    0  0.00000000000E+00  0.00000000000E+00 -0.34576224859E+03  0.34576224860E+03  0.25500000920E-02 0. -1.
    10030    2    1    2    0    0  0.00000000000E+00  0.00000000000E+00  0.69560461859E+03  0.13871291158E+04  0.12001089111E+04 0.  0.
        1    1    3    3  502    0  0.27207460764E+02 -0.59106209681E+03  0.46321646577E+03  0.75144137655E+03  0.50400001928E-02 0.  1.
       -1    1    3    3    0  502 -0.27207460764E+02  0.59106209681E+03  0.23238815282E+03  0.63568773923E+03  0.50400001928E-02 0. -1.
</event>
<event>
 5   0  0.1541375E-04  0.1200695E+04  0.7818609E-02  0.9112248E-01
       -3   -1    0    0    0  501  0.00000000000E+00  0.00000000000E+00  0.70911913058E+03  0.70911913778E+03  0.10100000352E+00 0. -1.
        3   -1    0    0  501    0  0.00000000000E+00  0.00000000000E+00 -0.50826038422E+03  0.50826039426E+03  0.10100000352E+00 0.  1.
    10030    2    1    2    0    0  0.00000000000E+00  0.00000000000E+00  0.20085874636E+03  0.12173795320E+04  0.12006950858E+04 0.  0.
        4    1    3    3  502    0  0.34135335381E+03  0.38744175980E+03 -0.21006502672E+03  0.55746045398E+03  0.12699999809E+01 0. -1.
       -4    1    3    3    0  502 -0.34135335381E+03 -0.38744175980E+03  0.41092377308E+03  0.65991907805E+03  0.12699999809E+01 0.  1.
</event>
<event>
 5   0  0.1541375E-04  0.1201144E+04  0.7818609E-02  0.9111855E-01
        4   -1    0    0  501    0  0.00000000000E+00  0.00000000000E+00  0.10764019372E+04  0.10764026864E+04  0.12699999809E+01 0.  1.
       -4   -1    0    0    0  501  0.00000000000E+00  0.00000000000E+00 -0.33508368027E+03  0.33508608697E+03  0.12699999809E+01 0. -1.
    10030    2    1    2    0    0  0.00000000000E+00  0.00000000000E+00  0.74131825695E+03  0.14114887734E+04  0.12011443707E+04 0.  0.
        4    1    3    3  502    0  0.52118642210E+03  0.19928937552E+03  0.63166752649E+03  0.84282680231E+03  0.12699999809E+01 0.  1.
       -4    1    3    3    0  502 -0.52118642210E+03 -0.19928937552E+03  0.10965073047E+03  0.56866197109E+03  0.12699999809E+01 0. -1.
</event>
<event>
 5   0  0.2315038E-04  0.1210599E+04  0.7818609E-02  0.9103630E-01
       -1   -1    0    0    0  501  0.00000000000E+00  0.00000000000E+00  0.11355284688E+04  0.11355284688E+04  0.50400001928E-02 0. -1.
        1   -1    0    0  501    0  0.00000000000E+00  0.00000000000E+00 -0.32265788138E+03  0.32265788142E+03  0.50400001928E-02 0.  1.
    10030    2    1    2    0    0  0.00000000000E+00  0.00000000000E+00  0.81287058743E+03  0.14581863502E+04  0.12105985462E+04 0.  0.
        1    1    3    3  502    0  0.53055186955E+03 -0.22994304817E+03  0.62200046457E+03  0.84926066059E+03  0.50400001928E-02 0. -1.
       -1    1    3    3    0  502 -0.53055186955E+03  0.22994304817E+03  0.19087012286E+03  0.60892568964E+03  0.50400001928E-02 0.  1.
</event>
<event>
 5   0  0.2340731E-04  0.1201249E+04  0.7818609E-02  0.9111764E-01
        1   -1    0    0  501    0  0.00000000000E+00  0.00000000000E+00  0.61162951905E+03  0.61162951907E+03  0.50400001928E-02 0. -1.
       -1   -1    0    0    0  501  0.00000000000E+00  0.00000000000E+00 -0.58981760173E+03  0.58981760176E+03  0.50400001928E-02 0.  1.
    10030    2    1    2    0    0  0.00000000000E+00  0.00000000000E+00  0.21811917316E+02  0.12014471208E+04  0.12012491101E+04 0.  0.
        3    1    3    3  502    0  0.39528687035E+03  0.35686023443E+03 -0.26689675059E+03  0.59568013435E+03  0.10100000352E+00 0.  1.
       -3    1    3    3    0  502 -0.39528687035E+03 -0.35686023443E+03  0.28870866790E+03  0.60576698648E+03  0.10100000352E+00 0. -1.
</event>
<event>
 5   0  0.2204090E-04  0.1197806E+04  0.7818609E-02  0.9114779E-01
       -1   -1    0    0    0  501  0.00000000000E+00  0.00000000000E+00  0.62669847726E+03  0.62669847728E+03  0.50400001928E-02 0.  1.
        1   -1    0    0  501    0  0.00000000000E+00  0.00000000000E+00 -0.57233995878E+03  0.57233995881E+03  0.50400001928E-02 0. -1.
    10030    2    1    2    0    0  0.00000000000E+00  0.00000000000E+00  0.54358518475E+02  0.11990384361E+04  0.11978056281E+04 0.  0.
        2    1    3    3  502    0  0.21795939259E+03 -0.25684473097E+03  0.52287480788E+03  0.62199162162E+03  0.25500000920E-02 0.  1.
       -2    1    3    3    0  502 -0.21795939259E+03  0.25684473097E+03 -0.46851628940E+03  0.57704681447E+03  0.25500000920E-02 0. -1.
</event>
<event>
 5   0  0.2340731E-04  0.1199249E+04  0.7818609E-02  0.9113514E-01
        1   -1    0    0  501    0  0.00000000000E+00  0.00000000000E+00  0.93064719351E+03  0.93064719352E+03  0.50400001928E-02 0. -1.
       -1   -1    0    0    0  501  0.00000000000E+00  0.00000000000E+00 -0.38634344655E+03  0.38634344658E+03  0.50400001928E-02 0.  1.
    10030    2    1    2    0    0  0.00000000000E+00  0.00000000000E+00  0.54430374696E+03  0.13169906401E+04  0.11992488387E+04 0.  0.
        3    1    3    3  502    0  0.12063752506E+03 -0.18090377413E+03  0.88582683843E+03  0.91212322952E+03  0.10100000352E+00 0. -1.
       -3    1    3    3    0  502 -0.12063752506E+03  0.18090377413E+03 -0.34152309147E+03  0.40486741058E+03  0.10100000352E+00 0.  1.
</event>
<event>
 5   0  0.2304842E-04  0.1198647E+04  0.7818609E-02  0.9114042E-01
       -1   -1    0    0    0  501  0.00000000000E+00  0.00000000000E+00  0.56649186138E+03  0.56649186140E+03  0.50400001928E-02 0.  1.
        1   -1    0    0  501    0  0.00000000000E+00  0.00000000000E+00 -0.63405754220E+03  0.63405754222E+03  0.50400001928E-02 0. -1.
    10030    2    1    2    0    0  0.00000000000E+00  0.00000000000E+00 -0.67565680817E+02  0.12005494036E+04  0.11986466324E+04 0.  0.
        4    1    3    3  502    0 -0.41954006531E+02 -0.94605816882E+02  0.55747316953E+03  0.56699942407E+03  0.12699999809E+01 0.  1.
       -4    1    3    3    0  502  0.41954006531E+02  0.94605816882E+02 -0.62503885034E+03  0.63354997955E+03  0.12699999809E+01 0. -1.
</event>
<event>
 5   0  0.2204090E-04  0.1197333E+04  0.7818609E-02  0.9115194E-01
        1   -1    0    0  501    0  0.00000000000E+00  0.00000000000E+00  0.16717241558E+04  0.16717241558E+04  0.50400001928E-02 0. -1.
       -1   -1    0    0    0  501  0.00000000000E+00  0.00000000000E+00 -0.21439032128E+03  0.21439032134E+03  0.50400001928E-02 0.  1.
    10030    2    1    2    0    0  0.00000000000E+00  0.00000000000E+00  0.14573338345E+04  0.18861144772E+04  0.11973328341E+04 0.  0.
        2    1    3    3  502    0 -0.12714006203E+03 -0.42865475961E+02  0.16477347611E+04  0.16531884004E+04  0.25500000920E-02 0. -1.
       -2    1    3    3    0  502  0.12714006203E+03  0.42865475961E+02 -0.19040092654E+03  0.23292607676E+03  0.25500000920E-02 0.  1.
</event>
<event>
 5   0  0.3883890E-04  0.1197829E+04  0.7818609E-02  0.9114759E-01
        2   -1    0    0  501    0  0.00000000000E+00  0.00000000000E+00  0.75089137293E+03  0.75089137294E+03  0.25500000920E-02 0.  1.
       -2   -1    0    0    0  501  0.00000000000E+00  0.00000000000E+00 -0.47769701577E+03  0.47769701578E+03  0.25500000920E-02 0. -1.
    10030    2    1    2    0    0  0.00000000000E+00  0.00000000000E+00  0.27319435717E+03  0.12285883887E+04  0.11978289828E+04 0.  0.
        2    1    3    3  502    0 -0.38420240485E+03 -0.41501417606E+03  0.33876352145E+03  0.65924879802E+03  0.25500000920E-02 0.  1.
       -2    1    3    3    0  502  0.38420240485E+03  0.41501417606E+03 -0.65569164281E+02  0.56933959069E+03  0.25500000920E-02 0. -1.
</event>
<event>
 5   0  0.2204090E-04  0.1199728E+04  0.7818609E-02  0.9113095E-01
       -1   -1    0    0    0  501  0.00000000000E+00  0.00000000000E+00  0.53204535430E+03  0.53204535433E+03  0.50400001928E-02 0. -1.
        1   -1    0    0  501    0  0.00000000000E+00  0.00000000000E+00 -0.67632744168E+03  0.67632744170E+03  0.50400001928E-02 0.  1.
    10030    2    1    2    0    0  0.00000000000E+00  0.00000000000E+00 -0.14428208738E+03  0.12083727960E+04  0.11997280915E+04 0.  0.
        2    1    3    3  502    0  0.24852334749E+02  0.22826503420E+03  0.48603107252E+03  0.53753955003E+03  0.25500000920E-02 0. -1.
       -2    1    3    3    0  502 -0.24852334749E+02 -0.22826503420E+03 -0.63031315990E+03  0.67083324599E+03  0.25500000920E-02 0.  1.
</event>
<event>
 5   0  0.2244308E-04  0.1198889E+04  0.7818609E-02  0.9113830E-01
       -1   -1    0    0    0  501  0.00000000000E+00  0.00000000000E+00  0.59508695551E+03  0.59508695553E+03  0.50400001928E-02 0. -1.
        1   -1    0    0  501    0  0.00000000000E+00  0.00000000000E+00 -0.60383381620E+03  0.60383381622E+03  0.50400001928E-02 0.  1.
    10030    2    1    2    0    0  0.00000000000E+00  0.00000000000E+00 -0.87468606887E+01  0.11989207717E+04  0.11988888645E+04 0.  0.
        5    1    3    3  502    0  0.39610490252E+03 -0.38259633487E+03 -0.24109155519E+03  0.60118738945E+03  0.46999998093E+01 0.  1.
       -5    1    3    3    0  502 -0.39610490252E+03  0.38259633487E+03  0.23234469450E+03  0.59773338230E+03  0.46999998093E+01 0. -1.
</event>
<event>
 5   0  0.2244308E-04  0.1199924E+04  0.7818609E-02  0.9112923E-01
        1   -1    0    0  501    0  0.00000000000E+00  0.00000000000E+00  0.50463167417E+03  0.50463167420E+03  0.50400001928E-02 0.  1.
       -1   -1    0    0    0  501  0.00000000000E+00  0.00000000000E+00 -0.71330161796E+03  0.71330161798E+03  0.50400001928E-02 0. -1.
    10030    2    1    2    0    0  0.00000000000E+00  0.00000000000E+00 -0.20866994379E+03  0.12179332922E+04  0.11999243138E+04 0.  0.
        5    1    3    3  502    0 -0.21481980219E+03 -0.64122155766E+02  0.46049993807E+03  0.51219281646E+03  0.46999998093E+01 0.  1.
       -5    1    3    3    0  502  0.21481980219E+03  0.64122155766E+02 -0.66916988186E+03  0.70574047571E+03  0.46999998093E+01 0. -1.
</event>
<event>
 5   0  0.3993723E-04  0.1200105E+04  0.7818609E-02  0.9112765E-01
        2   -1    0    0  501    0  0.00000000000E+00  0.00000000000E+00  0.88178257887E+03  0.88178257888E+03  0.25500000920E-02 0. -1.
       -2   -1    0    0    0  501  0.00000000000E+00  0.00000000000E+00 -0.40833533262E+03  0.40833533263E+03  0.25500000920E-02 0.  1.
    10030    2    1    2    0    0  0.00000000000E+00  0.00000000000E+00  0.47344724625E+03  0.12901179115E+04  0.12001049665E+04 0.  0.
        3    1    3    3  502    0  0.46318966792E+03  0.30433717261E+03 -0.10520780541E+02  0.55432524760E+03  0.10100000352E+00 0.  1.
       -3    1    3    3    0  502 -0.46318966792E+03 -0.30433717261E+03  0.48396802679E+03  0.73579266391E+03  0.10100000352E+00 0. -1.
</event>
<event>
 5   0  0.3993723E-04  0.1198824E+04  0.7818609E-02  0.9113887E-01
       -2   -1    0    0    0  501  0.00000000000E+00  0.00000000000E+00  0.59335830793E+03  0.59335830793E+03  0.25500000920E-02 0.  1.
        2   -1    0    0  501    0  0.00000000000E+00  0.00000000000E+00 -0.60552738696E+03  0.60552738697E+03  0.25500000920E-02 0. -1.
    10030    2    1    2    0    0  0.00000000000E+00  0.00000000000E+00 -0.12169079032E+02  0.11988856949E+04  0.11988239333E+04 0.  0.
        3    1    3    3  502    0  0.23011708896E+03  0.13190395231E+03  0.53147656472E+03  0.59398642772E+03  0.10100000352E+00 0.  1.
       -3    1    3    3    0  502 -0.23011708896E+03 -0.13190395231E+03 -0.54364564375E+03  0.60489926718E+03  0.10100000352E+00 0. -1.
</event>
<event>
 5   0  0.3832662E-04  0.1180353E+04  0.7818609E-02  0.9130229E-01
        2   -1    0    0  501    0  0.00000000000E+00  0.00000000000E+00  0.78252360452E+03  0.78252360452E+03  0.25500000920E-02 0.  1.
       -2   -1    0    0    0  501  0.00000000000E+00  0.00000000000E+00 -0.44510908555E+03  0.44510908556E+03  0.25500000920E-02 0. -1.
    10030    2    1    2    0    0  0.00000000000E+00  0.00000000000E+00  0.33741451897E+03  0.12276326901E+04  0.11803531099E+04 0.  0.
        4    1    3    3  502    0 -0.54708452209E+03 -0.10983019063E+03  0.36861070148E+03  0.66875975300E+03  0.12699999809E+01 0.  1.
       -4    1    3    3    0  502  0.54708452209E+03  0.10983019063E+03 -0.31196182515E+02  0.55887293707E+03  0.12699999809E+01 0. -1.
</event>
<event>
 5   0  0.3993723E-04  0.1208090E+04  0.7818609E-02  0.9105805E-01
       -2   -1    0    0    0  501  0.00000000000E+00  0.00000000000E+00  0.88232336943E+03  0.88232336944E+03  0.25500000920E-02 0. -1.
        2   -1    0    0  501    0  0.00000000000E+00  0.00000000000E+00 -0.41353333529E+03  0.41353333529E+03  0.25500000920E-02 0.  1.
    10030    2    1    2    0    0  0.00000000000E+00  0.00000000000E+00  0.46879003415E+03  0.12958567047E+04  0.12080896089E+04 0.  0.
        3    1    3    3  502    0 -0.52020072171E+02 -0.54411435641E+03 -0.41389810818E+02  0.54816023880E+03  0.10100000352E+00 0.  1.
       -3    1    3    3    0  502  0.52020072171E+02  0.54411435641E+03  0.51017984497E+03  0.74769646593E+03  0.10100000352E+00 0. -1.
</event>
<event>
 5   0  0.4024486E-04  0.1200638E+04  0.7818609E-02  0.9112298E-01
        2   -1    0    0  501    0  0.00000000000E+00  0.00000000000E+00  0.11657650874E+04  0.11657650874E+04  0.25500000920E-02 0. -1.
       -2   -1    0    0    0  501  0.00000000000E+00  0.00000000000E+00 -0.30913871096E+03  0.30913871097E+03  0.25500000920E-02 0.  1.
    10030    2    1    2    0    0  0.00000000000E+00  0.00000000000E+00  0.85662637645E+03  0.14749037984E+04  0.12006383576E+04 0.  0.
        1    1    3    3  502    0  0.42426035774E+03 -0.28291554011E+03  0.81744746201E+03  0.96346167913E+03  0.50400001928E-02 0.  1.
       -1    1    3    3    0  502 -0.42426035774E+03  0.28291554011E+03  0.39178914443E+02  0.51144211925E+03  0.50400001928E-02 0. -1.
</event>
<event>
 5   0  0.3993723E-04  0.1199028E+04  0.7818609E-02  0.9113707E-01
        2   -1    0    0  501    0  0.00000000000E+00  0.00000000000E+00  0.20742995797E+03  0.20742995799E+03  0.25500000920E-02 0.  1.
       -2   -1    0    0    0  501  0.00000000000E+00  0.00000000000E+00 -0.17327161022E+04  0.17327161022E+04  0.25500000920E-02 0. -1.
    10030    2    1    2    0    0  0.00000000000E+00  0.00000000000E+00 -0.15252861443E+04  0.19401460602E+04  0.11990283204E+04 0.  0.
        3    1    3    3  502    0 -0.35229585013E+03 -0.47115272311E+03 -0.94939130617E+03  0.11168890352E+04  0.10100000352E+00 0. -1.
       -3    1    3    3    0  502  0.35229585013E+03  0.47115272311E+03 -0.57589483809E+03  0.82325702502E+03  0.10100000352E+00 0.  1.
</event>
<event>
 5   0  0.4122956E-04  0.1202792E+04  0.7818609E-02  0.9110416E-01
       -2   -1    0    0    0  501  0.00000000000E+00  0.00000000000E+00  0.50000919456E+03  0.50000919456E+03  0.25500000920E-02 0. -1.
        2   -1    0    0  501    0  0.00000000000E+00  0.00000000000E+00 -0.72334071747E+03  0.72334071747E+03  0.25500000920E-02 0.  1.
    10030    2    1    2    0    0  0.00000000000E+00  0.00000000000E+00 -0.22333152291E+03  0.12233499120E+04  0.12027917684E+04 0.  0.
        5    1    3    3  502    0  0.23799965984E+03  0.44976335421E+03 -0.43764971533E+03  0.67118572407E+03  0.46999998093E+01 0.  1.
       -5    1    3    3    0  502 -0.23799965984E+03 -0.44976335421E+03  0.21431819242E+03  0.55216418796E+03  0.46999998093E+01 0. -1.
</event>
<event>
 5   0  0.2340731E-04  0.1199684E+04  0.7818609E-02  0.9113133E-01
        1   -1    0    0  501    0  0.00000000000E+00  0.00000000000E+00  0.29124584216E+03  0.29124584220E+03  0.50400001928E-02 0. -1.
       -1   -1    0    0    0  501  0.00000000000E+00  0.00000000000E+00 -0.12354192105E+04  0.12354192105E+04  0.50400001928E-02 0.  1.
    10030    2    1    2    0    0  0.00000000000E+00  0.00000000000E+00 -0.94417336831E+03  0.15266650527E+04  0.11996844725E+04 0.  0.
        3    1    3    3  502    0 -0.13004288696E+03 -0.54875342086E+03 -0.73216548555E+03  0.92417951600E+03  0.10100000352E+00 0. -1.
       -3    1    3    3    0  502  0.13004288696E+03  0.54875342086E+03 -0.21200788276E+03  0.60248553668E+03  0.10100000352E+00 0.  1.
</event>
<event>
 5   0  0.2315038E-04  0.1201156E+04  0.7818609E-02  0.9111846E-01
        1   -1    0    0  501    0  0.00000000000E+00  0.00000000000E+00  0.10230530655E+04  0.10230530655E+04  0.50400001928E-02 0. -1.
       -1   -1    0    0    0  501  0.00000000000E+00  0.00000000000E+00 -0.35256601631E+03  0.35256601635E+03  0.50400001928E-02 0.  1.
    10030    2    1    2    0    0  0.00000000000E+00  0.00000000000E+00  0.67048704916E+03  0.13756190818E+04  0.12011556832E+04 0.  0.
        1    1    3    3  502    0  0.10539693898E+03 -0.57898403341E+03  0.19799198991E+03  0.62091211438E+03  0.50400001928E-02 0.  1.
       -1    1    3    3    0  502 -0.10539693898E+03  0.57898403341E+03  0.47249505925E+03  0.75470696746E+03  0.50400001928E-02 0. -1.
</event>
<event>
 5   0  0.2340731E-04  0.1218319E+04  0.7818609E-02  0.9096971E-01
       -1   -1    0    0    0  501  0.00000000000E+00  0.00000000000E+00  0.11347468426E+04  0.11347468426E+04  0.50400001928E-02 0. -1.
        1   -1    0    0  501    0  0.00000000000E+00  0.00000000000E+00 -0.32701172493E+03  0.32701172497E+03  0.50400001928E-02 0.  1.
    10030    2    1    2    0    0  0.00000000000E+00  0.00000000000E+00  0.80773511765E+03  0.14617585676E+04  0.12183193709E+04 0.  0.
        3    1    3    3  502    0  0.37525339108E+03  0.47985387995E+03  0.40484123781E+03  0.73141731703E+03  0.10100000352E+00 0. -1.
       -3    1    3    3    0  502 -0.37525339108E+03 -0.47985387995E+03  0.40289387984E+03  0.73034125054E+03  0.10100000352E+00 0.  1.
</event>
<event>
 5   0  0.2304842E-04  0.1200019E+04  0.7818609E-02  0.9112840E-01
       -1   -1    0    0    0  501  0.00000000000E+00  0.00000000000E+00  0.77084493454E+03  0.77084493456E+03  0.50400001928E-02 0.  1.
        1   -1    0    0  501    0  0.00000000000E+00  0.00000000000E+00 -0.46703452269E+03  0.46703452272E+03  0.50400001928E-02 0. -1.
    10030    2    1    2    0    0  0.00000000000E+00  0.00000000000E+00  0.30381041186E+03  0.12378794573E+04  0.12000186600E+04 0.  0.
        4    1    3    3  502    0  0.26034402099E+03  0.52038404322E+03  0.30291732174E+03  0.65600234635E+03  0.12699999809E+01 0.  1.
       -4    1    3    3    0  502 -0.26034402099E+03 -0.52038404322E+03  0.89309011220E+00  0.58187711092E+03  0.12699999809E+01 0. -1.
</event>
<event>
 5   0  0.2304842E-04  0.1201672E+04  0.7818609E-02  0.9111394E-01
       -1   -1    0    0    0  501  0.00000000000E+00  0.00000000000E+00  0.30318683706E+03  0.30318683710E+03  0.50400001928E-02 0. -1.
        1   -1    0    0  501    0  0.00000000000E+00  0.00000000000E+00 -0.11906976701E+04  0.11906976701E+04  0.50400001928E-02 0.  1.
    10030    2    1    2    0    0  0.00000000000E+00  0.00000000000E+00 -0.88751083304E+03  0.14938845072E+04  0.12016719361E+04 0.  0.
        4    1    3    3  502    0 -0.55256694009E+03 -0.23362916416E+03 -0.40272250215E+03  0.72256476268E+03  0.12699999809E+01 0.  1.
       -4    1    3    3    0  502  0.55256694009E+03  0.23362916416E+03 -0.48478833089E+03  0.77131974453E+03  0.12699999809E+01 0. -1.
</event>
<event>
 5   0  0.3832662E-04  0.1202131E+04  0.7818609E-02  0.9110993E-01
       -2   -1    0    0    0  501  0.00000000000E+00  0.00000000000E+00  0.49280266255E+03  0.49280266256E+03  0.25500000920E-02 0.  1.
        2   -1    0    0  501    0  0.00000000000E+00  0.00000000000E+00 -0.73311242497E+03  0.73311242497E+03  0.25500000920E-02 0. -1.
    10030    2    1    2    0    0  0.00000000000E+00  0.00000000000E+00 -0.24030976242E+03  0.12259150875E+04  0.12021310328E+04 0.  0.
        4    1    3    3  502    0  0.22852117548E+03  0.13656596451E+03 -0.66971010184E+03  0.72068399713E+03  0.12699999809E+01 0. -1.
       -4    1    3    3    0  502 -0.22852117548E+03 -0.13656596451E+03  0.42940033943E+03  0.50523109040E+03  0.12699999809E+01 0.  1.
</event>
<event>
 5   0  0.4122956E-04  0.1199348E+04  0.7818609E-02  0.9113427E-01
        2   -1    0    0  501    0  0.00000000000E+00  0.00000000000E+00  0.11069539412E+04  0.11069539412E+04  0.25500000920E-02 0.  1.
       -2   -1    0    0    0  501  0.00000000000E+00  0.00000000000E+00 -0.32486374186E+03  0.32486374187E+03  0.25500000920E-02 0. -1.
    10030    2    1    2    0    0  0.00000000000E+00  0.00000000000E+00  0.78209019938E+03  0.14318176831E+04  0.11993484888E+04 0.  0.
        5    1    3    3  502    0 -0.27294810330E+03 -0.36352618869E+03  0.85791512288E+03  0.97092348052E+03  0.46999998093E+01 0.  1.
       -5    1    3    3    0  502  0.27294810330E+03  0.36352618869E+03 -0.75824923499E+02  0.46089420259E+03  0.46999998093E+01 0. -1.
</event>
<event>
 5   0  0.2304842E-04  0.1198227E+04  0.7818609E-02  0.9114410E-01
        1   -1    0    0  501    0  0.00000000000E+00  0.00000000000E+00  0.62485430769E+03  0.62485430771E+03  0.50400001928E-02 0.  1.
       -1   -1    0    0    0  501  0.00000000000E+00  0.00000000000E+00 -0.57443267814E+03  0.57443267817E+03  0.50400001928E-02 0. -1.
    10030    2    1    2    0    0  0.00000000000E+00  0.00000000000E+00  0.50421629542E+02  0.11992869859E+04  0.11982265786E+04 0.  0.
        4    1    3    3  502    0  0.35599456521E+03  0.32760843656E+03  0.37890111053E+03  0.61451369604E+03  0.12699999809E+01 0.  1.
       -4    1    3    3    0  502 -0.35599456521E+03 -0.32760843656E+03 -0.32847948099E+03  0.58477328983E+03  0.12699999809E+01 0. -1.
</event>
<event>
 5   0  0.3993723E-04  0.1199397E+04  0.7818609E-02  0.9113384E-01
       -2   -1    0    0    0  501  0.00000000000E+00  0.00000000000E+00  0.64141898640E+03  0.64141898640E+03  0.25500000920E-02 0. -1.
        2   -1    0    0  501    0  0.00000000000E+00  0.00000000000E+00 -0.56069186248E+03  0.56069186248E+03  0.25500000920E-02 0.  1.
    10030    2    1    2    0    0  0.00000000000E+00  0.00000000000E+00  0.80727123920E+02  0.12021108489E+04  0.11993971921E+04 0.  0.
        3    1    3    3  502    0  0.77462367723E+02 -0.26416406587E+03 -0.49362261010E+03  0.56519586297E+03  0.10100000352E+00 0.  1.
       -3    1    3    3    0  502 -0.77462367723E+02  0.26416406587E+03  0.57434973402E+03  0.63691498592E+03  0.10100000352E+00 0. -1.
</event>
<event>
 5   0  0.4024486E-04  0.1197816E+04  0.7818609E-02  0.9114770E-01
        2   -1    0    0  501    0  0.00000000000E+00  0.00000000000E+00  0.75254234218E+03  0.75254234219E+03  0.25500000920E-02 0.  1.
       -2   -1    0    0    0  501  0.00000000000E+00  0.00000000000E+00 -0.47663875394E+03  0.47663875394E+03  0.25500000920E-02 0. -1.
    10030    2    1    2    0    0  0.00000000000E+00  0.00000000000E+00  0.27590358825E+03  0.12291810961E+04  0.11978160865E+04 0.  0.
        1    1    3    3  502    0  0.11020642516E+03  0.18055299678E+03 -0.43702883091E+03  0.48552964880E+03  0.50400001928E-02 0. -1.
       -1    1    3    3    0  502 -0.11020642516E+03 -0.18055299678E+03  0.71293241916E+03  0.74365144732E+03  0.50400001928E-02 0.  1.
</event>
<event>
 5   0  0.3883890E-04  0.1202299E+04  0.7818609E-02  0.9110847E-01
        2   -1    0    0  501    0  0.00000000000E+00  0.00000000000E+00  0.23422477214E+04  0.23422477214E+04  0.25500000920E-02 0.  1.
       -2   -1    0    0    0  501  0.00000000000E+00  0.00000000000E+00 -0.15428788981E+03  0.15428788984E+03  0.25500000920E-02 0. -1.
    10030    2    1    2    0    0  0.00000000000E+00  0.00000000000E+00  0.21879598316E+04  0.24965356113E+04  0.12022985626E+04 0.  0.
        2    1    3    3  502    0 -0.11307738359E+03  0.30575197331E+03  0.21427708360E+04  0.21674264969E+04  0.25500000920E-02 0.  1.
       -2    1    3    3    0  502  0.11307738359E+03 -0.30575197331E+03  0.45188995676E+02  0.32910911442E+03  0.25500000920E-02 0. -1.
</event>
<event>
 5   0  0.1541375E-04  0.1198989E+04  0.7818609E-02  0.9113742E-01
        4   -1    0    0  501    0  0.00000000000E+00  0.00000000000E+00  0.65137111487E+03  0.65137235295E+03  0.12699999809E+01 0. -1.
       -4   -1    0    0    0  501  0.00000000000E+00  0.00000000000E+00 -0.55174681058E+03  0.55174827221E+03  0.12699999809E+01 0.  1.
    10030    2    1    2    0    0  0.00000000000E+00  0.00000000000E+00  0.99624304287E+02  0.12031206252E+04  0.11989888393E+04 0.  0.
        4    1    3    3  502    0 -0.48495927201E+03  0.29499420192E+03 -0.14368615710E+03  0.58553770102E+03  0.12699999809E+01 0.  1.
       -4    1    3    3    0  502  0.48495927201E+03 -0.29499420192E+03  0.24331046138E+03  0.61758292414E+03  0.12699999809E+01 0. -1.
</event>
<event>
 5   0  0.2304842E-04  0.1200923E+04  0.7818609E-02  0.9112049E-01
        1   -1    0    0  501    0  0.00000000000E+00  0.00000000000E+00  0.18896892666E+04  0.18896892666E+04  0.50400001928E-02 0. -1.
       -1   -1    0    0    0  501  0.00000000000E+00  0.00000000000E+00 -0.19080077560E+03  0.19080077567E+03  0.50400001928E-02 0.  1.
    10030    2    1    2    0    0  0.00000000000E+00  0.00000000000E+00  0.16988884910E+04  0.20804900422E+04  0.12009232745E+04 0.  0.
        4    1    3    3  502    0 -0.17199872585E+03  0.40357592779E+03  0.13916620246E+03  0.46024551708E+03  0.12699999809E+01 0.  1.
       -4    1    3    3    0  502  0.17199872585E+03 -0.40357592779E+03  0.15597222885E+04  0.16202445252E+04  0.12699999809E+01 0. -1.
</event>
<event>
 5   0  0.4122956E-04  0.1198368E+04  0.7818609E-02  0.9114287E-01
        2   -1    0    0  501    0  0.00000000000E+00  0.00000000000E+00  0.14683204736E+04  0.14683204736E+04  0.25500000920E-02 0. -1.
       -2   -1    0    0    0  501  0.00000000000E+00  0.00000000000E+00 -0.24451151476E+03  0.24451151477E+03  0.25500000920E-02 0.  1.
    10030    2    1    2    0    0  0.00000000000E+00  0.00000000000E+00  0.12238089588E+04  0.17128319884E+04  0.11983676617E+04 0.  0.
        5    1    3    3  502    0 -0.37339488016E+02  0.32006130528E+03 -0.11009324513E+03  0.34055262314E+03  0.46999998093E+01 0.  1.
       -5    1    3    3    0  502  0.37339488016E+02 -0.32006130528E+03  0.13339022040E+04  0.13722793653E+04  0.46999998093E+01 0. -1.
</event>
<event>
 5   0  0.1541375E-04  0.1199270E+04  0.7818609E-02  0.9113496E-01
       -4   -1    0    0    0  501  0.00000000000E+00  0.00000000000E+00  0.12989325266E+04  0.12989331474E+04  0.12699999809E+01 0.  1.
        4   -1    0    0  501    0  0.00000000000E+00  0.00000000000E+00 -0.27681141187E+03  0.27681432521E+03  0.12699999809E+01 0. -1.
    10030    2    1    2    0    0  0.00000000000E+00  0.00000000000E+00  0.10221211147E+04  0.15757474727E+04  0.11992699965E+04 0.  0.
        2    1    3    3  502    0  0.27556401957E+03 -0.27466294719E+03  0.11105703979E+04  0.11767505565E+04  0.25500000920E-02 0.  1.
       -2    1    3    3    0  502 -0.27556401957E+03  0.27466294719E+03 -0.88449283169E+02  0.39899691620E+03  0.25500000920E-02 0. -1.
</event>
<event>
 5   0  0.2244308E-04  0.1200492E+04  0.7818609E-02  0.9112426E-01
       -1   -1    0    0    0  501  0.00000000000E+00  0.00000000000E+00  0.38116558275E+03  0.38116558279E+03  0.50400001928E-02 0.  1.
        1   -1    0    0  501    0  0.00000000000E+00  0.00000000000E+00 -0.94524620860E+03  0.94524620861E+03  0.50400001928E-02 0. -1.
    10030    2    1    2    0    0  0.00000000000E+00  0.00000000000E+00 -0.56408062584E+03  0.13264117914E+04  0.12004921024E+04 0.  0.
        5    1    3    3  502    0  0.24777888868E+03  0.46303201779E+03 -0.60318189729E+03  0.79977716796E+03  0.46999998093E+01 0. -1.
       -5    1    3    3    0  502 -0.24777888868E+03 -0.46303201779E+03  0.39101271447E+02  0.52663462344E+03  0.46999998093E+01 0.  1.
</event>
<event>
 5   0  0.2304842E-04  0.1199337E+04  0.7818609E-02  0.9113437E-01
       -1   -1    0    0    0  501  0.00000000000E+00  0.00000000000E+00  0.29072514680E+03  0.29072514684E+03  0.50400001928E-02 0.  1.
        1   -1    0    0  501    0  0.00000000000E+00  0.00000000000E+00 -0.12369149693E+04  0.12369149693E+04  0.50400001928E-02 0. -1.
    10030    2    1    2    0    0  0.00000000000E+00  0.00000000000E+00 -0.94618982252E+03  0.15276401162E+04  0.11993369603E+04 0.  0.
        4    1    3    3  502    0  0.70756745714E+02  0.37724166938E+02  0.28386413070E+03  0.29497472338E+03  0.12699999809E+01 0.  1.
       -4    1    3    3    0  502 -0.70756745714E+02 -0.37724166938E+02 -0.12300539532E+04  0.12326653928E+04  0.12699999809E+01 0. -1.
</event>
<event>
 5   0  0.2340731E-04  0.1200902E+04  0.7818609E-02  0.9112067E-01
        1   -1    0    0  501    0  0.00000000000E+00  0.00000000000E+00  0.50940643880E+03  0.50940643882E+03  0.50400001928E-02 0.  1.
       -1   -1    0    0    0  501  0.00000000000E+00  0.00000000000E+00 -0.70776768106E+03  0.70776768108E+03  0.50400001928E-02 0. -1.
    10030    2    1    2    0    0  0.00000000000E+00  0.00000000000E+00 -0.19836124226E+03  0.12171741199E+04  0.12009020175E+04 0.  0.
        3    1    3    3  502    0  0.18297891385E+03  0.54583472411E+03 -0.27215227256E+03  0.63677601919E+03  0.10100000352E+00 0. -1.
       -3    1    3    3    0  502 -0.18297891385E+03 -0.54583472411E+03  0.73791030292E+02  0.58039810071E+03  0.10100000352E+00 0.  1.
</event>
<event>
 5   0  0.1541375E-04  0.1202359E+04  0.7818609E-02  0.9110794E-01
       -3   -1    0    0    0  501  0.00000000000E+00  0.00000000000E+00  0.54899242778E+03  0.54899243707E+03  0.10100000352E+00 0.  1.
        3   -1    0    0  501    0  0.00000000000E+00  0.00000000000E+00 -0.65832787210E+03  0.65832787985E+03  0.10100000352E+00 0. -1.
    10030    2    1    2    0    0  0.00000000000E+00  0.00000000000E+00 -0.10933544432E+03  0.12073203169E+04  0.12023593923E+04 0.  0.
        1    1    3    3  502    0  0.35122610240E+03 -0.29235812696E+03  0.33756396394E+03  0.56813948919E+03  0.50400001928E-02 0.  1.
       -1    1    3    3    0  502 -0.35122610240E+03  0.29235812696E+03 -0.44689940826E+03  0.63918082772E+03  0.50400001928E-02 0. -1.
</event>
<event>
 5   0  0.2244308E-04  0.1199882E+04  0.7818609E-02  0.9112960E-01
       -1   -1    0    0    0  501  0.00000000000E+00  0.00000000000E+00  0.50236702196E+03  0.50236702199E+03  0.50400001928E-02 0. -1.
        1   -1    0    0  501    0  0.00000000000E+00  0.00000000000E+00 -0.71646664606E+03  0.71646664608E+03  0.50400001928E-02 0.  1.
    10030    2    1    2    0    0  0.00000000000E+00  0.00000000000E+00 -0.21409962410E+03  0.12188336681E+04  0.11998820198E+04 0.  0.
        5    1    3    3  502    0 -0.43731457110E+01  0.76867717491E+01 -0.71638172759E+03  0.71645172935E+03  0.46999998093E+01 0.  1.
       -5    1    3    3    0  502  0.43731457110E+01 -0.76867717491E+01  0.50228210349E+03  0.50238193872E+03  0.46999998093E+01 0. -1.
</event>
<event>
 5   0  0.2304842E-04  0.1200071E+04  0.7818609E-02  0.9112794E-01
        1   -1    0    0  501    0  0.00000000000E+00  0.00000000000E+00  0.26304182420E+03  0.26304182425E+03  0.50400001928E-02 0. -1.
       -1   -1    0    0    0  501  0.00000000000E+00  0.00000000000E+00 -0.13687665715E+04  0.13687665715E+04  0.50400001928E-02 0.  1.
    10030    2    1    2    0    0  0.00000000000E+00  0.00000000000E+00 -0.11057247472E+04  0.16318083957E+04  0.12000714244E+04 0.  0.
        4    1    3    3  502    0 -0.43418480842E+03 -0.93932151074E+02 -0.43860199984E+01  0.44425279621E+03  0.12699999809E+01 0. -1.
       -4    1    3    3    0  502  0.43418480842E+03  0.93932151074E+02 -0.11013387273E+04  0.11875555995E+04  0.12699999809E+01 0.  1.
</event>
<event>
 5   0  0.1541375E-04  0.1198841E+04  0.7818609E-02  0.9113871E-01
       -3   -1    0    0    0  501  0.00000000000E+00  0.00000000000E+00  0.15737729188E+04  0.15737729221E+04  0.10100000352E+00 0.  1.
        3   -1    0    0  501    0  0.00000000000E+00  0.00000000000E+00 -0.22830809189E+03  0.22830811423E+03  0.10100000352E+00 0. -1.
    10030    2    1    2    0    0  0.00000000000E+00  0.00000000000E+00  0.13454648270E+04  0.18020810363E+04  0.11988412993E+04 0.  0.
        2    1    3    3  502    0 -0.12647404438E+03 -0.46295910892E+03  0.12125797167E+04  0.13040998389E+04  0.25500000920E-02 0.  1.
       -2    1    3    3    0  502  0.12647404438E+03  0.46295910892E+03  0.13288511024E+03  0.49798119740E+03  0.25500000920E-02 0. -1.
</event>
<event>
 5   0  0.4024486E-04  0.1200527E+04  0.7818609E-02  0.9112395E-01
        2   -1    0    0  501    0  0.00000000000E+00  0.00000000000E+00  0.15945062900E+04  0.15945062900E+04  0.25500000920E-02 0. -1.
       -2   -1    0    0    0  501  0.00000000000E+00  0.00000000000E+00 -0.22597356453E+03  0.22597356455E+03  0.25500000920E-02 0.  1.
    10030    2    1    2    0    0  0.00000000000E+00  0.00000000000E+00  0.13685327255E+04  0.18204798546E+04  0.12005270010E+04 0.  0.
        1    1    3    3  502    0  0.42828893472E+03  0.11713606031E+03  0.12967946072E+04  0.13707036593E+04  0.50400001928E-02 0. -1.
       -1    1    3    3    0  502 -0.42828893472E+03 -0.11713606031E+03  0.71738118290E+02  0.44977619531E+03  0.50400001928E-02 0.  1.
</event>
<event>
 5   0  0.2315038E-04  0.1199336E+04  0.7818609E-02  0.9113438E-01
        1   -1    0    0  501    0  0.00000000000E+00  0.00000000000E+00  0.11533779387E+04  0.11533779387E+04  0.50400001928E-02 0.  1.
       -1   -1    0    0    0  501  0.00000000000E+00  0.00000000000E+00 -0.31178123557E+03  0.31178123561E+03  0.50400001928E-02 0. -1.
    10030    2    1    2    0    0  0.00000000000E+00  0.00000000000E+00  0.84159670313E+03  0.14651591743E+04  0.11993358143E+04 0.  0.
        1    1    3    3  502    0  0.16064452176E+03 -0.54318340852E+03  0.66126867352E+03  0.87070726210E+03  0.50400001928E-02 0.  1.
       -1    1    3    3    0  502 -0.16064452176E+03  0.54318340852E+03  0.18032802962E+03  0.59445191223E+03  0.50400001928E-02 0. -1.
</event>
<event>
 5   0  0.3832662E-04  0.1197333E+04  0.7818609E-02  0.9115195E-01
       -2   -1    0    0    0  501  0.00000000000E+00  0.00000000000E+00  0.40182608344E+03  0.40182608344E+03  0.25500000920E-02 0.  1.
        2   -1    0    0  501    0  0.00000000000E+00  0.00000000000E+00 -0.89193146622E+03  0.89193146622E+03  0.25500000920E-02 0. -1.
    10030    2    1    2    0    0  0.00000000000E+00  0.00000000000E+00 -0.49010538278E+03  0.12937575497E+04  0.11973325817E+04 0.  0.
        4    1    3    3  502    0 -0.15483493744E+03  0.18017098979E+03  0.34871406188E+03  0.42194614973E+03  0.12699999809E+01 0.  1.
       -4    1    3    3    0  502  0.15483493744E+03 -0.18017098979E+03 -0.83881944466E+03  0.87181139994E+03  0.12699999809E+01 0. -1.
</event>
<event>
 5   0  0.4122956E-04  0.1200339E+04  0.7818609E-02  0.9112560E-01
        2   -1    0    0  501    0  0.00000000000E+00  0.00000000000E+00  0.80011876601E+03  0.80011876601E+03  0.25500000920E-02 0.  1.
       -2   -1    0    0    0  501  0.00000000000E+00  0.00000000000E+00 -0.45018735125E+03  0.45018735126E+03  0.25500000920E-02 0. -1.
    10030    2    1    2    0    0  0.00000000000E+00  0.00000000000E+00  0.34993141476E+03  0.12503061173E+04  0.12003388654E+04 0.  0.
        5    1    3    3  502    0 -0.41981617672E+02 -0.16706588614E+03  0.77379541707E+03  0.79275147683E+03  0.46999998093E+01 0.  1.
       -5    1    3    3    0  502  0.41981617672E+02  0.16706588614E+03 -0.42386400232E+03  0.45755464044E+03  0.46999998093E+01 0. -1.
</event>
<event>
 5   0  0.1541375E-04  0.1190732E+04  0.7818609E-02  0.9121008E-01
        4   -1    0    0  501    0  0.00000000000E+00  0.00000000000E+00  0.44679998237E+03  0.44680178732E+03  0.12699999809E+01 0.  1.
       -4   -1    0    0    0  501  0.00000000000E+00  0.00000000000E+00 -0.79332786001E+03  0.79332887655E+03  0.12699999809E+01 0. -1.
    10030    2    1    2    0    0  0.00000000000E+00  0.00000000000E+00 -0.34652787764E+03  0.12401306639E+04  0.11907319150E+04 0.  0.
        5    1    3    3  502    0  0.53823314928E+03 -0.41970810658E+02 -0.43463763995E+03  0.69310059875E+03  0.46999998093E+01 0. -1.
       -5    1    3    3    0  502 -0.53823314928E+03  0.41970810658E+02  0.88109762311E+02  0.54703006512E+03  0.46999998093E+01 0.  1.
</event>
<event>
 5   0  0.2315038E-04  0.1199779E+04  0.7818609E-02  0.9113050E-01
        1   -1    0    0  501    0  0.00000000000E+00  0.00000000000E+00  0.65306631981E+03  0.65306631983E+03  0.50400001928E-02 0.  1.
       -1   -1    0    0    0  501  0.00000000000E+00  0.00000000000E+00 -0.55104253515E+03  0.55104253517E+03  0.50400001928E-02 0. -1.
    10030    2    1    2    0    0  0.00000000000E+00  0.00000000000E+00  0.10202378466E+03  0.12041088550E+04  0.11997788471E+04 0.  0.
        1    1    3    3  502    0 -0.16816597267E+03  0.26339506108E+03 -0.46290115644E+03  0.55851072794E+03  0.50400001928E-02 0. -1.
       -1    1    3    3    0  502  0.16816597267E+03 -0.26339506108E+03  0.56492494110E+03  0.64559812706E+03  0.50400001928E-02 0.  1.
</event>
<event>
 5   0  0.3883890E-04  0.1200378E+04  0.7818609E-02  0.9112525E-01
        2   -1    0    0  501    0  0.00000000000E+00  0.00000000000E+00  0.10017925340E+04  0.10017925340E+04  0.25500000920E-02 0.  1.
       -2   -1    0    0    0  501  0.00000000000E+00  0.00000000000E+00 -0.35958255971E+03  0.35958255972E+03  0.25500000920E-02 0. -1.
    10030    2    1    2    0    0  0.00000000000E+00  0.00000000000E+00  0.64220997428E+03  0.13613750937E+04  0.12003784798E+04 0.  0.
        2    1    3    3  502    0  0.94938339094E+02  0.13108013012E+03 -0.33436608494E+03  0.37147808483E+03  0.25500000920E-02 0. -1.
       -2    1    3    3    0  502 -0.94938339094E+02 -0.13108013012E+03  0.97657605922E+03  0.98989700888E+03  0.25500000920E-02 0.  1.
</event>
<event>
 5   0  0.2340731E-04  0.1184582E+04  0.7818609E-02  0.9126460E-01
       -1   -1    0    0    0  501  0.00000000000E+00  0.00000000000E+00  0.61146427276E+03  0.61146427278E+03  0.50400001928E-02 0. -1.
        1   -1    0    0  501    0  0.00000000000E+00  0.00000000000E+00 -0.57371922416E+03  0.57371922418E+03  0.50400001928E-02 0.  1.
    10030    2    1    2    0    0  0.00000000000E+00  0.00000000000E+00  0.37745048600E+02  0.11851834970E+04  0.11845823031E+04 0.  0.
        3    1    3    3  502    0  0.25359298987E+03  0.28554477831E+03 -0.43408627099E+03  0.57816617490E+03  0.10100000352E+00 0.  1.
       -3    1    3    3    0  502 -0.25359298987E+03 -0.28554477831E+03  0.47183131959E+03  0.60701732206E+03  0.10100000352E+00 0. -1.
</event>
<event>
 5   0  0.2340731E-04  0.1199848E+04  0.7818609E-02  0.9112990E-01
        1   -1    0    0  501    0  0.00000000000E+00  0.00000000000E+00  0.84669290817E+03  0.84669290819E+03  0.50400001928E-02 0. -1.
       -1   -1    0    0    0  501  0.00000000000E+00  0.00000000000E+00 -0.42507599695E+03  0.42507599698E+03  0.50400001928E-02 0.  1.
    10030    2    1    2    0    0  0.00000000000E+00  0.00000000000E+00  0.42161691122E+03  0.12717689052E+04  0.11998480438E+04 0.  0.
        3    1    3    3  502    0 -0.57570476590E+03  0.15251572732E+03  0.28732858814E+03  0.66125241196E+03  0.10100000352E+00 0.  1.
       -3    1    3    3    0  502  0.57570476590E+03 -0.15251572732E+03  0.13428832308E+03  0.61051649321E+03  0.10100000352E+00 0. -1.
</event>
<event>
 5   0  0.3883890E-04  0.1199598E+04  0.7818609E-02  0.9113209E-01
       -2   -1    0    0    0  501  0.00000000000E+00  0.00000000000E+00  0.31812483598E+03  0.31812483599E+03  0.25500000920E-02 0.  1.
        2   -1    0    0  501    0  0.00000000000E+00  0.00000000000E+00 -0.11308731096E+04  0.11308731096E+04  0.25500000920E-02 0. -1.
    10030    2    1    2    0    0  0.00000000000E+00  0.00000000000E+00 -0.81274827364E+03  0.14489979456E+04  0.11995979702E+04 0.  0.
        2    1    3    3  502    0  0.27740112820E+03  0.38703933987E+02 -0.10470291106E+04  0.10838447024E+04  0.25500000920E-02 0. -1.
       -2    1    3    3    0  502 -0.27740112820E+03 -0.38703933987E+02  0.23428083699E+03  0.36515324320E+03  0.25500000920E-02 0.  1.
</event>
<event>
 5   0  0.2340731E-04  0.1200120E+04  0.7818609E-02  0.9112751E-01
        1   -1    0    0  501    0  0.00000000000E+00  0.00000000000E+00  0.20431332241E+04  0.20431332241E+04  0.50400001928E-02 0.  1.
       -1   -1    0    0    0  501  0.00000000000E+00  0.00000000000E+00 -0.17623530533E+03  0.17623530541E+03  0.50400001928E-02 0. -1.
    10030    2    1    2    0    0  0.00000000000E+00  0.00000000000E+00  0.18668979187E+04  0.22193685295E+04  0.12001203401E+04 0.  0.
        3    1    3    3  502    0 -0.86835231526E+02 -0.50885186647E+03  0.14992272838E+04  0.15856080973E+04  0.10100000352E+00 0.  1.
       -3    1    3    3    0  502  0.86835231526E+02  0.50885186647E+03  0.36767063495E+03  0.63376043222E+03  0.10100000352E+00 0. -1.
</event>
<event>
 5   0  0.3993723E-04  0.1200490E+04  0.7818609E-02  0.9112428E-01
        2   -1    0    0  501    0  0.00000000000E+00  0.00000000000E+00  0.42319296300E+03  0.42319296300E+03  0.25500000920E-02 0. -1.
       -2   -1    0    0    0  501  0.00000000000E+00  0.00000000000E+00 -0.85137011268E+03  0.85137011268E+03  0.25500000920E-02 0.  1.
    10030    2    1    2    0    0  0.00000000000E+00  0.00000000000E+00 -0.42817714968E+03  0.12745630757E+04  0.12004896344E+04 0.  0.
        3    1    3    3  502    0  0.12005111051E+03  0.55705506251E+03 -0.41432924492E+03  0.70455045611E+03  0.10100000352E+00 0.  1.
       -3    1    3    3    0  502 -0.12005111051E+03 -0.55705506251E+03 -0.13847904758E+02  0.57001261957E+03  0.10100000352E+00 0. -1.
</event>
<event>
 5   0  0.3993723E-04  0.1201271E+04  0.7818609E-02  0.9111745E-01
        2   -1    0    0  501    0  0.00000000000E+00  0.00000000000E+00  0.13629716842E+04  0.13629716842E+04  0.25500000920E-02 0.  1.
       -2   -1    0    0    0  501  0.00000000000E+00  0.00000000000E+00 -0.26468855501E+03  0.26468855502E+03  0.25500000920E-02 0. -1.
    10030    2    1    2    0    0  0.00000000000E+00  0.00000000000E+00  0.10982831292E+04  0.16276602393E+04  0.12012710030E+04 0.  0.
        3    1    3    3  502    0 -0.40541704692E+01 -0.31360156624E+03  0.12432146223E+04  0.12821641806E+04  0.10100000352E+00 0.  1.
       -3    1    3    3    0  502  0.40541704692E+01  0.31360156624E+03 -0.14493149311E+03  0.34549605865E+03  0.10100000352E+00 0. -1.
</event>
<event>
 5   0  0.3883890E-04  0.1199981E+04  0.7818609E-02  0.9112873E-01
       -2   -1    0    0    0  501  0.00000000000E+00  0.00000000000E+00  0.23259630599E+03  0.23259630600E+03  0.25500000920E-02 0.  1.
        2   -1    0    0  501    0  0.00000000000E+00  0.00000000000E+00 -0.15476982239E+04  0.15476982239E+04  0.25500000920E-02 0. -1.
    10030    2    1    2    0    0  0.00000000000E+00  0.00000000000E+00 -0.13151019180E+04  0.17802945300E+04  0.11999814827E+04 0.  0.
        2    1    3    3  502    0  0.26879154001E+03  0.19954873782E+03 -0.13962599017E+04  0.14358308757E+04  0.25500000920E-02 0. -1.
       -2    1    3    3    0  502 -0.26879154001E+03 -0.19954873782E+03  0.81157983701E+02  0.34446365421E+03  0.25500000920E-02 0.  1.
</event>
<event>
 5   0  0.2304842E-04  0.1197180E+04  0.7818609E-02  0.9115329E-01
        1   -1    0    0  501    0  0.00000000000E+00  0.00000000000E+00  0.16937767624E+04  0.16937767624E+04  0.50400001928E-02 0.  1.
       -1   -1    0    0    0  501  0.00000000000E+00  0.00000000000E+00 -0.21154496871E+03  0.21154496877E+03  0.50400001928E-02 0. -1.
    10030    2    1    2    0    0  0.00000000000E+00  0.00000000000E+00  0.14822317937E+04  0.19053217312E+04  0.11971799401E+04 0.  0.
        4    1    3    3  502    0  0.41569966693E+03  0.62954395740E+02  0.63015959995E+02  0.42513773432E+03  0.12699999809E+01 0. -1.
       -4    1    3    3    0  502 -0.41569966693E+03 -0.62954395740E+02  0.14192158337E+04  0.14801839969E+04  0.12699999809E+01 0.  1.
</event>
<event>
 5   0  0.4024486E-04  0.1199489E+04  0.7818609E-02  0.9113304E-01
        2   -1    0    0  501    0  0.00000000000E+00  0.00000000000E+00  0.16295716999E+04  0.16295716999E+04  0.25500000920E-02 0.  1.
       -2   -1    0    0    0  501  0.00000000000E+00  0.00000000000E+00 -0.22072883362E+03  0.22072883364E+03  0.25500000920E-02 0. -1.
    10030    2    1    2    0    0  0.00000000000E+00  0.00000000000E+00  0.14088428663E+04  0.18503005335E+04  0.11994889923E+04 0.  0.
        1    1    3    3  502    0  0.73714132660E+02  0.42754887705E+03  0.65673511157E+02  0.43879930004E+03  0.50400001928E-02 0. -1.
       -1    1    3    3    0  502 -0.73714132660E+02 -0.42754887705E+03  0.13431693551E+04  0.14115012335E+04  0.50400001928E-02 0.  1.
</event>
<event>
 5   0  0.3883890E-04  0.1198648E+04  0.7818609E-02  0.9114041E-01
        2   -1    0    0  501    0  0.00000000000E+00  0.00000000000E+00  0.14002565203E+04  0.14002565203E+04  0.25500000920E-02 0.  1.
       -2   -1    0    0    0  501  0.00000000000E+00  0.00000000000E+00 -0.25651655241E+03  0.25651655242E+03  0.25500000920E-02 0. -1.
    10030    2    1    2    0    0  0.00000000000E+00  0.00000000000E+00  0.11437399679E+04  0.16567730727E+04  0.11986475296E+04 0.  0.
        2    1    3    3  502    0  0.45564994582E+03 -0.27036733347E+03  0.95906819327E+03  0.10956857065E+04  0.25500000920E-02 0.  1.
       -2    1    3    3    0  502 -0.45564994582E+03  0.27036733347E+03  0.18467177459E+03  0.56108736617E+03  0.25500000920E-02 0. -1.
</event>
<event>
 5   0  0.3832662E-04  0.1199084E+04  0.7818609E-02  0.9113658E-01
       -2   -1    0    0    0  501  0.00000000000E+00  0.00000000000E+00  0.83480100677E+03  0.83480100677E+03  0.25500000920E-02 0.  1.
        2   -1    0    0  501    0  0.00000000000E+00  0.00000000000E+00 -0.43058268302E+03  0.43058268303E+03  0.25500000920E-02 0. -1.
    10030    2    1    2    0    0  0.00000000000E+00  0.00000000000E+00  0.40421832374E+03  0.12653836898E+04  0.11990844129E+04 0.  0.
        4    1    3    3  502    0 -0.44732838522E+03 -0.29284920483E+03 -0.84156850068E+02  0.54124608942E+03  0.12699999809E+01 0. -1.
       -4    1    3    3    0  502  0.44732838522E+03  0.29284920483E+03  0.48837517381E+03  0.72413760038E+03  0.12699999809E+01 0.  1.
</event>
<event>
 5   0  0.3993723E-04  0.1198945E+04  0.7818609E-02  0.9113780E-01
       -2   -1    0    0    0  501  0.00000000000E+00  0.00000000000E+00  0.51398971476E+03  0.51398971477E+03  0.25500000920E-02 0.  1.
        2   -1    0    0  501    0  0.00000000000E+00  0.00000000000E+00 -0.69917221074E+03  0.69917221075E+03  0.25500000920E-02 0. -1.
    10030    2    1    2    0    0  0.00000000000E+00  0.00000000000E+00 -0.18518249598E+03  0.12131619255E+04  0.11989450783E+04 0.  0.
        3    1    3    3  502    0 -0.28349689127E+03 -0.34442337200E+03  0.31261878686E+03  0.54472787944E+03  0.10100000352E+00 0.  1.
       -3    1    3    3    0  502  0.28349689127E+03  0.34442337200E+03 -0.49780128284E+03  0.66843404607E+03  0.10100000352E+00 0. -1.
</event>
<event>
 5   0  0.1541375E-04  0.1209113E+04  0.7818609E-02  0.9104917E-01
        4   -1    0    0  501    0  0.00000000000E+00  0.00000000000E+00  0.38440174137E+03  0.38440383930E+03  0.12699999809E+01 0.  1.
       -4   -1    0    0    0  501  0.00000000000E+00  0.00000000000E+00 -0.95079303458E+03  0.95079388277E+03  0.12699999809E+01 0. -1.
    10030    2    1    2    0    0  0.00000000000E+00  0.00000000000E+00 -0.56639129320E+03  0.13351977221E+04  0.12091128401E+04 0.  0.
        3    1    3    3  502    0 -0.24527539941E+03  0.43637447099E+03  0.91130047554E+02  0.50880978397E+03  0.10100000352E+00 0.  1.
       -3    1    3    3    0  502  0.24527539941E+03 -0.43637447099E+03 -0.65752134076E+03  0.82638793810E+03  0.10100000352E+00 0. -1.
</event>
<event>
 5   0  0.4024486E-04  0.1196337E+04  0.7818609E-02  0.9116069E-01
        2   -1    0    0  501    0  0.00000000000E+00  0.00000000000E+00  0.11312395066E+04  0.11312395066E+04  0.25500000920E-02 0. -1.
       -2   -1    0    0    0  501  0.00000000000E+00  0.00000000000E+00 -0.31629487385E+03  0.31629487386E+03  0.25500000920E-02 0.  1.
    10030    2    1    2    0    0  0.00000000000E+00  0.00000000000E+00  0.81494463280E+03  0.14475343805E+04  0.11963365029E+04 0.  0.
        1    1    3    3  502    0 -0.47886699796E+03 -0.33288519740E+03  0.24659099768E+03  0.63319292205E+03  0.50400001928E-02 0.  1.
       -1    1    3    3    0  502  0.47886699796E+03  0.33288519740E+03  0.56835363512E+03  0.81434145845E+03  0.50400001928E-02 0. -1.
</event>
<event>
 5   0  0.3832662E-04  0.1200186E+04  0.7818609E-02  0.9112694E-01
       -2   -1    0    0    0  501  0.00000000000E+00  0.00000000000E+00  0.40004328237E+03  0.40004328238E+03  0.25500000920E-02 0. -1.
        2   -1    0    0  501    0  0.00000000000E+00  0.00000000000E+00 -0.90018125701E+03  0.90018125701E+03  0.25500000920E-02 0.  1.
    10030    2    1    2    0    0  0.00000000000E+00  0.00000000000E+00 -0.50013797464E+03  0.13002245394E+04  0.12001857603E+04 0.  0.
        4    1    3    3  502    0 -0.58573138908E+03 -0.46572196060E+02 -0.38212974172E+03  0.70091010979E+03  0.12699999809E+01 0. -1.
       -4    1    3    3    0  502  0.58573138908E+03  0.46572196060E+02 -0.11800823292E+03  0.59931442961E+03  0.12699999809E+01 0.  1.
</event>
<event>
 5   0  0.2315038E-04  0.1197038E+04  0.7818609E-02  0.9115453E-01
        1   -1    0    0  501    0  0.00000000000E+00  0.00000000000E+00  0.49826570793E+03  0.49826570795E+03  0.50400001928E-02 0. -1.
       -1   -1    0    0    0  501  0.00000000000E+00  0.00000000000E+00 -0.71894359398E+03  0.71894359400E+03  0.50400001928E-02 0.  1.
    10030    2    1    2    0    0  0.00000000000E+00  0.00000000000E+00 -0.22067788605E+03  0.12172093020E+04  0.11970379089E+04 0.  0.
        1    1    3    3  502    0  0.13473115713E+03  0.26926171597E+03 -0.63632779582E+03  0.70396549642E+03  0.50400001928E-02 0.  1.
       -1    1    3    3    0  502 -0.13473115713E+03 -0.26926171597E+03  0.41564990977E+03  0.51324380553E+03  0.50400001928E-02 0. -1.
</event>
<event>
 5   0  0.2204090E-04  0.1200518E+04  0.7818609E-02  0.9112403E-01
        1   -1    0    0  501    0  0.00000000000E+00  0.00000000000E+00  0.12957735757E+04  0.12957735757E+04  0.50400001928E-02 0.  1.
       -1   -1    0    0    0  501  0.00000000000E+00  0.00000000000E+00 -0.27806620520E+03  0.27806620525E+03  0.50400001928E-02 0. -1.
    10030    2    1    2    0    0  0.00000000000E+00  0.00000000000E+00  0.10177073705E+04  0.15738397810E+04  0.12005179566E+04 0.  0.
        2    1    3    3  502    0  0.53345792585E+03 -0.22078110921E+03  0.29348292707E+03  0.64765259617E+03  0.25500000920E-02 0. -1.
       -2    1    3    3    0  502 -0.53345792585E+03  0.22078110921E+03  0.72422444345E+03  0.92618718482E+03  0.25500000920E-02 0.  1.
</event>
<event>
 5   0  0.2244308E-04  0.1202664E+04  0.7818609E-02  0.9110528E-01
       -1   -1    0    0    0  501  0.00000000000E+00  0.00000000000E+00  0.44745698368E+03  0.44745698371E+03  0.50400001928E-02 0.  1.
        1   -1    0    0  501    0  0.00000000000E+00  0.00000000000E+00 -0.80812283359E+03  0.80812283361E+03  0.50400001928E-02 0. -1.
    10030    2    1    2    0    0  0.00000000000E+00  0.00000000000E+00 -0.36066584991E+03  0.12555798173E+04  0.12026640522E+04 0.  0.
        5    1    3    3  502    0 -0.18192996387E+03  0.47034430275E+03  0.16157602696E+03  0.52957641316E+03  0.46999998093E+01 0.  1.
       -5    1    3    3    0  502  0.18192996387E+03 -0.47034430275E+03 -0.52224187688E+03  0.72600340416E+03  0.46999998093E+01 0. -1.
</event>
<event>
 5   0  0.2244308E-04  0.1203943E+04  0.7818609E-02  0.9109412E-01
       -1   -1    0    0    0  501  0.00000000000E+00  0.00000000000E+00  0.77641664771E+03  0.77641664772E+03  0.50400001928E-02 0.  1.
        1   -1    0    0  501    0  0.00000000000E+00  0.00000000000E+00 -0.46672082197E+03  0.46672082199E+03  0.50400001928E-02 0. -1.
    10030    2    1    2    0    0  0.00000000000E+00  0.00000000000E+00  0.30969582574E+03  0.12431374697E+04  0.12039432147E+04 0.  0.
        5    1    3    3  502    0 -0.56664663007E+03  0.92359354586E+02  0.34164925878E+03  0.66810550049E+03  0.46999998093E+01 0.  1.
       -5    1    3    3    0  502  0.56664663007E+03 -0.92359354586E+02 -0.31953433044E+02  0.57503196923E+03  0.46999998093E+01 0. -1.
</event>
<event>
 5   0  0.2315038E-04  0.1199298E+04  0.7818609E-02  0.9113472E-01
        1   -1    0    0  501    0  0.00000000000E+00  0.00000000000E+00  0.12345675421E+04  0.12345675421E+04  0.50400001928E-02 0. -1.
       -1   -1    0    0    0  501  0.00000000000E+00  0.00000000000E+00 -0.29125884289E+03  0.29125884293E+03  0.50400001928E-02 0.  1.
    10030    2    1    2    0    0  0.00000000000E+00  0.00000000000E+00  0.94330869924E+03  0.15258263851E+04  0.11992976508E+04 0.  0.
        1    1    3    3  502    0 -0.36522237797E+03 -0.40932641924E+03  0.16355767677E+03  0.57243918150E+03  0.50400001928E-02 0.  1.
       -1    1    3    3    0  502  0.36522237797E+03  0.40932641924E+03  0.77975102247E+03  0.95338720357E+03  0.50400001928E-02 0. -1.
</event>
<event>
 5   0  0.3832662E-04  0.1199824E+04  0.7818609E-02  0.9113010E-01
       -2   -1    0    0    0  501  0.00000000000E+00  0.00000000000E+00  0.70772827843E+03  0.70772827843E+03  0.25500000920E-02 0.  1.
        2   -1    0    0  501    0  0.00000000000E+00  0.00000000000E+00 -0.50852077037E+03  0.50852077038E+03  0.25500000920E-02 0. -1.
    10030    2    1    2    0    0  0.00000000000E+00  0.00000000000E+00  0.19920750806E+03  0.12162490488E+04  0.11998242027E+04 0.  0.
        4    1    3    3  502    0 -0.74159752457E+02  0.20270444547E+03 -0.46779447102E+03  0.51519126653E+03  0.12699999809E+01 0. -1.
       -4    1    3    3    0  502  0.74159752457E+02 -0.20270444547E+03  0.66700197908E+03  0.70105778227E+03  0.12699999809E+01 0.  1.
</event>
<event>
 5   0  0.2315038E-04  0.1200211E+04  0.7818609E-02  0.9112672E-01
       -1   -1    0    0    0  501  0.00000000000E+00  0.00000000000E+00  0.73298461324E+03  0.73298461326E+03  0.50400001928E-02 0.  1.
        1   -1    0    0  501    0  0.00000000000E+00  0.00000000000E+00 -0.49131530635E+03  0.49131530637E+03  0.50400001928E-02 0. -1.
    10030    2    1    2    0    0  0.00000000000E+00  0.00000000000E+00  0.24166930690E+03  0.12242999196E+04  0.12002109145E+04 0.  0.
        1    1    3    3  502    0  0.22312458164E+03 -0.32121857047E+03  0.58511878516E+03  0.70379680428E+03  0.50400001928E-02 0.  1.
       -1    1    3    3    0  502 -0.22312458164E+03  0.32121857047E+03 -0.34344947826E+03  0.52050311535E+03  0.50400001928E-02 0. -1.
</event>
<event>
 5   0  0.4122956E-04  0.1200656E+04  0.7818609E-02  0.9112282E-01
       -2   -1    0    0    0  501  0.00000000000E+00  0.00000000000E+00  0.17551062642E+03  0.17551062643E+03  0.25500000920E-02 0.  1.
        2   -1    0    0  501    0  0.00000000000E+00  0.00000000000E+00 -0.20534027412E+04  0.20534027412E+04  0.25500000920E-02 0. -1.
    10030    2    1    2    0    0  0.00000000000E+00  0.00000000000E+00 -0.18778921148E+04  0.22289133677E+04  0.12006564895E+04 0.  0.
        5    1    3    3  502    0 -0.55928009797E+02 -0.42548882128E+03 -0.17182042046E+04  0.17709930711E+04  0.46999998093E+01 0. -1.
       -5    1    3    3    0  502  0.55928009797E+02  0.42548882128E+03 -0.15968791024E+03  0.45792029655E+03  0.46999998093E+01 0.  1.
</event>
<event>
 5   0  0.4122956E-04  0.1209819E+04  0.7818609E-02  0.9104305E-01
        2   -1    0    0  501    0  0.00000000000E+00  0.00000000000E+00  0.80967518770E+03  0.80967518770E+03  0.25500000920E-02 0.  1.
       -2   -1    0    0    0  501  0.00000000000E+00  0.00000000000E+00 -0.45192883993E+03  0.45192883993E+03  0.25500000920E-02 0. -1.
    10030    2    1    2    0    0  0.00000000000E+00  0.00000000000E+00  0.35774634777E+03  0.12616040276E+04  0.12098191076E+04 0.  0.
        5    1    3    3  502    0 -0.39366404431E+03 -0.43436303229E+03  0.23321038883E+02  0.58669292177E+03  0.46999998093E+01 0. -1.
       -5    1    3    3    0  502  0.39366404431E+03  0.43436303229E+03  0.33442530889E+03  0.67491110587E+03  0.46999998093E+01 0.  1.
</event>
<event>
 5   0  0.4122956E-04  0.1200732E+04  0.7818609E-02  0.9112216E-01
       -2   -1    0    0    0  501  0.00000000000E+00  0.00000000000E+00  0.13010001110E+03  0.13010001112E+03  0.25500000920E-02 0. -1.
        2   -1    0    0  501    0  0.00000000000E+00  0.00000000000E+00 -0.27704777919E+04  0.27704777919E+04  0.25500000920E-02 0.  1.
    10030    2    1    2    0    0  0.00000000000E+00  0.00000000000E+00 -0.26403777808E+04  0.29005778030E+04  0.12007317627E+04 0.  0.
        5    1    3    3  502    0 -0.58234561377E+03 -0.34163897513E+02 -0.97750755634E+03  0.11383482325E+04  0.46999998093E+01 0.  1.
       -5    1    3    3    0  502  0.58234561377E+03  0.34163897513E+02 -0.16628702244E+04  0.17622295705E+04  0.46999998093E+01 0. -1.
</event>
<event>
 5   0  0.3883890E-04  0.1201629E+04  0.7818609E-02  0.9111432E-01
        2   -1    0    0  501    0  0.00000000000E+00  0.00000000000E+00  0.87912553440E+03  0.87912553440E+03  0.25500000920E-02 0. -1.
       -2   -1    0    0    0  501  0.00000000000E+00  0.00000000000E+00 -0.41061064475E+03  0.41061064476E+03  0.25500000920E-02 0.  1.
    10030    2    1    2    0    0  0.00000000000E+00  0.00000000000E+00  0.46851488965E+03  0.12897361792E+04  0.12016293980E+04 0.  0.
        2    1    3    3  502    0  0.44271830620E+03 -0.40047178980E+03  0.30706283050E+03  0.67131567459E+03  0.25500000920E-02 0. -1.
       -2    1    3    3    0  502 -0.44271830620E+03  0.40047178980E+03  0.16145205915E+03  0.61842050457E+03  0.25500000920E-02 0.  1.
</event>
<event>
 5   0  0.2304842E-04  0.1200521E+04  0.7818609E-02  0.9112400E-01
       -1   -1    0    0    0  501  0.00000000000E+00  0.00000000000E+00  0.77834259645E+03  0.77834259647E+03  0.50400001928E-02 0.  1.
        1   -1    0    0  501    0  0.00000000000E+00  0.00000000000E+00 -0.46292330530E+03  0.46292330532E+03  0.50400001928E-02 0. -1.
    10030    2    1    2    0    0  0.00000000000E+00  0.00000000000E+00  0.31541929116E+03  0.12412659018E+04  0.12005214324E+04 0.  0.
        4    1    3    3  502    0 -0.14340148232E+03  0.42230229356E+03 -0.25768182354E+03  0.51507741880E+03  0.12699999809E+01 0. -1.
       -4    1    3    3    0  502  0.14340148232E+03 -0.42230229356E+03  0.57310111469E+03  0.72618848299E+03  0.12699999809E+01 0.  1.
</event>
<event>
 5   0  0.4024486E-04  0.1198459E+04  0.7818609E-02  0.9114207E-01
        2   -1    0    0  501    0  0.00000000000E+00  0.00000000000E+00  0.45088847486E+03  0.45088847486E+03  0.25500000920E-02 0.  1.
       -2   -1    0    0    0  501  0.00000000000E+00  0.00000000000E+00 -0.79637412159E+03  0.79637412159E+03  0.25500000920E-02 0. -1.
    10030    2    1    2    0    0  0.00000000000E+00  0.00000000000E+00 -0.34548564673E+03  0.12472625965E+04  0.11984588656E+04 0.  0.
        1    1    3    3  502    0 -0.40815658059E+03  0.19095221584E+03 -0.58382326070E+03  0.73749857137E+03  0.50400001928E-02 0. -1.
       -1    1    3    3    0  502  0.40815658059E+03 -0.19095221584E+03  0.23833761397E+03  0.50976402508E+03  0.50400001928E-02 0.  1.
</event>
<event>
 5   0  0.4122956E-04  0.1202466E+04  0.7818609E-02  0.9110701E-01
        2   -1    0    0  501    0  0.00000000000E+00  0.00000000000E+00  0.27373264743E+04  0.27373264743E+04  0.25500000920E-02 0. -1.
       -2   -1    0    0    0  501  0.00000000000E+00  0.00000000000E+00 -0.13205618923E+03  0.13205618926E+03  0.25500000920E-02 0.  1.
    10030    2    1    2    0    0  0.00000000000E+00  0.00000000000E+00  0.26052702850E+04  0.28693826635E+04  0.12024656385E+04 0.  0.
        5    1    3    3  502    0  0.53090500917E+03 -0.20504899146E+03  0.17650604093E+04  0.18545526566E+04  0.46999998093E+01 0. -1.
       -5    1    3    3    0  502 -0.53090500917E+03  0.20504899146E+03  0.84020987571E+03  0.10148300069E+04  0.46999998093E+01 0.  1.
</event>
<event>
 5   0  0.3832662E-04  0.1201212E+04  0.7818609E-02  0.9111796E-01
       -2   -1    0    0    0  501  0.00000000000E+00  0.00000000000E+00  0.22188795636E+03  0.22188795637E+03  0.25500000920E-02 0.  1.
        2   -1    0    0  501    0  0.00000000000E+00  0.00000000000E+00 -0.16257196467E+04  0.16257196467E+04  0.25500000920E-02 0. -1.
    10030    2    1    2    0    0  0.00000000000E+00  0.00000000000E+00 -0.14038316903E+04  0.18476076030E+04  0.12012120712E+04 0.  0.
        4    1    3    3  502    0 -0.42883748847E+03 -0.26822079624E+03 -0.12000433859E+04  0.13022863464E+04  0.12699999809E+01 0.  1.
       -4    1    3    3    0  502  0.42883748847E+03  0.26822079624E+03 -0.20378830442E+03  0.54532125666E+03  0.12699999809E+01 0. -1.
</event>
<event>
 5   0  0.3993723E-04  0.1194326E+04  0.7818609E-02  0.9117838E-01
       -2   -1    0    0    0  501  0.00000000000E+00  0.00000000000E+00  0.36960896266E+03  0.36960896267E+03  0.25500000920E-02 0. -1.
        2   -1    0    0  501    0  0.00000000000E+00  0.00000000000E+00 -0.96481253862E+03  0.96481253863E+03  0.25500000920E-02 0.  1.
    10030    2    1    2    0    0  0.00000000000E+00  0.00000000000E+00 -0.59520357596E+03  0.13344215013E+04  0.11943255194E+04 0.  0.
        3    1    3    3  502    0 -0.25734626963E+03 -0.14536744875E+02 -0.89945804675E+03  0.93566190876E+03  0.10100000352E+00 0.  1.
       -3    1    3    3    0  502  0.25734626963E+03  0.14536744875E+02  0.30425447079E+03  0.39875959254E+03  0.10100000352E+00 0. -1.
</event>
<event>
 5   0  0.4122956E-04  0.1201073E+04  0.7818609E-02  0.9111918E-01
       -2   -1    0    0    0  501  0.00000000000E+00  0.00000000000E+00  0.69891321871E+03  0.69891321871E+03  0.25500000920E-02 0.  1.
        2   -1    0    0  501    0  0.00000000000E+00  0.00000000000E+00 -0.51600676345E+03  0.51600676346E+03  0.25500000920E-02 0. -1.
    10030    2    1    2    0    0  0.00000000000E+00  0.00000000000E+00  0.18290645526E+03  0.12149199822E+04  0.12010727670E+04 0.  0.
        5    1    3    3  502    0 -0.46742163602E+03 -0.36813876342E+03  0.17370940439E+03  0.61984367555E+03  0.46999998093E+01 0.  1.
       -5    1    3    3    0  502  0.46742163602E+03  0.36813876342E+03  0.91970508707E+01  0.59507630662E+03  0.46999998093E+01 0. -1.
</event>
<event>
 5   0  0.2304842E-04  0.1194999E+04  0.7818609E-02  0.9117245E-01
       -1   -1    0    0    0  501  0.00000000000E+00  0.00000000000E+00  0.50983015586E+03  0.50983015589E+03  0.50400001928E-02 0.  1.
        1   -1    0    0  501    0  0.00000000000E+00  0.00000000000E+00 -0.70024400698E+03  0.70024400699E+03  0.50400001928E-02 0. -1.
    10030    2    1    2    0    0  0.00000000000E+00  0.00000000000E+00 -0.19041385111E+03  0.12100741629E+04  0.11949987636E+04 0.  0.
        4    1    3    3  502    0 -0.54195999213E+03  0.20878807146E+03  0.46887252539E+02  0.58267754307E+03  0.12699999809E+01 0.  1.
       -4    1    3    3    0  502  0.54195999213E+03 -0.20878807146E+03 -0.23730110365E+03  0.62739661981E+03  0.12699999809E+01 0. -1.
</event>
<event>
 5   0  0.2340731E-04  0.1197747E+04  0.7818609E-02  0.9114831E-01
        1   -1    0    0  501    0  0.00000000000E+00  0.00000000000E+00  0.17587502211E+04  0.17587502211E+04  0.50400001928E-02 0. -1.
       -1   -1    0    0    0  501  0.00000000000E+00  0.00000000000E+00 -0.20392279792E+03  0.20392279798E+03  0.50400001928E-02 0.  1.
    10030    2    1    2    0    0  0.00000000000E+00  0.00000000000E+00  0.15548274232E+04  0.19626730191E+04  0.11977466610E+04 0.  0.
        3    1    3    3  502    0 -0.10738902721E+03 -0.56335272589E+03  0.49477571406E+03  0.75743099644E+03  0.10100000352E+00 0.  1.
       -3    1    3    3    0  502  0.10738902721E+03  0.56335272589E+03  0.10600517091E+04  0.12052420226E+04  0.10100000352E+00 0. -1.
</event>
<event>
 5   0  0.2244308E-04  0.1194117E+04  0.7818609E-02  0.9118021E-01
        1   -1    0    0  501    0  0.00000000000E+00  0.00000000000E+00  0.94138664515E+03  0.94138664516E+03  0.50400001928E-02 0.  1.
       -1   -1    0    0    0  501  0.00000000000E+00  0.00000000000E+00 -0.37867450634E+03  0.37867450637E+03  0.50400001928E-02 0. -1.
    10030    2    1    2    0    0  0.00000000000E+00  0.00000000000E+00  0.56271213881E+03  0.13200611515E+04  0.11941174534E+04 0.  0.
        5    1    3    3  502    0  0.81316284898E+02 -0.57440879384E+03  0.12541332696E+03  0.59355572039E+03  0.46999998093E+01 0.  1.
       -5    1    3    3    0  502 -0.81316284898E+02  0.57440879384E+03  0.43729881185E+03  0.72650543114E+03  0.46999998093E+01 0. -1.
</event>
<event>
 5   0  0.4024486E-04  0.1200809E+04  0.7818609E-02  0.9112149E-01
       -2   -1    0    0    0  501  0.00000000000E+00  0.00000000000E+00  0.27505403513E+03  0.27505403514E+03  0.25500000920E-02 0.  1.
        2   -1    0    0  501    0  0.00000000000E+00  0.00000000000E+00 -0.13105991103E+04  0.13105991103E+04  0.25500000920E-02 0. -1.
    10030    2    1    2    0    0  0.00000000000E+00  0.00000000000E+00 -0.10355450751E+04  0.15856531454E+04  0.12008090168E+04 0.  0.
        1    1    3    3  502    0 -0.13990673371E+03 -0.32666897311E+03 -0.11568107499E+04  0.12101642960E+04  0.50400001928E-02 0. -1.
       -1    1    3    3    0  502  0.13990673371E+03  0.32666897311E+03  0.12126567479E+03  0.37548884942E+03  0.50400001928E-02 0.  1.
</event>
<event>
 5   0  0.4122956E-04  0.1196591E+04  0.7818609E-02  0.9115846E-01
       -2   -1    0    0    0  501  0.00000000000E+00  0.00000000000E+00  0.23554932035E+03  0.23554932037E+03  0.25500000920E-02 0. -1.
        2   -1    0    0  501    0  0.00000000000E+00  0.00000000000E+00 -0.15196699333E+04  0.15196699333E+04  0.25500000920E-02 0.  1.
    10030    2    1    2    0    0  0.00000000000E+00  0.00000000000E+00 -0.12841206130E+04  0.17552192537E+04  0.11965905231E+04 0.  0.
        5    1    3    3  502    0 -0.18766869815E+02  0.56745502628E+03 -0.91873849199E+03  0.10800277353E+04  0.46999998093E+01 0. -1.
       -5    1    3    3    0  502  0.18766869815E+02 -0.56745502628E+03 -0.36538212099E+03  0.67519151845E+03  0.46999998093E+01 0.  1.
</event>
<event>
 5   0  0.2244308E-04  0.1199385E+04  0.7818609E-02  0.9113395E-01
        1   -1    0    0  501    0  0.00000000000E+00  0.00000000000E+00  0.12749560403E+04  0.12749560403E+04  0.50400001928E-02 0. -1.
       -1   -1    0    0    0  501  0.00000000000E+00  0.00000000000E+00 -0.28207336613E+03  0.28207336618E+03  0.50400001928E-02 0.  1.
    10030    2    1    2    0    0  0.00000000000E+00  0.00000000000E+00  0.99288267413E+03  0.15570294064E+04  0.11993850791E+04 0.  0.
        5    1    3    3  502    0  0.44398102808E+03  0.57978537288E+01  0.10196879552E+04  0.11121773170E+04  0.46999998093E+01 0. -1.
       -5    1    3    3    0  502 -0.44398102808E+03 -0.57978537288E+01 -0.26805281096E+02  0.44485208945E+03  0.46999998093E+01 0.  1.
</event>
<event>
 5   0  0.2315038E-04  0.1198382E+04  0.7818609E-02  0.9114274E-01
        1   -1    0    0  501    0  0.00000000000E+00  0.00000000000E+00  0.55207334474E+03  0.55207334476E+03  0.50400001928E-02 0.  1.
       -1   -1    0    0    0  501  0.00000000000E+00  0.00000000000E+00 -0.65032960165E+03  0.65032960167E+03  0.50400001928E-02 0. -1.
    10030    2    1    2    0    0  0.00000000000E+00  0.00000000000E+00 -0.98256256911E+02  0.12024029464E+04  0.11983816394E+04 0.  0.
        1    1    3    3  502    0 -0.21639879213E+03 -0.43293902483E+03  0.30527804154E+03  0.57224061297E+03  0.50400001928E-02 0.  1.
       -1    1    3    3    0  502  0.21639879213E+03  0.43293902483E+03 -0.40353429845E+03  0.63016233346E+03  0.50400001928E-02 0. -1.
</event>
<event>
 5   0  0.3883890E-04  0.1200656E+04  0.7818609E-02  0.9112282E-01
       -2   -1    0    0    0  501  0.00000000000E+00  0.00000000000E+00  0.29524680187E+03  0.29524680188E+03  0.25500000920E-02 0. -1.
        2   -1    0    0  501    0  0.00000000000E+00  0.00000000000E+00 -0.12206525802E+04  0.12206525802E+04  0.25500000920E-02 0.  1.
    10030    2    1    2    0    0  0.00000000000E+00  0.00000000000E+00 -0.92540577829E+03  0.15158993820E+04  0.12006561048E+04 0.  0.
        2    1    3    3  502    0 -0.50831759152E+03 -0.10298905530E+03 -0.84440576936E+03  0.99096650937E+03  0.25500000920E-02 0.  1.
       -2    1    3    3    0  502  0.50831759152E+03  0.10298905530E+03 -0.81000008929E+02  0.52493287267E+03  0.25500000920E-02 0. -1.
</event>
<event>
 5   0  0.2304842E-04  0.1202710E+04  0.7818609E-02  0.9110488E-01
        1   -1    0    0  501    0  0.00000000000E+00  0.00000000000E+00  0.76522618485E+03  0.76522618487E+03  0.50400001928E-02 0. -1.
       -1   -1    0    0    0  501  0.00000000000E+00  0.00000000000E+00 -0.47257654144E+03  0.47257654147E+03  0.50400001928E-02 0.  1.
    10030    2    1    2    0    0  0.00000000000E+00  0.00000000000E+00  0.29264964342E+03  0.12378027263E+04  0.12027101794E+04 0.  0.
        4    1    3    3  502    0  0.16134330805E+03  0.30212030439E+03 -0.36238271421E+03  0.49862930703E+03  0.12699999809E+01 0.  1.
       -4    1    3    3    0  502 -0.16134330805E+03 -0.30212030439E+03  0.65503235762E+03  0.73917341930E+03  0.12699999809E+01 0. -1.
</event>
<event>
 5   0  0.3832662E-04  0.1200266E+04  0.7818609E-02  0.9112624E-01
       -2   -1    0    0    0  501  0.00000000000E+00  0.00000000000E+00  0.24737476873E+03  0.24737476875E+03  0.25500000920E-02 0. -1.
        2   -1    0    0  501    0  0.00000000000E+00  0.00000000000E+00 -0.14559260782E+04  0.14559260782E+04  0.25500000920E-02 0.  1.
    10030    2    1    2    0    0  0.00000000000E+00  0.00000000000E+00 -0.12085513095E+04  0.17033008470E+04  0.12002655988E+04 0.  0.
        4    1    3    3  502    0 -0.28845679259E+03  0.41057377464E+03 -0.13709181442E+03  0.52016720782E+03  0.12699999809E+01 0. -1.
       -4    1    3    3    0  502  0.28845679259E+03 -0.41057377464E+03 -0.10714594951E+04  0.11831336392E+04  0.12699999809E+01 0.  1.
</event>
<event>
 5   0  0.4024486E-04  0.1202351E+04  0.7818609E-02  0.9110801E-01
        2   -1    0    0  501    0  0.00000000000E+00  0.00000000000E+00  0.84256100405E+03  0.84256100405E+03  0.25500000920E-02 0.  1.
       -2   -1    0    0    0  501  0.00000000000E+00  0.00000000000E+00 -0.42894483716E+03  0.42894483717E+03  0.25500000920E-02 0. -1.
    10030    2    1    2    0    0  0.00000000000E+00  0.00000000000E+00  0.41361616689E+03  0.12715058412E+04  0.12023513508E+04 0.  0.
        1    1    3    3  502    0 -0.41058117545E+03 -0.36587527516E+03 -0.49997606336E+02  0.55221497560E+03  0.50400001928E-02 0. -1.
       -1    1    3    3    0  502  0.41058117545E+03  0.36587527516E+03  0.46361377322E+03  0.71929086562E+03  0.50400001928E-02 0.  1.
</event>
<event>
 5   0  0.4122956E-04  0.1202667E+04  0.7818609E-02  0.9110525E-01
       -2   -1    0    0    0  501  0.00000000000E+00  0.00000000000E+00  0.22534952686E+03  0.22534952688E+03  0.25500000920E-02 0. -1.
        2   -1    0    0  501    0  0.00000000000E+00  0.00000000000E+00 -0.16046283669E+04  0.16046283669E+04  0.25500000920E-02 0.  1.
    10030    2    1    2    0    0  0.00000000000E+00  0.00000000000E+00 -0.13792788401E+04  0.18299778938E+04  0.12026674408E+04 0.  0.
        5    1    3    3  502    0  0.24089134143E+03  0.14533422229E+03 -0.14982795723E+04  0.15244718565E+04  0.46999998093E+01 0.  1.
       -5    1    3    3    0  502 -0.24089134143E+03 -0.14533422229E+03  0.11900073224E+03  0.30550603728E+03  0.46999998093E+01 0. -1.
</event>
<event>
 5   0  0.2315038E-04  0.1197854E+04  0.7818609E-02  0.9114737E-01
        1   -1    0    0  501    0  0.00000000000E+00  0.00000000000E+00  0.15637769659E+04  0.15637769659E+04  0.50400001928E-02 0.  1.
       -1   -1    0    0    0  501  0.00000000000E+00  0.00000000000E+00 -0.22938925358E+03  0.22938925364E+03  0.50400001928E-02 0. -1.
    10030    2    1    2    0    0  0.00000000000E+00  0.00000000000E+00  0.13343877123E+04  0.17931662195E+04  0.11978541331E+04 0.  0.
        1    1    3    3  502    0  0.53165613929E+03  0.25823264946E+03  0.81210976155E+03  0.10044225289E+04  0.50400001928E-02 0. -1.
       -1    1    3    3    0  502 -0.53165613929E+03 -0.25823264946E+03  0.52227795076E+03  0.78874369067E+03  0.50400001928E-02 0.  1.
</event>
<event>
 5   0  0.2244308E-04  0.1196532E+04  0.7818609E-02  0.9115897E-01
       -1   -1    0    0    0  501  0.00000000000E+00  0.00000000000E+00  0.50698068164E+03  0.50698068166E+03  0.50400001928E-02 0.  1.
        1   -1    0    0  501    0  0.00000000000E+00  0.00000000000E+00 -0.70598803842E+03  0.70598803844E+03  0.50400001928E-02 0. -1.
    10030    2    1    2    0    0  0.00000000000E+00  0.00000000000E+00 -0.19900735678E+03  0.12129687201E+04  0.11965321508E+04 0.  0.
        5    1    3    3  502    0 -0.51793960250E+02  0.21267531072E+03  0.46490909358E+03  0.51388321377E+03  0.46999998093E+01 0.  1.
       -5    1    3    3    0  502  0.51793960250E+02 -0.21267531072E+03 -0.66391645036E+03  0.69908550633E+03  0.46999998093E+01 0. -1.
</event>
<event>
 5   0  0.3832662E-04  0.1199869E+04  0.7818609E-02  0.9112971E-01
       -2   -1    0    0    0  501  0.00000000000E+00  0.00000000000E+00  0.50968506870E+03  0.50968506871E+03  0.25500000920E-02 0.  1.
        2   -1    0    0  501    0  0.00000000000E+00  0.00000000000E+00 -0.70616470461E+03  0.70616470461E+03  0.25500000920E-02 0. -1.
    10030    2    1    2    0    0  0.00000000000E+00  0.00000000000E+00 -0.19647963590E+03  0.12158497733E+04  0.11998693362E+04 0.  0.
        4    1    3    3  502    0 -0.22953413268E+03  0.55286493985E+03 -0.13844741311E+03  0.61442237823E+03  0.12699999809E+01 0. -1.
       -4    1    3    3    0  502  0.22953413268E+03 -0.55286493985E+03 -0.58032222791E+02  0.60142739509E+03  0.12699999809E+01 0.  1.
</event>
<event>
 5   0  0.2304842E-04  0.1203292E+04  0.7818609E-02  0.9109980E-01
       -1   -1    0    0    0  501  0.00000000000E+00  0.00000000000E+00  0.30676865631E+03  0.30676865635E+03  0.50400001928E-02 0.  1.
        1   -1    0    0  501    0  0.00000000000E+00  0.00000000000E+00 -0.11799694159E+04  0.11799694159E+04  0.50400001928E-02 0. -1.
    10030    2    1    2    0    0  0.00000000000E+00  0.00000000000E+00 -0.87320075956E+03  0.14867380722E+04  0.12032915395E+04 0.  0.
        4    1    3    3  502    0  0.41453483178E+03  0.24254091371E+02 -0.97452810235E+03  0.10593082757E+04  0.12699999809E+01 0. -1.
       -4    1    3    3    0  502 -0.41453483178E+03 -0.24254091371E+02  0.10132734279E+03  0.42742979658E+03  0.12699999809E+01 0.  1.
</event>
<event>
 5   0  0.3832662E-04  0.1198714E+04  0.7818609E-02  0.9113983E-01
        2   -1    0    0  501    0  0.00000000000E+00  0.00000000000E+00  0.88885924424E+03  0.88885924424E+03  0.25500000920E-02 0. -1.
       -2   -1    0    0    0  501  0.00000000000E+00  0.00000000000E+00 -0.40414591890E+03  0.40414591891E+03  0.25500000920E-02 0.  1.
    10030    2    1    2    0    0  0.00000000000E+00  0.00000000000E+00  0.48471332534E+03  0.12930051632E+04  0.11987140377E+04 0.  0.
        4    1    3    3  502    0 -0.38005727084E+03  0.38123441020E+03 -0.41894395406E+02  0.53994440260E+03  0.12699999809E+01 0.  1.
       -4    1    3    3    0  502  0.38005727084E+03 -0.38123441020E+03  0.52660772074E+03  0.75306076055E+03  0.12699999809E+01 0. -1.
</event>
<event>
 5   0  0.1541375E-04  0.1198367E+04  0.7818609E-02  0.9114287E-01
       -4   -1    0    0    0  501  0.00000000000E+00  0.00000000000E+00  0.86290176837E+03  0.86290270294E+03  0.12699999809E+01 0.  1.
        4   -1    0    0  501    0  0.00000000000E+00  0.00000000000E+00 -0.41605999534E+03  0.41606193364E+03  0.12699999809E+01 0. -1.
    10030    2    1    2    0    0  0.00000000000E+00  0.00000000000E+00  0.44684177302E+03  0.12789646366E+04  0.11983667934E+04 0.  0.
        5    1    3    3  502    0 -0.12721238139E+03  0.30170303651E+03 -0.31211529823E+03  0.45237789690E+03  0.46999998093E+01 0. -1.
       -5    1    3    3    0  502  0.12721238139E+03 -0.30170303651E+03  0.75895707125E+03  0.82658673968E+03  0.46999998093E+01 0.  1.
</event>
<event>
 5   0  0.4024486E-04  0.1199489E+04  0.7818609E-02  0.9113304E-01
        2   -1    0    0  501    0  0.00000000000E+00  0.00000000000E+00  0.15143084580E+04  0.15143084580E+04  0.25500000920E-02 0.  1.
       -2   -1    0    0    0  501  0.00000000000E+00  0.00000000000E+00 -0.23752995212E+03  0.23752995214E+03  0.25500000920E-02 0. -1.
    10030    2    1    2    0    0  0.00000000000E+00  0.00000000000E+00  0.12767785059E+04  0.17518384102E+04  0.11994892506E+04 0.  0.
        1    1    3    3  502    0  0.34423371351E+03 -0.21443944759E+02 -0.78197931347E+02  0.35365464620E+03  0.50400001928E-02 0. -1.
       -1    1    3    3    0  502 -0.34423371351E+03  0.21443944759E+02  0.13549764373E+04  0.13981837640E+04  0.50400001928E-02 0.  1.
</event>
<event>
 5   0  0.2315038E-04  0.1199409E+04  0.7818609E-02  0.9113374E-01
       -1   -1    0    0    0  501  0.00000000000E+00  0.00000000000E+00  0.23102351051E+03  0.23102351056E+03  0.50400001928E-02 0.  1.
        1   -1    0    0  501    0  0.00000000000E+00  0.00000000000E+00 -0.15567473992E+04  0.15567473992E+04  0.50400001928E-02 0. -1.
    10030    2    1    2    0    0  0.00000000000E+00  0.00000000000E+00 -0.13257238886E+04  0.17877709097E+04  0.11994086029E+04 0.  0.
        1    1    3    3  502    0  0.21574311227E+03 -0.22051734704E+03 -0.14294018493E+04  0.14623141378E+04  0.50400001928E-02 0. -1.
       -1    1    3    3    0  502 -0.21574311227E+03  0.22051734704E+03  0.10367796064E+03  0.32545677192E+03  0.50400001928E-02 0.  1.
</event>
<event>
 5   0  0.2304842E-04  0.1198307E+04  0.7818609E-02  0.9114339E-01
        1   -1    0    0  501    0  0.00000000000E+00  0.00000000000E+00  0.72256898795E+03  0.72256898797E+03  0.50400001928E-02 0.  1.
       -1   -1    0    0    0  501  0.00000000000E+00  0.00000000000E+00 -0.49681770668E+03  0.49681770670E+03  0.50400001928E-02 0. -1.
    10030    2    1    2    0    0  0.00000000000E+00  0.00000000000E+00  0.22575128128E+03  0.12193866947E+04  0.11983072520E+04 0.  0.
        4    1    3    3  502    0 -0.21616316993E+03 -0.24170157014E+03 -0.39980978914E+03  0.51477727750E+03  0.12699999809E+01 0. -1.
       -4    1    3    3    0  502  0.21616316993E+03  0.24170157014E+03  0.62556107042E+03  0.70460941717E+03  0.12699999809E+01 0.  1.
</event>
<event>
 5   0  0.2340731E-04  0.1199720E+04  0.7818609E-02  0.9113101E-01
       -1   -1    0    0    0  501  0.00000000000E+00  0.00000000000E+00  0.34274921614E+03  0.34274921618E+03  0.50400001928E-02 0. -1.
        1   -1    0    0  501    0  0.00000000000E+00  0.00000000000E+00 -0.10498410886E+04  0.10498410886E+04  0.50400001928E-02 0.  1.
    10030    2    1    2    0    0  0.00000000000E+00  0.00000000000E+00 -0.70709187245E+03  0.13925903048E+04  0.11997203178E+04 0.  0.
        3    1    3    3  502    0 -0.31170158722E+03 -0.47388325687E+03 -0.12694744572E+03  0.58123909434E+03  0.10100000352E+00 0. -1.
       -3    1    3    3    0  502  0.31170158722E+03  0.47388325687E+03 -0.58014442674E+03  0.81135121044E+03  0.10100000352E+00 0.  1.
</event>
<event>
 5   0  0.3993723E-04  0.1201821E+04  0.7818609E-02  0.9111264E-01
       -2   -1    0    0    0  501  0.00000000000E+00  0.00000000000E+00  0.13829629108E+04  0.13829629108E+04  0.25500000920E-02 0.  1.
        2   -1    0    0  501    0  0.00000000000E+00  0.00000000000E+00 -0.26110122076E+03  0.26110122078E+03  0.25500000920E-02 0. -1.
    10030    2    1    2    0    0  0.00000000000E+00  0.00000000000E+00  0.11218616900E+04  0.16440641316E+04  0.12018207924E+04 0.  0.
        3    1    3    3  502    0 -0.51151667385E+03 -0.12829338006E+03  0.95500531858E+03  0.10909370595E+04  0.10100000352E+00 0.  1.
       -3    1    3    3    0  502  0.51151667385E+03  0.12829338006E+03  0.16685637144E+03  0.55312707210E+03  0.10100000352E+00 0. -1.
</event>
<event>
 5   0  0.3883890E-04  0.1200561E+04  0.7818609E-02  0.9112366E-01
        2   -1    0    0  501    0  0.00000000000E+00  0.00000000000E+00  0.17148238432E+04  0.17148238432E+04  0.25500000920E-02 0. -1.
       -2   -1    0    0    0  501  0.00000000000E+00  0.00000000000E+00 -0.21013042416E+03  0.21013042418E+03  0.25500000920E-02 0.  1.
    10030    2    1    2    0    0  0.00000000000E+00  0.00000000000E+00  0.15046934190E+04  0.19249542673E+04  0.12005609714E+04 0.  0.
        2    1    3    3  502    0  0.14150042704E+03 -0.42932835886E+03  0.11908009332E+03  0.46746687498E+03  0.25500000920E-02 0.  1.
       -2    1    3    3    0  502 -0.14150042704E+03  0.42932835886E+03  0.13856133257E+04  0.14574873924E+04  0.25500000920E-02 0. -1.
</event>
<event>
 5   0  0.2204090E-04  0.1199603E+04  0.7818609E-02  0.9113204E-01
        1   -1    0    0  501    0  0.00000000000E+00  0.00000000000E+00  0.74763188982E+03  0.74763188984E+03  0.50400001928E-02 0.  1.
       -1   -1    0    0    0  501  0.00000000000E+00  0.00000000000E+00 -0.48120149847E+03  0.48120149850E+03  0.50400001928E-02 0. -1.
    10030    2    1    2    0    0  0.00000000000E+00  0.00000000000E+00  0.26643039135E+03  0.12288333883E+04  0.11996025770E+04 0.  0.
        2    1    3    3  502    0 -0.19581958035E+02  0.98313953695E+02  0.73898997810E+03  0.74575818756E+03  0.25500000920E-02 0.  1.
       -2    1    3    3    0  502  0.19581958035E+02 -0.98313953695E+02 -0.47255958675E+03  0.48307520078E+03  0.25500000920E-02 0. -1.
</event>
<event>
 5   0  0.3832662E-04  0.1202227E+04  0.7818609E-02  0.9110909E-01
        2   -1    0    0  501    0  0.00000000000E+00  0.00000000000E+00  0.76836304642E+03  0.76836304642E+03  0.25500000920E-02 0. -1.
       -2   -1    0    0    0  501  0.00000000000E+00  0.00000000000E+00 -0.47026936720E+03  0.47026936721E+03  0.25500000920E-02 0.  1.
    10030    2    1    2    0    0  0.00000000000E+00  0.00000000000E+00  0.29809367922E+03  0.12386324136E+04  0.12022272724E+04 0.  0.
        4    1    3    3  502    0  0.14921820419E+03 -0.48817223307E+03 -0.17798887243E+03  0.54061062995E+03  0.12699999809E+01 0.  1.
       -4    1    3    3    0  502 -0.14921820419E+03  0.48817223307E+03  0.47608255165E+03  0.69802178368E+03  0.12699999809E+01 0. -1.
</event>
<event>
 5   0  0.4122956E-04  0.1199522E+04  0.7818609E-02  0.9113275E-01
       -2   -1    0    0    0  501  0.00000000000E+00  0.00000000000E+00  0.29047826426E+03  0.29047826427E+03  0.25500000920E-02 0.  1.
        2   -1    0    0  501    0  0.00000000000E+00  0.00000000000E+00 -0.12383482130E+04  0.12383482130E+04  0.25500000920E-02 0. -1.
    10030    2    1    2    0    0  0.00000000000E+00  0.00000000000E+00 -0.94786994870E+03  0.15288264772E+04  0.11995219705E+04 0.  0.
        5    1    3    3  502    0  0.42279640125E+02 -0.57592104607E+03 -0.68030858344E+03  0.89236454321E+03  0.46999998093E+01 0.  1.
       -5    1    3    3    0  502 -0.42279640125E+02  0.57592104607E+03 -0.26756136526E+03  0.63646193402E+03  0.46999998093E+01 0. -1.
</event>
<event>
 5   0  0.2304842E-04  0.1194806E+04  0.7818609E-02  0.9117415E-01
        1   -1    0    0  501    0  0.00000000000E+00  0.00000000000E+00  0.50869547866E+03  0.50869547868E+03  0.50400001928E-02 0.  1.
       -1   -1    0    0    0  501  0.00000000000E+00  0.00000000000E+00 -0.70158009628E+03  0.70158009630E+03  0.50400001928E-02 0. -1.
    10030    2    1    2    0    0  0.00000000000E+00  0.00000000000E+00 -0.19288461762E+03  0.12102755750E+04  0.11948064662E+04 0.  0.
        4    1    3    3  502    0  0.93293175663E+02  0.57152165721E+03  0.52251917424E+02  0.58144002017E+03  0.12699999809E+01 0.  1.
       -4    1    3    3    0  502 -0.93293175663E+02 -0.57152165721E+03 -0.24513653504E+03  0.62883555481E+03  0.12699999809E+01 0. -1.
</event>
<event>
 5   0  0.3832662E-04  0.1201297E+04  0.7818609E-02  0.9111722E-01
        2   -1    0    0  501    0  0.00000000000E+00  0.00000000000E+00  0.58939104212E+03  0.58939104213E+03  0.25500000920E-02 0.  1.
       -2   -1    0    0    0  501  0.00000000000E+00  0.00000000000E+00 -0.61212134081E+03  0.61212134081E+03  0.25500000920E-02 0. -1.
    10030    2    1    2    0    0  0.00000000000E+00  0.00000000000E+00 -0.22730298685E+02  0.12015123829E+04  0.12012973570E+04 0.  0.
        4    1    3    3  502    0 -0.11639565826E+03 -0.17464090913E+03 -0.57425343470E+03  0.61140495301E+03  0.12699999809E+01 0. -1.
       -4    1    3    3    0  502  0.11639565826E+03  0.17464090913E+03  0.55152313601E+03  0.59010742993E+03  0.12699999809E+01 0.  1.
</event>
<event>
 5   0  0.2315038E-04  0.1200521E+04  0.7818609E-02  0.9112401E-01
       -1   -1    0    0    0  501  0.00000000000E+00  0.00000000000E+00  0.40983689799E+03  0.40983689802E+03  0.50400001928E-02 0.  1.
        1   -1    0    0  501    0  0.00000000000E+00  0.00000000000E+00 -0.87916131458E+03  0.87916131459E+03  0.50400001928E-02 0. -1.
    10030    2    1    2    0    0  0.00000000000E+00  0.00000000000E+00 -0.46932441659E+03  0.12889982126E+04  0.12005211302E+04 0.  0.
        1    1    3    3  502    0 -0.65873228353E+02 -0.10186353631E+03  0.39653877528E+03  0.41467874623E+03  0.50400001928E-02 0.  1.
       -1    1    3    3    0  502  0.65873228353E+02  0.10186353631E+03 -0.86586319187E+03  0.87431946639E+03  0.50400001928E-02 0. -1.
</event>
<event>
 5   0  0.4024486E-04  0.1201168E+04  0.7818609E-02  0.9111834E-01
        2   -1    0    0  501    0  0.00000000000E+00  0.00000000000E+00  0.11163860834E+04  0.11163860834E+04  0.25500000920E-02 0. -1.
       -2   -1    0    0    0  501  0.00000000000E+00  0.00000000000E+00 -0.32309734672E+03  0.32309734673E+03  0.25500000920E-02 0.  1.
    10030    2    1    2    0    0  0.00000000000E+00  0.00000000000E+00  0.79328873664E+03  0.14394834301E+04  0.12011684003E+04 0.  0.
        1    1    3    3  502    0 -0.97086628429E+02 -0.45583506675E+03  0.85060012598E+03  0.96991339605E+03  0.50400001928E-02 0. -1.
       -1    1    3    3    0  502  0.97086628429E+02  0.45583506675E+03 -0.57311389338E+02  0.46957003404E+03  0.50400001928E-02 0.  1.
</event>
<event>
 5   0  0.2204090E-04  0.1198683E+04  0.7818609E-02  0.9114010E-01
        1   -1    0    0  501    0  0.00000000000E+00  0.00000000000E+00  0.71686980921E+03  0.71686980923E+03  0.50400001928E-02 0.  1.
       -1   -1    0    0    0  501  0.00000000000E+00  0.00000000000E+00 -0.50108135263E+03  0.50108135265E+03  0.50400001928E-02 0. -1.
    10030    2    1    2    0    0  0.00000000000E+00  0.00000000000E+00  0.21578845659E+03  0.12179511619E+04  0.11986827665E+04 0.  0.
        2    1    3    3  502    0 -0.55045726893E+03 -0.77002931075E+02  0.33572489411E+03  0.64934109746E+03  0.25500000920E-02 0.  1.
       -2    1    3    3    0  502  0.55045726893E+03  0.77002931075E+02 -0.11993643753E+03  0.56861006443E+03  0.25500000920E-02 0. -1.
</event>
<event>
 5   0  0.3883890E-04  0.1198483E+04  0.7818609E-02  0.9114185E-01
       -2   -1    0    0    0  501  0.00000000000E+00  0.00000000000E+00  0.24306976949E+03  0.24306976951E+03  0.25500000920E-02 0. -1.
        2   -1    0    0  501    0  0.00000000000E+00  0.00000000000E+00 -0.14773146978E+04  0.14773146978E+04  0.25500000920E-02 0.  1.
    10030    2    1    2    0    0  0.00000000000E+00  0.00000000000E+00 -0.12342449284E+04  0.17203844674E+04  0.11984832800E+04 0.  0.
        2    1    3    3  502    0 -0.28366547459E+03 -0.27391812974E+03 -0.12648245177E+04  0.13248691648E+04  0.25500000920E-02 0.  1.
       -2    1    3    3    0  502  0.28366547459E+03  0.27391812974E+03  0.30579589331E+02  0.39551530257E+03  0.25500000920E-02 0. -1.
</event>
<event>
 5   0  0.3883890E-04  0.1201195E+04  0.7818609E-02  0.9111811E-01
        2   -1    0    0  501    0  0.00000000000E+00  0.00000000000E+00  0.48080228384E+03  0.48080228385E+03  0.25500000920E-02 0.  1.
       -2   -1    0    0    0  501  0.00000000000E+00  0.00000000000E+00 -0.75024050229E+03  0.75024050230E+03  0.25500000920E-02 0. -1.
    10030    2    1    2    0    0  0.00000000000E+00  0.00000000000E+00 -0.26943821845E+03  0.12310427861E+04  0.12011949832E+04 0.  0.
        2    1    3    3  502    0  0.38451494512E+03 -0.39726258962E+03  0.10573409199E+03  0.56289342361E+03  0.25500000920E-02 0.  1.
       -2    1    3    3    0  502 -0.38451494512E+03  0.39726258962E+03 -0.37517231045E+03  0.66814936254E+03  0.25500000920E-02 0. -1.
</event>
<event>
 5   0  0.2304842E-04  0.1197222E+04  0.7818609E-02  0.9115292E-01
       -1   -1    0    0    0  501  0.00000000000E+00  0.00000000000E+00  0.39722180574E+03  0.39722180577E+03  0.50400001928E-02 0. -1.
        1   -1    0    0  501    0  0.00000000000E+00  0.00000000000E+00 -0.90210338365E+03  0.90210338366E+03  0.50400001928E-02 0.  1.
    10030    2    1    2    0    0  0.00000000000E+00  0.00000000000E+00 -0.50488157791E+03  0.12993251894E+04  0.11972220096E+04 0.  0.
        4    1    3    3  502    0 -0.54937233026E+03  0.22023122111E+03 -0.15523807731E+03  0.61189232840E+03  0.12699999809E+01 0. -1.
       -4    1    3    3    0  502  0.54937233026E+03 -0.22023122111E+03 -0.34964350060E+03  0.68743286103E+03  0.12699999809E+01 0.  1.
</event>
<event>
 5   0  0.2244308E-04  0.1196021E+04  0.7818609E-02  0.9116346E-01
        1   -1    0    0  501    0  0.00000000000E+00  0.00000000000E+00  0.76252921575E+03  0.76252921576E+03  0.50400001928E-02 0.  1.
       -1   -1    0    0    0  501  0.00000000000E+00  0.00000000000E+00 -0.46898744797E+03  0.46898744799E+03  0.50400001928E-02 0. -1.
    10030    2    1    2    0    0  0.00000000000E+00  0.00000000000E+00  0.29354176778E+03  0.12315166638E+04  0.11960211218E+04 0.  0.
        5    1    3    3  502    0 -0.18727904469E+03 -0.12473074480E+03  0.71725650194E+03  0.75173810523E+03  0.46999998093E+01 0.  1.
       -5    1    3    3    0  502  0.18727904469E+03  0.12473074480E+03 -0.42371473416E+03  0.47977855853E+03  0.46999998093E+01 0. -1.
</event>
<event>
 5   0  0.1541375E-04  0.1199450E+04  0.7818609E-02  0.9113338E-01
        4   -1    0    0  501    0  0.00000000000E+00  0.00000000000E+00  0.70107925278E+03  0.70108040308E+03  0.12699999809E+01 0.  1.
       -4   -1    0    0    0  501  0.00000000000E+00  0.00000000000E+00 -0.51302124053E+03  0.51302281249E+03  0.12699999809E+01 0. -1.
    10030    2    1    2    0    0  0.00000000000E+00  0.00000000000E+00  0.18805801225E+03  0.12141032156E+04  0.11994502083E+04 0.  0.
        3    1    3    3  502    0 -0.35878201298E+03  0.11902227264E+03  0.56531262670E+03  0.68005088804E+03  0.10100000352E+00 0.  1.
       -3    1    3    3    0  502  0.35878201298E+03 -0.11902227264E+03 -0.37725461445E+03  0.53405232753E+03  0.10100000352E+00 0. -1.
</event>
<event>
 5   0  0.3993723E-04  0.1200178E+04  0.7818609E-02  0.9112701E-01
        2   -1    0    0  501    0  0.00000000000E+00  0.00000000000E+00  0.10803669494E+04  0.10803669494E+04  0.25500000920E-02 0. -1.
       -2   -1    0    0    0  501  0.00000000000E+00  0.00000000000E+00 -0.33331876905E+03  0.33331876906E+03  0.25500000920E-02 0.  1.
    10030    2    1    2    0    0  0.00000000000E+00  0.00000000000E+00  0.74704818037E+03  0.14136857185E+04  0.12001776230E+04 0.  0.
        3    1    3    3  502    0 -0.19432768556E+03  0.14760255630E+03 -0.27223515107E+03  0.36559780043E+03  0.10100000352E+00 0.  1.
       -3    1    3    3    0  502  0.19432768556E+03 -0.14760255630E+03  0.10192833314E+04  0.10480879180E+04  0.10100000352E+00 0. -1.
</event>
<event>
 5   0  0.2204090E-04  0.1195617E+04  0.7818609E-02  0.9116702E-01
       -1   -1    0    0    0  501  0.00000000000E+00  0.00000000000E+00  0.42094200667E+03  0.42094200670E+03  0.50400001928E-02 0.  1.
        1   -1    0    0  501    0  0.00000000000E+00  0.00000000000E+00 -0.84898858768E+03  0.84898858769E+03  0.50400001928E-02 0. -1.
    10030    2    1    2    0    0  0.00000000000E+00  0.00000000000E+00 -0.42804658101E+03  0.12699305944E+04  0.11956169282E+04 0.  0.
        2    1    3    3  502    0  0.41521104336E+03  0.42199599349E+02  0.24059142136E+03  0.48173151107E+03  0.25500000920E-02 0.  1.
       -2    1    3    3    0  502 -0.41521104336E+03 -0.42199599349E+02 -0.66863800238E+03  0.78819908332E+03  0.25500000920E-02 0. -1.
</event>
<event>
 5   0  0.2315038E-04  0.1199640E+04  0.7818609E-02  0.9113172E-01
       -1   -1    0    0    0  501  0.00000000000E+00  0.00000000000E+00  0.68313083208E+03  0.68313083209E+03  0.50400001928E-02 0. -1.
        1   -1    0    0  501    0  0.00000000000E+00  0.00000000000E+00 -0.52666899055E+03  0.52666899057E+03  0.50400001928E-02 0.  1.
    10030    2    1    2    0    0  0.00000000000E+00  0.00000000000E+00  0.15646184153E+03  0.12097998227E+04  0.11996396555E+04 0.  0.
        1    1    3    3  502    0  0.12831085352E+03  0.38861244249E+03  0.52046573889E+03  0.66209356663E+03  0.50400001928E-02 0. -1.
       -1    1    3    3    0  502 -0.12831085352E+03 -0.38861244249E+03 -0.36400389736E+03  0.54770625604E+03  0.50400001928E-02 0.  1.
</event>
<event>
 5   0  0.4024486E-04  0.1199907E+04  0.7818609E-02  0.9112938E-01
        2   -1    0    0  501    0  0.00000000000E+00  0.00000000000E+00  0.44222169953E+03  0.44222169954E+03  0.25500000920E-02 0.  1.
       -2   -1    0    0    0  501  0.00000000000E+00  0.00000000000E+00 -0.81394515131E+03  0.81394515131E+03  0.25500000920E-02 0. -1.
    10030    2    1    2    0    0  0.00000000000E+00  0.00000000000E+00 -0.37172345178E+03  0.12561668508E+04  0.11999070100E+04 0.  0.
        1    1    3    3  502    0  0.34438045283E+03 -0.29516056759E+03  0.22526840974E+03  0.50642226788E+03  0.50400001928E-02 0.  1.
       -1    1    3    3    0  502 -0.34438045283E+03  0.29516056759E+03 -0.59699186151E+03  0.74974458297E+03  0.50400001928E-02 0. -1.
</event>
<event>
 5   0  0.2244308E-04  0.1208126E+04  0.7818609E-02  0.9105773E-01
        1   -1    0    0  501    0  0.00000000000E+00  0.00000000000E+00  0.43081334737E+03  0.43081334740E+03  0.50400001928E-02 0. -1.
       -1   -1    0    0    0  501  0.00000000000E+00  0.00000000000E+00 -0.84698445939E+03  0.84698445940E+03  0.50400001928E-02 0.  1.
    10030    2    1    2    0    0  0.00000000000E+00  0.00000000000E+00 -0.41617111202E+03  0.12777978068E+04  0.12081261692E+04 0.  0.
        5    1    3    3  502    0  0.42158423051E+03  0.13621184995E+03 -0.64235270621E+03  0.78033711988E+03  0.46999998093E+01 0.  1.
       -5    1    3    3    0  502 -0.42158423051E+03 -0.13621184995E+03  0.22618159420E+03  0.49746068692E+03  0.46999998093E+01 0. -1.
</event>
<event>
 5   0  0.2244308E-04  0.1203985E+04  0.7818609E-02  0.9109376E-01
       -1   -1    0    0    0  501  0.00000000000E+00  0.00000000000E+00  0.10130139072E+04  0.10130139072E+04  0.50400001928E-02 0. -1.
        1   -1    0    0  501    0  0.00000000000E+00  0.00000000000E+00 -0.35773926228E+03  0.35773926231E+03  0.50400001928E-02 0.  1.
    10030    2    1    2    0    0  0.00000000000E+00  0.00000000000E+00  0.65527464491E+03  0.13707531695E+04  0.12039847970E+04 0.  0.
        5    1    3    3  502    0  0.57498587888E+03 -0.15481758419E+03  0.42815920058E+03  0.73343004869E+03  0.46999998093E+01 0. -1.
       -5    1    3    3    0  502 -0.57498587888E+03  0.15481758419E+03  0.22711544433E+03  0.63732312082E+03  0.46999998093E+01 0.  1.
</event>
<event>
 5   0  0.3883890E-04  0.1198858E+04  0.7818609E-02  0.9113857E-01
       -2   -1    0    0    0  501  0.00000000000E+00  0.00000000000E+00  0.29468664366E+03  0.29468664368E+03  0.25500000920E-02 0.  1.
        2   -1    0    0  501    0  0.00000000000E+00  0.00000000000E+00 -0.12193125063E+04  0.12193125063E+04  0.25500000920E-02 0. -1.
    10030    2    1    2    0    0  0.00000000000E+00  0.00000000000E+00 -0.92462586267E+03  0.15139991500E+04  0.11988579734E+04 0.  0.
        2    1    3    3  502    0  0.14191904452E+03  0.44610353432E+03 -0.93511440261E+03  0.10457477346E+04  0.25500000920E-02 0. -1.
       -2    1    3    3    0  502 -0.14191904452E+03 -0.44610353432E+03  0.10488539938E+02  0.46825141538E+03  0.25500000920E-02 0.  1.
</event>
<event>
 5   0  0.3883890E-04  0.1200404E+04  0.7818609E-02  0.9112503E-01
       -2   -1    0    0    0  501  0.00000000000E+00  0.00000000000E+00  0.36401950748E+03  0.36401950749E+03  0.25500000920E-02 0.  1.
        2   -1    0    0  501    0  0.00000000000E+00  0.00000000000E+00 -0.98962434343E+03  0.98962434344E+03  0.25500000920E-02 0. -1.
    10030    2    1    2    0    0  0.00000000000E+00  0.00000000000E+00 -0.62560483596E+03  0.13536438509E+04  0.12004042087E+04 0.  0.
        2    1    3    3  502    0  0.41246849272E+02 -0.14907904414E+03  0.34115748872E+03  0.37458549904E+03  0.25500000920E-02 0.  1.
       -2    1    3    3    0  502 -0.41246849272E+02  0.14907904414E+03 -0.96676232467E+03  0.97905835188E+03  0.25500000920E-02 0. -1.
</event>
<event>
 5   0  0.2315038E-04  0.1199536E+04  0.7818609E-02  0.9113262E-01
       -1   -1    0    0    0  501  0.00000000000E+00  0.00000000000E+00  0.70167167419E+03  0.70167167421E+03  0.50400001928E-02 0.  1.
        1   -1    0    0  501    0  0.00000000000E+00  0.00000000000E+00 -0.51266404392E+03  0.51266404395E+03  0.50400001928E-02 0. -1.
    10030    2    1    2    0    0  0.00000000000E+00  0.00000000000E+00  0.18900763027E+03  0.12143357182E+04  0.11995363071E+04 0.  0.
        1    1    3    3  502    0  0.15296285945E+03  0.56537320107E+03  0.22523789970E+03  0.62751621839E+03  0.50400001928E-02 0.  1.
       -1    1    3    3    0  502 -0.15296285945E+03 -0.56537320107E+03 -0.36230269427E+02  0.58681949977E+03  0.50400001928E-02 0. -1.
</event>
<event>
 5   0  0.4122956E-04  0.1199682E+04  0.7818609E-02  0.9113135E-01
       -2   -1    0    0    0  501  0.00000000000E+00  0.00000000000E+00  0.24206615310E+03  0.24206615311E+03  0.25500000920E-02 0. -1.
        2   -1    0    0  501    0  0.00000000000E+00  0.00000000000E+00 -0.14864079639E+04  0.14864079639E+04  0.25500000920E-02 0.  1.
    10030    2    1    2    0    0  0.00000000000E+00  0.00000000000E+00 -0.12443418108E+04  0.17284741170E+04  0.11996817207E+04 0.  0.
        5    1    3    3  502    0 -0.42916332459E+02 -0.56323358951E+02 -0.14803383169E+04  0.14820383784E+04  0.46999998093E+01 0.  1.
       -5    1    3    3    0  502  0.42916332459E+02  0.56323358951E+02  0.23599650616E+03  0.24643573862E+03  0.46999998093E+01 0. -1.
</event>
<event>
 5   0  0.2304842E-04  0.1200965E+04  0.7818609E-02  0.9112013E-01
       -1   -1    0    0    0  501  0.00000000000E+00  0.00000000000E+00  0.94822235818E+03  0.94822235820E+03  0.50400001928E-02 0. -1.
        1   -1    0    0  501    0  0.00000000000E+00  0.00000000000E+00 -0.38026837992E+03  0.38026837996E+03  0.50400001928E-02 0.  1.
    10030    2    1    2    0    0  0.00000000000E+00  0.00000000000E+00  0.56795397826E+03  0.13284907382E+04  0.12009645790E+04 0.  0.
        4    1    3    3  502    0 -0.20126422923E+03 -0.16282514987E+03  0.88331983788E+03  0.92047534909E+03  0.12699999809E+01 0. -1.
       -4    1    3    3    0  502  0.20126422923E+03  0.16282514987E+03 -0.31536585962E+03  0.40801538906E+03  0.12699999809E+01 0.  1.
</event>
<event>
 5   0  0.3883890E-04  0.1201317E+04  0.7818609E-02  0.9111705E-01
        2   -1    0    0  501    0  0.00000000000E+00  0.00000000000E+00  0.77081872672E+03  0.77081872672E+03  0.25500000920E-02 0.  1.
       -2   -1    0    0    0  501  0.00000000000E+00  0.00000000000E+00 -0.46806133066E+03  0.46806133067E+03  0.25500000920E-02 0. -1.
    10030    2    1    2    0    0  0.00000000000E+00  0.00000000000E+00  0.30275739606E+03  0.12388800574E+04  0.12013166759E+04 0.  0.
        2    1    3    3  502    0  0.21474328973E+03  0.26656901620E+03 -0.35763011337E+03  0.49504850154E+03  0.25500000920E-02 0. -1.
       -2    1    3    3    0  502 -0.21474328973E+03 -0.26656901620E+03  0.66038750942E+03  0.74383155586E+03  0.25500000920E-02 0.  1.
</event>
<event>
 5   0  0.2340731E-04  0.1200399E+04  0.7818609E-02  0.9112508E-01
        1   -1    0    0  501    0  0.00000000000E+00  0.00000000000E+00  0.22473098595E+04  0.22473098595E+04  0.50400001928E-02 0. -1.
       -1   -1    0    0    0  501  0.00000000000E+00  0.00000000000E+00 -0.16029797511E+03  0.16029797519E+03  0.50400001928E-02 0.  1.
    10030    2    1    2    0    0  0.00000000000E+00  0.00000000000E+00  0.20870118844E+04  0.24076078347E+04  0.12003986338E+04 0.  0.
        3    1    3    3  502    0 -0.72371141668E+02  0.12602528447E+03 -0.12447694680E+03  0.19134909186E+03  0.10100000352E+00 0.  1.
       -3    1    3    3    0  502  0.72371141668E+02 -0.12602528447E+03  0.22114888312E+04  0.22162587429E+04  0.10100000352E+00 0. -1.
</event>
<event>
 5   0  0.2244308E-04  0.1215003E+04  0.7818609E-02  0.9099825E-01
       -1   -1    0    0    0  501  0.00000000000E+00  0.00000000000E+00  0.10043424647E+04  0.10043424647E+04  0.50400001928E-02 0.  1.
        1   -1    0    0  501    0  0.00000000000E+00  0.00000000000E+00 -0.36746255496E+03  0.36746255499E+03  0.50400001928E-02 0. -1.
    10030    2    1    2    0    0  0.00000000000E+00  0.00000000000E+00  0.63687990971E+03  0.13718050197E+04  0.12150032891E+04 0.  0.
        5    1    3    3  502    0 -0.49315101109E+02 -0.59895205809E+03  0.41854203171E+03  0.73237631679E+03  0.46999998093E+01 0.  1.
       -5    1    3    3    0  502  0.49315101109E+02  0.59895205809E+03  0.21833787800E+03  0.63942870287E+03  0.46999998093E+01 0. -1.
</event>
<event>
 5   0  0.2204090E-04  0.1199688E+04  0.7818609E-02  0.9113129E-01
       -1   -1    0    0    0  501  0.00000000000E+00  0.00000000000E+00  0.25195997558E+03  0.25195997563E+03  0.50400001928E-02 0. -1.
        1   -1    0    0  501    0  0.00000000000E+00  0.00000000000E+00 -0.14280560283E+04  0.14280560283E+04  0.50400001928E-02 0.  1.
    10030    2    1    2    0    0  0.00000000000E+00  0.00000000000E+00 -0.11760960527E+04  0.16800160039E+04  0.11996882296E+04 0.  0.
        2    1    3    3  502    0  0.59314660922E+03 -0.76881463179E+02 -0.52419170802E+03  0.79530535404E+03  0.25500000920E-02 0.  1.
       -2    1    3    3    0  502 -0.59314660922E+03  0.76881463179E+02 -0.65190434470E+03  0.88471064990E+03  0.25500000920E-02 0. -1.
</event>
<event>
 5   0  0.2244308E-04  0.1194838E+04  0.7818609E-02  0.9117387E-01
       -1   -1    0    0    0  501  0.00000000000E+00  0.00000000000E+00  0.23521987397E+03  0.23521987402E+03  0.50400001928E-02 0.  1.
        1   -1    0    0  501    0  0.00000000000E+00  0.00000000000E+00 -0.15173447744E+04  0.15173447744E+04  0.50400001928E-02 0. -1.
    10030    2    1    2    0    0  0.00000000000E+00  0.00000000000E+00 -0.12821249005E+04  0.17525646485E+04  0.11948383098E+04 0.  0.
        5    1    3    3  502    0 -0.25254763845E+03 -0.34861911998E+03 -0.33504008246E+02  0.43181038555E+03  0.46999998093E+01 0.  1.
       -5    1    3    3    0  502  0.25254763845E+03  0.34861911998E+03 -0.12486208922E+04  0.13207542629E+04  0.46999998093E+01 0. -1.
</event>
<event>
 5   0  0.3883890E-04  0.1199559E+04  0.7818609E-02  0.9113243E-01
        2   -1    0    0  501    0  0.00000000000E+00  0.00000000000E+00  0.68124896384E+03  0.68124896385E+03  0.25500000920E-02 0. -1.
       -2   -1    0    0    0  501  0.00000000000E+00  0.00000000000E+00 -0.52805264822E+03  0.52805264822E+03  0.25500000920E-02 0.  1.
    10030    2    1    2    0    0  0.00000000000E+00  0.00000000000E+00  0.15319631562E+03  0.12093016121E+04  0.11995587847E+04 0.  0.
        2    1    3    3  502    0  0.21599407092E+01 -0.29125799410E+03  0.60516512683E+03  0.67161053833E+03  0.25500000920E-02 0. -1.
       -2    1    3    3    0  502 -0.21599407092E+01  0.29125799410E+03 -0.45196881120E+03  0.53769107374E+03  0.25500000920E-02 0.  1.
</event>
<event>
 5   0  0.3883890E-04  0.1201838E+04  0.7818609E-02  0.9111250E-01
        2   -1    0    0  501    0  0.00000000000E+00  0.00000000000E+00  0.65573618203E+03  0.65573618203E+03  0.25500000920E-02 0. -1.
       -2   -1    0    0    0  501  0.00000000000E+00  0.00000000000E+00 -0.55068401676E+03  0.55068401676E+03  0.25500000920E-02 0.  1.
    10030    2    1    2    0    0  0.00000000000E+00  0.00000000000E+00  0.10505216527E+03  0.12064201988E+04  0.12018376507E+04 0.  0.
        2    1    3    3  502    0  0.10376161006E+03 -0.57781099298E+03 -0.76304302841E+02  0.59199185972E+03  0.25500000920E-02 0.  1.
       -2    1    3    3    0  502 -0.10376161006E+03  0.57781099298E+03  0.18135646811E+03  0.61442833908E+03  0.25500000920E-02 0. -1.
</event>
<event>
 5   0  0.2204090E-04  0.1199609E+04  0.7818609E-02  0.9113199E-01
       -1   -1    0    0    0  501  0.00000000000E+00  0.00000000000E+00  0.75146620853E+03  0.75146620855E+03  0.50400001928E-02 0.  1.
        1   -1    0    0  501    0  0.00000000000E+00  0.00000000000E+00 -0.47875136412E+03  0.47875136414E+03  0.50400001928E-02 0. -1.
    10030    2    1    2    0    0  0.00000000000E+00  0.00000000000E+00  0.27271484441E+03  0.12302175727E+04  0.11996090571E+04 0.  0.
        2    1    3    3  502    0  0.12438051919E+03 -0.42202615067E+03  0.55442181536E+03  0.70778537337E+03  0.25500000920E-02 0.  1.
       -2    1    3    3    0  502 -0.12438051919E+03  0.42202615067E+03 -0.28170697095E+03  0.52243219932E+03  0.25500000920E-02 0. -1.
</event>
<event>
 5   0  0.3832662E-04  0.1198660E+04  0.7818609E-02  0.9114031E-01
        2   -1    0    0  501    0  0.00000000000E+00  0.00000000000E+00  0.11356629724E+04  0.11356629724E+04  0.25500000920E-02 0.  1.
       -2   -1    0    0    0  501  0.00000000000E+00  0.00000000000E+00 -0.31628769289E+03  0.31628769290E+03  0.25500000920E-02 0. -1.
    10030    2    1    2    0    0  0.00000000000E+00  0.00000000000E+00  0.81937527955E+03  0.14519506653E+04  0.11986596205E+04 0.  0.
        4    1    3    3  502    0 -0.13320625297E+03 -0.56181798021E+03  0.21507968606E+03  0.61615276756E+03  0.12699999809E+01 0.  1.
       -4    1    3    3    0  502  0.13320625297E+03  0.56181798021E+03  0.60429559350E+03  0.83579789778E+03  0.12699999809E+01 0. -1.
</event>
<event>
 5   0  0.2244308E-04  0.1201150E+04  0.7818609E-02  0.9111851E-01
        1   -1    0    0  501    0  0.00000000000E+00  0.00000000000E+00  0.56963089959E+03  0.56963089961E+03  0.50400001928E-02 0. -1.
       -1   -1    0    0    0  501  0.00000000000E+00  0.00000000000E+00 -0.63319963417E+03  0.63319963419E+03  0.50400001928E-02 0.  1.
    10030    2    1    2    0    0  0.00000000000E+00  0.00000000000E+00 -0.63568734580E+02  0.12028305338E+04  0.12011495781E+04 0.  0.
        5    1    3    3  502    0  0.12149767287E+03  0.52501725062E+03 -0.29722736937E+03  0.61544373996E+03  0.46999998093E+01 0.  1.
       -5    1    3    3    0  502 -0.12149767287E+03 -0.52501725062E+03  0.23365863479E+03  0.58738679383E+03  0.46999998093E+01 0. -1.
</event>
<event>
 5   0  0.2244308E-04  0.1199016E+04  0.7818609E-02  0.9113718E-01
        1   -1    0    0  501    0  0.00000000000E+00  0.00000000000E+00  0.12401552294E+04  0.12401552294E+04  0.50400001928E-02 0.  1.
       -1   -1    0    0    0  501  0.00000000000E+00  0.00000000000E+00 -0.28981041511E+03  0.28981041516E+03  0.50400001928E-02 0. -1.
    10030    2    1    2    0    0  0.00000000000E+00  0.00000000000E+00  0.95034481431E+03  0.15299656446E+04  0.11990160998E+04 0.  0.
        5    1    3    3  502    0  0.44197170269E+03 -0.30668757668E+03  0.13759024600E+03  0.55529219467E+03  0.46999998093E+01 0. -1.
       -5    1    3    3    0  502 -0.44197170269E+03  0.30668757668E+03  0.81275456830E+03  0.97467344991E+03  0.46999998093E+01 0.  1.
</event>
<event>
 5   0  0.2340731E-04  0.1201530E+04  0.7818609E-02  0.9111518E-01
        1   -1    0    0  501    0  0.00000000000E+00  0.00000000000E+00  0.46497432541E+03  0.46497432544E+03  0.50400001928E-02 0.  1.
       -1   -1    0    0    0  501  0.00000000000E+00  0.00000000000E+00 -0.77621241298E+03  0.77621241300E+03  0.50400001928E-02 0. -1.
    10030    2    1    2    0    0  0.00000000000E+00  0.00000000000E+00 -0.31123808757E+03  0.12411867384E+04  0.12015304293E+04 0.  0.
        3    1    3    3  502    0 -0.33366501060E+03  0.26576214090E+03 -0.59261424864E+03  0.73017361820E+03  0.10100000352E+00 0. -1.
       -3    1    3    3    0  502  0.33366501060E+03 -0.26576214090E+03  0.28137616106E+03  0.51101312023E+03  0.10100000352E+00 0.  1.
</event>
<event>
 5   0  0.3883890E-04  0.1202581E+04  0.7818609E-02  0.9110600E-01
        2   -1    0    0  501    0  0.00000000000E+00  0.00000000000E+00  0.10356612429E+04  0.10356612429E+04  0.25500000920E-02 0. -1.
       -2   -1    0    0    0  501  0.00000000000E+00  0.00000000000E+00 -0.34910101578E+03  0.34910101578E+03  0.25500000920E-02 0.  1.
    10030    2    1    2    0    0  0.00000000000E+00  0.00000000000E+00  0.68656022712E+03  0.13847622587E+04  0.12025812104E+04 0.  0.
        2    1    3    3  502    0  0.15621768868E+02  0.96633998810E+02 -0.33986431685E+03  0.35368053842E+03  0.25500000920E-02 0.  1.
       -2    1    3    3    0  502 -0.15621768868E+02 -0.96633998810E+02  0.10264245440E+04  0.10310817203E+04  0.25500000920E-02 0. -1.
</event>
<event>
 5   0  0.2315038E-04  0.1203949E+04  0.7818609E-02  0.9109407E-01
        1   -1    0    0  501    0  0.00000000000E+00  0.00000000000E+00  0.89343414883E+03  0.89343414884E+03  0.50400001928E-02 0.  1.
       -1   -1    0    0    0  501  0.00000000000E+00  0.00000000000E+00 -0.40559609463E+03  0.40559609466E+03  0.50400001928E-02 0. -1.
    10030    2    1    2    0    0  0.00000000000E+00  0.00000000000E+00  0.48783805419E+03  0.12990302435E+04  0.12039491710E+04 0.  0.
        1    1    3    3  502    0 -0.47054971488E+03  0.55603606272E+02 -0.15670547103E+03  0.49906452477E+03  0.50400001928E-02 0. -1.
       -1    1    3    3    0  502  0.47054971488E+03 -0.55603606272E+02  0.64454352523E+03  0.79996571873E+03  0.50400001928E-02 0.  1.
</event>
<event>
 5   0  0.3883890E-04  0.1200856E+04  0.7818609E-02  0.9112107E-01
        2   -1    0    0  501    0  0.00000000000E+00  0.00000000000E+00  0.10837348533E+04  0.10837348533E+04  0.25500000920E-02 0. -1.
       -2   -1    0    0    0  501  0.00000000000E+00  0.00000000000E+00 -0.33265890372E+03  0.33265890373E+03  0.25500000920E-02 0.  1.
    10030    2    1    2    0    0  0.00000000000E+00  0.00000000000E+00  0.75107594961E+03  0.14163937571E+04  0.12008564414E+04 0.  0.
        2    1    3    3  502    0  0.42393485919E+03  0.38120343901E+03  0.15337703110E+03  0.59039083701E+03  0.25500000920E-02 0.  1.
       -2    1    3    3    0  502 -0.42393485919E+03 -0.38120343901E+03  0.59769891851E+03  0.82600292006E+03  0.25500000920E-02 0. -1.
</event>
<event>
 5   0  0.3883890E-04  0.1200516E+04  0.7818609E-02  0.9112405E-01
       -2   -1    0    0    0  501  0.00000000000E+00  0.00000000000E+00  0.17592229283E+03  0.17592229285E+03  0.25500000920E-02 0.  1.
        2   -1    0    0  501    0  0.00000000000E+00  0.00000000000E+00 -0.20481193549E+04  0.20481193549E+04  0.25500000920E-02 0. -1.
    10030    2    1    2    0    0  0.00000000000E+00  0.00000000000E+00 -0.18721970621E+04  0.22240416478E+04  0.12005163105E+04 0.  0.
        2    1    3    3  502    0 -0.57248949986E+03 -0.17230316305E+03 -0.83672669614E+03  0.10283696668E+04  0.25500000920E-02 0.  1.
       -2    1    3    3    0  502  0.57248949986E+03  0.17230316305E+03 -0.10354703660E+04  0.11956719810E+04  0.25500000920E-02 0. -1.
</event>
<event>
 5   0  0.2340731E-04  0.1201195E+04  0.7818609E-02  0.9111811E-01
       -1   -1    0    0    0  501  0.00000000000E+00  0.00000000000E+00  0.18251611234E+03  0.18251611241E+03  0.50400001928E-02 0. -1.
        1   -1    0    0  501    0  0.00000000000E+00  0.00000000000E+00 -0.19763587650E+04  0.19763587650E+04  0.50400001928E-02 0.  1.
    10030    2    1    2    0    0  0.00000000000E+00  0.00000000000E+00 -0.17938426526E+04  0.21588748774E+04  0.12011949358E+04 0.  0.
        3    1    3    3  502    0  0.18531261294E+03  0.49841411009E+03 -0.13987432934E+04  0.14964091020E+04  0.10100000352E+00 0.  1.
       -3    1    3    3    0  502 -0.18531261294E+03 -0.49841411009E+03 -0.39509935926E+03  0.66246577537E+03  0.10100000352E+00 0. -1.
</event>
<event>
 5   0  0.2315038E-04  0.1198445E+04  0.7818609E-02  0.9114219E-01
        1   -1    0    0  501    0  0.00000000000E+00  0.00000000000E+00  0.96971712222E+03  0.96971712223E+03  0.50400001928E-02 0.  1.
       -1   -1    0    0    0  501  0.00000000000E+00  0.00000000000E+00 -0.37028070864E+03  0.37028070868E+03  0.50400001928E-02 0. -1.
    10030    2    1    2    0    0  0.00000000000E+00  0.00000000000E+00  0.59943641357E+03  0.13399978309E+04  0.11984448977E+04 0.  0.
        1    1    3    3  502    0  0.19098360567E+03 -0.47991471516E+03  0.63936481269E+03  0.82193688030E+03  0.50400001928E-02 0.  1.
       -1    1    3    3    0  502 -0.19098360567E+03  0.47991471516E+03 -0.39928399120E+02  0.51806095061E+03  0.50400001928E-02 0. -1.
</event>
<event>
 5   0  0.2340731E-04  0.1200386E+04  0.7818609E-02  0.9112519E-01
        1   -1    0    0  501    0  0.00000000000E+00  0.00000000000E+00  0.73496212371E+03  0.73496212373E+03  0.50400001928E-02 0. -1.
       -1   -1    0    0    0  501  0.00000000000E+00  0.00000000000E+00 -0.49013615156E+03  0.49013615159E+03  0.50400001928E-02 0.  1.
    10030    2    1    2    0    0  0.00000000000E+00  0.00000000000E+00  0.24482597215E+03  0.12250982753E+04  0.12003857828E+04 0.  0.
        3    1    3    3  502    0  0.33347035483E+03 -0.19232308676E+03 -0.34754588630E+03  0.51863166172E+03  0.10100000352E+00 0.  1.
       -3    1    3    3    0  502 -0.33347035483E+03  0.19232308676E+03  0.59237185845E+03  0.70646661360E+03  0.10100000352E+00 0. -1.
</event>
<event>
 5   0  0.2244308E-04  0.1199947E+04  0.7818609E-02  0.9112903E-01
        1   -1    0    0  501    0  0.00000000000E+00  0.00000000000E+00  0.98726400104E+03  0.98726400105E+03  0.50400001928E-02 0.  1.
       -1   -1    0    0    0  501  0.00000000000E+00  0.00000000000E+00 -0.36461185223E+03  0.36461185226E+03  0.50400001928E-02 0. -1.
    10030    2    1    2    0    0  0.00000000000E+00  0.00000000000E+00  0.62265214882E+03  0.13518758533E+04  0.11999469256E+04 0.  0.
        5    1    3    3  502    0  0.33935302746E+03 -0.20418357935E+03  0.81904578081E+03  0.90978541007E+03  0.46999998093E+01 0.  1.
       -5    1    3    3    0  502 -0.33935302746E+03  0.20418357935E+03 -0.19639363199E+03  0.44209044324E+03  0.46999998093E+01 0. -1.
</event>
<event>
 5   0  0.2304842E-04  0.1196462E+04  0.7818609E-02  0.9115959E-01
        1   -1    0    0  501    0  0.00000000000E+00  0.00000000000E+00  0.95051615450E+03  0.95051615452E+03  0.50400001928E-02 0.  1.
       -1   -1    0    0    0  501  0.00000000000E+00  0.00000000000E+00 -0.37651129564E+03  0.37651129567E+03  0.50400001928E-02 0. -1.
    10030    2    1    2    0    0  0.00000000000E+00  0.00000000000E+00  0.57400485886E+03  0.13270274502E+04  0.11964615646E+04 0.  0.
        4    1    3    3  502    0 -0.22638209621E+03 -0.83324633627E+02 -0.32017388659E+03  0.40088000525E+03  0.12699999809E+01 0. -1.
       -4    1    3    3    0  502  0.22638209621E+03  0.83324633627E+02  0.89417874545E+03  0.92614744494E+03  0.12699999809E+01 0.  1.
</event>
<event>
 5   0  0.2304842E-04  0.1201541E+04  0.7818609E-02  0.9111509E-01
       -1   -1    0    0    0  501  0.00000000000E+00  0.00000000000E+00  0.10430680590E+04  0.10430680590E+04  0.50400001928E-02 0.  1.
        1   -1    0    0  501    0  0.00000000000E+00  0.00000000000E+00 -0.34602243075E+03  0.34602243078E+03  0.50400001928E-02 0. -1.
    10030    2    1    2    0    0  0.00000000000E+00  0.00000000000E+00  0.69704562821E+03  0.13890904897E+04  0.12015405865E+04 0.  0.
        4    1    3    3  502    0 -0.42925757397E+03 -0.41120699331E+03  0.24793573032E+03  0.64407064475E+03  0.12699999809E+01 0.  1.
       -4    1    3    3    0  502  0.42925757397E+03  0.41120699331E+03  0.44910989789E+03  0.74501984500E+03  0.12699999809E+01 0. -1.
</event>
<event>
 5   0  0.4024486E-04  0.1194734E+04  0.7818609E-02  0.9117479E-01
        2   -1    0    0  501    0  0.00000000000E+00  0.00000000000E+00  0.99922163672E+03  0.99922163672E+03  0.25500000920E-02 0. -1.
       -2   -1    0    0    0  501  0.00000000000E+00  0.00000000000E+00 -0.35712504818E+03  0.35712504819E+03  0.25500000920E-02 0.  1.
    10030    2    1    2    0    0  0.00000000000E+00  0.00000000000E+00  0.64209658854E+03  0.13563466849E+04  0.11947335689E+04 0.  0.
        1    1    3    3  502    0  0.12324440680E+03 -0.45803914019E+03  0.73329096921E+03  0.87332965328E+03  0.50400001928E-02 0. -1.
       -1    1    3    3    0  502 -0.12324440680E+03  0.45803914019E+03 -0.91194380668E+02  0.48301703163E+03  0.50400001928E-02 0.  1.
</event>
<event>
 5   0  0.3993723E-04  0.1200278E+04  0.7818609E-02  0.9112613E-01
        2   -1    0    0  501    0  0.00000000000E+00  0.00000000000E+00  0.80491402576E+03  0.80491402577E+03  0.25500000920E-02 0.  1.
       -2   -1    0    0    0  501  0.00000000000E+00  0.00000000000E+00 -0.44746027065E+03  0.44746027066E+03  0.25500000920E-02 0. -1.
    10030    2    1    2    0    0  0.00000000000E+00  0.00000000000E+00  0.35745375511E+03  0.12523742964E+04  0.12002783808E+04 0.  0.
        3    1    3    3  502    0 -0.25364094248E+03  0.20662647470E+03  0.70369330320E+03  0.77602351957E+03  0.10100000352E+00 0.  1.
       -3    1    3    3    0  502  0.25364094248E+03 -0.20662647470E+03 -0.34623954809E+03  0.47635077686E+03  0.10100000352E+00 0. -1.
</event>
<event>
 5   0  0.2244308E-04  0.1190425E+04  0.7818609E-02  0.9121279E-01
       -1   -1    0    0    0  501  0.00000000000E+00  0.00000000000E+00  0.43913956162E+03  0.43913956165E+03  0.50400001928E-02 0. -1.
        1   -1    0    0  501    0  0.00000000000E+00  0.00000000000E+00 -0.80675449113E+03  0.80675449115E+03  0.50400001928E-02 0.  1.
    10030    2    1    2    0    0  0.00000000000E+00  0.00000000000E+00 -0.36761492952E+03  0.12458940528E+04  0.11904248210E+04 0.  0.
        5    1    3    3  502    0  0.53376016394E+03  0.19057993360E+03  0.64172543206E+01  0.56681910241E+03  0.46999998093E+01 0. -1.
       -5    1    3    3    0  502 -0.53376016394E+03 -0.19057993360E+03 -0.37403218384E+03  0.67907495039E+03  0.46999998093E+01 0.  1.
</event>
<event>
 5   0  0.3883890E-04  0.1196937E+04  0.7818609E-02  0.9115542E-01
        2   -1    0    0  501    0  0.00000000000E+00  0.00000000000E+00  0.16266369851E+04  0.16266369851E+04  0.25500000920E-02 0. -1.
       -2   -1    0    0    0  501  0.00000000000E+00  0.00000000000E+00 -0.22018696781E+03  0.22018696783E+03  0.25500000920E-02 0.  1.
    10030    2    1    2    0    0  0.00000000000E+00  0.00000000000E+00  0.14064500173E+04  0.18468239529E+04  0.11969365321E+04 0.  0.
        2    1    3    3  502    0  0.66110876234E+02  0.46150684717E+03  0.12822049100E+04  0.13643345078E+04  0.25500000920E-02 0. -1.
       -2    1    3    3    0  502 -0.66110876234E+02 -0.46150684717E+03  0.12424510725E+03  0.48248944509E+03  0.25500000920E-02 0.  1.
</event>
<event>
 5   0  0.3832662E-04  0.1197725E+04  0.7818609E-02  0.9114850E-01
       -2   -1    0    0    0  501  0.00000000000E+00  0.00000000000E+00  0.11717697549E+04  0.11717697550E+04  0.25500000920E-02 0.  1.
        2   -1    0    0  501    0  0.00000000000E+00  0.00000000000E+00 -0.30606374903E+03  0.30606374904E+03  0.25500000920E-02 0. -1.
    10030    2    1    2    0    0  0.00000000000E+00  0.00000000000E+00  0.86570600592E+03  0.14778335040E+04  0.11977249170E+04 0.  0.
        4    1    3    3  502    0 -0.31455362788E+03 -0.18555741336E+03 -0.15275848686E+03  0.39586905243E+03  0.12699999809E+01 0. -1.
       -4    1    3    3    0  502  0.31455362788E+03  0.18555741336E+03  0.10184644928E+04  0.10819644516E+04  0.12699999809E+01 0.  1.
</event>
<event>
 5   0  0.2304842E-04  0.1198810E+04  0.7818609E-02  0.9113898E-01
        1   -1    0    0  501    0  0.00000000000E+00  0.00000000000E+00  0.96508540660E+03  0.96508540661E+03  0.50400001928E-02 0.  1.
       -1   -1    0    0    0  501  0.00000000000E+00  0.00000000000E+00 -0.37228482675E+03  0.37228482678E+03  0.50400001928E-02 0. -1.
    10030    2    1    2    0    0  0.00000000000E+00  0.00000000000E+00  0.59280057985E+03  0.13373702334E+04  0.11988104995E+04 0.  0.
        4    1    3    3  502    0 -0.48955871958E+03 -0.34584413108E+03  0.29302805871E+03  0.66719034691E+03  0.12699999809E+01 0.  1.
       -4    1    3    3    0  502  0.48955871958E+03  0.34584413108E+03  0.29977252114E+03  0.67017988649E+03  0.12699999809E+01 0. -1.
</event>
<event>
 5   0  0.4122956E-04  0.1199031E+04  0.7818609E-02  0.9113705E-01
        2   -1    0    0  501    0  0.00000000000E+00  0.00000000000E+00  0.26876166117E+04  0.26876166117E+04  0.25500000920E-02 0.  1.
       -2   -1    0    0    0  501  0.00000000000E+00  0.00000000000E+00 -0.13373134657E+03  0.13373134660E+03  0.25500000920E-02 0. -1.
    10030    2    1    2    0    0  0.00000000000E+00  0.00000000000E+00  0.25538852652E+04  0.28213479583E+04  0.11990305894E+04 0.  0.
        5    1    3    3  502    0  0.18937120517E+03 -0.54441242016E+03  0.88922763454E+03  0.10597142127E+04  0.46999998093E+01 0.  1.
       -5    1    3    3    0  502 -0.18937120517E+03  0.54441242016E+03  0.16646576306E+04  0.17616337456E+04  0.46999998093E+01 0. -1.
</event>
<event>
 5   0  0.4024486E-04  0.1217790E+04  0.7818609E-02  0.9097426E-01
        2   -1    0    0  501    0  0.00000000000E+00  0.00000000000E+00  0.10917433122E+04  0.10917433122E+04  0.25500000920E-02 0.  1.
       -2   -1    0    0    0  501  0.00000000000E+00  0.00000000000E+00 -0.33959740145E+03  0.33959740145E+03  0.25500000920E-02 0. -1.
    10030    2    1    2    0    0  0.00000000000E+00  0.00000000000E+00  0.75214591076E+03  0.14313407137E+04  0.12177901164E+04 0.  0.
        1    1    3    3  502    0 -0.31155923486E+03 -0.13235901720E+03 -0.21880870732E+03  0.40306986576E+03  0.50400001928E-02 0. -1.
       -1    1    3    3    0  502  0.31155923486E+03  0.13235901720E+03  0.97095461808E+03  0.10282708479E+04  0.50400001928E-02 0.  1.
</event>
<event>
 5   0  0.2304842E-04  0.1208467E+04  0.7818609E-02  0.9105477E-01
        1   -1    0    0  501    0  0.00000000000E+00  0.00000000000E+00  0.10270897128E+04  0.10270897128E+04  0.50400001928E-02 0.  1.
       -1   -1    0    0    0  501  0.00000000000E+00  0.00000000000E+00 -0.35546863992E+03  0.35546863996E+03  0.50400001928E-02 0. -1.
    10030    2    1    2    0    0  0.00000000000E+00  0.00000000000E+00  0.67162107290E+03  0.13825583528E+04  0.12084671006E+04 0.  0.
        4    1    3    3  502    0  0.84809505941E+02 -0.16512529625E+03 -0.32203620661E+03  0.37170949278E+03  0.12699999809E+01 0. -1.
       -4    1    3    3    0  502 -0.84809505941E+02  0.16512529625E+03  0.99365727950E+03  0.10108488600E+04  0.12699999809E+01 0.  1.
</event>
<event>
 5   0  0.1541375E-04  0.1200610E+04  0.7818609E-02  0.9112323E-01
        3   -1    0    0  501    0  0.00000000000E+00  0.00000000000E+00  0.39387890416E+03  0.39387891711E+03  0.10100000352E+00 0. -1.
       -3   -1    0    0    0  501  0.00000000000E+00  0.00000000000E+00 -0.91491587548E+03  0.91491588105E+03  0.10100000352E+00 0.  1.
    10030    2    1    2    0    0  0.00000000000E+00  0.00000000000E+00 -0.52103697132E+03  0.13087947982E+04  0.12006099692E+04 0.  0.
        3    1    3    3  502    0 -0.16115488658E+03  0.13794134709E+02 -0.89071502542E+03  0.90528141610E+03  0.10100000352E+00 0.  1.
       -3    1    3    3    0  502  0.16115488658E+03 -0.13794134709E+02  0.36967805410E+03  0.40351338206E+03  0.10100000352E+00 0. -1.
</event>
<event>
 5   0  0.2315038E-04  0.1200712E+04  0.7818609E-02  0.9112234E-01
       -1   -1    0    0    0  501  0.00000000000E+00  0.00000000000E+00  0.38050265464E+03  0.38050265468E+03  0.50400001928E-02 0. -1.
        1   -1    0    0  501    0  0.00000000000E+00  0.00000000000E+00 -0.94724006110E+03  0.94724006111E+03  0.50400001928E-02 0.  1.
    10030    2    1    2    0    0  0.00000000000E+00  0.00000000000E+00 -0.56673740646E+03  0.13277427158E+04  0.12007120518E+04 0.  0.
        1    1    3    3  502    0  0.12193311237E+03  0.36616020243E+03 -0.79189832965E+03  0.88093356291E+03  0.50400001928E-02 0.  1.
       -1    1    3    3    0  502 -0.12193311237E+03 -0.36616020243E+03  0.22516092320E+03  0.44680915288E+03  0.50400001928E-02 0. -1.
</event>
<event>
 5   0  0.3832662E-04  0.1198380E+04  0.7818609E-02  0.9114275E-01
       -2   -1    0    0    0  501  0.00000000000E+00  0.00000000000E+00  0.82823018659E+03  0.82823018659E+03  0.25500000920E-02 0.  1.
        2   -1    0    0  501    0  0.00000000000E+00  0.00000000000E+00 -0.43348922945E+03  0.43348922946E+03  0.25500000920E-02 0. -1.
    10030    2    1    2    0    0  0.00000000000E+00  0.00000000000E+00  0.39474095713E+03  0.12617194161E+04  0.11983803493E+04 0.  0.
        4    1    3    3  502    0  0.28799054003E+03 -0.15790706821E+03 -0.33027012459E+03  0.46578231121E+03  0.12699999809E+01 0. -1.
       -4    1    3    3    0  502 -0.28799054003E+03  0.15790706821E+03  0.72501108173E+03  0.79593710484E+03  0.12699999809E+01 0.  1.
</event>
<event>
 5   0  0.3993723E-04  0.1200210E+04  0.7818609E-02  0.9112673E-01
       -2   -1    0    0    0  501  0.00000000000E+00  0.00000000000E+00  0.15645458058E+04  0.15645458058E+04  0.25500000920E-02 0.  1.
        2   -1    0    0  501    0  0.00000000000E+00  0.00000000000E+00 -0.23017923603E+03  0.23017923604E+03  0.25500000920E-02 0. -1.
    10030    2    1    2    0    0  0.00000000000E+00  0.00000000000E+00  0.13343665698E+04  0.17947250418E+04  0.12002099122E+04 0.  0.
        3    1    3    3  502    0 -0.24932210969E+03 -0.36971178186E+02  0.14815584190E+04  0.15028452154E+04  0.10100000352E+00 0.  1.
       -3    1    3    3    0  502  0.24932210969E+03  0.36971178186E+02 -0.14719184922E+03  0.29187982643E+03  0.10100000352E+00 0. -1.
</event>
<event>
 5   0  0.3883890E-04  0.1202892E+04  0.7818609E-02  0.9110329E-01
       -2   -1    0    0    0  501  0.00000000000E+00  0.00000000000E+00  0.91751830657E+03  0.91751830657E+03  0.25500000920E-02 0. -1.
        2   -1    0    0  501    0  0.00000000000E+00  0.00000000000E+00 -0.39425600468E+03  0.39425600469E+03  0.25500000920E-02 0.  1.
    10030    2    1    2    0    0  0.00000000000E+00  0.00000000000E+00  0.52326230189E+03  0.13117743113E+04  0.12028916855E+04 0.  0.
        2    1    3    3  502    0  0.59592012463E+02 -0.20433541346E+03  0.87507305168E+03  0.90058703906E+03  0.25500000920E-02 0. -1.
       -2    1    3    3    0  502 -0.59592012463E+02  0.20433541346E+03 -0.35181074979E+03  0.41118727220E+03  0.25500000920E-02 0.  1.
</event>
<event>
 5   0  0.3883890E-04  0.1200024E+04  0.7818609E-02  0.9112836E-01
       -2   -1    0    0    0  501  0.00000000000E+00  0.00000000000E+00  0.12052881322E+03  0.12052881325E+03  0.25500000920E-02 0.  1.
        2   -1    0    0  501    0  0.00000000000E+00  0.00000000000E+00 -0.29869549182E+04  0.29869549182E+04  0.25500000920E-02 0. -1.
    10030    2    1    2    0    0  0.00000000000E+00  0.00000000000E+00 -0.28664261050E+04  0.31074837315E+04  0.12000235522E+04 0.  0.
        2    1    3    3  502    0  0.27685831096E+03 -0.17333656836E+02 -0.28109324169E+04  0.28245870552E+04  0.25500000920E-02 0. -1.
       -2    1    3    3    0  502 -0.27685831096E+03  0.17333656836E+02 -0.55493688071E+02  0.28289667624E+03  0.25500000920E-02 0.  1.
</event>
<event>
 5   0  0.3832662E-04  0.1199231E+04  0.7818609E-02  0.9113530E-01
        2   -1    0    0  501    0  0.00000000000E+00  0.00000000000E+00  0.14890738227E+04  0.14890738227E+04  0.25500000920E-02 0.  1.
       -2   -1    0    0    0  501  0.00000000000E+00  0.00000000000E+00 -0.24145122341E+03  0.24145122342E+03  0.25500000920E-02 0. -1.
    10030    2    1    2    0    0  0.00000000000E+00  0.00000000000E+00  0.12476225993E+04  0.17305250461E+04  0.11992309140E+04 0.  0.
        4    1    3    3  502    0  0.28810156063E+02 -0.15894709727E+03 -0.20945879800E+03  0.26451617301E+03  0.12699999809E+01 0. -1.
       -4    1    3    3    0  502 -0.28810156063E+02  0.15894709727E+03  0.14570813973E+04  0.14660088731E+04  0.12699999809E+01 0.  1.
</event>
<event>
 5   0  0.4122956E-04  0.1200692E+04  0.7818609E-02  0.9112251E-01
       -2   -1    0    0    0  501  0.00000000000E+00  0.00000000000E+00  0.28224066940E+03  0.28224066941E+03  0.25500000920E-02 0.  1.
        2   -1    0    0  501    0  0.00000000000E+00  0.00000000000E+00 -0.12769795641E+04  0.12769795641E+04  0.25500000920E-02 0. -1.
    10030    2    1    2    0    0  0.00000000000E+00  0.00000000000E+00 -0.99473889468E+03  0.15592202335E+04  0.12006924119E+04 0.  0.
        5    1    3    3  502    0 -0.21954766658E+03  0.55534303116E+03 -0.57727738214E+03  0.83058914398E+03  0.46999998093E+01 0. -1.
       -5    1    3    3    0  502  0.21954766658E+03 -0.55534303116E+03 -0.41746151253E+03  0.72863108951E+03  0.46999998093E+01 0.  1.
</event>
<event>
 5   0  0.4122956E-04  0.1203458E+04  0.7818609E-02  0.9109835E-01
        2   -1    0    0  501    0  0.00000000000E+00  0.00000000000E+00  0.68363021884E+03  0.68363021884E+03  0.25500000920E-02 0. -1.
       -2   -1    0    0    0  501  0.00000000000E+00  0.00000000000E+00 -0.52963949424E+03  0.52963949425E+03  0.25500000920E-02 0.  1.
    10030    2    1    2    0    0  0.00000000000E+00  0.00000000000E+00  0.15399072460E+03  0.12132697131E+04  0.12034576243E+04 0.  0.
        5    1    3    3  502    0 -0.42001670285E+03 -0.68455713270E+02 -0.35186129603E+03  0.55220347426E+03  0.46999998093E+01 0.  1.
       -5    1    3    3    0  502  0.42001670285E+03  0.68455713270E+02  0.50585202062E+03  0.66106623883E+03  0.46999998093E+01 0. -1.
</event>
<event>
 5   0  0.3993723E-04  0.1200856E+04  0.7818609E-02  0.9112107E-01
       -2   -1    0    0    0  501  0.00000000000E+00  0.00000000000E+00  0.38109594587E+03  0.38109594588E+03  0.25500000920E-02 0.  1.
        2   -1    0    0  501    0  0.00000000000E+00  0.00000000000E+00 -0.94599278182E+03  0.94599278182E+03  0.25500000920E-02 0. -1.
    10030    2    1    2    0    0  0.00000000000E+00  0.00000000000E+00 -0.56489683595E+03  0.13270887277E+04  0.12008563844E+04 0.  0.
        3    1    3    3  502    0 -0.13787972583E+03 -0.33817579664E+03  0.24424270823E+03  0.43934974559E+03  0.10100000352E+00 0.  1.
       -3    1    3    3    0  502  0.13787972583E+03  0.33817579664E+03 -0.80913954418E+03  0.88773898212E+03  0.10100000352E+00 0. -1.
</event>
<event>
 5   0  0.2304842E-04  0.1199772E+04  0.7818609E-02  0.9113056E-01
        1   -1    0    0  501    0  0.00000000000E+00  0.00000000000E+00  0.13277196311E+04  0.13277196311E+04  0.50400001928E-02 0.  1.
       -1   -1    0    0    0  501  0.00000000000E+00  0.00000000000E+00 -0.27103857444E+03  0.27103857449E+03  0.50400001928E-02 0. -1.
    10030    2    1    2    0    0  0.00000000000E+00  0.00000000000E+00  0.10566810567E+04  0.15987582056E+04  0.11997720386E+04 0.  0.
        4    1    3    3  502    0  0.46624291457E+03  0.37286675942E+02  0.27810162183E+02  0.46855924878E+03  0.12699999809E+01 0. -1.
       -4    1    3    3    0  502 -0.46624291457E+03 -0.37286675942E+02  0.10288708945E+04  0.11301989569E+04  0.12699999809E+01 0.  1.
</event>
<event>
 5   0  0.2315038E-04  0.1200613E+04  0.7818609E-02  0.9112320E-01
       -1   -1    0    0    0  501  0.00000000000E+00  0.00000000000E+00  0.49059767433E+03  0.49059767436E+03  0.50400001928E-02 0. -1.
        1   -1    0    0  501    0  0.00000000000E+00  0.00000000000E+00 -0.73454846733E+03  0.73454846734E+03  0.50400001928E-02 0.  1.
    10030    2    1    2    0    0  0.00000000000E+00  0.00000000000E+00 -0.24395079299E+03  0.12251461417E+04  0.12006127932E+04 0.  0.
        1    1    3    3  502    0 -0.25550785919E+03 -0.42055621745E+03 -0.47282663021E+03  0.68243448066E+03  0.50400001928E-02 0.  1.
       -1    1    3    3    0  502  0.25550785919E+03  0.42055621745E+03  0.22887583721E+03  0.54271166104E+03  0.50400001928E-02 0. -1.
</event>
<event>
 5   0  0.3883890E-04  0.1199931E+04  0.7818609E-02  0.9112917E-01
        2   -1    0    0  501    0  0.00000000000E+00  0.00000000000E+00  0.12202876000E+04  0.12202876000E+04  0.25500000920E-02 0. -1.
       -2   -1    0    0    0  501  0.00000000000E+00  0.00000000000E+00 -0.29497865901E+03  0.29497865903E+03  0.25500000920E-02 0.  1.
    10030    2    1    2    0    0  0.00000000000E+00  0.00000000000E+00  0.92530894094E+03  0.15152662590E+04  0.11999313311E+04 0.  0.
        2    1    3    3  502    0  0.72541513214E+02  0.58840185054E+03  0.34636908588E+03  0.68662256919E+03  0.25500000920E-02 0. -1.
       -2    1    3    3    0  502 -0.72541513214E+02 -0.58840185054E+03  0.57893985506E+03  0.82864368980E+03  0.25500000920E-02 0.  1.
</event>
<event>
 5   0  0.3832662E-04  0.1196837E+04  0.7818609E-02  0.9115630E-01
       -2   -1    0    0    0  501  0.00000000000E+00  0.00000000000E+00  0.10932991804E+04  0.10932991804E+04  0.25500000920E-02 0. -1.
        2   -1    0    0  501    0  0.00000000000E+00  0.00000000000E+00 -0.32754492056E+03  0.32754492057E+03  0.25500000920E-02 0.  1.
    10030    2    1    2    0    0  0.00000000000E+00  0.00000000000E+00  0.76575425982E+03  0.14208441009E+04  0.11968368196E+04 0.  0.
        4    1    3    3  502    0  0.51141904552E+03  0.11905584592E+02  0.14259097660E+02  0.51175787032E+03  0.12699999809E+01 0.  1.
       -4    1    3    3    0  502 -0.51141904552E+03 -0.11905584592E+02  0.75149516215E+03  0.90908623062E+03  0.12699999809E+01 0. -1.
</event>
<event>
 5   0  0.2244308E-04  0.1201015E+04  0.7818609E-02  0.9111968E-01
       -1   -1    0    0    0  501  0.00000000000E+00  0.00000000000E+00  0.12863973398E+04  0.12863973398E+04  0.50400001928E-02 0. -1.
        1   -1    0    0  501    0  0.00000000000E+00  0.00000000000E+00 -0.28032508728E+03  0.28032508732E+03  0.50400001928E-02 0.  1.
    10030    2    1    2    0    0  0.00000000000E+00  0.00000000000E+00  0.10060722525E+04  0.15667224271E+04  0.12010153148E+04 0.  0.
        5    1    3    3  502    0 -0.23807396704E+03 -0.26281811792E+02  0.12213604641E+04  0.12446338501E+04  0.46999998093E+01 0. -1.
       -5    1    3    3    0  502  0.23807396704E+03  0.26281811792E+02 -0.21528821161E+03  0.32208857706E+03  0.46999998093E+01 0.  1.
</event>
<event>
 5   0  0.1541375E-04  0.1196942E+04  0.7818609E-02  0.9115537E-01
       -3   -1    0    0    0  501  0.00000000000E+00  0.00000000000E+00  0.73643258664E+03  0.73643259356E+03  0.10100000352E+00 0.  1.
        3   -1    0    0  501    0  0.00000000000E+00  0.00000000000E+00 -0.48635479745E+03  0.48635480794E+03  0.10100000352E+00 0. -1.
    10030    2    1    2    0    0  0.00000000000E+00  0.00000000000E+00  0.25007778919E+03  0.12227874015E+04  0.11969419905E+04 0.  0.
        4    1    3    3  502    0  0.14809594481E+03  0.57080876755E+03  0.22927572149E+03  0.63271164628E+03  0.12699999809E+01 0. -1.
       -4    1    3    3    0  502 -0.14809594481E+03 -0.57080876755E+03  0.20802067691E+02  0.59007575522E+03  0.12699999809E+01 0.  1.
</event>
<event>
 5   0  0.3832662E-04  0.1198862E+04  0.7818609E-02  0.9113853E-01
       -2   -1    0    0    0  501  0.00000000000E+00  0.00000000000E+00  0.46823689136E+03  0.46823689137E+03  0.25500000920E-02 0.  1.
        2   -1    0    0  501    0  0.00000000000E+00  0.00000000000E+00 -0.76738415780E+03  0.76738415780E+03  0.25500000920E-02 0. -1.
    10030    2    1    2    0    0  0.00000000000E+00  0.00000000000E+00 -0.29914726644E+03  0.12356210492E+04  0.11988620814E+04 0.  0.
        4    1    3    3  502    0 -0.32034067372E+03  0.47275293884E+03 -0.33737609387E+03  0.66327801866E+03  0.12699999809E+01 0. -1.
       -4    1    3    3    0  502  0.32034067372E+03 -0.47275293884E+03  0.38228827435E+02  0.57234303051E+03  0.12699999809E+01 0.  1.
</event>
<event>
 5   0  0.2244308E-04  0.1202910E+04  0.7818609E-02  0.9110314E-01
        1   -1    0    0  501    0  0.00000000000E+00  0.00000000000E+00  0.79505780156E+03  0.79505780158E+03  0.50400001928E-02 0. -1.
       -1   -1    0    0    0  501  0.00000000000E+00  0.00000000000E+00 -0.45499562200E+03  0.45499562203E+03  0.50400001928E-02 0.  1.
    10030    2    1    2    0    0  0.00000000000E+00  0.00000000000E+00  0.34006217956E+03  0.12500534236E+04  0.12029095044E+04 0.  0.
        5    1    3    3  502    0 -0.31482774226E+03  0.49896201760E+03  0.29142595483E+03  0.65805074231E+03  0.46999998093E+01 0.  1.
       -5    1    3    3    0  502  0.31482774226E+03 -0.49896201760E+03  0.48636224732E+02  0.59200268129E+03  0.46999998093E+01 0. -1.
</event>
<event>
 5   0  0.2304842E-04  0.1199679E+04  0.7818609E-02  0.9113137E-01
       -1   -1    0    0    0  501  0.00000000000E+00  0.00000000000E+00  0.31379423917E+03  0.31379423921E+03  0.50400001928E-02 0.  1.
        1   -1    0    0  501    0  0.00000000000E+00  0.00000000000E+00 -0.11466350986E+04  0.11466350986E+04  0.50400001928E-02 0. -1.
    10030    2    1    2    0    0  0.00000000000E+00  0.00000000000E+00 -0.83284085944E+03  0.14604293378E+04  0.11996791044E+04 0.  0.
        4    1    3    3  502    0 -0.52376406290E+03 -0.24224933957E+03 -0.21716013320E+03  0.61658225117E+03  0.12699999809E+01 0.  1.
       -4    1    3    3    0  502  0.52376406290E+03  0.24224933957E+03 -0.61568072624E+03  0.84384708666E+03  0.12699999809E+01 0. -1.
</event>
<event>
 5   0  0.2304842E-04  0.1196578E+04  0.7818609E-02  0.9115857E-01
        1   -1    0    0  501    0  0.00000000000E+00  0.00000000000E+00  0.28972761306E+03  0.28972761310E+03  0.50400001928E-02 0. -1.
       -1   -1    0    0    0  501  0.00000000000E+00  0.00000000000E+00 -0.12354689182E+04  0.12354689182E+04  0.50400001928E-02 0.  1.
    10030    2    1    2    0    0  0.00000000000E+00  0.00000000000E+00 -0.94574130510E+03  0.15251965313E+04  0.11965775540E+04 0.  0.
        4    1    3    3  502    0 -0.93440642933E+02  0.56154608116E+03 -0.23824585223E+03  0.61711251326E+03  0.12699999809E+01 0.  1.
       -4    1    3    3    0  502  0.93440642933E+02 -0.56154608116E+03 -0.70749545287E+03  0.90808401800E+03  0.12699999809E+01 0. -1.
</event>
<event>
 5   0  0.2315038E-04  0.1200750E+04  0.7818609E-02  0.9112200E-01
        1   -1    0    0  501    0  0.00000000000E+00  0.00000000000E+00  0.24321960027E+04  0.24321960027E+04  0.50400001928E-02 0. -1.
       -1   -1    0    0    0  501  0.00000000000E+00  0.00000000000E+00 -0.14819958321E+03  0.14819958329E+03  0.50400001928E-02 0.  1.
    10030    2    1    2    0    0  0.00000000000E+00  0.00000000000E+00  0.22839964195E+04  0.25803955860E+04  0.12007504886E+04 0.  0.
        1    1    3    3  502    0  0.12376773476E+03 -0.15430339225E+03  0.23601574102E+04  0.23684321798E+04  0.50400001928E-02 0. -1.
       -1    1    3    3    0  502 -0.12376773476E+03  0.15430339225E+03 -0.76160990776E+02  0.21196340620E+03  0.50400001928E-02 0.  1.
</event>
<event>
 5   0  0.2315038E-04  0.1200065E+04  0.7818609E-02  0.9112800E-01
       -1   -1    0    0    0  501  0.00000000000E+00  0.00000000000E+00  0.13223356261E+04  0.13223356261E+04  0.50400001928E-02 0. -1.
        1   -1    0    0  501    0  0.00000000000E+00  0.00000000000E+00 -0.27227486733E+03  0.27227486738E+03  0.50400001928E-02 0.  1.
    10030    2    1    2    0    0  0.00000000000E+00  0.00000000000E+00  0.10500607588E+04  0.15946104935E+04  0.12000645936E+04 0.  0.
        1    1    3    3  502    0 -0.29592974316E+02 -0.19052200457E+03  0.12800531704E+04  0.12944923705E+04  0.50400001928E-02 0. -1.
       -1    1    3    3    0  502  0.29592974316E+02  0.19052200457E+03 -0.22999241156E+03  0.30011812300E+03  0.50400001928E-02 0.  1.
</event>
<event>
 5   0  0.1541375E-04  0.1199033E+04  0.7818609E-02  0.9113703E-01
        4   -1    0    0  501    0  0.00000000000E+00  0.00000000000E+00  0.28968232239E+03  0.28968510629E+03  0.12699999809E+01 0.  1.
       -4   -1    0    0    0  501  0.00000000000E+00  0.00000000000E+00 -0.12407300742E+04  0.12407307242E+04  0.12699999809E+01 0. -1.
    10030    2    1    2    0    0  0.00000000000E+00  0.00000000000E+00 -0.95104775184E+03  0.15304158305E+04  0.11990332723E+04 0.  0.
        1    1    3    3  502    0  0.27899523650E+03  0.22898125336E+02  0.20114441867E+03  0.34470529924E+03  0.50400001928E-02 0.  1.
       -1    1    3    3    0  502 -0.27899523650E+03 -0.22898125336E+02 -0.11521921705E+04  0.11857105313E+04  0.50400001928E-02 0. -1.
</event>
<event>
 5   0  0.2244308E-04  0.1197375E+04  0.7818609E-02  0.9115157E-01
       -1   -1    0    0    0  501  0.00000000000E+00  0.00000000000E+00  0.24941740975E+03  0.24941740980E+03  0.50400001928E-02 0.  1.
        1   -1    0    0  501    0  0.00000000000E+00  0.00000000000E+00 -0.14370562735E+04  0.14370562735E+04  0.50400001928E-02 0. -1.
    10030    2    1    2    0    0  0.00000000000E+00  0.00000000000E+00 -0.11876388638E+04  0.16864736833E+04  0.11973752185E+04 0.  0.
        5    1    3    3  502    0 -0.13731715921E+03 -0.49382238345E+03 -0.10295103721E+04  0.11500566268E+04  0.46999998093E+01 0.  1.
       -5    1    3    3    0  502  0.13731715921E+03  0.49382238345E+03 -0.15812849163E+03  0.53641705648E+03  0.46999998093E+01 0. -1.
</event>
<event>
 5   0  0.3993723E-04  0.1197879E+04  0.7818609E-02  0.9114715E-01
       -2   -1    0    0    0  501  0.00000000000E+00  0.00000000000E+00  0.11193275134E+04  0.11193275134E+04  0.25500000920E-02 0. -1.
        2   -1    0    0  501    0  0.00000000000E+00  0.00000000000E+00 -0.32048562851E+03  0.32048562852E+03  0.25500000920E-02 0.  1.
    10030    2    1    2    0    0  0.00000000000E+00  0.00000000000E+00  0.79884188487E+03  0.14398131419E+04  0.11978787612E+04 0.  0.
        3    1    3    3  502    0 -0.44895689998E+03 -0.39644097157E+03  0.40037456277E+03  0.72043566173E+03  0.10100000352E+00 0. -1.
       -3    1    3    3    0  502  0.44895689998E+03  0.39644097157E+03  0.39846732210E+03  0.71937748017E+03  0.10100000352E+00 0.  1.
</event>
<event>
 5   0  0.2340731E-04  0.1202764E+04  0.7818609E-02  0.9110440E-01
        1   -1    0    0  501    0  0.00000000000E+00  0.00000000000E+00  0.88211896591E+03  0.88211896592E+03  0.50400001928E-02 0. -1.
       -1   -1    0    0    0  501  0.00000000000E+00  0.00000000000E+00 -0.40999054065E+03  0.40999054068E+03  0.50400001928E-02 0.  1.
    10030    2    1    2    0    0  0.00000000000E+00  0.00000000000E+00  0.47212842526E+03  0.12921095066E+04  0.12027642026E+04 0.  0.
        3    1    3    3  502    0 -0.30807477883E+03  0.35750771138E+03  0.63649758914E+03  0.79237050944E+03  0.10100000352E+00 0. -1.
       -3    1    3    3    0  502  0.30807477883E+03 -0.35750771138E+03 -0.16436916388E+03  0.49973899716E+03  0.10100000352E+00 0.  1.
</event>
<event>
 5   0  0.2204090E-04  0.1201613E+04  0.7818609E-02  0.9111446E-01
        1   -1    0    0  501    0  0.00000000000E+00  0.00000000000E+00  0.33571628971E+03  0.33571628975E+03  0.50400001928E-02 0. -1.
       -1   -1    0    0    0  501  0.00000000000E+00  0.00000000000E+00 -0.10752184700E+04  0.10752184700E+04  0.50400001928E-02 0.  1.
    10030    2    1    2    0    0  0.00000000000E+00  0.00000000000E+00 -0.73950218031E+03  0.14109347598E+04  0.12016128418E+04 0.  0.
        2    1    3    3  502    0 -0.49691209056E+02 -0.41992602276E+03 -0.87090416575E+03  0.96813281463E+03  0.25500000920E-02 0.  1.
       -2    1    3    3    0  502  0.49691209056E+02  0.41992602276E+03  0.13140198544E+03  0.44280194515E+03  0.25500000920E-02 0. -1.
</event>
<event>
 5   0  0.4122956E-04  0.1194885E+04  0.7818609E-02  0.9117345E-01
       -2   -1    0    0    0  501  0.00000000000E+00  0.00000000000E+00  0.16461070382E+03  0.16461070384E+03  0.25500000920E-02 0.  1.
        2   -1    0    0  501    0  0.00000000000E+00  0.00000000000E+00 -0.21683738170E+04  0.21683738170E+04  0.25500000920E-02 0. -1.
    10030    2    1    2    0    0  0.00000000000E+00  0.00000000000E+00 -0.20037631131E+04  0.23329845208E+04  0.11948849990E+04 0.  0.
        5    1    3    3  502    0 -0.56509627874E+03 -0.13644703154E+03 -0.73300741018E+03  0.93556055391E+03  0.46999998093E+01 0. -1.
       -5    1    3    3    0  502  0.56509627874E+03  0.13644703154E+03 -0.12707557030E+04  0.13974239669E+04  0.46999998093E+01 0.  1.
</event>
<event>
 5   0  0.3993723E-04  0.1200222E+04  0.7818609E-02  0.9112662E-01
       -2   -1    0    0    0  501  0.00000000000E+00  0.00000000000E+00  0.41165331433E+03  0.41165331434E+03  0.25500000920E-02 0.  1.
        2   -1    0    0  501    0  0.00000000000E+00  0.00000000000E+00 -0.87484556007E+03  0.87484556008E+03  0.25500000920E-02 0. -1.
    10030    2    1    2    0    0  0.00000000000E+00  0.00000000000E+00 -0.46319224575E+03  0.12864988744E+04  0.12002217701E+04 0.  0.
        3    1    3    3  502    0  0.54846838963E+02  0.28498100363E+03  0.33143473111E+03  0.44053528730E+03  0.10100000352E+00 0.  1.
       -3    1    3    3    0  502 -0.54846838963E+02 -0.28498100363E+03 -0.79462697686E+03  0.84596358711E+03  0.10100000352E+00 0. -1.
</event>
<event>
 5   0  0.2315038E-04  0.1200850E+04  0.7818609E-02  0.9112113E-01
       -1   -1    0    0    0  501  0.00000000000E+00  0.00000000000E+00  0.26563512590E+03  0.26563512595E+03  0.50400001928E-02 0.  1.
        1   -1    0    0  501    0  0.00000000000E+00  0.00000000000E+00 -0.13571631945E+04  0.13571631945E+04  0.50400001928E-02 0. -1.
    10030    2    1    2    0    0  0.00000000000E+00  0.00000000000E+00 -0.10915280686E+04  0.16227983205E+04  0.12008500591E+04 0.  0.
        1    1    3    3  502    0  0.10189304709E+03 -0.35077849084E+03  0.98208839308E+02  0.37824954570E+03  0.50400001928E-02 0.  1.
       -1    1    3    3    0  502 -0.10189304709E+03  0.35077849084E+03 -0.11897369079E+04  0.12445487748E+04  0.50400001928E-02 0. -1.
</event>
<event>
 5   0  0.3832662E-04  0.1201164E+04  0.7818609E-02  0.9111838E-01
       -2   -1    0    0    0  501  0.00000000000E+00  0.00000000000E+00  0.12315230236E+04  0.12315230236E+04  0.25500000920E-02 0. -1.
        2   -1    0    0  501    0  0.00000000000E+00  0.00000000000E+00 -0.29288850452E+03  0.29288850453E+03  0.25500000920E-02 0.  1.
    10030    2    1    2    0    0  0.00000000000E+00  0.00000000000E+00  0.93863451906E+03  0.15244115281E+04  0.12011643296E+04 0.  0.
        4    1    3    3  502    0  0.27938835718E+02  0.21650386108E+03  0.11793880922E+04  0.11994216879E+04  0.12699999809E+01 0. -1.
       -4    1    3    3    0  502 -0.27938835718E+02 -0.21650386108E+03 -0.24075357312E+03  0.32498984026E+03  0.12699999809E+01 0.  1.
</event>
<event>
 5   0  0.4024486E-04  0.1200288E+04  0.7818609E-02  0.9112604E-01
        2   -1    0    0  501    0  0.00000000000E+00  0.00000000000E+00  0.70072133082E+03  0.70072133083E+03  0.25500000920E-02 0. -1.
       -2   -1    0    0    0  501  0.00000000000E+00  0.00000000000E+00 -0.51400320024E+03  0.51400320025E+03  0.25500000920E-02 0.  1.
    10030    2    1    2    0    0  0.00000000000E+00  0.00000000000E+00  0.18671813058E+03  0.12147245311E+04  0.12002883096E+04 0.  0.
        1    1    3    3  502    0 -0.65169019911E+02 -0.58550618373E+03 -0.22510388467E+02  0.58955170253E+03  0.50400001928E-02 0. -1.
       -1    1    3    3    0  502  0.65169019911E+02  0.58550618373E+03  0.20922851905E+03  0.62517282855E+03  0.50400001928E-02 0.  1.
</event>
<event>
 5   0  0.3993723E-04  0.1199417E+04  0.7818609E-02  0.9113367E-01
       -2   -1    0    0    0  501  0.00000000000E+00  0.00000000000E+00  0.19391012569E+03  0.19391012571E+03  0.25500000920E-02 0.  1.
        2   -1    0    0  501    0  0.00000000000E+00  0.00000000000E+00 -0.18547252808E+04  0.18547252808E+04  0.25500000920E-02 0. -1.
    10030    2    1    2    0    0  0.00000000000E+00  0.00000000000E+00 -0.16608151551E+04  0.20486354065E+04  0.11994165454E+04 0.  0.
        3    1    3    3  502    0  0.28230715655E+03 -0.19741084286E+03 -0.16688758012E+04  0.17040583386E+04  0.10100000352E+00 0. -1.
       -3    1    3    3    0  502 -0.28230715655E+03  0.19741084286E+03  0.80606460240E+01  0.34457706791E+03  0.10100000352E+00 0.  1.
</event>
<event>
 5   0  0.2244308E-04  0.1198583E+04  0.7818609E-02  0.9114098E-01
        1   -1    0    0  501    0  0.00000000000E+00  0.00000000000E+00  0.63294495150E+03  0.63294495152E+03  0.50400001928E-02 0. -1.
       -1   -1    0    0    0  501  0.00000000000E+00  0.00000000000E+00 -0.56742753897E+03  0.56742753899E+03  0.50400001928E-02 0.  1.
    10030    2    1    2    0    0  0.00000000000E+00  0.00000000000E+00  0.65517412530E+02  0.12003724905E+04  0.11985831572E+04 0.  0.
        5    1    3    3  502    0  0.19131637869E+03  0.29837593117E+03  0.51669655354E+03  0.62660000917E+03  0.46999998093E+01 0. -1.
       -5    1    3    3    0  502 -0.19131637869E+03 -0.29837593117E+03 -0.45117914101E+03  0.57377248133E+03  0.46999998093E+01 0.  1.
</event>
<event>
 5   0  0.2204090E-04  0.1199013E+04  0.7818609E-02  0.9113721E-01
        1   -1    0    0  501    0  0.00000000000E+00  0.00000000000E+00  0.67001856957E+03  0.67001856959E+03  0.50400001928E-02 0.  1.
       -1   -1    0    0    0  501  0.00000000000E+00  0.00000000000E+00 -0.53641486707E+03  0.53641486709E+03  0.50400001928E-02 0. -1.
    10030    2    1    2    0    0  0.00000000000E+00  0.00000000000E+00  0.13360370250E+03  0.12064334367E+04  0.11990127972E+04 0.  0.
        2    1    3    3  502    0 -0.25789627534E+03 -0.53598240651E+03  0.14223444244E+03  0.61157032756E+03  0.25500000920E-02 0.  1.
       -2    1    3    3    0  502  0.25789627534E+03  0.53598240651E+03 -0.86307399357E+01  0.59486310913E+03  0.25500000920E-02 0. -1.
</event>
<event>
 5   0  0.2315038E-04  0.1198968E+04  0.7818609E-02  0.9113761E-01
       -1   -1    0    0    0  501  0.00000000000E+00  0.00000000000E+00  0.42249446543E+03  0.42249446546E+03  0.50400001928E-02 0. -1.
        1   -1    0    0  501    0  0.00000000000E+00  0.00000000000E+00 -0.85061681701E+03  0.85061681703E+03  0.50400001928E-02 0.  1.
    10030    2    1    2    0    0  0.00000000000E+00  0.00000000000E+00 -0.42812235158E+03  0.12731112825E+04  0.11989677184E+04 0.  0.
        1    1    3    3  502    0  0.52577753211E+03 -0.23498668882E+03 -0.37271626725E+02  0.57710478371E+03  0.50400001928E-02 0.  1.
       -1    1    3    3    0  502 -0.52577753211E+03  0.23498668882E+03 -0.39085072485E+03  0.69600649878E+03  0.50400001928E-02 0. -1.
</event>
<event>
 5   0  0.3883890E-04  0.1198675E+04  0.7818609E-02  0.9114017E-01
        2   -1    0    0  501    0  0.00000000000E+00  0.00000000000E+00  0.11231866868E+04  0.11231866868E+04  0.25500000920E-02 0. -1.
       -2   -1    0    0    0  501  0.00000000000E+00  0.00000000000E+00 -0.31980934945E+03  0.31980934946E+03  0.25500000920E-02 0.  1.
    10030    2    1    2    0    0  0.00000000000E+00  0.00000000000E+00  0.80337733734E+03  0.14429960363E+04  0.11986752748E+04 0.  0.
        2    1    3    3  502    0 -0.28640768854E+03  0.14691034322E+03  0.10102979491E+04  0.10603367196E+04  0.25500000920E-02 0. -1.
       -2    1    3    3    0  502  0.28640768854E+03 -0.14691034322E+03 -0.20692061179E+03  0.38265931661E+03  0.25500000920E-02 0.  1.
</event>
<event>
 5   0  0.3832662E-04  0.1199337E+04  0.7818609E-02  0.9113437E-01
        2   -1    0    0  501    0  0.00000000000E+00  0.00000000000E+00  0.30215085726E+03  0.30215085727E+03  0.25500000920E-02 0. -1.
       -2   -1    0    0    0  501  0.00000000000E+00  0.00000000000E+00 -0.11901423816E+04  0.11901423816E+04  0.25500000920E-02 0.  1.
    10030    2    1    2    0    0  0.00000000000E+00  0.00000000000E+00 -0.88799152434E+03  0.14922932389E+04  0.11993373852E+04 0.  0.
        4    1    3    3  502    0  0.14822605716E+03 -0.25988211829E+03  0.20265241257E+03  0.36135756896E+03  0.12699999809E+01 0. -1.
       -4    1    3    3    0  502 -0.14822605716E+03  0.25988211829E+03 -0.10906439369E+04  0.11309356699E+04  0.12699999809E+01 0.  1.
</event>
<event>
 5   0  0.2204090E-04  0.1199146E+04  0.7818609E-02  0.9113605E-01
       -1   -1    0    0    0  501  0.00000000000E+00  0.00000000000E+00  0.82621694528E+03  0.82621694530E+03  0.50400001928E-02 0.  1.
        1   -1    0    0  501    0  0.00000000000E+00  0.00000000000E+00 -0.43510069284E+03  0.43510069287E+03  0.50400001928E-02 0. -1.
    10030    2    1    2    0    0  0.00000000000E+00  0.00000000000E+00  0.39111625244E+03  0.12613176382E+04  0.11991456381E+04 0.  0.
        2    1    3    3  502    0  0.25657187837E+03 -0.20175484673E+03 -0.33346275337E+03  0.46661713947E+03  0.25500000920E-02 0. -1.
       -2    1    3    3    0  502 -0.25657187837E+03  0.20175484673E+03  0.72457900582E+03  0.79470049870E+03  0.25500000920E-02 0.  1.
</event>
<event>
 5   0  0.2244308E-04  0.1200597E+04  0.7818609E-02  0.9112334E-01
        1   -1    0    0  501    0  0.00000000000E+00  0.00000000000E+00  0.64509573446E+03  0.64509573448E+03  0.50400001928E-02 0.  1.
       -1   -1    0    0    0  501  0.00000000000E+00  0.00000000000E+00 -0.55861189781E+03  0.55861189783E+03  0.50400001928E-02 0. -1.
    10030    2    1    2    0    0  0.00000000000E+00  0.00000000000E+00  0.86483836649E+02  0.12037076323E+04  0.12005967725E+04 0.  0.
        5    1    3    3  502    0 -0.10708674361E+03  0.10047770925E+03 -0.54030806292E+03  0.55992698949E+03  0.46999998093E+01 0. -1.
       -5    1    3    3    0  502  0.10708674361E+03 -0.10047770925E+03  0.62679189956E+03  0.64378064282E+03  0.46999998093E+01 0.  1.
</event>
<event>
 5   0  0.2204090E-04  0.1200233E+04  0.7818609E-02  0.9112653E-01
       -1   -1    0    0    0  501  0.00000000000E+00  0.00000000000E+00  0.51997227453E+03  0.51997227455E+03  0.50400001928E-02 0. -1.
        1   -1    0    0  501    0  0.00000000000E+00  0.00000000000E+00 -0.69261291673E+03  0.69261291674E+03  0.50400001928E-02 0.  1.
    10030    2    1    2    0    0  0.00000000000E+00  0.00000000000E+00 -0.17264064220E+03  0.12125851913E+04  0.12002325003E+04 0.  0.
        2    1    3    3  502    0 -0.38659437446E+03 -0.14422681137E+03  0.35392002379E+03  0.54361380293E+03  0.25500000920E-02 0. -1.
       -2    1    3    3    0  502  0.38659437446E+03  0.14422681137E+03 -0.52656066599E+03  0.66897138837E+03  0.25500000920E-02 0.  1.
</event>
<event>
 5   0  0.1541375E-04  0.1200705E+04  0.7818609E-02  0.9112240E-01
       -3   -1    0    0    0  501  0.00000000000E+00  0.00000000000E+00  0.67634344863E+03  0.67634345617E+03  0.10100000352E+00 0. -1.
        3   -1    0    0  501    0  0.00000000000E+00  0.00000000000E+00 -0.53289941974E+03  0.53289942931E+03  0.10100000352E+00 0.  1.
    10030    2    1    2    0    0  0.00000000000E+00  0.00000000000E+00  0.14344402889E+03  0.12092428855E+04  0.12007048624E+04 0.  0.
        2    1    3    3  502    0 -0.32949940990E+03 -0.45038005377E+03  0.29468049650E+03  0.63106944862E+03  0.25500000920E-02 0. -1.
       -2    1    3    3    0  502  0.32949940990E+03  0.45038005377E+03 -0.15123646760E+03  0.57817343686E+03  0.25500000920E-02 0.  1.
</event>
<event>
 5   0  0.3883890E-04  0.1195984E+04  0.7818609E-02  0.9116379E-01
        2   -1    0    0  501    0  0.00000000000E+00  0.00000000000E+00  0.17947466513E+04  0.17947466513E+04  0.25500000920E-02 0. -1.
       -2   -1    0    0    0  501  0.00000000000E+00  0.00000000000E+00 -0.19924522657E+03  0.19924522658E+03  0.25500000920E-02 0.  1.
    10030    2    1    2    0    0  0.00000000000E+00  0.00000000000E+00  0.15955014247E+04  0.19939918779E+04  0.11959844534E+04 0.  0.
        2    1    3    3  502    0 -0.43954476221E+03  0.38323136105E+03  0.57701413511E+03  0.82037258986E+03  0.25500000920E-02 0.  1.
       -2    1    3    3    0  502  0.43954476221E+03 -0.38323136105E+03  0.10184872896E+04  0.11736192880E+04  0.25500000920E-02 0. -1.
</event>
<event>
 5   0  0.3993723E-04  0.1202469E+04  0.7818609E-02  0.9110698E-01
        2   -1    0    0  501    0  0.00000000000E+00  0.00000000000E+00  0.11954524805E+04  0.11954524805E+04  0.25500000920E-02 0.  1.
       -2   -1    0    0    0  501  0.00000000000E+00  0.00000000000E+00 -0.30238176716E+03  0.30238176717E+03  0.25500000920E-02 0. -1.
    10030    2    1    2    0    0  0.00000000000E+00  0.00000000000E+00  0.89307071330E+03  0.14978342476E+04  0.12024691823E+04 0.  0.
        3    1    3    3  502    0  0.31913896653E+03  0.13573928423E+03 -0.16523133363E+03  0.38415652676E+03  0.10100000352E+00 0. -1.
       -3    1    3    3    0  502 -0.31913896653E+03 -0.13573928423E+03  0.10583020469E+04  0.11136777209E+04  0.10100000352E+00 0.  1.
</event>
<event>
 5   0  0.3883890E-04  0.1198419E+04  0.7818609E-02  0.9114241E-01
        2   -1    0    0  501    0  0.00000000000E+00  0.00000000000E+00  0.76183141813E+03  0.76183141813E+03  0.25500000920E-02 0. -1.
       -2   -1    0    0    0  501  0.00000000000E+00  0.00000000000E+00 -0.47130149738E+03  0.47130149739E+03  0.25500000920E-02 0.  1.
    10030    2    1    2    0    0  0.00000000000E+00  0.00000000000E+00  0.29052992074E+03  0.12331329155E+04  0.11984194393E+04 0.  0.
        2    1    3    3  502    0 -0.36104674961E+03  0.18953933332E+03 -0.30651133835E+03  0.51012656745E+03  0.25500000920E-02 0.  1.
       -2    1    3    3    0  502  0.36104674961E+03 -0.18953933332E+03  0.59704125909E+03  0.72300634807E+03  0.25500000920E-02 0. -1.
</event>
<event>
 5   0  0.2340731E-04  0.1201783E+04  0.7818609E-02  0.9111298E-01
       -1   -1    0    0    0  501  0.00000000000E+00  0.00000000000E+00  0.46177471632E+03  0.46177471635E+03  0.50400001928E-02 0.  1.
        1   -1    0    0  501    0  0.00000000000E+00  0.00000000000E+00 -0.78191879036E+03  0.78191879037E+03  0.50400001928E-02 0. -1.
    10030    2    1    2    0    0  0.00000000000E+00  0.00000000000E+00 -0.32014407404E+03  0.12436935067E+04  0.12017825554E+04 0.  0.
        3    1    3    3  502    0  0.58202665721E+03  0.31506774884E+02 -0.31118706704E+03  0.66074587207E+03  0.10100000352E+00 0. -1.
       -3    1    3    3    0  502 -0.58202665721E+03 -0.31506774884E+02 -0.89570069952E+01  0.58294763465E+03  0.10100000352E+00 0.  1.
</event>
<event>
 5   0  0.2244308E-04  0.1200381E+04  0.7818609E-02  0.9112523E-01
        1   -1    0    0  501    0  0.00000000000E+00  0.00000000000E+00  0.97815459304E+03  0.97815459305E+03  0.50400001928E-02 0.  1.
       -1   -1    0    0    0  501  0.00000000000E+00  0.00000000000E+00 -0.36827375100E+03  0.36827375104E+03  0.50400001928E-02 0. -1.
    10030    2    1    2    0    0  0.00000000000E+00  0.00000000000E+00  0.60988084204E+03  0.13464283441E+04  0.12003810413E+04 0.  0.
        5    1    3    3  502    0 -0.10949201671E+02 -0.50048185276E+03 -0.66405374318E+02  0.50500864715E+03  0.46999998093E+01 0. -1.
       -5    1    3    3    0  502  0.10949201671E+02  0.50048185276E+03  0.67628621635E+03  0.84141969694E+03  0.46999998093E+01 0.  1.
</event>
<event>
 5   0  0.3993723E-04  0.1199718E+04  0.7818609E-02  0.9113104E-01
       -2   -1    0    0    0  501  0.00000000000E+00  0.00000000000E+00  0.35551911603E+03  0.35551911604E+03  0.25500000920E-02 0. -1.
        2   -1    0    0  501    0  0.00000000000E+00  0.00000000000E+00 -0.10121273745E+04  0.10121273745E+04  0.25500000920E-02 0.  1.
    10030    2    1    2    0    0  0.00000000000E+00  0.00000000000E+00 -0.65660825848E+03  0.13676464906E+04  0.11997176826E+04 0.  0.
        3    1    3    3  502    0 -0.39167377070E+03  0.25740475394E+03 -0.75509457976E+03  0.88872570830E+03  0.10100000352E+00 0.  1.
       -3    1    3    3    0  502  0.39167377070E+03 -0.25740475394E+03  0.98486321286E+02  0.47892078226E+03  0.10100000352E+00 0. -1.
</event>
<event>
 5   0  0.2244308E-04  0.1196122E+04  0.7818609E-02  0.9116258E-01
       -1   -1    0    0    0  501  0.00000000000E+00  0.00000000000E+00  0.39628945743E+03  0.39628945747E+03  0.50400001928E-02 0. -1.
        1   -1    0    0  501    0  0.00000000000E+00  0.00000000000E+00 -0.90256497022E+03  0.90256497023E+03  0.50400001928E-02 0.  1.
    10030    2    1    2    0    0  0.00000000000E+00  0.00000000000E+00 -0.50627551278E+03  0.12988544277E+04  0.11961220379E+04 0.  0.
        5    1    3    3  502    0  0.14549270060E+03  0.21697389267E+03 -0.83731021206E+03  0.87712956697E+03  0.46999998093E+01 0.  1.
       -5    1    3    3    0  502 -0.14549270060E+03 -0.21697389267E+03  0.33103469928E+03  0.42172486073E+03  0.46999998093E+01 0. -1.
</event>
<event>
 5   0  0.2204090E-04  0.1200015E+04  0.7818609E-02  0.9112844E-01
       -1   -1    0    0    0  501  0.00000000000E+00  0.00000000000E+00  0.13120741664E+03  0.13120741674E+03  0.50400001928E-02 0. -1.
        1   -1    0    0  501    0  0.00000000000E+00  0.00000000000E+00 -0.27438138059E+04  0.27438138059E+04  0.50400001928E-02 0.  1.
    10030    2    1    2    0    0  0.00000000000E+00  0.00000000000E+00 -0.26126063893E+04  0.28750212226E+04  0.12000145355E+04 0.  0.
        2    1    3    3  502    0 -0.16539078952E+03  0.12963430876E+03 -0.26527669963E+04  0.26610772075E+04  0.25500000920E-02 0.  1.
       -2    1    3    3    0  502  0.16539078952E+03 -0.12963430876E+03  0.40160607066E+02  0.21394401518E+03  0.25500000920E-02 0. -1.
</event>
<event>
 5   0  0.4122956E-04  0.1202474E+04  0.7818609E-02  0.9110693E-01
       -2   -1    0    0    0  501  0.00000000000E+00  0.00000000000E+00  0.51827229128E+03  0.51827229129E+03  0.25500000920E-02 0.  1.
        2   -1    0    0  501    0  0.00000000000E+00  0.00000000000E+00 -0.69748315171E+03  0.69748315172E+03  0.25500000920E-02 0. -1.
    10030    2    1    2    0    0  0.00000000000E+00  0.00000000000E+00 -0.17921086043E+03  0.12157554430E+04  0.12024744341E+04 0.  0.
        5    1    3    3  502    0 -0.10315429399E+03  0.56305939909E+03  0.96238249388E+02  0.58048306256E+03  0.46999998093E+01 0.  1.
       -5    1    3    3    0  502  0.10315429399E+03 -0.56305939909E+03 -0.27544910982E+03  0.63527238045E+03  0.46999998093E+01 0. -1.
</event>
<event>
 5   0  0.2315038E-04  0.1200639E+04  0.7818609E-02  0.9112298E-01
       -1   -1    0    0    0  501  0.00000000000E+00  0.00000000000E+00  0.72322110326E+03  0.72322110327E+03  0.50400001928E-02 0. -1.
        1   -1    0    0  501    0  0.00000000000E+00  0.00000000000E+00 -0.49830318574E+03  0.49830318577E+03  0.50400001928E-02 0.  1.
    10030    2    1    2    0    0  0.00000000000E+00  0.00000000000E+00  0.22491791751E+03  0.12215242890E+04  0.12006387963E+04 0.  0.
        1    1    3    3  502    0  0.17824706595E+03 -0.84277427693E+02  0.68933975833E+03  0.71698256867E+03  0.50400001928E-02 0. -1.
       -1    1    3    3    0  502 -0.17824706595E+03  0.84277427693E+02 -0.46442184082E+03  0.50454172037E+03  0.50400001928E-02 0.  1.
</event>
<event>
 5   0  0.3993723E-04  0.1201929E+04  0.7818609E-02  0.9111170E-01
       -2   -1    0    0    0  501  0.00000000000E+00  0.00000000000E+00  0.43862446774E+03  0.43862446774E+03  0.25500000920E-02 0.  1.
        2   -1    0    0  501    0  0.00000000000E+00  0.00000000000E+00 -0.82338874455E+03  0.82338874455E+03  0.25500000920E-02 0. -1.
    10030    2    1    2    0    0  0.00000000000E+00  0.00000000000E+00 -0.38476427682E+03  0.12620132123E+04  0.12019291990E+04 0.  0.
        3    1    3    3  502    0  0.65990255636E+02  0.36844494260E+03  0.30128280676E+03  0.48049737711E+03  0.10100000352E+00 0.  1.
       -3    1    3    3    0  502 -0.65990255636E+02 -0.36844494260E+03 -0.68604708357E+03  0.78151583518E+03  0.10100000352E+00 0. -1.
</event>
<event>
 5   0  0.3832662E-04  0.1199561E+04  0.7818609E-02  0.9113241E-01
       -2   -1    0    0    0  501  0.00000000000E+00  0.00000000000E+00  0.30096432232E+03  0.30096432233E+03  0.25500000920E-02 0.  1.
        2   -1    0    0  501    0  0.00000000000E+00  0.00000000000E+00 -0.11952808330E+04  0.11952808330E+04  0.25500000920E-02 0. -1.
    10030    2    1    2    0    0  0.00000000000E+00  0.00000000000E+00 -0.89431651071E+03  0.14962451554E+04  0.11995613964E+04 0.  0.
        4    1    3    3  502    0 -0.36251023173E+03 -0.43288866733E+03 -0.19481257316E+03  0.59729374514E+03  0.12699999809E+01 0.  1.
       -4    1    3    3    0  502  0.36251023173E+03  0.43288866733E+03 -0.69950393755E+03  0.89895141023E+03  0.12699999809E+01 0. -1.
</event>
<event>
 5   0  0.3993723E-04  0.1199788E+04  0.7818609E-02  0.9113042E-01
       -2   -1    0    0    0  501  0.00000000000E+00  0.00000000000E+00  0.33833877876E+03  0.33833877877E+03  0.25500000920E-02 0.  1.
        2   -1    0    0  501    0  0.00000000000E+00  0.00000000000E+00 -0.10636460843E+04  0.10636460843E+04  0.25500000920E-02 0. -1.
    10030    2    1    2    0    0  0.00000000000E+00  0.00000000000E+00 -0.72530730553E+03  0.14019848631E+04  0.11997878432E+04 0.  0.
        3    1    3    3  502    0  0.38928453306E+03 -0.45533942056E+03 -0.39953677673E+03  0.72007366412E+03  0.10100000352E+00 0.  1.
       -3    1    3    3    0  502 -0.38928453306E+03  0.45533942056E+03 -0.32577052880E+03  0.68191119893E+03  0.10100000352E+00 0. -1.
</event>
<event>
 5   0  0.1541375E-04  0.1199918E+04  0.7818609E-02  0.9112928E-01
        4   -1    0    0  501    0  0.00000000000E+00  0.00000000000E+00  0.42190742658E+03  0.42190933802E+03  0.12699999809E+01 0.  1.
       -4   -1    0    0    0  501  0.00000000000E+00  0.00000000000E+00 -0.85314723482E+03  0.85314818009E+03  0.12699999809E+01 0. -1.
    10030    2    1    2    0    0  0.00000000000E+00  0.00000000000E+00 -0.43123980824E+03  0.12750575181E+04  0.11999182898E+04 0.  0.
        1    1    3    3  502    0 -0.44758930164E+03 -0.28212024225E+03  0.84977629636E+02  0.53586305302E+03  0.50400001928E-02 0.  1.
       -1    1    3    3    0  502  0.44758930164E+03  0.28212024225E+03 -0.51621743787E+03  0.73919446509E+03  0.50400001928E-02 0. -1.
</event>
<event>
 5   0  0.3832662E-04  0.1201796E+04  0.7818609E-02  0.9111286E-01
       -2   -1    0    0    0  501  0.00000000000E+00  0.00000000000E+00  0.40267982344E+03  0.40267982344E+03  0.25500000920E-02 0.  1.
        2   -1    0    0  501    0  0.00000000000E+00  0.00000000000E+00 -0.89668891809E+03  0.89668891809E+03  0.25500000920E-02 0. -1.
    10030    2    1    2    0    0  0.00000000000E+00  0.00000000000E+00 -0.49400909465E+03  0.12993687415E+04  0.12017962144E+04 0.  0.
        4    1    3    3  502    0  0.14130631233E+03 -0.12899901082E+03 -0.86287304499E+03  0.88383240683E+03  0.12699999809E+01 0. -1.
       -4    1    3    3    0  502 -0.14130631233E+03  0.12899901082E+03  0.36886395034E+03  0.41553633470E+03  0.12699999809E+01 0.  1.
</event>
<event>
 5   0  0.2244308E-04  0.1200431E+04  0.7818609E-02  0.9112479E-01
       -1   -1    0    0    0  501  0.00000000000E+00  0.00000000000E+00  0.55851462723E+03  0.55851462725E+03  0.50400001928E-02 0.  1.
        1   -1    0    0  501    0  0.00000000000E+00  0.00000000000E+00 -0.64503006106E+03  0.64503006108E+03  0.50400001928E-02 0. -1.
    10030    2    1    2    0    0  0.00000000000E+00  0.00000000000E+00 -0.86515433833E+02  0.12035446883E+04  0.12004311294E+04 0.  0.
        5    1    3    3  502    0  0.28472997168E+03 -0.81541648235E+02 -0.56664277816E+03  0.63939528087E+03  0.46999998093E+01 0. -1.
       -5    1    3    3    0  502 -0.28472997168E+03  0.81541648235E+02  0.48012734432E+03  0.56414940746E+03  0.46999998093E+01 0.  1.
</event>
<event>
 5   0  0.1541375E-04  0.1199628E+04  0.7818609E-02  0.9113182E-01
       -4   -1    0    0    0  501  0.00000000000E+00  0.00000000000E+00  0.49019112992E+03  0.49019277509E+03  0.12699999809E+01 0. -1.
        4   -1    0    0  501    0  0.00000000000E+00  0.00000000000E+00 -0.73394913865E+03  0.73395023744E+03  0.12699999809E+01 0.  1.
    10030    2    1    2    0    0  0.00000000000E+00  0.00000000000E+00 -0.24375800873E+03  0.12241430125E+04  0.11996283376E+04 0.  0.
        2    1    3    3  502    0  0.34121937196E+02  0.52955313190E+03  0.16345302507E+03  0.55525464205E+03  0.25500000920E-02 0. -1.
       -2    1    3    3    0  502 -0.34121937196E+02 -0.52955313190E+03 -0.40721103380E+03  0.66888837048E+03  0.25500000920E-02 0.  1.
</event>
<event>
 5   0  0.1541375E-04  0.1200827E+04  0.7818609E-02  0.9112133E-01
        3   -1    0    0  501    0  0.00000000000E+00  0.00000000000E+00  0.41085372418E+03  0.41085373659E+03  0.10100000352E+00 0. -1.
       -3   -1    0    0    0  501  0.00000000000E+00  0.00000000000E+00 -0.87743265287E+03  0.87743265868E+03  0.10100000352E+00 0.  1.
    10030    2    1    2    0    0  0.00000000000E+00  0.00000000000E+00 -0.46657892869E+03  0.12882863953E+04  0.12008271897E+04 0.  0.
        3    1    3    3  502    0  0.49275055741E+03  0.12083108836E+03  0.11117699481E+03  0.51938771464E+03  0.10100000352E+00 0. -1.
       -3    1    3    3    0  502 -0.49275055741E+03 -0.12083108836E+03 -0.57775592350E+03  0.76889868064E+03  0.10100000352E+00 0.  1.
</event>
<event>
 5   0  0.1541375E-04  0.1197360E+04  0.7818609E-02  0.9115171E-01
       -3   -1    0    0    0  501  0.00000000000E+00  0.00000000000E+00  0.30650890418E+03  0.30650892082E+03  0.10100000352E+00 0. -1.
        3   -1    0    0  501    0  0.00000000000E+00  0.00000000000E+00 -0.11693542428E+04  0.11693542472E+04  0.10100000352E+00 0.  1.
    10030    2    1    2    0    0  0.00000000000E+00  0.00000000000E+00 -0.86284533866E+03  0.14758631680E+04  0.11973596002E+04 0.  0.
        3    1    3    3  502    0  0.37004519614E+03  0.20812382872E+02 -0.10109416012E+04  0.10767402350E+04  0.10100000352E+00 0.  1.
       -3    1    3    3    0  502 -0.37004519614E+03 -0.20812382872E+02  0.14809626254E+03  0.39912293301E+03  0.10100000352E+00 0. -1.
</event>
<event>
 5   0  0.2244308E-04  0.1204695E+04  0.7818609E-02  0.9108757E-01
        1   -1    0    0  501    0  0.00000000000E+00  0.00000000000E+00  0.52739511419E+03  0.52739511421E+03  0.50400001928E-02 0.  1.
       -1   -1    0    0    0  501  0.00000000000E+00  0.00000000000E+00 -0.68795161812E+03  0.68795161814E+03  0.50400001928E-02 0. -1.
    10030    2    1    2    0    0  0.00000000000E+00  0.00000000000E+00 -0.16055650393E+03  0.12153467323E+04  0.12046946870E+04 0.  0.
        5    1    3    3  502    0 -0.43000944871E+02 -0.14705408177E+03 -0.66794609939E+03  0.68530873766E+03  0.46999998093E+01 0. -1.
       -5    1    3    3    0  502  0.43000944871E+02  0.14705408177E+03  0.50738959546E+03  0.53003799468E+03  0.46999998093E+01 0.  1.
</event>
<event>
 5   0  0.2204090E-04  0.1200800E+04  0.7818609E-02  0.9112156E-01
       -1   -1    0    0    0  501  0.00000000000E+00  0.00000000000E+00  0.42462832609E+03  0.42462832612E+03  0.50400001928E-02 0.  1.
        1   -1    0    0  501    0  0.00000000000E+00  0.00000000000E+00 -0.84893155041E+03  0.84893155043E+03  0.50400001928E-02 0. -1.
    10030    2    1    2    0    0  0.00000000000E+00  0.00000000000E+00 -0.42430322432E+03  0.12735598765E+04  0.12008003718E+04 0.  0.
        2    1    3    3  502    0 -0.22987393337E+03  0.33066441190E+03  0.26013894193E+03  0.47943012803E+03  0.25500000920E-02 0.  1.
       -2    1    3    3    0  502  0.22987393337E+03 -0.33066441190E+03 -0.68444216625E+03  0.79412974852E+03  0.25500000920E-02 0. -1.
</event>
<event>
 5   0  0.2340731E-04  0.1200090E+04  0.7818609E-02  0.9112778E-01
        1   -1    0    0  501    0  0.00000000000E+00  0.00000000000E+00  0.10139098120E+04  0.10139098120E+04  0.50400001928E-02 0.  1.
       -1   -1    0    0    0  501  0.00000000000E+00  0.00000000000E+00 -0.35511434449E+03  0.35511434453E+03  0.50400001928E-02 0. -1.
    10030    2    1    2    0    0  0.00000000000E+00  0.00000000000E+00  0.65879546754E+03  0.13690241566E+04  0.12000898605E+04 0.  0.
        3    1    3    3  502    0  0.40507752178E+03 -0.57296092655E+02  0.83014587497E+03  0.92547978088E+03  0.10100000352E+00 0.  1.
       -3    1    3    3    0  502 -0.40507752178E+03  0.57296092655E+02 -0.17135040743E+03  0.44354437569E+03  0.10100000352E+00 0. -1.
</event>
<event>
 5   0  0.2244308E-04  0.1206993E+04  0.7818609E-02  0.9106757E-01
        1   -1    0    0  501    0  0.00000000000E+00  0.00000000000E+00  0.11045183804E+04  0.11045183804E+04  0.50400001928E-02 0.  1.
       -1   -1    0    0    0  501  0.00000000000E+00  0.00000000000E+00 -0.32974378581E+03  0.32974378584E+03  0.50400001928E-02 0. -1.
    10030    2    1    2    0    0  0.00000000000E+00  0.00000000000E+00  0.77477459461E+03  0.14342621663E+04  0.12069930775E+04 0.  0.
        5    1    3    3  502    0  0.50035073667E+03 -0.26257996991E+01  0.78829901549E+03  0.93369972814E+03  0.46999998093E+01 0.  1.
       -5    1    3    3    0  502 -0.50035073667E+03  0.26257996991E+01 -0.13524420886E+02  0.50056243813E+03  0.46999998093E+01 0. -1.
</event>
<event>
 5   0  0.4122956E-04  0.1200109E+04  0.7818609E-02  0.9112761E-01
       -2   -1    0    0    0  501  0.00000000000E+00  0.00000000000E+00  0.41819825784E+03  0.41819825784E+03  0.25500000920E-02 0. -1.
        2   -1    0    0  501    0  0.00000000000E+00  0.00000000000E+00 -0.86099279873E+03  0.86099279873E+03  0.25500000920E-02 0.  1.
    10030    2    1    2    0    0  0.00000000000E+00  0.00000000000E+00 -0.44279454089E+03  0.12791910566E+04  0.12001094757E+04 0.  0.
        5    1    3    3  502    0 -0.27576142600E+03  0.43676795103E+03  0.10406403256E+03  0.52693644777E+03  0.46999998093E+01 0. -1.
       -5    1    3    3    0  502  0.27576142600E+03 -0.43676795103E+03 -0.54685857345E+03  0.75225460881E+03  0.46999998093E+01 0.  1.
</event>
<event>
 5   0  0.2315038E-04  0.1199740E+04  0.7818609E-02  0.9113084E-01
        1   -1    0    0  501    0  0.00000000000E+00  0.00000000000E+00  0.51802136981E+03  0.51802136983E+03  0.50400001928E-02 0. -1.
       -1   -1    0    0    0  501  0.00000000000E+00  0.00000000000E+00 -0.69465095633E+03  0.69465095634E+03  0.50400001928E-02 0.  1.
    10030    2    1    2    0    0  0.00000000000E+00  0.00000000000E+00 -0.17662958652E+03  0.12126723262E+04  0.11997400384E+04 0.  0.
        1    1    3    3  502    0 -0.10830593183E+03  0.35904610909E+03  0.38491965197E+03  0.53740805895E+03  0.50400001928E-02 0. -1.
       -1    1    3    3    0  502  0.10830593183E+03 -0.35904610909E+03 -0.56154923849E+03  0.67526426723E+03  0.50400001928E-02 0.  1.
</event>
<event>
 5   0  0.2244308E-04  0.1200645E+04  0.7818609E-02  0.9112292E-01
        1   -1    0    0  501    0  0.00000000000E+00  0.00000000000E+00  0.17655599991E+04  0.17655599991E+04  0.50400001928E-02 0. -1.
       -1   -1    0    0    0  501  0.00000000000E+00  0.00000000000E+00 -0.20412054143E+03  0.20412054150E+03  0.50400001928E-02 0.  1.
    10030    2    1    2    0    0  0.00000000000E+00  0.00000000000E+00  0.15614394577E+04  0.19696805406E+04  0.12006449317E+04 0.  0.
        5    1    3    3  502    0  0.54564529289E+03 -0.21150195376E+02  0.37161218445E+03  0.66052541363E+03  0.46999998093E+01 0.  1.
       -5    1    3    3    0  502 -0.54564529289E+03  0.21150195376E+02  0.11898272732E+04  0.13091551270E+04  0.46999998093E+01 0. -1.
</event>
<event>
 5   0  0.2304842E-04  0.1200227E+04  0.7818609E-02  0.9112657E-01
       -1   -1    0    0    0  501  0.00000000000E+00  0.00000000000E+00  0.33339920498E+03  0.33339920502E+03  0.50400001928E-02 0. -1.
        1   -1    0    0  501    0  0.00000000000E+00  0.00000000000E+00 -0.10801960127E+04  0.10801960127E+04  0.50400001928E-02 0.  1.
    10030    2    1    2    0    0  0.00000000000E+00  0.00000000000E+00 -0.74679680768E+03  0.14135952177E+04  0.12002274649E+04 0.  0.
        4    1    3    3  502    0  0.30088629609E+03  0.41987236759E+03 -0.73316800345E+03  0.89686247687E+03  0.12699999809E+01 0.  1.
       -4    1    3    3    0  502 -0.30088629609E+03 -0.41987236759E+03 -0.13628804228E+02  0.51673274083E+03  0.12699999809E+01 0. -1.
</event>
<event>
 5   0  0.2204090E-04  0.1196932E+04  0.7818609E-02  0.9115546E-01
        1   -1    0    0  501    0  0.00000000000E+00  0.00000000000E+00  0.10962035775E+04  0.10962035775E+04  0.50400001928E-02 0.  1.
       -1   -1    0    0    0  501  0.00000000000E+00  0.00000000000E+00 -0.32672919671E+03  0.32672919675E+03  0.50400001928E-02 0. -1.
    10030    2    1    2    0    0  0.00000000000E+00  0.00000000000E+00  0.76947438075E+03  0.14229327742E+04  0.11969322693E+04 0.  0.
        2    1    3    3  502    0  0.34553371012E+03 -0.45449293206E+03  0.17139731521E+03  0.59609932880E+03  0.25500000920E-02 0.  1.
       -2    1    3    3    0  502 -0.34553371012E+03  0.45449293206E+03  0.59807706554E+03  0.82683344542E+03  0.25500000920E-02 0. -1.
</event>
<event>
 5   0  0.3883890E-04  0.1198617E+04  0.7818609E-02  0.9114068E-01
       -2   -1    0    0    0  501  0.00000000000E+00  0.00000000000E+00  0.32688758197E+03  0.32688758198E+03  0.25500000920E-02 0.  1.
        2   -1    0    0  501    0  0.00000000000E+00  0.00000000000E+00 -0.10987588010E+04  0.10987588011E+04  0.25500000920E-02 0. -1.
    10030    2    1    2    0    0  0.00000000000E+00  0.00000000000E+00 -0.77187121908E+03  0.14256463830E+04  0.11986168823E+04 0.  0.
        2    1    3    3  502    0 -0.47637475146E+02  0.30656973474E+03  0.22393845167E+03  0.38262613794E+03  0.25500000920E-02 0.  1.
       -2    1    3    3    0  502  0.47637475146E+02 -0.30656973474E+03 -0.99580967075E+03  0.10430202451E+04  0.25500000920E-02 0. -1.
</event>
<event>
 5   0  0.3993723E-04  0.1191673E+04  0.7818609E-02  0.9120176E-01
       -2   -1    0    0    0  501  0.00000000000E+00  0.00000000000E+00  0.50190453508E+03  0.50190453508E+03  0.25500000920E-02 0. -1.
        2   -1    0    0  501    0  0.00000000000E+00  0.00000000000E+00 -0.70734808569E+03  0.70734808569E+03  0.25500000920E-02 0.  1.
    10030    2    1    2    0    0  0.00000000000E+00  0.00000000000E+00 -0.20544355061E+03  0.12092526208E+04  0.11916731298E+04 0.  0.
        3    1    3    3  502    0  0.18157943991E+03  0.13624822830E+03 -0.66174467662E+03  0.69960038590E+03  0.10100000352E+00 0.  1.
       -3    1    3    3    0  502 -0.18157943991E+03 -0.13624822830E+03  0.45630112601E+03  0.50965223487E+03  0.10100000352E+00 0. -1.
</event>
<event>
 5   0  0.3832662E-04  0.1186661E+04  0.7818609E-02  0.9124613E-01
        2   -1    0    0  501    0  0.00000000000E+00  0.00000000000E+00  0.86751580837E+03  0.86751580838E+03  0.25500000920E-02 0.  1.
       -2   -1    0    0    0  501  0.00000000000E+00  0.00000000000E+00 -0.40580360354E+03  0.40580360355E+03  0.25500000920E-02 0. -1.
    10030    2    1    2    0    0  0.00000000000E+00  0.00000000000E+00  0.46171220483E+03  0.12733194119E+04  0.11866609308E+04 0.  0.
        4    1    3    3  502    0 -0.42476352914E+03 -0.74868843245E+02  0.66805381247E+03  0.79518985697E+03  0.12699999809E+01 0.  1.
       -4    1    3    3    0  502  0.42476352914E+03  0.74868843245E+02 -0.20634160763E+03  0.47812955495E+03  0.12699999809E+01 0. -1.
</event>
<event>
 5   0  0.2340731E-04  0.1198974E+04  0.7818609E-02  0.9113755E-01
       -1   -1    0    0    0  501  0.00000000000E+00  0.00000000000E+00  0.25266635322E+03  0.25266635327E+03  0.50400001928E-02 0. -1.
        1   -1    0    0  501    0  0.00000000000E+00  0.00000000000E+00 -0.14223696208E+04  0.14223696208E+04  0.50400001928E-02 0.  1.
    10030    2    1    2    0    0  0.00000000000E+00  0.00000000000E+00 -0.11697032676E+04  0.16750359741E+04  0.11989744702E+04 0.  0.
        3    1    3    3  502    0 -0.25577463387E+03 -0.29814197957E+03 -0.12175128789E+04  0.12793150213E+04  0.10100000352E+00 0.  1.
       -3    1    3    3    0  502  0.25577463387E+03  0.29814197957E+03  0.47809611309E+02  0.39572095275E+03  0.10100000352E+00 0. -1.
</event>
<event>
 5   0  0.4024486E-04  0.1206462E+04  0.7818609E-02  0.9107219E-01
        2   -1    0    0  501    0  0.00000000000E+00  0.00000000000E+00  0.19539145655E+04  0.19539145655E+04  0.25500000920E-02 0. -1.
       -2   -1    0    0    0  501  0.00000000000E+00  0.00000000000E+00 -0.18623523298E+03  0.18623523300E+03  0.25500000920E-02 0.  1.
    10030    2    1    2    0    0  0.00000000000E+00  0.00000000000E+00  0.17676793325E+04  0.21401497985E+04  0.12064621574E+04 0.  0.
        1    1    3    3  502    0 -0.17321891391E+03  0.37264000172E+03  0.16672200364E+04  0.17171161908E+04  0.50400001928E-02 0. -1.
       -1    1    3    3    0  502  0.17321891391E+03 -0.37264000172E+03  0.10045929613E+03  0.42303360767E+03  0.50400001928E-02 0.  1.
</event>
<event>
 5   0  0.4122956E-04  0.1198794E+04  0.7818609E-02  0.9113913E-01
        2   -1    0    0  501    0  0.00000000000E+00  0.00000000000E+00  0.10219353921E+04  0.10219353921E+04  0.25500000920E-02 0.  1.
       -2   -1    0    0    0  501  0.00000000000E+00  0.00000000000E+00 -0.35156483947E+03  0.35156483948E+03  0.25500000920E-02 0. -1.
    10030    2    1    2    0    0  0.00000000000E+00  0.00000000000E+00  0.67037055260E+03  0.13735002316E+04  0.11987936471E+04 0.  0.
        5    1    3    3  502    0 -0.26439606183E+03  0.47206294743E+03  0.63065564141E+03  0.83096169099E+03  0.46999998093E+01 0.  1.
       -5    1    3    3    0  502  0.26439606183E+03 -0.47206294743E+03  0.39714911190E+02  0.54253854058E+03  0.46999998093E+01 0. -1.
</event>
<event>
 5   0  0.2304842E-04  0.1200745E+04  0.7818609E-02  0.9112205E-01
       -1   -1    0    0    0  501  0.00000000000E+00  0.00000000000E+00  0.20899947488E+03  0.20899947494E+03  0.50400001928E-02 0.  1.
        1   -1    0    0  501    0  0.00000000000E+00  0.00000000000E+00 -0.17246322094E+04  0.17246322094E+04  0.50400001928E-02 0. -1.
    10030    2    1    2    0    0  0.00000000000E+00  0.00000000000E+00 -0.15156327345E+04  0.19336316843E+04  0.12007451456E+04 0.  0.
        4    1    3    3  502    0 -0.34934043673E+02 -0.47560768514E+03 -0.13451509294E+04  0.14271845337E+04  0.12699999809E+01 0. -1.
       -4    1    3    3    0  502  0.34934043673E+02  0.47560768514E+03 -0.17048180511E+03  0.50644715060E+03  0.12699999809E+01 0.  1.
</event>
<event>
 5   0  0.2204090E-04  0.1199345E+04  0.7818609E-02  0.9113430E-01
       -1   -1    0    0    0  501  0.00000000000E+00  0.00000000000E+00  0.44704470197E+03  0.44704470200E+03  0.50400001928E-02 0.  1.
        1   -1    0    0  501    0  0.00000000000E+00  0.00000000000E+00 -0.80440915756E+03  0.80440915758E+03  0.50400001928E-02 0. -1.
    10030    2    1    2    0    0  0.00000000000E+00  0.00000000000E+00 -0.35736445559E+03  0.12514538596E+04  0.11993445746E+04 0.  0.
        2    1    3    3  502    0  0.19737686414E+03  0.34253354121E+02  0.41109763620E+03  0.45730972575E+03  0.25500000920E-02 0.  1.
       -2    1    3    3    0  502 -0.19737686414E+03 -0.34253354121E+02 -0.76846209179E+03  0.79414413383E+03  0.25500000920E-02 0. -1.
</event>
<event>
 5   0  0.2204090E-04  0.1199754E+04  0.7818609E-02  0.9113072E-01
        1   -1    0    0  501    0  0.00000000000E+00  0.00000000000E+00  0.48372891535E+03  0.48372891538E+03  0.50400001928E-02 0.  1.
       -1   -1    0    0    0  501  0.00000000000E+00  0.00000000000E+00 -0.74391384040E+03  0.74391384042E+03  0.50400001928E-02 0. -1.
    10030    2    1    2    0    0  0.00000000000E+00  0.00000000000E+00 -0.26018492505E+03  0.12276427558E+04  0.11997543668E+04 0.  0.
        2    1    3    3  502    0 -0.48885418827E+03  0.33967489663E+03 -0.54239819075E+02  0.59774527248E+03  0.25500000920E-02 0.  1.
       -2    1    3    3    0  502  0.48885418827E+03 -0.33967489663E+03 -0.20594510597E+03  0.62989748331E+03  0.25500000920E-02 0. -1.
</event>
<event>
 5   0  0.2340731E-04  0.1198909E+04  0.7818609E-02  0.9113812E-01
        1   -1    0    0  501    0  0.00000000000E+00  0.00000000000E+00  0.24146617417E+04  0.24146617417E+04  0.50400001928E-02 0.  1.
       -1   -1    0    0    0  501  0.00000000000E+00  0.00000000000E+00 -0.14881818728E+03  0.14881818737E+03  0.50400001928E-02 0. -1.
    10030    2    1    2    0    0  0.00000000000E+00  0.00000000000E+00  0.22658435544E+04  0.25634799290E+04  0.11989088096E+04 0.  0.
        3    1    3    3  502    0  0.28902395303E+03  0.28767514606E+03  0.19345186081E+03  0.45134849921E+03  0.10100000352E+00 0. -1.
       -3    1    3    3    0  502 -0.28902395303E+03 -0.28767514606E+03  0.20723916936E+04  0.21121314298E+04  0.10100000352E+00 0.  1.
</event>
<event>
 5   0  0.2204090E-04  0.1199462E+04  0.7818609E-02  0.9113327E-01
        1   -1    0    0  501    0  0.00000000000E+00  0.00000000000E+00  0.69059285606E+03  0.69059285607E+03  0.50400001928E-02 0.  1.
       -1   -1    0    0    0  501  0.00000000000E+00  0.00000000000E+00 -0.52082402647E+03  0.52082402649E+03  0.50400001928E-02 0. -1.
    10030    2    1    2    0    0  0.00000000000E+00  0.00000000000E+00  0.16976882959E+03  0.12114168826E+04  0.11994621327E+04 0.  0.
        2    1    3    3  502    0  0.13212034002E+03  0.23089733713E+03 -0.45797435040E+03  0.52963182511E+03  0.25500000920E-02 0. -1.
       -2    1    3    3    0  502 -0.13212034002E+03 -0.23089733713E+03  0.62774317999E+03  0.68178505745E+03  0.25500000920E-02 0.  1.
</event>
<event>
 5   0  0.3883890E-04  0.1199983E+04  0.7818609E-02  0.9112871E-01
       -2   -1    0    0    0  501  0.00000000000E+00  0.00000000000E+00  0.36517686906E+03  0.36517686907E+03  0.25500000920E-02 0. -1.
        2   -1    0    0  501    0  0.00000000000E+00  0.00000000000E+00 -0.98579576449E+03  0.98579576450E+03  0.25500000920E-02 0.  1.
    10030    2    1    2    0    0  0.00000000000E+00  0.00000000000E+00 -0.62061889543E+03  0.13509726336E+04  0.11999830179E+04 0.  0.
        2    1    3    3  502    0 -0.21254696172E+03 -0.19111919625E+03  0.28359687984E+03  0.40265363325E+03  0.25500000920E-02 0. -1.
       -2    1    3    3    0  502  0.21254696172E+03  0.19111919625E+03 -0.90421577527E+03  0.94831900032E+03  0.25500000920E-02 0.  1.
</event>
<event>
 5   0  0.3883890E-04  0.1205583E+04  0.7818609E-02  0.9107984E-01
       -2   -1    0    0    0  501  0.00000000000E+00  0.00000000000E+00  0.35215907652E+03  0.35215907652E+03  0.25500000920E-02 0. -1.
        2   -1    0    0  501    0  0.00000000000E+00  0.00000000000E+00 -0.10317998154E+04  0.10317998154E+04  0.25500000920E-02 0.  1.
    10030    2    1    2    0    0  0.00000000000E+00  0.00000000000E+00 -0.67964073884E+03  0.13839588919E+04  0.12055831288E+04 0.  0.
        2    1    3    3  502    0  0.16732486087E+03  0.21269380123E+03 -0.95814410322E+03  0.99562863794E+03  0.25500000920E-02 0.  1.
       -2    1    3    3    0  502 -0.16732486087E+03 -0.21269380123E+03  0.27850336438E+03  0.38833025394E+03  0.25500000920E-02 0. -1.
</event>
<event>
 5   0  0.3993723E-04  0.1199646E+04  0.7818609E-02  0.9113166E-01
       -2   -1    0    0    0  501  0.00000000000E+00  0.00000000000E+00  0.18091598032E+03  0.18091598033E+03  0.25500000920E-02 0. -1.
        2   -1    0    0  501    0  0.00000000000E+00  0.00000000000E+00 -0.19887014505E+04  0.19887014505E+04  0.25500000920E-02 0.  1.
    10030    2    1    2    0    0  0.00000000000E+00  0.00000000000E+00 -0.18077854702E+04  0.21696174308E+04  0.11996464021E+04 0.  0.
        3    1    3    3  502    0 -0.26600433633E+03 -0.53627437113E+03 -0.97250689467E+03  0.11419799379E+04  0.10100000352E+00 0. -1.
       -3    1    3    3    0  502  0.26600433633E+03  0.53627437113E+03 -0.83527857552E+03  0.10276374930E+04  0.10100000352E+00 0.  1.
</event>
<event>
 5   0  0.1541375E-04  0.1200260E+04  0.7818609E-02  0.9112629E-01
        3   -1    0    0  501    0  0.00000000000E+00  0.00000000000E+00  0.39265563152E+03  0.39265564451E+03  0.10100000352E+00 0. -1.
       -3   -1    0    0    0  501  0.00000000000E+00  0.00000000000E+00 -0.91723063982E+03  0.91723064538E+03  0.10100000352E+00 0.  1.
    10030    2    1    2    0    0  0.00000000000E+00  0.00000000000E+00 -0.52457500829E+03  0.13098862899E+04  0.12002596191E+04 0.  0.
        3    1    3    3  502    0 -0.12269190000E+03  0.11611082501E+03  0.36617482605E+03  0.40326051064E+03  0.10100000352E+00 0. -1.
       -3    1    3    3    0  502  0.12269190000E+03 -0.11611082501E+03 -0.89074983434E+03  0.90662577925E+03  0.10100000352E+00 0.  1.
</event>
<event>
 5   0  0.2304842E-04  0.1196224E+04  0.7818609E-02  0.9116168E-01
       -1   -1    0    0    0  501  0.00000000000E+00  0.00000000000E+00  0.17012748111E+03  0.17012748119E+03  0.50400001928E-02 0.  1.
        1   -1    0    0  501    0  0.00000000000E+00  0.00000000000E+00 -0.21027657440E+04  0.21027657440E+04  0.50400001928E-02 0. -1.
    10030    2    1    2    0    0  0.00000000000E+00  0.00000000000E+00 -0.19326382629E+04  0.22728932252E+04  0.11962244597E+04 0.  0.
        4    1    3    3  502    0 -0.54395778441E+03 -0.24014200485E+03 -0.10891393745E+04  0.12408805115E+04  0.12699999809E+01 0.  1.
       -4    1    3    3    0  502  0.54395778441E+03  0.24014200485E+03 -0.84349888837E+03  0.10320127137E+04  0.12699999809E+01 0. -1.
</event>
<event>
 5   0  0.2204090E-04  0.1198907E+04  0.7818609E-02  0.9113814E-01
        1   -1    0    0  501    0  0.00000000000E+00  0.00000000000E+00  0.23361199586E+03  0.23361199591E+03  0.50400001928E-02 0. -1.
       -1   -1    0    0    0  501  0.00000000000E+00  0.00000000000E+00 -0.15382107948E+04  0.15382107948E+04  0.50400001928E-02 0.  1.
    10030    2    1    2    0    0  0.00000000000E+00  0.00000000000E+00 -0.13045987989E+04  0.17718227907E+04  0.11989069920E+04 0.  0.
        2    1    3    3  502    0 -0.53246268524E+03 -0.18071284604E+03 -0.34523455997E+03  0.65981856999E+03  0.25500000920E-02 0. -1.
       -2    1    3    3    0  502  0.53246268524E+03  0.18071284604E+03 -0.95936423893E+03  0.11120042207E+04  0.25500000920E-02 0.  1.
</event>
<event>
 5   0  0.2204090E-04  0.1199395E+04  0.7818609E-02  0.9113386E-01
        1   -1    0    0  501    0  0.00000000000E+00  0.00000000000E+00  0.50270752081E+03  0.50270752084E+03  0.50400001928E-02 0.  1.
       -1   -1    0    0    0  501  0.00000000000E+00  0.00000000000E+00 -0.71540015351E+03  0.71540015353E+03  0.50400001928E-02 0. -1.
    10030    2    1    2    0    0  0.00000000000E+00  0.00000000000E+00 -0.21269263270E+03  0.12181076744E+04  0.11993949101E+04 0.  0.
        2    1    3    3  502    0 -0.19695454702E+02 -0.41264521254E+03  0.33514627505E+03  0.53196523200E+03  0.25500000920E-02 0.  1.
       -2    1    3    3    0  502  0.19695454702E+02  0.41264521254E+03 -0.54783890775E+03  0.68614244237E+03  0.25500000920E-02 0. -1.
</event>
<event>
 5   0  0.3993723E-04  0.1197834E+04  0.7818609E-02  0.9114754E-01
        2   -1    0    0  501    0  0.00000000000E+00  0.00000000000E+00  0.17230266968E+04  0.17230266968E+04  0.25500000920E-02 0.  1.
       -2   -1    0    0    0  501  0.00000000000E+00  0.00000000000E+00 -0.20818117574E+03  0.20818117575E+03  0.25500000920E-02 0. -1.
    10030    2    1    2    0    0  0.00000000000E+00  0.00000000000E+00  0.15148455210E+04  0.19312078725E+04  0.11978342516E+04 0.  0.
        3    1    3    3  502    0 -0.30884075215E+03  0.26360687452E+03  0.47610698845E+02  0.40882512561E+03  0.10100000352E+00 0. -1.
       -3    1    3    3    0  502  0.30884075215E+03 -0.26360687452E+03  0.14672348222E+04  0.15223827469E+04  0.10100000352E+00 0.  1.
</event>
<event>
 5   0  0.3883890E-04  0.1198153E+04  0.7818609E-02  0.9114475E-01
        2   -1    0    0  501    0  0.00000000000E+00  0.00000000000E+00  0.30247746926E+03  0.30247746927E+03  0.25500000920E-02 0. -1.
       -2   -1    0    0    0  501  0.00000000000E+00  0.00000000000E+00 -0.11865093869E+04  0.11865093869E+04  0.25500000920E-02 0.  1.
    10030    2    1    2    0    0  0.00000000000E+00  0.00000000000E+00 -0.88403191761E+03  0.14889868561E+04  0.11981525055E+04 0.  0.
        2    1    3    3  502    0  0.39933217068E+03  0.32938338108E+03 -0.81676364141E+03  0.96698626681E+03  0.25500000920E-02 0.  1.
       -2    1    3    3    0  502 -0.39933217068E+03 -0.32938338108E+03 -0.67268276199E+02  0.52200058933E+03  0.25500000920E-02 0. -1.
</event>
<event>
 5   0  0.3883890E-04  0.1199522E+04  0.7818609E-02  0.9113275E-01
       -2   -1    0    0    0  501  0.00000000000E+00  0.00000000000E+00  0.38217379683E+03  0.38217379684E+03  0.25500000920E-02 0. -1.
        2   -1    0    0  501    0  0.00000000000E+00  0.00000000000E+00 -0.94122913284E+03  0.94122913285E+03  0.25500000920E-02 0.  1.
    10030    2    1    2    0    0  0.00000000000E+00  0.00000000000E+00 -0.55905533601E+03  0.13234029297E+04  0.11995217570E+04 0.  0.
        2    1    3    3  502    0  0.12605637974E+02 -0.56080038504E+02 -0.93818334375E+03  0.93994247660E+03  0.25500000920E-02 0.  1.
       -2    1    3    3    0  502 -0.12605637974E+02  0.56080038504E+02  0.37912800774E+03  0.38346045309E+03  0.25500000920E-02 0. -1.
</event>
<event>
 5   0  0.2204090E-04  0.1202774E+04  0.7818609E-02  0.9110432E-01
        1   -1    0    0  501    0  0.00000000000E+00  0.00000000000E+00  0.66378714418E+03  0.66378714420E+03  0.50400001928E-02 0.  1.
       -1   -1    0    0    0  501  0.00000000000E+00  0.00000000000E+00 -0.54485277647E+03  0.54485277649E+03  0.50400001928E-02 0. -1.
    10030    2    1    2    0    0  0.00000000000E+00  0.00000000000E+00  0.11893436772E+03  0.12086399207E+04  0.12027739081E+04 0.  0.
        2    1    3    3  502    0 -0.52502211958E+03  0.25101786474E+03  0.21189108383E+03  0.61931900171E+03  0.25500000920E-02 0.  1.
       -2    1    3    3    0  502  0.52502211958E+03 -0.25101786474E+03 -0.92956716110E+02  0.58932091898E+03  0.25500000920E-02 0. -1.
</event>
<event>
 5   0  0.2244308E-04  0.1199213E+04  0.7818609E-02  0.9113546E-01
        1   -1    0    0  501    0  0.00000000000E+00  0.00000000000E+00  0.16183414574E+04  0.16183414574E+04  0.50400001928E-02 0. -1.
       -1   -1    0    0    0  501  0.00000000000E+00  0.00000000000E+00 -0.22215811821E+03  0.22215811826E+03  0.50400001928E-02 0.  1.
    10030    2    1    2    0    0  0.00000000000E+00  0.00000000000E+00  0.13961833392E+04  0.18404995757E+04  0.11992125631E+04 0.  0.
        5    1    3    3  502    0  0.48140526826E+03  0.32609747728E+03  0.47349741057E+03  0.74987497946E+03  0.46999998093E+01 0.  1.
       -5    1    3    3    0  502 -0.48140526826E+03 -0.32609747728E+03  0.92268592861E+03  0.10906245962E+04  0.46999998093E+01 0. -1.
</event>
<event>
 5   0  0.4024486E-04  0.1200642E+04  0.7818609E-02  0.9112295E-01
       -2   -1    0    0    0  501  0.00000000000E+00  0.00000000000E+00  0.19744839684E+03  0.19744839685E+03  0.25500000920E-02 0. -1.
        2   -1    0    0  501    0  0.00000000000E+00  0.00000000000E+00 -0.18252129216E+04  0.18252129216E+04  0.25500000920E-02 0.  1.
    10030    2    1    2    0    0  0.00000000000E+00  0.00000000000E+00 -0.16277645247E+04  0.20226613184E+04  0.12006421037E+04 0.  0.
        1    1    3    3  502    0  0.29257142075E+03 -0.37219813210E+03 -0.19202998994E+03  0.51088648724E+03  0.50400001928E-02 0. -1.
       -1    1    3    3    0  502 -0.29257142075E+03  0.37219813210E+03 -0.14357345348E+04  0.15117748312E+04  0.50400001928E-02 0.  1.
</event>
<event>
 5   0  0.3993723E-04  0.1201813E+04  0.7818609E-02  0.9111271E-01
       -2   -1    0    0    0  501  0.00000000000E+00  0.00000000000E+00  0.11527998429E+04  0.11527998429E+04  0.25500000920E-02 0.  1.
        2   -1    0    0  501    0  0.00000000000E+00  0.00000000000E+00 -0.31322767444E+03  0.31322767445E+03  0.25500000920E-02 0. -1.
    10030    2    1    2    0    0  0.00000000000E+00  0.00000000000E+00  0.83957216847E+03  0.14660275173E+04  0.12018133198E+04 0.  0.
        3    1    3    3  502    0 -0.35912199053E+03 -0.65932839437E+02  0.10019647514E+04  0.10664188280E+04  0.10100000352E+00 0.  1.
       -3    1    3    3    0  502  0.35912199053E+03  0.65932839437E+02 -0.16239258297E+03  0.39960868935E+03  0.10100000352E+00 0. -1.
</event>
<event>
 5   0  0.1541375E-04  0.1174444E+04  0.7818609E-02  0.9135524E-01
       -4   -1    0    0    0  501  0.00000000000E+00  0.00000000000E+00  0.92042913892E+03  0.92043001509E+03  0.12699999809E+01 0.  1.
        4   -1    0    0  501    0  0.00000000000E+00  0.00000000000E+00 -0.37463821151E+03  0.37464036411E+03  0.12699999809E+01 0. -1.
    10030    2    1    2    0    0  0.00000000000E+00  0.00000000000E+00  0.54579092742E+03  0.12950703792E+04  0.11744443583E+04 0.  0.
        4    1    3    3  502    0 -0.33651109232E+02  0.45383171888E+03 -0.13634575920E+03  0.47506568510E+03  0.12699999809E+01 0. -1.
       -4    1    3    3    0  502  0.33651109232E+02 -0.45383171888E+03  0.68213668661E+03  0.82000469409E+03  0.12699999809E+01 0.  1.
</event>
<event>
 5   0  0.3993723E-04  0.1200165E+04  0.7818609E-02  0.9112712E-01
       -2   -1    0    0    0  501  0.00000000000E+00  0.00000000000E+00  0.66966240284E+03  0.66966240284E+03  0.25500000920E-02 0.  1.
        2   -1    0    0  501    0  0.00000000000E+00  0.00000000000E+00 -0.53773196942E+03  0.53773196943E+03  0.25500000920E-02 0. -1.
    10030    2    1    2    0    0  0.00000000000E+00  0.00000000000E+00  0.13193043342E+03  0.12073943723E+04  0.12001647932E+04 0.  0.
        3    1    3    3  502    0  0.32121622411E+03  0.20934112687E+03 -0.39843798235E+03  0.55295244462E+03  0.10100000352E+00 0. -1.
       -3    1    3    3    0  502 -0.32121622411E+03 -0.20934112687E+03  0.53036841577E+03  0.65444192765E+03  0.10100000352E+00 0.  1.
</event>
<event>
 5   0  0.3883890E-04  0.1200277E+04  0.7818609E-02  0.9112614E-01
       -2   -1    0    0    0  501  0.00000000000E+00  0.00000000000E+00  0.26521082382E+03  0.26521082383E+03  0.25500000920E-02 0.  1.
        2   -1    0    0  501    0  0.00000000000E+00  0.00000000000E+00 -0.13580373723E+04  0.13580373723E+04  0.25500000920E-02 0. -1.
    10030    2    1    2    0    0  0.00000000000E+00  0.00000000000E+00 -0.10928265485E+04  0.16232481961E+04  0.12002769852E+04 0.  0.
        2    1    3    3  502    0 -0.54586658832E+03  0.23219973068E+03 -0.66946753897E+03  0.89446846391E+03  0.25500000920E-02 0. -1.
       -2    1    3    3    0  502  0.54586658832E+03 -0.23219973068E+03 -0.42335900952E+03  0.72877973224E+03  0.25500000920E-02 0.  1.
</event>
<event>
 5   0  0.3993723E-04  0.1202588E+04  0.7818609E-02  0.9110594E-01
        2   -1    0    0  501    0  0.00000000000E+00  0.00000000000E+00  0.12464481228E+04  0.12464481228E+04  0.25500000920E-02 0. -1.
       -2   -1    0    0    0  501  0.00000000000E+00  0.00000000000E+00 -0.29006769507E+03  0.29006769508E+03  0.25500000920E-02 0.  1.
    10030    2    1    2    0    0  0.00000000000E+00  0.00000000000E+00  0.95638042775E+03  0.15365158179E+04  0.12025877665E+04 0.  0.
        3    1    3    3  502    0  0.49425486227E+03  0.33016012309E+03  0.36206408665E+03  0.69597700307E+03  0.10100000352E+00 0. -1.
       -3    1    3    3    0  502 -0.49425486227E+03 -0.33016012309E+03  0.59431634110E+03  0.84053881484E+03  0.10100000352E+00 0.  1.
</event>
<event>
 5   0  0.2340731E-04  0.1198400E+04  0.7818609E-02  0.9114258E-01
        1   -1    0    0  501    0  0.00000000000E+00  0.00000000000E+00  0.39596312667E+03  0.39596312670E+03  0.50400001928E-02 0. -1.
       -1   -1    0    0    0  501  0.00000000000E+00  0.00000000000E+00 -0.90675216039E+03  0.90675216040E+03  0.50400001928E-02 0.  1.
    10030    2    1    2    0    0  0.00000000000E+00  0.00000000000E+00 -0.51078903372E+03  0.13027152871E+04  0.11983996338E+04 0.  0.
        3    1    3    3  502    0  0.35761268031E+03  0.59947134471E+02  0.26316156270E+03  0.44803404596E+03  0.10100000352E+00 0. -1.
       -3    1    3    3    0  502 -0.35761268031E+03 -0.59947134471E+02 -0.77395059642E+03  0.85468124114E+03  0.10100000352E+00 0.  1.
</event>
<event>
 5   0  0.2244308E-04  0.1200822E+04  0.7818609E-02  0.9112137E-01
        1   -1    0    0  501    0  0.00000000000E+00  0.00000000000E+00  0.13630485168E+04  0.13630485168E+04  0.50400001928E-02 0. -1.
       -1   -1    0    0    0  501  0.00000000000E+00  0.00000000000E+00 -0.26447597989E+03  0.26447597994E+03  0.50400001928E-02 0.  1.
    10030    2    1    2    0    0  0.00000000000E+00  0.00000000000E+00  0.10985725369E+04  0.16275244967E+04  0.12008223718E+04 0.  0.
        5    1    3    3  502    0  0.26221572405E+03  0.52780910496E+03  0.70460134708E+03  0.91859930629E+03  0.46999998093E+01 0. -1.
       -5    1    3    3    0  502 -0.26221572405E+03 -0.52780910496E+03  0.39397118978E+03  0.70892519041E+03  0.46999998093E+01 0.  1.
</event>
<event>
 5   0  0.4024486E-04  0.1201064E+04  0.7818609E-02  0.9111925E-01
       -2   -1    0    0    0  501  0.00000000000E+00  0.00000000000E+00  0.24030035799E+03  0.24030035800E+03  0.25500000920E-02 0. -1.
        2   -1    0    0  501    0  0.00000000000E+00  0.00000000000E+00 -0.15007837425E+04  0.15007837425E+04  0.25500000920E-02 0.  1.
    10030    2    1    2    0    0  0.00000000000E+00  0.00000000000E+00 -0.12604833845E+04  0.17410841005E+04  0.12010643123E+04 0.  0.
        1    1    3    3  502    0  0.36211077031E+03 -0.18620123276E+03 -0.12701190449E+04  0.13337906497E+04  0.50400001928E-02 0.  1.
       -1    1    3    3    0  502 -0.36211077031E+03  0.18620123276E+03  0.96356603962E+01  0.40729345076E+03  0.50400001928E-02 0. -1.
</event>
<event>
 5   0  0.2204090E-04  0.1200418E+04  0.7818609E-02  0.9112490E-01
        1   -1    0    0  501    0  0.00000000000E+00  0.00000000000E+00  0.74595525526E+03  0.74595525527E+03  0.50400001928E-02 0.  1.
       -1   -1    0    0    0  501  0.00000000000E+00  0.00000000000E+00 -0.48293929775E+03  0.48293929778E+03  0.50400001928E-02 0. -1.
    10030    2    1    2    0    0  0.00000000000E+00  0.00000000000E+00  0.26301595751E+03  0.12288945531E+04  0.12004184390E+04 0.  0.
        2    1    3    3  502    0  0.20734498326E+02  0.26087127091E+03 -0.42146042937E+03  0.49609740267E+03  0.25500000920E-02 0. -1.
       -2    1    3    3    0  502 -0.20734498326E+02 -0.26087127091E+03  0.68447638688E+03  0.73279715038E+03  0.25500000920E-02 0.  1.
</event>
<event>
 5   0  0.3883890E-04  0.1199640E+04  0.7818609E-02  0.9113172E-01
        2   -1    0    0  501    0  0.00000000000E+00  0.00000000000E+00  0.93105589047E+03  0.93105589047E+03  0.25500000920E-02 0.  1.
       -2   -1    0    0    0  501  0.00000000000E+00  0.00000000000E+00 -0.38642568776E+03  0.38642568776E+03  0.25500000920E-02 0. -1.
    10030    2    1    2    0    0  0.00000000000E+00  0.00000000000E+00  0.54463020271E+03  0.13174815782E+04  0.11996398006E+04 0.  0.
        2    1    3    3  502    0  0.25081728546E+03 -0.20702074211E+03  0.82582461396E+03  0.88755461318E+03  0.25500000920E-02 0.  1.
       -2    1    3    3    0  502 -0.25081728546E+03  0.20702074211E+03 -0.28119441125E+03  0.42992696505E+03  0.25500000920E-02 0. -1.
</event>
<event>
 5   0  0.2315038E-04  0.1199292E+04  0.7818609E-02  0.9113476E-01
        1   -1    0    0  501    0  0.00000000000E+00  0.00000000000E+00  0.89575130864E+03  0.89575130865E+03  0.50400001928E-02 0. -1.
       -1   -1    0    0    0  501  0.00000000000E+00  0.00000000000E+00 -0.40142342425E+03  0.40142342428E+03  0.50400001928E-02 0.  1.
    10030    2    1    2    0    0  0.00000000000E+00  0.00000000000E+00  0.49432788439E+03  0.12971747329E+04  0.11992923874E+04 0.  0.
        1    1    3    3  502    0 -0.35702881388E+03  0.25654927960E+03 -0.19390293758E+03  0.48050541728E+03  0.50400001928E-02 0.  1.
       -1    1    3    3    0  502  0.35702881388E+03 -0.25654927960E+03  0.68823082197E+03  0.81666931566E+03  0.50400001928E-02 0. -1.
</event>
<event>
 5   0  0.3832662E-04  0.1199919E+04  0.7818609E-02  0.9112927E-01
        2   -1    0    0  501    0  0.00000000000E+00  0.00000000000E+00  0.24773548157E+03  0.24773548158E+03  0.25500000920E-02 0. -1.
       -2   -1    0    0    0  501  0.00000000000E+00  0.00000000000E+00 -0.14529668634E+04  0.14529668634E+04  0.25500000920E-02 0.  1.
    10030    2    1    2    0    0  0.00000000000E+00  0.00000000000E+00 -0.12052313818E+04  0.17007023450E+04  0.11999190733E+04 0.  0.
        4    1    3    3  502    0  0.56187176639E+03 -0.23661364162E+02 -0.30635923237E+03  0.64040403979E+03  0.12699999809E+01 0. -1.
       -4    1    3    3    0  502 -0.56187176639E+03  0.23661364162E+02 -0.89887214945E+03  0.10602983052E+04  0.12699999809E+01 0.  1.
</event>
<event>
 5   0  0.2304842E-04  0.1203782E+04  0.7818609E-02  0.9109553E-01
        1   -1    0    0  501    0  0.00000000000E+00  0.00000000000E+00  0.13453448877E+04  0.13453448877E+04  0.50400001928E-02 0. -1.
       -1   -1    0    0    0  501  0.00000000000E+00  0.00000000000E+00 -0.26927865321E+03  0.26927865326E+03  0.50400001928E-02 0.  1.
    10030    2    1    2    0    0  0.00000000000E+00  0.00000000000E+00  0.10760662345E+04  0.16146235410E+04  0.12037818067E+04 0.  0.
        4    1    3    3  502    0 -0.23557924900E+03 -0.37056060620E+03 -0.14114152434E+02  0.43933309416E+03  0.12699999809E+01 0.  1.
       -4    1    3    3    0  502  0.23557924900E+03  0.37056060620E+03  0.10901803869E+04  0.11752904468E+04  0.12699999809E+01 0. -1.
</event>
<event>
 5   0  0.4122956E-04  0.1198170E+04  0.7818609E-02  0.9114460E-01
        2   -1    0    0  501    0  0.00000000000E+00  0.00000000000E+00  0.27403847140E+04  0.27403847140E+04  0.25500000920E-02 0.  1.
       -2   -1    0    0    0  501  0.00000000000E+00  0.00000000000E+00 -0.13096802284E+03  0.13096802287E+03  0.25500000920E-02 0. -1.
    10030    2    1    2    0    0  0.00000000000E+00  0.00000000000E+00  0.26094166911E+04  0.28713527369E+04  0.11981698842E+04 0.  0.
        5    1    3    3  502    0 -0.64027001380E+02 -0.37329175865E+03  0.19239855903E+03  0.42483583829E+03  0.46999998093E+01 0. -1.
       -5    1    3    3    0  502  0.64027001380E+02  0.37329175865E+03  0.24170181321E+04  0.24465168986E+04  0.46999998093E+01 0.  1.
</event>
<event>
 5   0  0.2204090E-04  0.1198982E+04  0.7818609E-02  0.9113748E-01
       -1   -1    0    0    0  501  0.00000000000E+00  0.00000000000E+00  0.45830501386E+03  0.45830501389E+03  0.50400001928E-02 0.  1.
        1   -1    0    0  501    0  0.00000000000E+00  0.00000000000E+00 -0.78417089835E+03  0.78417089837E+03  0.50400001928E-02 0. -1.
    10030    2    1    2    0    0  0.00000000000E+00  0.00000000000E+00 -0.32586588449E+03  0.12424759123E+04  0.11989819923E+04 0.  0.
        2    1    3    3  502    0 -0.76834400239E+02 -0.31688948480E+03  0.35837346402E+03  0.48451420037E+03  0.25500000920E-02 0.  1.
       -2    1    3    3    0  502  0.76834400239E+02  0.31688948480E+03 -0.68423934851E+03  0.75796171189E+03  0.25500000920E-02 0. -1.
</event>
<event>
 5   0  0.2340731E-04  0.1199790E+04  0.7818609E-02  0.9113040E-01
        1   -1    0    0  501    0  0.00000000000E+00  0.00000000000E+00  0.71027113607E+03  0.71027113609E+03  0.50400001928E-02 0. -1.
       -1   -1    0    0    0  501  0.00000000000E+00  0.00000000000E+00 -0.50667121757E+03  0.50667121760E+03  0.50400001928E-02 0.  1.
    10030    2    1    2    0    0  0.00000000000E+00  0.00000000000E+00  0.20359991850E+03  0.12169423537E+04  0.11997898838E+04 0.  0.
        3    1    3    3  502    0  0.52262920328E+03  0.29265626294E+03  0.68390347270E+02  0.60288159879E+03  0.10100000352E+00 0. -1.
       -3    1    3    3    0  502 -0.52262920328E+03 -0.29265626294E+03  0.13520957123E+03  0.61406075490E+03  0.10100000352E+00 0.  1.
</event>
<event>
 5   0  0.4024486E-04  0.1199142E+04  0.7818609E-02  0.9113608E-01
       -2   -1    0    0    0  501  0.00000000000E+00  0.00000000000E+00  0.38915009275E+03  0.38915009276E+03  0.25500000920E-02 0. -1.
        2   -1    0    0  501    0  0.00000000000E+00  0.00000000000E+00 -0.92377048271E+03  0.92377048271E+03  0.25500000920E-02 0.  1.
    10030    2    1    2    0    0  0.00000000000E+00  0.00000000000E+00 -0.53462038996E+03  0.13129205755E+04  0.11991419750E+04 0.  0.
        1    1    3    3  502    0 -0.53353667621E+03  0.67820380414E+02 -0.55745300062E+03  0.77460624629E+03  0.50400001928E-02 0.  1.
       -1    1    3    3    0  502  0.53353667621E+03 -0.67820380414E+02  0.22832610667E+02  0.53831432918E+03  0.50400001928E-02 0. -1.
</event>
<event>
 5   0  0.2340731E-04  0.1203665E+04  0.7818609E-02  0.9109655E-01
        1   -1    0    0  501    0  0.00000000000E+00  0.00000000000E+00  0.11126316334E+04  0.11126316334E+04  0.50400001928E-02 0.  1.
       -1   -1    0    0    0  501  0.00000000000E+00  0.00000000000E+00 -0.32553660540E+03  0.32553660544E+03  0.50400001928E-02 0. -1.
    10030    2    1    2    0    0  0.00000000000E+00  0.00000000000E+00  0.78709502802E+03  0.14381682389E+04  0.12036649451E+04 0.  0.
        3    1    3    3  502    0  0.45792055521E+03  0.17063108600E+03  0.81326283204E+03  0.94879009616E+03  0.10100000352E+00 0.  1.
       -3    1    3    3    0  502 -0.45792055521E+03 -0.17063108600E+03 -0.26167804019E+02  0.48937814271E+03  0.10100000352E+00 0. -1.
</event>
<event>
 5   0  0.4024486E-04  0.1198398E+04  0.7818609E-02  0.9114260E-01
       -2   -1    0    0    0  501  0.00000000000E+00  0.00000000000E+00  0.10129175618E+04  0.10129175618E+04  0.25500000920E-02 0.  1.
        2   -1    0    0  501    0  0.00000000000E+00  0.00000000000E+00 -0.35446056719E+03  0.35446056720E+03  0.25500000920E-02 0. -1.
    10030    2    1    2    0    0  0.00000000000E+00  0.00000000000E+00  0.65845699458E+03  0.13673781290E+04  0.11983978195E+04 0.  0.
        1    1    3    3  502    0 -0.98593293372E+02 -0.16076683598E+03 -0.31971434924E+03  0.37119250825E+03  0.50400001928E-02 0. -1.
       -1    1    3    3    0  502  0.98593293372E+02  0.16076683598E+03  0.97817134381E+03  0.99618562072E+03  0.50400001928E-02 0.  1.
</event>
<event>
 5   0  0.2340731E-04  0.1198214E+04  0.7818609E-02  0.9114421E-01
       -1   -1    0    0    0  501  0.00000000000E+00  0.00000000000E+00  0.34991422891E+03  0.34991422894E+03  0.50400001928E-02 0. -1.
        1   -1    0    0  501    0  0.00000000000E+00  0.00000000000E+00 -0.10257633108E+04  0.10257633108E+04  0.50400001928E-02 0.  1.
    10030    2    1    2    0    0  0.00000000000E+00  0.00000000000E+00 -0.67584908191E+03  0.13756775398E+04  0.11982139675E+04 0.  0.
        3    1    3    3  502    0  0.12443678507E+03  0.33977516651E+02  0.33378186562E+03  0.35783980932E+03  0.10100000352E+00 0. -1.
       -3    1    3    3    0  502 -0.12443678507E+03 -0.33977516651E+02 -0.10096309475E+04  0.10178377304E+04  0.10100000352E+00 0.  1.
</event>
<event>
 5   0  0.2244308E-04  0.1202802E+04  0.7818609E-02  0.9110407E-01
       -1   -1    0    0    0  501  0.00000000000E+00  0.00000000000E+00  0.53138221926E+03  0.53138221928E+03  0.50400001928E-02 0.  1.
        1   -1    0    0  501    0  0.00000000000E+00  0.00000000000E+00 -0.68064650222E+03  0.68064650224E+03  0.50400001928E-02 0. -1.
    10030    2    1    2    0    0  0.00000000000E+00  0.00000000000E+00 -0.14926428297E+03  0.12120287215E+04  0.12028024757E+04 0.  0.
        5    1    3    3  502    0  0.12301790313E+03  0.48721525110E+03  0.25827950070E+03  0.56501548286E+03  0.46999998093E+01 0.  1.
       -5    1    3    3    0  502 -0.12301790313E+03 -0.48721525110E+03 -0.40754378367E+03  0.64701323866E+03  0.46999998093E+01 0. -1.
</event>
<event>
 5   0  0.3832662E-04  0.1201057E+04  0.7818609E-02  0.9111932E-01
        2   -1    0    0  501    0  0.00000000000E+00  0.00000000000E+00  0.58763706527E+03  0.58763706528E+03  0.25500000920E-02 0. -1.
       -2   -1    0    0    0  501  0.00000000000E+00  0.00000000000E+00 -0.61370242081E+03  0.61370242081E+03  0.25500000920E-02 0.  1.
    10030    2    1    2    0    0  0.00000000000E+00  0.00000000000E+00 -0.26065355531E+02  0.12013394861E+04  0.12010566840E+04 0.  0.
        4    1    3    3  502    0 -0.26541739682E+03  0.90013311017E+02  0.51820807851E+03  0.58914345981E+03  0.12699999809E+01 0. -1.
       -4    1    3    3    0  502  0.26541739682E+03 -0.90013311017E+02 -0.54427343404E+03  0.61219602629E+03  0.12699999809E+01 0.  1.
</event>
<event>
 5   0  0.3883890E-04  0.1200031E+04  0.7818609E-02  0.9112830E-01
       -2   -1    0    0    0  501  0.00000000000E+00  0.00000000000E+00  0.20947179595E+03  0.20947179597E+03  0.25500000920E-02 0. -1.
        2   -1    0    0  501    0  0.00000000000E+00  0.00000000000E+00 -0.17186958476E+04  0.17186958476E+04  0.25500000920E-02 0.  1.
    10030    2    1    2    0    0  0.00000000000E+00  0.00000000000E+00 -0.15092240517E+04  0.19281676436E+04  0.12000305095E+04 0.  0.
        2    1    3    3  502    0 -0.24697089849E+03 -0.18485614734E+03 -0.15815140176E+04  0.16113202685E+04  0.25500000920E-02 0.  1.
       -2    1    3    3    0  502  0.24697089849E+03  0.18485614734E+03  0.72289965918E+02  0.31684737507E+03  0.25500000920E-02 0. -1.
</event>
<event>
 5   0  0.2304842E-04  0.1199247E+04  0.7818609E-02  0.9113516E-01
        1   -1    0    0  501    0  0.00000000000E+00  0.00000000000E+00  0.11804695702E+04  0.11804695702E+04  0.50400001928E-02 0. -1.
       -1   -1    0    0    0  501  0.00000000000E+00  0.00000000000E+00 -0.30458089949E+03  0.30458089954E+03  0.50400001928E-02 0.  1.
    10030    2    1    2    0    0  0.00000000000E+00  0.00000000000E+00  0.87588867074E+03  0.14850504698E+04  0.11992472365E+04 0.  0.
        4    1    3    3  502    0 -0.85366426132E+02 -0.49570305584E+03  0.84213344038E+03  0.98091757584E+03  0.12699999809E+01 0. -1.
       -4    1    3    3    0  502  0.85366426132E+02  0.49570305584E+03  0.33755230358E+02  0.50413289394E+03  0.12699999809E+01 0.  1.
</event>
<event>
 5   0  0.1541375E-04  0.1199857E+04  0.7818609E-02  0.9112982E-01
        3   -1    0    0  501    0  0.00000000000E+00  0.00000000000E+00  0.55673101472E+03  0.55673102388E+03  0.10100000352E+00 0.  1.
       -3   -1    0    0    0  501  0.00000000000E+00  0.00000000000E+00 -0.64647737958E+03  0.64647738747E+03  0.10100000352E+00 0. -1.
    10030    2    1    2    0    0  0.00000000000E+00  0.00000000000E+00 -0.89746364861E+02  0.12032084113E+04  0.11998566877E+04 0.  0.
        1    1    3    3  502    0  0.20896325815E+03  0.38562753300E+03 -0.45533281646E+03  0.63222006551E+03  0.50400001928E-02 0. -1.
       -1    1    3    3    0  502 -0.20896325815E+03 -0.38562753300E+03  0.36558645160E+03  0.57098834584E+03  0.50400001928E-02 0.  1.
</event>
<event>
 5   0  0.4122956E-04  0.1199676E+04  0.7818609E-02  0.9113140E-01
       -2   -1    0    0    0  501  0.00000000000E+00  0.00000000000E+00  0.21350628440E+03  0.21350628441E+03  0.25500000920E-02 0.  1.
        2   -1    0    0  501    0  0.00000000000E+00  0.00000000000E+00 -0.16852236510E+04  0.16852236510E+04  0.25500000920E-02 0. -1.
    10030    2    1    2    0    0  0.00000000000E+00  0.00000000000E+00 -0.14717173666E+04  0.18987299354E+04  0.11996763566E+04 0.  0.
        5    1    3    3  502    0 -0.53738704715E+00  0.20444999273E+03 -0.16283448654E+04  0.16411365510E+04  0.46999998093E+01 0. -1.
       -5    1    3    3    0  502  0.53738704715E+00 -0.20444999273E+03  0.15662749881E+03  0.25759338441E+03  0.46999998093E+01 0.  1.
</event>
<event>
 5   0  0.2304842E-04  0.1199033E+04  0.7818609E-02  0.9113703E-01
       -1   -1    0    0    0  501  0.00000000000E+00  0.00000000000E+00  0.97842118908E+03  0.97842118910E+03  0.50400001928E-02 0.  1.
        1   -1    0    0  501    0  0.00000000000E+00  0.00000000000E+00 -0.36734690582E+03  0.36734690586E+03  0.50400001928E-02 0. -1.
    10030    2    1    2    0    0  0.00000000000E+00  0.00000000000E+00  0.61107428326E+03  0.13457680950E+04  0.11990329377E+04 0.  0.
        4    1    3    3  502    0 -0.73258035899E+02  0.46970374711E+02 -0.36021882953E+03  0.37058355869E+03  0.12699999809E+01 0. -1.
       -4    1    3    3    0  502  0.73258035899E+02 -0.46970374711E+02  0.97129311279E+03  0.97518453627E+03  0.12699999809E+01 0.  1.
</event>
<event>
 5   0  0.3832662E-04  0.1196067E+04  0.7818609E-02  0.9116306E-01
        2   -1    0    0  501    0  0.00000000000E+00  0.00000000000E+00  0.23103006730E+04  0.23103006730E+04  0.25500000920E-02 0. -1.
       -2   -1    0    0    0  501  0.00000000000E+00  0.00000000000E+00 -0.15480401880E+03  0.15480401882E+03  0.25500000920E-02 0.  1.
    10030    2    1    2    0    0  0.00000000000E+00  0.00000000000E+00  0.21554966542E+04  0.24651046918E+04  0.11960666015E+04 0.  0.
        4    1    3    3  502    0  0.43991641912E+03 -0.12681594143E+03  0.28477245188E+03  0.53917130956E+03  0.12699999809E+01 0.  1.
       -4    1    3    3    0  502 -0.43991641912E+03  0.12681594143E+03  0.18707242023E+04  0.19259333822E+04  0.12699999809E+01 0. -1.
</event>
<event>
 5   0  0.2204090E-04  0.1197099E+04  0.7818609E-02  0.9115400E-01
        1   -1    0    0  501    0  0.00000000000E+00  0.00000000000E+00  0.24856045109E+04  0.24856045109E+04  0.50400001928E-02 0. -1.
       -1   -1    0    0    0  501  0.00000000000E+00  0.00000000000E+00 -0.14413454763E+03  0.14413454772E+03  0.50400001928E-02 0.  1.
    10030    2    1    2    0    0  0.00000000000E+00  0.00000000000E+00  0.23414699632E+04  0.26297390586E+04  0.11970989631E+04 0.  0.
        2    1    3    3  502    0  0.50852524915E+03 -0.29080112119E+03  0.14406618171E+04  0.15552072828E+04  0.25500000920E-02 0. -1.
       -2    1    3    3    0  502 -0.50852524915E+03  0.29080112119E+03  0.90080814610E+03  0.10745317758E+04  0.25500000920E-02 0.  1.
</event>
<event>
 5   0  0.2204090E-04  0.1205727E+04  0.7818609E-02  0.9107858E-01
       -1   -1    0    0    0  501  0.00000000000E+00  0.00000000000E+00  0.35302402308E+03  0.35302402312E+03  0.50400001928E-02 0. -1.
        1   -1    0    0  501    0  0.00000000000E+00  0.00000000000E+00 -0.10295182912E+04  0.10295182912E+04  0.50400001928E-02 0.  1.
    10030    2    1    2    0    0  0.00000000000E+00  0.00000000000E+00 -0.67649426809E+03  0.13825423143E+04  0.12057274800E+04 0.  0.
        2    1    3    3  502    0  0.17789868895E+03 -0.30481418817E+03 -0.89868021727E+03  0.96549767776E+03  0.25500000920E-02 0.  1.
       -2    1    3    3    0  502 -0.17789868895E+03  0.30481418817E+03  0.22218594919E+03  0.41704463654E+03  0.25500000920E-02 0. -1.
</event>
<event>
 5   0  0.3883890E-04  0.1201412E+04  0.7818609E-02  0.9111621E-01
        2   -1    0    0  501    0  0.00000000000E+00  0.00000000000E+00  0.23605048252E+04  0.23605048252E+04  0.25500000920E-02 0. -1.
       -2   -1    0    0    0  501  0.00000000000E+00  0.00000000000E+00 -0.15286891506E+03  0.15286891508E+03  0.25500000920E-02 0.  1.
    10030    2    1    2    0    0  0.00000000000E+00  0.00000000000E+00  0.22076359101E+04  0.25133737403E+04  0.12014121885E+04 0.  0.
        2    1    3    3  502    0 -0.57395654602E+03 -0.46067328581E+01  0.73310895134E+03  0.93107253920E+03  0.25500000920E-02 0.  1.
       -2    1    3    3    0  502  0.57395654602E+03  0.46067328581E+01  0.14745269588E+04  0.15823012011E+04  0.25500000920E-02 0. -1.
</event>
<event>
 5   0  0.2244308E-04  0.1204909E+04  0.7818609E-02  0.9108571E-01
        1   -1    0    0  501    0  0.00000000000E+00  0.00000000000E+00  0.76101715244E+03  0.76101715246E+03  0.50400001928E-02 0.  1.
       -1   -1    0    0    0  501  0.00000000000E+00  0.00000000000E+00 -0.47692912280E+03  0.47692912282E+03  0.50400001928E-02 0. -1.
    10030    2    1    2    0    0  0.00000000000E+00  0.00000000000E+00  0.28408802964E+03  0.12379462753E+04  0.12049086986E+04 0.  0.
        5    1    3    3  502    0  0.30176711223E+03 -0.51845579064E+03  0.85123175313E+02  0.60591075403E+03  0.46999998093E+01 0.  1.
       -5    1    3    3    0  502 -0.30176711223E+03  0.51845579064E+03  0.19896485433E+03  0.63203552126E+03  0.46999998093E+01 0. -1.
</event>
<event>
 5   0  0.2304842E-04  0.1206361E+04  0.7818609E-02  0.9107307E-01
        1   -1    0    0  501    0  0.00000000000E+00  0.00000000000E+00  0.16705344219E+04  0.16705344219E+04  0.50400001928E-02 0. -1.
       -1   -1    0    0    0  501  0.00000000000E+00  0.00000000000E+00 -0.21779043848E+03  0.21779043854E+03  0.50400001928E-02 0.  1.
    10030    2    1    2    0    0  0.00000000000E+00  0.00000000000E+00  0.14527439835E+04  0.18883248605E+04  0.12063605171E+04 0.  0.
        4    1    3    3  502    0 -0.23708412827E+02 -0.16855519386E+03 -0.17941475073E+03  0.24731398645E+03  0.12699999809E+01 0.  1.
       -4    1    3    3    0  502  0.23708412827E+02  0.16855519386E+03  0.16321587342E+04  0.16410108740E+04  0.12699999809E+01 0. -1.
</event>
<event>
 5   0  0.2244308E-04  0.1218151E+04  0.7818609E-02  0.9097115E-01
       -1   -1    0    0    0  501  0.00000000000E+00  0.00000000000E+00  0.33242924941E+03  0.33242924945E+03  0.50400001928E-02 0. -1.
        1   -1    0    0  501    0  0.00000000000E+00  0.00000000000E+00 -0.11159460967E+04  0.11159460967E+04  0.50400001928E-02 0.  1.
    10030    2    1    2    0    0  0.00000000000E+00  0.00000000000E+00 -0.78351684730E+03  0.14483753462E+04  0.12181512605E+04 0.  0.
        5    1    3    3  502    0 -0.59928818384E+03 -0.10727248591E+03 -0.37125663067E+03  0.71309697049E+03  0.46999998093E+01 0. -1.
       -5    1    3    3    0  502  0.59928818384E+03  0.10727248591E+03 -0.41226021664E+03  0.73527837568E+03  0.46999998093E+01 0.  1.
</event>
<event>
 5   0  0.3883890E-04  0.1199598E+04  0.7818609E-02  0.9113209E-01
        2   -1    0    0  501    0  0.00000000000E+00  0.00000000000E+00  0.70722739473E+03  0.70722739473E+03  0.25500000920E-02 0.  1.
       -2   -1    0    0    0  501  0.00000000000E+00  0.00000000000E+00 -0.50868886124E+03  0.50868886125E+03  0.25500000920E-02 0. -1.
    10030    2    1    2    0    0  0.00000000000E+00  0.00000000000E+00  0.19853853349E+03  0.12159162560E+04  0.11995977627E+04 0.  0.
        2    1    3    3  502    0 -0.31958523315E+02  0.35600786195E+03 -0.38894226679E+03  0.52824145225E+03  0.25500000920E-02 0. -1.
       -2    1    3    3    0  502  0.31958523315E+02 -0.35600786195E+03  0.58748080027E+03  0.68767480372E+03  0.25500000920E-02 0.  1.
</event>
<event>
 5   0  0.3883890E-04  0.1201912E+04  0.7818609E-02  0.9111184E-01
       -2   -1    0    0    0  501  0.00000000000E+00  0.00000000000E+00  0.26134434583E+03  0.26134434584E+03  0.25500000920E-02 0.  1.
        2   -1    0    0  501    0  0.00000000000E+00  0.00000000000E+00 -0.13818867624E+04  0.13818867624E+04  0.25500000920E-02 0. -1.
    10030    2    1    2    0    0  0.00000000000E+00  0.00000000000E+00 -0.11205424165E+04  0.16432311082E+04  0.12019122962E+04 0.  0.
        2    1    3    3  502    0 -0.28617158093E+02 -0.32392790435E+03  0.13066248224E+03  0.35045814761E+03  0.25500000920E-02 0.  1.
       -2    1    3    3    0  502  0.28617158093E+02  0.32392790435E+03 -0.12512048988E+04  0.12927729606E+04  0.25500000920E-02 0. -1.
</event>
<event>
 5   0  0.2304842E-04  0.1197973E+04  0.7818609E-02  0.9114632E-01
       -1   -1    0    0    0  501  0.00000000000E+00  0.00000000000E+00  0.42446587289E+03  0.42446587292E+03  0.50400001928E-02 0.  1.
        1   -1    0    0  501    0  0.00000000000E+00  0.00000000000E+00 -0.84526208938E+03  0.84526208939E+03  0.50400001928E-02 0. -1.
    10030    2    1    2    0    0  0.00000000000E+00  0.00000000000E+00 -0.42079621648E+03  0.12697279623E+04  0.11979731393E+04 0.  0.
        4    1    3    3  502    0 -0.55994895800E+02 -0.15108992648E+03  0.40106198475E+03  0.43222207573E+03  0.12699999809E+01 0.  1.
       -4    1    3    3    0  502  0.55994895800E+02  0.15108992648E+03 -0.82185820123E+03  0.83750588659E+03  0.12699999809E+01 0. -1.
</event>
<event>
 5   0  0.3993723E-04  0.1170382E+04  0.7818609E-02  0.9139183E-01
        2   -1    0    0  501    0  0.00000000000E+00  0.00000000000E+00  0.37432840943E+03  0.37432840944E+03  0.25500000920E-02 0. -1.
       -2   -1    0    0    0  501  0.00000000000E+00  0.00000000000E+00 -0.91483485419E+03  0.91483485420E+03  0.25500000920E-02 0.  1.
    10030    2    1    2    0    0  0.00000000000E+00  0.00000000000E+00 -0.54050644476E+03  0.12891632636E+04  0.11703822895E+04 0.  0.
        3    1    3    3  502    0 -0.35823090237E+03 -0.62959061735E+02 -0.77520569254E+03  0.85629264789E+03  0.10100000352E+00 0.  1.
       -3    1    3    3    0  502  0.35823090237E+03  0.62959061735E+02  0.23469924778E+03  0.43287061575E+03  0.10100000352E+00 0. -1.
</event>
<event>
 5   0  0.3993723E-04  0.1202208E+04  0.7818609E-02  0.9110926E-01
        2   -1    0    0  501    0  0.00000000000E+00  0.00000000000E+00  0.90964006533E+03  0.90964006533E+03  0.25500000920E-02 0. -1.
       -2   -1    0    0    0  501  0.00000000000E+00  0.00000000000E+00 -0.39721840246E+03  0.39721840247E+03  0.25500000920E-02 0.  1.
    10030    2    1    2    0    0  0.00000000000E+00  0.00000000000E+00  0.51242166287E+03  0.13068584678E+04  0.12022075920E+04 0.  0.
        3    1    3    3  502    0  0.15974991721E+03  0.18797702550E+03  0.85207862474E+03  0.88707011623E+03  0.10100000352E+00 0. -1.
       -3    1    3    3    0  502 -0.15974991721E+03 -0.18797702550E+03 -0.33965696188E+03  0.41978835157E+03  0.10100000352E+00 0.  1.
</event>
<event>
 5   0  0.3832662E-04  0.1200984E+04  0.7818609E-02  0.9111996E-01
        2   -1    0    0  501    0  0.00000000000E+00  0.00000000000E+00  0.21428797302E+04  0.21428797302E+04  0.25500000920E-02 0. -1.
       -2   -1    0    0    0  501  0.00000000000E+00  0.00000000000E+00 -0.16827375890E+03  0.16827375892E+03  0.25500000920E-02 0.  1.
    10030    2    1    2    0    0  0.00000000000E+00  0.00000000000E+00  0.19746059713E+04  0.23111534891E+04  0.12009836420E+04 0.  0.
        4    1    3    3  502    0 -0.56280849358E+03 -0.15650123673E+03  0.71966293386E+03  0.92691012985E+03  0.12699999809E+01 0.  1.
       -4    1    3    3    0  502  0.56280849358E+03  0.15650123673E+03  0.12549430374E+04  0.13842433593E+04  0.12699999809E+01 0. -1.
</event>
<event>
 5   0  0.2304842E-04  0.1203478E+04  0.7818609E-02  0.9109818E-01
        1   -1    0    0  501    0  0.00000000000E+00  0.00000000000E+00  0.89870379355E+03  0.89870379357E+03  0.50400001928E-02 0. -1.
       -1   -1    0    0    0  501  0.00000000000E+00  0.00000000000E+00 -0.40290207388E+03  0.40290207391E+03  0.50400001928E-02 0.  1.
    10030    2    1    2    0    0  0.00000000000E+00  0.00000000000E+00  0.49580171968E+03  0.13016058675E+04  0.12034776645E+04 0.  0.
        4    1    3    3  502    0  0.69635127567E+02  0.59698726559E+03  0.21645874689E+03  0.63882614871E+03  0.12699999809E+01 0. -1.
       -4    1    3    3    0  502 -0.69635127567E+02 -0.59698726559E+03  0.27934297278E+03  0.66277971877E+03  0.12699999809E+01 0.  1.
</event>
<event>
 5   0  0.2304842E-04  0.1199139E+04  0.7818609E-02  0.9113610E-01
        1   -1    0    0  501    0  0.00000000000E+00  0.00000000000E+00  0.39699386740E+03  0.39699386743E+03  0.50400001928E-02 0. -1.
       -1   -1    0    0    0  501  0.00000000000E+00  0.00000000000E+00 -0.90551449154E+03  0.90551449156E+03  0.50400001928E-02 0.  1.
    10030    2    1    2    0    0  0.00000000000E+00  0.00000000000E+00 -0.50852062414E+03  0.13025083590E+04  0.11991391913E+04 0.  0.
        4    1    3    3  502    0  0.34544080860E+02  0.57175779748E+03 -0.61840428217E+02  0.57613030120E+03  0.12699999809E+01 0.  1.
       -4    1    3    3    0  502 -0.34544080860E+02 -0.57175779748E+03 -0.44668019592E+03  0.72637805779E+03  0.12699999809E+01 0. -1.
</event>
<event>
 5   0  0.4122956E-04  0.1199936E+04  0.7818609E-02  0.9112913E-01
       -2   -1    0    0    0  501  0.00000000000E+00  0.00000000000E+00  0.72646331740E+03  0.72646331741E+03  0.25500000920E-02 0. -1.
        2   -1    0    0  501    0  0.00000000000E+00  0.00000000000E+00 -0.49549830687E+03  0.49549830687E+03  0.25500000920E-02 0.  1.
    10030    2    1    2    0    0  0.00000000000E+00  0.00000000000E+00  0.23096501054E+03  0.12219616243E+04  0.11999355712E+04 0.  0.
        5    1    3    3  502    0 -0.32527215285E+03  0.43777989205E+03 -0.13907808128E+03  0.56286588988E+03  0.46999998093E+01 0.  1.
       -5    1    3    3    0  502  0.32527215285E+03 -0.43777989205E+03  0.37004309182E+03  0.65909573440E+03  0.46999998093E+01 0. -1.
</event>
<event>
 5   0  0.2304842E-04  0.1198215E+04  0.7818609E-02  0.9114420E-01
       -1   -1    0    0    0  501  0.00000000000E+00  0.00000000000E+00  0.26510433980E+03  0.26510433984E+03  0.50400001928E-02 0. -1.
        1   -1    0    0  501    0  0.00000000000E+00  0.00000000000E+00 -0.13539199721E+04  0.13539199721E+04  0.50400001928E-02 0.  1.
    10030    2    1    2    0    0  0.00000000000E+00  0.00000000000E+00 -0.10888156323E+04  0.16190243119E+04  0.11982154404E+04 0.  0.
        4    1    3    3  502    0  0.19883765154E+03  0.53917833955E+03 -0.31558538379E+03  0.65562599161E+03  0.12699999809E+01 0. -1.
       -4    1    3    3    0  502 -0.19883765154E+03 -0.53917833955E+03 -0.77323024849E+03  0.96339832032E+03  0.12699999809E+01 0.  1.
</event>
<event>
 5   0  0.3993723E-04  0.1201608E+04  0.7818609E-02  0.9111450E-01
        2   -1    0    0  501    0  0.00000000000E+00  0.00000000000E+00  0.91861301931E+03  0.91861301932E+03  0.25500000920E-02 0.  1.
       -2   -1    0    0    0  501  0.00000000000E+00  0.00000000000E+00 -0.39294599528E+03  0.39294599529E+03  0.25500000920E-02 0. -1.
    10030    2    1    2    0    0  0.00000000000E+00  0.00000000000E+00  0.52566702403E+03  0.13115590146E+04  0.12016077682E+04 0.  0.
        3    1    3    3  502    0 -0.44768345702E+03  0.28874498032E+03 -0.40382835008E+02  0.53425174302E+03  0.10100000352E+00 0. -1.
       -3    1    3    3    0  502  0.44768345702E+03 -0.28874498032E+03  0.56604985904E+03  0.77730727159E+03  0.10100000352E+00 0.  1.
</event>
<event>
 5   0  0.3993723E-04  0.1201217E+04  0.7818609E-02  0.9111792E-01
        2   -1    0    0  501    0  0.00000000000E+00  0.00000000000E+00  0.14099637224E+04  0.14099637224E+04  0.25500000920E-02 0. -1.
       -2   -1    0    0    0  501  0.00000000000E+00  0.00000000000E+00 -0.25584398909E+03  0.25584398910E+03  0.25500000920E-02 0.  1.
    10030    2    1    2    0    0  0.00000000000E+00  0.00000000000E+00  0.11541197333E+04  0.16658077115E+04  0.12012172880E+04 0.  0.
        3    1    3    3  502    0  0.28411856570E+03 -0.42727599489E+03  0.14416969949E+03  0.53298503509E+03  0.10100000352E+00 0. -1.
       -3    1    3    3    0  502 -0.28411856570E+03  0.42727599489E+03  0.10099500338E+04  0.11328226764E+04  0.10100000352E+00 0.  1.
</event>
<event>
 5   0  0.2304842E-04  0.1204258E+04  0.7818609E-02  0.9109138E-01
       -1   -1    0    0    0  501  0.00000000000E+00  0.00000000000E+00  0.87304563391E+03  0.87304563393E+03  0.50400001928E-02 0. -1.
        1   -1    0    0  501    0  0.00000000000E+00  0.00000000000E+00 -0.41528076610E+03  0.41528076613E+03  0.50400001928E-02 0.  1.
    10030    2    1    2    0    0  0.00000000000E+00  0.00000000000E+00  0.45776486781E+03  0.12883264001E+04  0.12042575467E+04 0.  0.
        4    1    3    3  502    0 -0.42089017341E+03  0.15596456759E+03 -0.20048853959E+03  0.49160019510E+03  0.12699999809E+01 0.  1.
       -4    1    3    3    0  502  0.42089017341E+03 -0.15596456759E+03  0.65825340740E+03  0.79672620496E+03  0.12699999809E+01 0. -1.
</event>
<event>
 5   0  0.2340731E-04  0.1200225E+04  0.7818609E-02  0.9112660E-01
       -1   -1    0    0    0  501  0.00000000000E+00  0.00000000000E+00  0.10236207901E+04  0.10236207902E+04  0.50400001928E-02 0.  1.
        1   -1    0    0  501    0  0.00000000000E+00  0.00000000000E+00 -0.35182436561E+03  0.35182436565E+03  0.50400001928E-02 0. -1.
    10030    2    1    2    0    0  0.00000000000E+00  0.00000000000E+00  0.67179642453E+03  0.13754451558E+04  0.12002245376E+04 0.  0.
        3    1    3    3  502    0  0.25204095530E+03 -0.49593324273E+03  0.59383581420E+03  0.81370474302E+03  0.10100000352E+00 0.  1.
       -3    1    3    3    0  502 -0.25204095530E+03  0.49593324273E+03  0.77960610333E+02  0.56174041278E+03  0.10100000352E+00 0. -1.
</event>
<event>
 5   0  0.2304842E-04  0.1201687E+04  0.7818609E-02  0.9111381E-01
       -1   -1    0    0    0  501  0.00000000000E+00  0.00000000000E+00  0.73631652432E+03  0.73631652434E+03  0.50400001928E-02 0.  1.
        1   -1    0    0  501    0  0.00000000000E+00  0.00000000000E+00 -0.49029575637E+03  0.49029575639E+03  0.50400001928E-02 0. -1.
    10030    2    1    2    0    0  0.00000000000E+00  0.00000000000E+00  0.24602076795E+03  0.12266122807E+04  0.12016869264E+04 0.  0.
        4    1    3    3  502    0  0.49432232885E+03 -0.31690048832E+03 -0.70321832730E+01  0.58722359353E+03  0.12699999809E+01 0. -1.
       -4    1    3    3    0  502 -0.49432232885E+03  0.31690048832E+03  0.25305295123E+03  0.63938868720E+03  0.12699999809E+01 0.  1.
</event>
<event>
 5   0  0.4122956E-04  0.1235629E+04  0.7818609E-02  0.9082230E-01
       -2   -1    0    0    0  501  0.00000000000E+00  0.00000000000E+00  0.48270257617E+03  0.48270257618E+03  0.25500000920E-02 0. -1.
        2   -1    0    0  501    0  0.00000000000E+00  0.00000000000E+00 -0.79074525046E+03  0.79074525046E+03  0.25500000920E-02 0.  1.
    10030    2    1    2    0    0  0.00000000000E+00  0.00000000000E+00 -0.30804267429E+03  0.12734478266E+04  0.12356290212E+04 0.  0.
        5    1    3    3  502    0 -0.48718312305E+03 -0.12604332761E+02 -0.54533508485E+03  0.73138137066E+03  0.46999998093E+01 0.  1.
       -5    1    3    3    0  502  0.48718312305E+03  0.12604332761E+02  0.23729241056E+03  0.54206645598E+03  0.46999998093E+01 0. -1.
</event>
<event>
 5   0  0.2304842E-04  0.1200329E+04  0.7818609E-02  0.9112569E-01
        1   -1    0    0  501    0  0.00000000000E+00  0.00000000000E+00  0.93449039437E+03  0.93449039438E+03  0.50400001928E-02 0. -1.
       -1   -1    0    0    0  501  0.00000000000E+00  0.00000000000E+00 -0.38544772913E+03  0.38544772916E+03  0.50400001928E-02 0.  1.
    10030    2    1    2    0    0  0.00000000000E+00  0.00000000000E+00  0.54904266524E+03  0.13199381235E+04  0.12003286224E+04 0.  0.
        4    1    3    3  502    0 -0.90242934309E+02  0.22616893862E+03  0.87772514781E+03  0.91087827067E+03  0.12699999809E+01 0. -1.
       -4    1    3    3    0  502  0.90242934309E+02 -0.22616893862E+03 -0.32868248256E+03  0.40905985287E+03  0.12699999809E+01 0.  1.
</event>
<event>
 5   0  0.1541375E-04  0.1190013E+04  0.7818609E-02  0.9121644E-01
       -3   -1    0    0    0  501  0.00000000000E+00  0.00000000000E+00  0.12419333456E+04  0.12419333497E+04  0.10100000352E+00 0.  1.
        3   -1    0    0  501    0  0.00000000000E+00  0.00000000000E+00 -0.28506565368E+03  0.28506567157E+03  0.10100000352E+00 0. -1.
    10030    2    1    2    0    0  0.00000000000E+00  0.00000000000E+00  0.95686769195E+03  0.15269990213E+04  0.11900127021E+04 0.  0.
        4    1    3    3  502    0 -0.40880262238E+03  0.41807997064E+03  0.61970302180E+03  0.85202341167E+03  0.12699999809E+01 0.  1.
       -4    1    3    3    0  502  0.40880262238E+03 -0.41807997064E+03  0.33716467014E+03  0.67497560963E+03  0.12699999809E+01 0. -1.
</event>
<event>
 5   0  0.2204090E-04  0.1199478E+04  0.7818609E-02  0.9113313E-01
        1   -1    0    0  501    0  0.00000000000E+00  0.00000000000E+00  0.11560357675E+04  0.11560357675E+04  0.50400001928E-02 0.  1.
       -1   -1    0    0    0  501  0.00000000000E+00  0.00000000000E+00 -0.31113822860E+03  0.31113822864E+03  0.50400001928E-02 0. -1.
    10030    2    1    2    0    0  0.00000000000E+00  0.00000000000E+00  0.84489753890E+03  0.14671739962E+04  0.11994780881E+04 0.  0.
        2    1    3    3  502    0  0.31538852056E+03  0.40268523886E+03  0.39413477363E+02  0.51300949572E+03  0.25500000920E-02 0. -1.
       -2    1    3    3    0  502 -0.31538852056E+03 -0.40268523886E+03  0.80548406153E+03  0.95416450043E+03  0.25500000920E-02 0.  1.
</event>
<event>
 5   0  0.2244308E-04  0.1200499E+04  0.7818609E-02  0.9112420E-01
       -1   -1    0    0    0  501  0.00000000000E+00  0.00000000000E+00  0.31279332714E+03  0.31279332718E+03  0.50400001928E-02 0. -1.
        1   -1    0    0  501    0  0.00000000000E+00  0.00000000000E+00 -0.11518778268E+04  0.11518778268E+04  0.50400001928E-02 0.  1.
    10030    2    1    2    0    0  0.00000000000E+00  0.00000000000E+00 -0.83908449966E+03  0.14646711540E+04  0.12004993927E+04 0.  0.
        5    1    3    3  502    0  0.35255678862E+03 -0.12530183931E+03  0.15307769993E+03  0.40429161796E+03  0.46999998093E+01 0. -1.
       -5    1    3    3    0  502 -0.35255678862E+03  0.12530183931E+03 -0.99216219960E+03  0.10603795360E+04  0.46999998093E+01 0.  1.
</event>
<event>
 5   0  0.3883890E-04  0.1198903E+04  0.7818609E-02  0.9113817E-01
        2   -1    0    0  501    0  0.00000000000E+00  0.00000000000E+00  0.10343296264E+04  0.10343296264E+04  0.25500000920E-02 0.  1.
       -2   -1    0    0    0  501  0.00000000000E+00  0.00000000000E+00 -0.34741561624E+03  0.34741561625E+03  0.25500000920E-02 0. -1.
    10030    2    1    2    0    0  0.00000000000E+00  0.00000000000E+00  0.68691401017E+03  0.13817452427E+04  0.11989032731E+04 0.  0.
        2    1    3    3  502    0 -0.25284049934E+03  0.51092194063E+03  0.55713055411E+03  0.79709723488E+03  0.25500000920E-02 0.  1.
       -2    1    3    3    0  502  0.25284049934E+03 -0.51092194063E+03  0.12978345606E+03  0.58464800778E+03  0.25500000920E-02 0. -1.
</event>
<event>
 5   0  0.3832662E-04  0.1200842E+04  0.7818609E-02  0.9112120E-01
       -2   -1    0    0    0  501  0.00000000000E+00  0.00000000000E+00  0.23680435983E+03  0.23680435985E+03  0.25500000920E-02 0.  1.
        2   -1    0    0  501    0  0.00000000000E+00  0.00000000000E+00 -0.15223757365E+04  0.15223757365E+04  0.25500000920E-02 0. -1.
    10030    2    1    2    0    0  0.00000000000E+00  0.00000000000E+00 -0.12855713766E+04  0.17591800963E+04  0.12008417243E+04 0.  0.
        4    1    3    3  502    0 -0.55718139269E+01  0.44983838113E+03 -0.60259883921E+02  0.45389258725E+03  0.12699999809E+01 0.  1.
       -4    1    3    3    0  502  0.55718139269E+01 -0.44983838113E+03 -0.12253114927E+04  0.13052875091E+04  0.12699999809E+01 0. -1.
</event>
<event>
 5   0  0.3993723E-04  0.1198534E+04  0.7818609E-02  0.9114140E-01
        2   -1    0    0  501    0  0.00000000000E+00  0.00000000000E+00  0.20840055263E+04  0.20840055263E+04  0.25500000920E-02 0. -1.
       -2   -1    0    0    0  501  0.00000000000E+00  0.00000000000E+00 -0.17232252397E+03  0.17232252399E+03  0.25500000920E-02 0.  1.
    10030    2    1    2    0    0  0.00000000000E+00  0.00000000000E+00  0.19116830023E+04  0.22563280503E+04  0.11985342587E+04 0.  0.
        3    1    3    3  502    0  0.25948804102E+03 -0.18025307699E+03  0.19144683477E+04  0.19403644708E+04  0.10100000352E+00 0. -1.
       -3    1    3    3    0  502 -0.25948804102E+03  0.18025307699E+03 -0.27853453509E+01  0.31596357947E+03  0.10100000352E+00 0.  1.
</event>
<event>
 5   0  0.2304842E-04  0.1200309E+04  0.7818609E-02  0.9112586E-01
        1   -1    0    0  501    0  0.00000000000E+00  0.00000000000E+00  0.98709949689E+03  0.98709949690E+03  0.50400001928E-02 0. -1.
       -1   -1    0    0    0  501  0.00000000000E+00  0.00000000000E+00 -0.36489290318E+03  0.36489290321E+03  0.50400001928E-02 0.  1.
    10030    2    1    2    0    0  0.00000000000E+00  0.00000000000E+00  0.62220659371E+03  0.13519924001E+04  0.12003092954E+04 0.  0.
        4    1    3    3  502    0 -0.22207491872E+03  0.17140356050E+03  0.90870340499E+03  0.95102047361E+03  0.12699999809E+01 0. -1.
       -4    1    3    3    0  502  0.22207491872E+03 -0.17140356050E+03 -0.28649681128E+03  0.40097192651E+03  0.12699999809E+01 0.  1.
</event>
<event>
 5   0  0.2340731E-04  0.1198792E+04  0.7818609E-02  0.9113914E-01
       -1   -1    0    0    0  501  0.00000000000E+00  0.00000000000E+00  0.37821323810E+03  0.37821323814E+03  0.50400001928E-02 0.  1.
        1   -1    0    0  501    0  0.00000000000E+00  0.00000000000E+00 -0.94992904025E+03  0.94992904026E+03  0.50400001928E-02 0. -1.
    10030    2    1    2    0    0  0.00000000000E+00  0.00000000000E+00 -0.57171580214E+03  0.13281422784E+04  0.11987922894E+04 0.  0.
        3    1    3    3  502    0  0.11336132393E+02 -0.36522412677E+03  0.24055045124E+03  0.43747194249E+03  0.10100000352E+00 0.  1.
       -3    1    3    3    0  502 -0.11336132393E+02  0.36522412677E+03 -0.81226625339E+03  0.89067033591E+03  0.10100000352E+00 0. -1.
</event>
<event>
 5   0  0.2244308E-04  0.1202255E+04  0.7818609E-02  0.9110885E-01
        1   -1    0    0  501    0  0.00000000000E+00  0.00000000000E+00  0.41632287223E+03  0.41632287226E+03  0.50400001928E-02 0.  1.
       -1   -1    0    0    0  501  0.00000000000E+00  0.00000000000E+00 -0.86796623599E+03  0.86796623600E+03  0.50400001928E-02 0. -1.
    10030    2    1    2    0    0  0.00000000000E+00  0.00000000000E+00 -0.45164336376E+03  0.12842891083E+04  0.12022548755E+04 0.  0.
        5    1    3    3  502    0  0.31030082353E+03 -0.13939215183E+03 -0.75523393687E+03  0.82832189545E+03  0.46999998093E+01 0. -1.
       -5    1    3    3    0  502 -0.31030082353E+03  0.13939215183E+03  0.30359057311E+03  0.45596721281E+03  0.46999998093E+01 0.  1.
</event>
<event>
 5   0  0.2244308E-04  0.1199010E+04  0.7818609E-02  0.9113723E-01
       -1   -1    0    0    0  501  0.00000000000E+00  0.00000000000E+00  0.16391846995E+03  0.16391847003E+03  0.50400001928E-02 0.  1.
        1   -1    0    0  501    0  0.00000000000E+00  0.00000000000E+00 -0.21925919097E+04  0.21925919097E+04  0.50400001928E-02 0. -1.
    10030    2    1    2    0    0  0.00000000000E+00  0.00000000000E+00 -0.20286734398E+04  0.23565103797E+04  0.11990101103E+04 0.  0.
        5    1    3    3  502    0 -0.22112377889E+03  0.47874332260E+03 -0.45396790309E+03  0.69584469644E+03  0.46999998093E+01 0.  1.
       -5    1    3    3    0  502  0.22112377889E+03 -0.47874332260E+03 -0.15747055367E+04  0.16606656833E+04  0.46999998093E+01 0. -1.
</event>
<event>
 5   0  0.3883890E-04  0.1199348E+04  0.7818609E-02  0.9113427E-01
        2   -1    0    0  501    0  0.00000000000E+00  0.00000000000E+00  0.11179224867E+04  0.11179224867E+04  0.25500000920E-02 0. -1.
       -2   -1    0    0    0  501  0.00000000000E+00  0.00000000000E+00 -0.32167626287E+03  0.32167626289E+03  0.25500000920E-02 0.  1.
    10030    2    1    2    0    0  0.00000000000E+00  0.00000000000E+00  0.79624622387E+03  0.14395987496E+04  0.11993483693E+04 0.  0.
        2    1    3    3  502    0 -0.38110046368E+03 -0.45773280238E+03  0.31451132334E+03  0.67355345319E+03  0.25500000920E-02 0. -1.
       -2    1    3    3    0  502  0.38110046368E+03  0.45773280238E+03  0.48173490053E+03  0.76604529644E+03  0.25500000920E-02 0.  1.
</event>
<event>
 5   0  0.3883890E-04  0.1199809E+04  0.7818609E-02  0.9113023E-01
        2   -1    0    0  501    0  0.00000000000E+00  0.00000000000E+00  0.93746002601E+03  0.93746002601E+03  0.25500000920E-02 0.  1.
       -2   -1    0    0    0  501  0.00000000000E+00  0.00000000000E+00 -0.38389437823E+03  0.38389437824E+03  0.25500000920E-02 0. -1.
    10030    2    1    2    0    0  0.00000000000E+00  0.00000000000E+00  0.55356564777E+03  0.13213544043E+04  0.11998093745E+04 0.  0.
        2    1    3    3  502    0 -0.90234441072E+02 -0.59303498815E+03  0.28479152630E+03  0.66403235236E+03  0.25500000920E-02 0.  1.
       -2    1    3    3    0  502  0.90234441072E+02  0.59303498815E+03  0.26877412147E+03  0.65732205189E+03  0.25500000920E-02 0. -1.
</event>
<event>
 5   0  0.2340731E-04  0.1200571E+04  0.7818609E-02  0.9112357E-01
       -1   -1    0    0    0  501  0.00000000000E+00  0.00000000000E+00  0.38580269767E+03  0.38580269770E+03  0.50400001928E-02 0. -1.
        1   -1    0    0  501    0  0.00000000000E+00  0.00000000000E+00 -0.93400820426E+03  0.93400820427E+03  0.50400001928E-02 0.  1.
    10030    2    1    2    0    0  0.00000000000E+00  0.00000000000E+00 -0.54820550659E+03  0.13198109020E+04  0.12005713388E+04 0.  0.
        3    1    3    3  502    0 -0.10032462345E+03  0.11465771560E+03  0.36419508888E+03  0.39477777899E+03  0.10100000352E+00 0. -1.
       -3    1    3    3    0  502  0.10032462345E+03 -0.11465771560E+03 -0.91240059547E+03  0.92503312299E+03  0.10100000352E+00 0.  1.
</event>
<event>
 5   0  0.2315038E-04  0.1199992E+04  0.7818609E-02  0.9112864E-01
        1   -1    0    0  501    0  0.00000000000E+00  0.00000000000E+00  0.34330193067E+03  0.34330193071E+03  0.50400001928E-02 0.  1.
       -1   -1    0    0    0  501  0.00000000000E+00  0.00000000000E+00 -0.10486249415E+04  0.10486249415E+04  0.50400001928E-02 0. -1.
    10030    2    1    2    0    0  0.00000000000E+00  0.00000000000E+00 -0.70532301085E+03  0.13919268722E+04  0.11999916116E+04 0.  0.
        1    1    3    3  502    0 -0.18719690645E+02  0.10699455831E+03 -0.10371253895E+04  0.10427978404E+04  0.50400001928E-02 0. -1.
       -1    1    3    3    0  502  0.18719690645E+02 -0.10699455831E+03  0.33180237869E+03  0.34912903182E+03  0.50400001928E-02 0.  1.
</event>
<event>
 5   0  0.4024486E-04  0.1199125E+04  0.7818609E-02  0.9113623E-01
        2   -1    0    0  501    0  0.00000000000E+00  0.00000000000E+00  0.11241254372E+04  0.11241254372E+04  0.25500000920E-02 0.  1.
       -2   -1    0    0    0  501  0.00000000000E+00  0.00000000000E+00 -0.31978198841E+03  0.31978198842E+03  0.25500000920E-02 0. -1.
    10030    2    1    2    0    0  0.00000000000E+00  0.00000000000E+00  0.80434344879E+03  0.14439074256E+04  0.11991247934E+04 0.  0.
        1    1    3    3  502    0 -0.56383018498E+03  0.13459814130E+03  0.21776243977E+03  0.61922662841E+03  0.50400001928E-02 0. -1.
       -1    1    3    3    0  502  0.56383018498E+03 -0.13459814130E+03  0.58658100902E+03  0.82468079722E+03  0.50400001928E-02 0.  1.
</event>
<event>
 5   0  0.4122956E-04  0.1198575E+04  0.7818609E-02  0.9114105E-01
       -2   -1    0    0    0  501  0.00000000000E+00  0.00000000000E+00  0.11400041739E+04  0.11400041739E+04  0.25500000920E-02 0.  1.
        2   -1    0    0  501    0  0.00000000000E+00  0.00000000000E+00 -0.31503873489E+03  0.31503873490E+03  0.25500000920E-02 0. -1.
    10030    2    1    2    0    0  0.00000000000E+00  0.00000000000E+00  0.82496543896E+03  0.14550429088E+04  0.11985749417E+04 0.  0.
        5    1    3    3  502    0  0.17892564183E+02  0.23364168682E+03 -0.25709466561E+03  0.34789127434E+03  0.46999998093E+01 0. -1.
       -5    1    3    3    0  502 -0.17892564183E+02 -0.23364168682E+03  0.10820601046E+04  0.11071516344E+04  0.46999998093E+01 0.  1.
</event>
<event>
 5   0  0.2204090E-04  0.1232383E+04  0.7818609E-02  0.9084974E-01
        1   -1    0    0  501    0  0.00000000000E+00  0.00000000000E+00  0.88841486201E+03  0.88841486203E+03  0.50400001928E-02 0.  1.
       -1   -1    0    0    0  501  0.00000000000E+00  0.00000000000E+00 -0.42738162256E+03  0.42738162259E+03  0.50400001928E-02 0. -1.
    10030    2    1    2    0    0  0.00000000000E+00  0.00000000000E+00  0.46103323945E+03  0.13157964846E+04  0.12323833580E+04 0.  0.
        2    1    3    3  502    0  0.27861828621E+03  0.24467942721E+02 -0.35570469063E+03  0.45249602935E+03  0.25500000920E-02 0. -1.
       -2    1    3    3    0  502 -0.27861828621E+03 -0.24467942721E+02  0.81673793008E+03  0.86330045527E+03  0.25500000920E-02 0.  1.
</event>
<event>
 5   0  0.2204090E-04  0.1199666E+04  0.7818609E-02  0.9113149E-01
       -1   -1    0    0    0  501  0.00000000000E+00  0.00000000000E+00  0.27617198159E+03  0.27617198164E+03  0.50400001928E-02 0. -1.
        1   -1    0    0  501    0  0.00000000000E+00  0.00000000000E+00 -0.13028102174E+04  0.13028102174E+04  0.50400001928E-02 0.  1.
    10030    2    1    2    0    0  0.00000000000E+00  0.00000000000E+00 -0.10266382358E+04  0.15789821991E+04  0.11996660859E+04 0.  0.
        2    1    3    3  502    0  0.59007837355E+03  0.56905197636E+02 -0.39291165601E+03  0.71120338714E+03  0.25500000920E-02 0. -1.
       -2    1    3    3    0  502 -0.59007837355E+03 -0.56905197636E+02 -0.63372657980E+03  0.86777881191E+03  0.25500000920E-02 0.  1.
</event>
<event>
 5   0  0.2340731E-04  0.1200160E+04  0.7818609E-02  0.9112716E-01
        1   -1    0    0  501    0  0.00000000000E+00  0.00000000000E+00  0.13818864018E+04  0.13818864018E+04  0.50400001928E-02 0.  1.
       -1   -1    0    0    0  501  0.00000000000E+00  0.00000000000E+00 -0.26058294073E+03  0.26058294078E+03  0.50400001928E-02 0. -1.
    10030    2    1    2    0    0  0.00000000000E+00  0.00000000000E+00  0.11213034611E+04  0.16424693426E+04  0.12001600267E+04 0.  0.
        3    1    3    3  502    0  0.36112497148E+03  0.45104012862E+03  0.78237060324E+03  0.97260074730E+03  0.10100000352E+00 0.  1.
       -3    1    3    3    0  502 -0.36112497148E+03 -0.45104012862E+03  0.33893285786E+03  0.66986859531E+03  0.10100000352E+00 0. -1.
</event>
<event>
 5   0  0.3993723E-04  0.1199324E+04  0.7818609E-02  0.9113448E-01
       -2   -1    0    0    0  501  0.00000000000E+00  0.00000000000E+00  0.34228817916E+03  0.34228817917E+03  0.25500000920E-02 0.  1.
        2   -1    0    0  501    0  0.00000000000E+00  0.00000000000E+00 -0.10505607728E+04  0.10505607728E+04  0.25500000920E-02 0. -1.
    10030    2    1    2    0    0  0.00000000000E+00  0.00000000000E+00 -0.70827259363E+03  0.13928489520E+04  0.11993240330E+04 0.  0.
        3    1    3    3  502    0  0.13733270679E+03 -0.36749164740E+02 -0.10307067187E+04  0.10404648594E+04  0.10100000352E+00 0. -1.
       -3    1    3    3    0  502 -0.13733270679E+03  0.36749164740E+02  0.32243412508E+03  0.35238409255E+03  0.10100000352E+00 0.  1.
</event>
<event>
 5   0  0.2244308E-04  0.1199424E+04  0.7818609E-02  0.9113361E-01
       -1   -1    0    0    0  501  0.00000000000E+00  0.00000000000E+00  0.53067148538E+03  0.53067148540E+03  0.50400001928E-02 0. -1.
        1   -1    0    0  501    0  0.00000000000E+00  0.00000000000E+00 -0.67773473593E+03  0.67773473594E+03  0.50400001928E-02 0.  1.
    10030    2    1    2    0    0  0.00000000000E+00  0.00000000000E+00 -0.14706325055E+03  0.12084062213E+04  0.11994240268E+04 0.  0.
        5    1    3    3  502    0  0.42048452568E+02 -0.81762299154E+02 -0.67057329029E+03  0.67686318675E+03  0.46999998093E+01 0.  1.
       -5    1    3    3    0  502 -0.42048452568E+02  0.81762299154E+02  0.52351003974E+03  0.53154303460E+03  0.46999998093E+01 0. -1.
</event>
<event>
 5   0  0.2204090E-04  0.1196567E+04  0.7818609E-02  0.9115867E-01
       -1   -1    0    0    0  501  0.00000000000E+00  0.00000000000E+00  0.44858089845E+03  0.44858089848E+03  0.50400001928E-02 0. -1.
        1   -1    0    0  501    0  0.00000000000E+00  0.00000000000E+00 -0.79794564689E+03  0.79794564691E+03  0.50400001928E-02 0.  1.
    10030    2    1    2    0    0  0.00000000000E+00  0.00000000000E+00 -0.34936474844E+03  0.12465265454E+04  0.11965670482E+04 0.  0.
        2    1    3    3  502    0 -0.35911850108E+02 -0.41034359615E+03  0.27733690032E+03  0.49657555736E+03  0.25500000920E-02 0. -1.
       -2    1    3    3    0  502  0.35911850108E+02  0.41034359615E+03 -0.62670164876E+03  0.74995098803E+03  0.25500000920E-02 0.  1.
</event>
<event>
 5   0  0.4024486E-04  0.1211240E+04  0.7818609E-02  0.9103075E-01
        2   -1    0    0  501    0  0.00000000000E+00  0.00000000000E+00  0.47313438642E+03  0.47313438642E+03  0.25500000920E-02 0.  1.
       -2   -1    0    0    0  501  0.00000000000E+00  0.00000000000E+00 -0.77520353212E+03  0.77520353212E+03  0.25500000920E-02 0. -1.
    10030    2    1    2    0    0  0.00000000000E+00  0.00000000000E+00 -0.30206914570E+03  0.12483379185E+04  0.12112397740E+04 0.  0.
        1    1    3    3  502    0  0.27067131617E+03  0.52698015772E+03 -0.21468576768E+02  0.59281695981E+03  0.50400001928E-02 0. -1.
       -1    1    3    3    0  502 -0.27067131617E+03 -0.52698015772E+03 -0.28060056893E+03  0.65552095873E+03  0.50400001928E-02 0.  1.
</event>
<event>
 5   0  0.4122956E-04  0.1199590E+04  0.7818609E-02  0.9113215E-01
       -2   -1    0    0    0  501  0.00000000000E+00  0.00000000000E+00  0.37886050720E+03  0.37886050720E+03  0.25500000920E-02 0.  1.
        2   -1    0    0  501    0  0.00000000000E+00  0.00000000000E+00 -0.94956858989E+03  0.94956858989E+03  0.25500000920E-02 0. -1.
    10030    2    1    2    0    0  0.00000000000E+00  0.00000000000E+00 -0.57070808269E+03  0.13284290971E+04  0.11995899926E+04 0.  0.
        5    1    3    3  502    0 -0.17511164425E+03 -0.24388911142E+03  0.28962786905E+03  0.41719585227E+03  0.46999998093E+01 0.  1.
       -5    1    3    3    0  502  0.17511164425E+03  0.24388911142E+03 -0.86033595174E+03  0.91123324483E+03  0.46999998093E+01 0. -1.
</event>
<event>
 5   0  0.4122956E-04  0.1195470E+04  0.7818609E-02  0.9116831E-01
       -2   -1    0    0    0  501  0.00000000000E+00  0.00000000000E+00  0.55816672715E+03  0.55816672715E+03  0.25500000920E-02 0. -1.
        2   -1    0    0  501    0  0.00000000000E+00  0.00000000000E+00 -0.64010775542E+03  0.64010775543E+03  0.25500000920E-02 0.  1.
    10030    2    1    2    0    0  0.00000000000E+00  0.00000000000E+00 -0.81941028273E+02  0.11982744826E+04  0.11954695326E+04 0.  0.
        5    1    3    3  502    0  0.49764873665E+03 -0.32434443393E+03  0.25602065173E+02  0.59458484058E+03  0.46999998093E+01 0. -1.
       -5    1    3    3    0  502 -0.49764873665E+03  0.32434443393E+03 -0.10754309345E+03  0.60368964200E+03  0.46999998093E+01 0.  1.
</event>
<event>
 5   0  0.4122956E-04  0.1202206E+04  0.7818609E-02  0.9110928E-01
        2   -1    0    0  501    0  0.00000000000E+00  0.00000000000E+00  0.22027032735E+04  0.22027032735E+04  0.25500000920E-02 0. -1.
       -2   -1    0    0    0  501  0.00000000000E+00  0.00000000000E+00 -0.16403693137E+03  0.16403693139E+03  0.25500000920E-02 0.  1.
    10030    2    1    2    0    0  0.00000000000E+00  0.00000000000E+00  0.20386663421E+04  0.23667402049E+04  0.12022057822E+04 0.  0.
        5    1    3    3  502    0 -0.39182967380E+03  0.21774733922E+03  0.23098627768E+03  0.50430263481E+03  0.46999998093E+01 0.  1.
       -5    1    3    3    0  502  0.39182967380E+03 -0.21774733922E+03  0.18076800644E+04  0.18624375700E+04  0.46999998093E+01 0. -1.
</event>
<event>
 5   0  0.3883890E-04  0.1200523E+04  0.7818609E-02  0.9112399E-01
       -2   -1    0    0    0  501  0.00000000000E+00  0.00000000000E+00  0.49522347535E+03  0.49522347535E+03  0.25500000920E-02 0. -1.
        2   -1    0    0  501    0  0.00000000000E+00  0.00000000000E+00 -0.72757869889E+03  0.72757869890E+03  0.25500000920E-02 0.  1.
    10030    2    1    2    0    0  0.00000000000E+00  0.00000000000E+00 -0.23235522355E+03  0.12228021742E+04  0.12005233057E+04 0.  0.
        2    1    3    3  502    0 -0.12021874287E+03 -0.56141012422E+03  0.62230478879E+02  0.57750022183E+03  0.25500000920E-02 0. -1.
       -2    1    3    3    0  502  0.12021874287E+03  0.56141012422E+03 -0.29458570242E+03  0.64530195241E+03  0.25500000920E-02 0.  1.
</event>
<event>
 5   0  0.3832662E-04  0.1200230E+04  0.7818609E-02  0.9112655E-01
       -2   -1    0    0    0  501  0.00000000000E+00  0.00000000000E+00  0.61862687143E+03  0.61862687144E+03  0.25500000920E-02 0.  1.
        2   -1    0    0  501    0  0.00000000000E+00  0.00000000000E+00 -0.58215746837E+03  0.58215746838E+03  0.25500000920E-02 0. -1.
    10030    2    1    2    0    0  0.00000000000E+00  0.00000000000E+00  0.36469403060E+02  0.12007843398E+04  0.12002304001E+04 0.  0.
        4    1    3    3  502    0 -0.49015916285E+03 -0.34230806562E+03  0.70276242025E+02  0.60197274009E+03  0.12699999809E+01 0.  1.
       -4    1    3    3    0  502  0.49015916285E+03  0.34230806562E+03 -0.33806838965E+02  0.59881159973E+03  0.12699999809E+01 0. -1.
</event>
<event>
 5   0  0.3993723E-04  0.1199959E+04  0.7818609E-02  0.9112892E-01
        2   -1    0    0  501    0  0.00000000000E+00  0.00000000000E+00  0.85487044052E+03  0.85487044053E+03  0.25500000920E-02 0.  1.
       -2   -1    0    0    0  501  0.00000000000E+00  0.00000000000E+00 -0.42108768489E+03  0.42108768490E+03  0.25500000920E-02 0. -1.
    10030    2    1    2    0    0  0.00000000000E+00  0.00000000000E+00  0.43378275563E+03  0.12759581254E+04  0.11999590238E+04 0.  0.
        3    1    3    3  502    0 -0.36717656834E+03  0.41841150785E+03 -0.21088027788E+02  0.55707408606E+03  0.10100000352E+00 0. -1.
       -3    1    3    3    0  502  0.36717656834E+03 -0.41841150785E+03  0.45487078342E+03  0.71888403937E+03  0.10100000352E+00 0.  1.
</event>
<event>
 5   0  0.4122956E-04  0.1199029E+04  0.7818609E-02  0.9113707E-01
       -2   -1    0    0    0  501  0.00000000000E+00  0.00000000000E+00  0.20008827658E+03  0.20008827660E+03  0.25500000920E-02 0.  1.
        2   -1    0    0  501    0  0.00000000000E+00  0.00000000000E+00 -0.17962951795E+04  0.17962951795E+04  0.25500000920E-02 0. -1.
    10030    2    1    2    0    0  0.00000000000E+00  0.00000000000E+00 -0.15962069030E+04  0.19963834561E+04  0.11990289517E+04 0.  0.
        5    1    3    3  502    0 -0.28989229397E+03  0.12802527308E+03 -0.16454029086E+04  0.16756493769E+04  0.46999998093E+01 0. -1.
       -5    1    3    3    0  502  0.28989229397E+03 -0.12802527308E+03  0.49196005607E+02  0.32073407929E+03  0.46999998093E+01 0.  1.
</event>
<event>
 5   0  0.3832662E-04  0.1197067E+04  0.7818609E-02  0.9115428E-01
       -2   -1    0    0    0  501  0.00000000000E+00  0.00000000000E+00  0.31117413596E+03  0.31117413597E+03  0.25500000920E-02 0.  1.
        2   -1    0    0  501    0  0.00000000000E+00  0.00000000000E+00 -0.11512598373E+04  0.11512598373E+04  0.25500000920E-02 0. -1.
    10030    2    1    2    0    0  0.00000000000E+00  0.00000000000E+00 -0.84008570135E+03  0.14624339733E+04  0.11970668906E+04 0.  0.
        4    1    3    3  502    0 -0.47351307096E+03 -0.26917092837E+03 -0.11689590268E+03  0.55707619049E+03  0.12699999809E+01 0.  1.
       -4    1    3    3    0  502  0.47351307096E+03  0.26917092837E+03 -0.72318979867E+03  0.90535778279E+03  0.12699999809E+01 0. -1.
</event>
<event>
 5   0  0.2244308E-04  0.1202509E+04  0.7818609E-02  0.9110664E-01
        1   -1    0    0  501    0  0.00000000000E+00  0.00000000000E+00  0.85477193287E+03  0.85477193289E+03  0.50400001928E-02 0. -1.
       -1   -1    0    0    0  501  0.00000000000E+00  0.00000000000E+00 -0.42292772448E+03  0.42292772451E+03  0.50400001928E-02 0.  1.
    10030    2    1    2    0    0  0.00000000000E+00  0.00000000000E+00  0.43184420840E+03  0.12776996574E+04  0.12025086254E+04 0.  0.
        5    1    3    3  502    0  0.39928437422E+03 -0.39026402211E+03 -0.21073294683E+02  0.55874877378E+03  0.46999998093E+01 0.  1.
       -5    1    3    3    0  502 -0.39928437422E+03  0.39026402211E+03  0.45291750308E+03  0.71895088361E+03  0.46999998093E+01 0. -1.
</event>
<event>
 5   0  0.4024486E-04  0.1200247E+04  0.7818609E-02  0.9112640E-01
       -2   -1    0    0    0  501  0.00000000000E+00  0.00000000000E+00  0.85456334343E+03  0.85456334343E+03  0.25500000920E-02 0. -1.
        2   -1    0    0  501    0  0.00000000000E+00  0.00000000000E+00 -0.42144142327E+03  0.42144142328E+03  0.25500000920E-02 0.  1.
    10030    2    1    2    0    0  0.00000000000E+00  0.00000000000E+00  0.43312192016E+03  0.12760047667E+04  0.12002472941E+04 0.  0.
        1    1    3    3  502    0  0.21315658589E+03  0.56098286904E+03  0.21305391909E+03  0.63681196749E+03  0.50400001928E-02 0. -1.
       -1    1    3    3    0  502 -0.21315658589E+03 -0.56098286904E+03  0.22006800107E+03  0.63919279923E+03  0.50400001928E-02 0.  1.
</event>
<event>
 5   0  0.2204090E-04  0.1199531E+04  0.7818609E-02  0.9113267E-01
        1   -1    0    0  501    0  0.00000000000E+00  0.00000000000E+00  0.90464908606E+03  0.90464908608E+03  0.50400001928E-02 0.  1.
       -1   -1    0    0    0  501  0.00000000000E+00  0.00000000000E+00 -0.39763340667E+03  0.39763340670E+03  0.50400001928E-02 0. -1.
    10030    2    1    2    0    0  0.00000000000E+00  0.00000000000E+00  0.50701567939E+03  0.13022824928E+04  0.11995310717E+04 0.  0.
        2    1    3    3  502    0 -0.39530649685E+03  0.24941610498E+03 -0.15450824763E+03  0.49228895830E+03  0.25500000920E-02 0. -1.
       -2    1    3    3    0  502  0.39530649685E+03 -0.24941610498E+03  0.66152392702E+03  0.80999353448E+03  0.25500000920E-02 0.  1.
</event>
<event>
 5   0  0.3993723E-04  0.1202589E+04  0.7818609E-02  0.9110594E-01
       -2   -1    0    0    0  501  0.00000000000E+00  0.00000000000E+00  0.56404128381E+03  0.56404128382E+03  0.25500000920E-02 0. -1.
        2   -1    0    0  501    0  0.00000000000E+00  0.00000000000E+00 -0.64100781988E+03  0.64100781989E+03  0.25500000920E-02 0.  1.
    10030    2    1    2    0    0  0.00000000000E+00  0.00000000000E+00 -0.76966536069E+02  0.12050491037E+04  0.12025886640E+04 0.  0.
        3    1    3    3  502    0 -0.21747914009E+03 -0.28993552246E+03  0.44228484662E+03  0.57181787250E+03  0.10100000352E+00 0. -1.
       -3    1    3    3    0  502  0.21747914009E+03  0.28993552246E+03 -0.51925138269E+03  0.63323123121E+03  0.10100000352E+00 0.  1.
</event>
<event>
 5   0  0.2304842E-04  0.1200020E+04  0.7818609E-02  0.9112839E-01
       -1   -1    0    0    0  501  0.00000000000E+00  0.00000000000E+00  0.21128253104E+03  0.21128253110E+03  0.50400001928E-02 0.  1.
        1   -1    0    0  501    0  0.00000000000E+00  0.00000000000E+00 -0.17039364820E+04  0.17039364820E+04  0.50400001928E-02 0. -1.
    10030    2    1    2    0    0  0.00000000000E+00  0.00000000000E+00 -0.14926539510E+04  0.19152190131E+04  0.12000200210E+04 0.  0.
        4    1    3    3  502    0 -0.46235696228E+03  0.17286276981E+03 -0.12907322135E+04  0.13818996916E+04  0.12699999809E+01 0. -1.
       -4    1    3    3    0  502  0.46235696228E+03 -0.17286276981E+03 -0.20192173748E+03  0.53331932154E+03  0.12699999809E+01 0.  1.
</event>
<event>
 5   0  0.2315038E-04  0.1192486E+04  0.7818609E-02  0.9119459E-01
        1   -1    0    0  501    0  0.00000000000E+00  0.00000000000E+00  0.49275332571E+03  0.49275332574E+03  0.50400001928E-02 0.  1.
       -1   -1    0    0    0  501  0.00000000000E+00  0.00000000000E+00 -0.72146816188E+03  0.72146816190E+03  0.50400001928E-02 0. -1.
    10030    2    1    2    0    0  0.00000000000E+00  0.00000000000E+00 -0.22871483617E+03  0.12142214876E+04  0.11924862032E+04 0.  0.
        1    1    3    3  502    0 -0.94613504987E+02 -0.13606365298E+03  0.46883045472E+03  0.49725951804E+03  0.50400001928E-02 0.  1.
       -1    1    3    3    0  502  0.94613504987E+02  0.13606365298E+03 -0.69754529088E+03  0.71696196960E+03  0.50400001928E-02 0. -1.
</event>
<event>
 5   0  0.2244308E-04  0.1195701E+04  0.7818609E-02  0.9116628E-01
       -1   -1    0    0    0  501  0.00000000000E+00  0.00000000000E+00  0.51406479654E+03  0.51406479656E+03  0.50400001928E-02 0. -1.
        1   -1    0    0  501    0  0.00000000000E+00  0.00000000000E+00 -0.69529169653E+03  0.69529169655E+03  0.50400001928E-02 0.  1.
    10030    2    1    2    0    0  0.00000000000E+00  0.00000000000E+00 -0.18122690000E+03  0.12093564931E+04  0.11957006056E+04 0.  0.
        5    1    3    3  502    0  0.54058268737E+03  0.16326615606E+02 -0.34829103228E+03  0.64329226128E+03  0.46999998093E+01 0.  1.
       -5    1    3    3    0  502 -0.54058268737E+03 -0.16326615606E+02  0.16706413228E+03  0.56606423183E+03  0.46999998093E+01 0. -1.
</event>
<event>
 5   0  0.3832662E-04  0.1199145E+04  0.7818609E-02  0.9113606E-01
       -2   -1    0    0    0  501  0.00000000000E+00  0.00000000000E+00  0.52710405262E+03  0.52710405262E+03  0.25500000920E-02 0.  1.
        2   -1    0    0  501    0  0.00000000000E+00  0.00000000000E+00 -0.68200364226E+03  0.68200364227E+03  0.25500000920E-02 0. -1.
    10030    2    1    2    0    0  0.00000000000E+00  0.00000000000E+00 -0.15489958964E+03  0.12091076949E+04  0.11991445013E+04 0.  0.
        4    1    3    3  502    0  0.41434916350E+02 -0.57622338718E+03  0.84304483231E+02  0.58383139948E+03  0.12699999809E+01 0.  1.
       -4    1    3    3    0  502 -0.41434916350E+02  0.57622338718E+03 -0.23920407287E+03  0.62527629541E+03  0.12699999809E+01 0. -1.
</event>
<event>
 5   0  0.2204090E-04  0.1199880E+04  0.7818609E-02  0.9112961E-01
       -1   -1    0    0    0  501  0.00000000000E+00  0.00000000000E+00  0.32704192813E+03  0.32704192816E+03  0.50400001928E-02 0.  1.
        1   -1    0    0  501    0  0.00000000000E+00  0.00000000000E+00 -0.11005570161E+04  0.11005570161E+04  0.50400001928E-02 0. -1.
    10030    2    1    2    0    0  0.00000000000E+00  0.00000000000E+00 -0.77351508800E+03  0.14275989443E+04  0.11998804750E+04 0.  0.
        2    1    3    3  502    0 -0.53481497082E+03 -0.27183568811E+03 -0.38981282287E+03  0.71545491208E+03  0.25500000920E-02 0. -1.
       -2    1    3    3    0  502  0.53481497082E+03  0.27183568811E+03 -0.38370226513E+03  0.71214403221E+03  0.25500000920E-02 0.  1.
</event>
<event>
 5   0  0.3883890E-04  0.1199577E+04  0.7818609E-02  0.9113227E-01
       -2   -1    0    0    0  501  0.00000000000E+00  0.00000000000E+00  0.52952660010E+03  0.52952660011E+03  0.25500000920E-02 0.  1.
        2   -1    0    0  501    0  0.00000000000E+00  0.00000000000E+00 -0.67937351539E+03  0.67937351539E+03  0.25500000920E-02 0. -1.
    10030    2    1    2    0    0  0.00000000000E+00  0.00000000000E+00 -0.14984691529E+03  0.12089001155E+04  0.11995771719E+04 0.  0.
        2    1    3    3  502    0 -0.26303079690E+03 -0.28122233102E+02  0.46756331407E+03  0.53720714141E+03  0.25500000920E-02 0.  1.
       -2    1    3    3    0  502  0.26303079690E+03  0.28122233102E+02 -0.61741022936E+03  0.67169297409E+03  0.25500000920E-02 0. -1.
</event>
<event>
 5   0  0.4024486E-04  0.1198791E+04  0.7818609E-02  0.9113915E-01
        2   -1    0    0  501    0  0.00000000000E+00  0.00000000000E+00  0.11057616892E+04  0.11057616892E+04  0.25500000920E-02 0.  1.
       -2   -1    0    0    0  501  0.00000000000E+00  0.00000000000E+00 -0.32491178224E+03  0.32491178225E+03  0.25500000920E-02 0. -1.
    10030    2    1    2    0    0  0.00000000000E+00  0.00000000000E+00  0.78084990697E+03  0.14306734715E+04  0.11987910597E+04 0.  0.
        1    1    3    3  502    0 -0.52137770886E+03  0.28531380622E+03  0.48314701494E+03  0.76594368030E+03  0.50400001928E-02 0.  1.
       -1    1    3    3    0  502  0.52137770886E+03 -0.28531380622E+03  0.29770289203E+03  0.66472979117E+03  0.50400001928E-02 0. -1.
</event>
<event>
 5   0  0.4122956E-04  0.1180154E+04  0.7818609E-02  0.9130407E-01
       -2   -1    0    0    0  501  0.00000000000E+00  0.00000000000E+00  0.40944593255E+03  0.40944593256E+03  0.25500000920E-02 0.  1.
        2   -1    0    0  501    0  0.00000000000E+00  0.00000000000E+00 -0.85039556497E+03  0.85039556497E+03  0.25500000920E-02 0. -1.
    10030    2    1    2    0    0  0.00000000000E+00  0.00000000000E+00 -0.44094963241E+03  0.12598414975E+04  0.11801542359E+04 0.  0.
        5    1    3    3  502    0 -0.53942330130E+03  0.22322609500E+03 -0.31206756954E+03  0.66197858381E+03  0.46999998093E+01 0. -1.
       -5    1    3    3    0  502  0.53942330130E+03 -0.22322609500E+03 -0.12888206287E+03  0.59786291372E+03  0.46999998093E+01 0.  1.
</event>
<event>
 5   0  0.2204090E-04  0.1216138E+04  0.7818609E-02  0.9098847E-01
        1   -1    0    0  501    0  0.00000000000E+00  0.00000000000E+00  0.69628028659E+03  0.69628028661E+03  0.50400001928E-02 0. -1.
       -1   -1    0    0    0  501  0.00000000000E+00  0.00000000000E+00 -0.53103339479E+03  0.53103339481E+03  0.50400001928E-02 0.  1.
    10030    2    1    2    0    0  0.00000000000E+00  0.00000000000E+00  0.16524689180E+03  0.12273136814E+04  0.12161382887E+04 0.  0.
        2    1    3    3  502    0  0.12739449618E+03  0.58699219435E+03  0.17814463643E+03  0.62651792103E+03  0.25500000920E-02 0. -1.
       -2    1    3    3    0  502 -0.12739449618E+03 -0.58699219435E+03 -0.12897744630E+02  0.60079576039E+03  0.25500000920E-02 0.  1.
</event>
<event>
 5   0  0.2304842E-04  0.1201542E+04  0.7818609E-02  0.9111508E-01
       -1   -1    0    0    0  501  0.00000000000E+00  0.00000000000E+00  0.20671422581E+03  0.20671422587E+03  0.50400001928E-02 0.  1.
        1   -1    0    0  501    0  0.00000000000E+00  0.00000000000E+00 -0.17460139779E+04  0.17460139779E+04  0.50400001928E-02 0. -1.
    10030    2    1    2    0    0  0.00000000000E+00  0.00000000000E+00 -0.15392997521E+04  0.19527282038E+04  0.12015422219E+04 0.  0.
        4    1    3    3  502    0 -0.21032243054E+03  0.17221207220E+03  0.10104855909E+03  0.29000852883E+03  0.12699999809E+01 0.  1.
       -4    1    3    3    0  502  0.21032243054E+03 -0.17221207220E+03 -0.16403483112E+04  0.16627196749E+04  0.12699999809E+01 0. -1.
</event>
<event>
 5   0  0.3832662E-04  0.1197666E+04  0.7818609E-02  0.9114902E-01
       -2   -1    0    0    0  501  0.00000000000E+00  0.00000000000E+00  0.20667717069E+03  0.20667717071E+03  0.25500000920E-02 0. -1.
        2   -1    0    0  501    0  0.00000000000E+00  0.00000000000E+00 -0.17350763369E+04  0.17350763369E+04  0.25500000920E-02 0.  1.
    10030    2    1    2    0    0  0.00000000000E+00  0.00000000000E+00 -0.15283991662E+04  0.19417535076E+04  0.11976655097E+04 0.  0.
        4    1    3    3  502    0  0.10320900622E+03 -0.12317662683E+03 -0.16994621639E+04  0.17070435963E+04  0.12699999809E+01 0.  1.
       -4    1    3    3    0  502 -0.10320900622E+03  0.12317662683E+03  0.17106299770E+03  0.23470991127E+03  0.12699999809E+01 0. -1.
</event>
<event>
 5   0  0.3993723E-04  0.1199524E+04  0.7818609E-02  0.9113273E-01
        2   -1    0    0  501    0  0.00000000000E+00  0.00000000000E+00  0.11637469740E+04  0.11637469741E+04  0.25500000920E-02 0.  1.
       -2   -1    0    0    0  501  0.00000000000E+00  0.00000000000E+00 -0.30910030343E+03  0.30910030344E+03  0.25500000920E-02 0. -1.
    10030    2    1    2    0    0  0.00000000000E+00  0.00000000000E+00  0.85464667062E+03  0.14728472775E+04  0.11995241437E+04 0.  0.
        3    1    3    3  502    0  0.11060057671E+02 -0.15884604405E+03  0.11373194515E+04  0.11484119190E+04  0.10100000352E+00 0.  1.
       -3    1    3    3    0  502 -0.11060057671E+02  0.15884604405E+03 -0.28267278092E+03  0.32443535852E+03  0.10100000352E+00 0. -1.
</event>
<event>
 5   0  0.2315038E-04  0.1198788E+04  0.7818609E-02  0.9113918E-01
       -1   -1    0    0    0  501  0.00000000000E+00  0.00000000000E+00  0.35797948327E+03  0.35797948330E+03  0.50400001928E-02 0. -1.
        1   -1    0    0  501    0  0.00000000000E+00  0.00000000000E+00 -0.10036133476E+04  0.10036133476E+04  0.50400001928E-02 0.  1.
    10030    2    1    2    0    0  0.00000000000E+00  0.00000000000E+00 -0.64563386430E+03  0.13615928309E+04  0.11987877003E+04 0.  0.
        1    1    3    3  502    0 -0.10882767859E+03  0.58140004112E+03 -0.43295821098E+03  0.73302270355E+03  0.50400001928E-02 0. -1.
       -1    1    3    3    0  502  0.10882767859E+03 -0.58140004112E+03 -0.21267565332E+03  0.62857012734E+03  0.50400001928E-02 0.  1.
</event>
<event>
 5   0  0.2315038E-04  0.1199806E+04  0.7818609E-02  0.9113027E-01
        1   -1    0    0  501    0  0.00000000000E+00  0.00000000000E+00  0.49457893457E+03  0.49457893460E+03  0.50400001928E-02 0. -1.
       -1   -1    0    0    0  501  0.00000000000E+00  0.00000000000E+00 -0.72765597229E+03  0.72765597231E+03  0.50400001928E-02 0.  1.
    10030    2    1    2    0    0  0.00000000000E+00  0.00000000000E+00 -0.23307703772E+03  0.12222349069E+04  0.11998055101E+04 0.  0.
        1    1    3    3  502    0  0.45194936858E+03  0.22595532265E+03  0.21287838519E+03  0.54829850127E+03  0.50400001928E-02 0. -1.
       -1    1    3    3    0  502 -0.45194936858E+03 -0.22595532265E+03 -0.44595542290E+03  0.67393640563E+03  0.50400001928E-02 0.  1.
</event>
<event>
 5   0  0.2204090E-04  0.1199872E+04  0.7818609E-02  0.9112969E-01
        1   -1    0    0  501    0  0.00000000000E+00  0.00000000000E+00  0.62719945886E+03  0.62719945888E+03  0.50400001928E-02 0.  1.
       -1   -1    0    0    0  501  0.00000000000E+00  0.00000000000E+00 -0.57385772475E+03  0.57385772477E+03  0.50400001928E-02 0. -1.
    10030    2    1    2    0    0  0.00000000000E+00  0.00000000000E+00  0.53341734112E+02  0.12010571836E+04  0.11998720839E+04 0.  0.
        2    1    3    3  502    0  0.51767650331E+03 -0.29376859140E+03 -0.48465292304E+02  0.59719162079E+03  0.25500000920E-02 0. -1.
       -2    1    3    3    0  502 -0.51767650331E+03  0.29376859140E+03  0.10180702642E+03  0.60386556286E+03  0.25500000920E-02 0.  1.
</event>
<event>
 5   0  0.2204090E-04  0.1198578E+04  0.7818609E-02  0.9114102E-01
        1   -1    0    0  501    0  0.00000000000E+00  0.00000000000E+00  0.76502724867E+03  0.76502724869E+03  0.50400001928E-02 0. -1.
       -1   -1    0    0    0  501  0.00000000000E+00  0.00000000000E+00 -0.46945662657E+03  0.46945662660E+03  0.50400001928E-02 0.  1.
    10030    2    1    2    0    0  0.00000000000E+00  0.00000000000E+00  0.29557062210E+03  0.12344838753E+04  0.11985776761E+04 0.  0.
        2    1    3    3  502    0  0.38384256076E+03  0.45275827515E+03  0.62715920791E+02  0.59687390117E+03  0.25500000920E-02 0.  1.
       -2    1    3    3    0  502 -0.38384256076E+03 -0.45275827515E+03  0.23285470131E+03  0.63760997412E+03  0.25500000920E-02 0. -1.
</event>
<event>
 5   0  0.4122956E-04  0.1200902E+04  0.7818609E-02  0.9112067E-01
        2   -1    0    0  501    0  0.00000000000E+00  0.00000000000E+00  0.11399360034E+04  0.11399360034E+04  0.25500000920E-02 0.  1.
       -2   -1    0    0    0  501  0.00000000000E+00  0.00000000000E+00 -0.31628208279E+03  0.31628208280E+03  0.25500000920E-02 0. -1.
    10030    2    1    2    0    0  0.00000000000E+00  0.00000000000E+00  0.82365392060E+03  0.14562180862E+04  0.12009018834E+04 0.  0.
        5    1    3    3  502    0  0.46383196329E+03 -0.37887310752E+03  0.35989237831E+03  0.69873423827E+03  0.46999998093E+01 0. -1.
       -5    1    3    3    0  502 -0.46383196329E+03  0.37887310752E+03  0.46376154229E+03  0.75748384793E+03  0.46999998093E+01 0.  1.
</event>
<event>
 5   0  0.2244308E-04  0.1195563E+04  0.7818609E-02  0.9116749E-01
        1   -1    0    0  501    0  0.00000000000E+00  0.00000000000E+00  0.19487808675E+04  0.19487808675E+04  0.50400001928E-02 0. -1.
       -1   -1    0    0    0  501  0.00000000000E+00  0.00000000000E+00 -0.18336735596E+03  0.18336735603E+03  0.50400001928E-02 0.  1.
    10030    2    1    2    0    0  0.00000000000E+00  0.00000000000E+00  0.17654135115E+04  0.21321482235E+04  0.11955631227E+04 0.  0.
        5    1    3    3  502    0 -0.31728648779E+02 -0.58566584754E+03  0.67696333130E+03  0.89571905978E+03  0.46999998093E+01 0.  1.
       -5    1    3    3    0  502  0.31728648779E+02  0.58566584754E+03  0.10884501802E+04  0.12364291637E+04  0.46999998093E+01 0. -1.
</event>
<event>
 5   0  0.2340731E-04  0.1202873E+04  0.7818609E-02  0.9110346E-01
       -1   -1    0    0    0  501  0.00000000000E+00  0.00000000000E+00  0.16272405307E+03  0.16272405315E+03  0.50400001928E-02 0. -1.
        1   -1    0    0  501    0  0.00000000000E+00  0.00000000000E+00 -0.22229388240E+04  0.22229388240E+04  0.50400001928E-02 0.  1.
    10030    2    1    2    0    0  0.00000000000E+00  0.00000000000E+00 -0.20602147709E+04  0.23856628771E+04  0.12028725872E+04 0.  0.
        3    1    3    3  502    0 -0.35950242091E+03  0.40258748716E+02 -0.19830493867E+04  0.20157746992E+04  0.10100000352E+00 0. -1.
       -3    1    3    3    0  502  0.35950242091E+03 -0.40258748716E+02 -0.77165384213E+02  0.36988817798E+03  0.10100000352E+00 0.  1.
</event>
<event>
 5   0  0.2340731E-04  0.1182400E+04  0.7818609E-02  0.9128403E-01
        1   -1    0    0  501    0  0.00000000000E+00  0.00000000000E+00  0.58651936554E+03  0.58651936556E+03  0.50400001928E-02 0. -1.
       -1   -1    0    0    0  501  0.00000000000E+00  0.00000000000E+00 -0.59591753612E+03  0.59591753614E+03  0.50400001928E-02 0.  1.
    10030    2    1    2    0    0  0.00000000000E+00  0.00000000000E+00 -0.93981705822E+01  0.11824369017E+04  0.11823995521E+04 0.  0.
        3    1    3    3  502    0  0.20509775478E+03 -0.55314639046E+03 -0.43185970163E+02  0.59152434989E+03  0.10100000352E+00 0.  1.
       -3    1    3    3    0  502 -0.20509775478E+03  0.55314639046E+03  0.33787799580E+02  0.59091255182E+03  0.10100000352E+00 0. -1.
</event>
<event>
 5   0  0.2304842E-04  0.1198847E+04  0.7818609E-02  0.9113867E-01
        1   -1    0    0  501    0  0.00000000000E+00  0.00000000000E+00  0.98471929370E+03  0.98471929371E+03  0.50400001928E-02 0.  1.
       -1   -1    0    0    0  501  0.00000000000E+00  0.00000000000E+00 -0.36488409803E+03  0.36488409807E+03  0.50400001928E-02 0. -1.
    10030    2    1    2    0    0  0.00000000000E+00  0.00000000000E+00  0.61983519567E+03  0.13496033918E+04  0.11988467981E+04 0.  0.
        4    1    3    3  502    0  0.68005937045E+02  0.17234059912E+03  0.95167555789E+03  0.96954322749E+03  0.12699999809E+01 0.  1.
       -4    1    3    3    0  502 -0.68005937045E+02 -0.17234059912E+03 -0.33184036222E+03  0.38006016429E+03  0.12699999809E+01 0. -1.
</event>
<event>
 5   0  0.3883890E-04  0.1200802E+04  0.7818609E-02  0.9112155E-01
        2   -1    0    0  501    0  0.00000000000E+00  0.00000000000E+00  0.13951483277E+04  0.13951483277E+04  0.25500000920E-02 0.  1.
       -2   -1    0    0    0  501  0.00000000000E+00  0.00000000000E+00 -0.25838214085E+03  0.25838214086E+03  0.25500000920E-02 0. -1.
    10030    2    1    2    0    0  0.00000000000E+00  0.00000000000E+00  0.11367661869E+04  0.16535304686E+04  0.12008020848E+04 0.  0.
        2    1    3    3  502    0 -0.34996492575E+03  0.42739832561E+03  0.89231008436E+03  0.10494579861E+04  0.25500000920E-02 0. -1.
       -2    1    3    3    0  502  0.34996492575E+03 -0.42739832561E+03  0.24445610250E+03  0.60407248244E+03  0.25500000920E-02 0.  1.
</event>
<event>
 5   0  0.4024486E-04  0.1200258E+04  0.7818609E-02  0.9112631E-01
        2   -1    0    0  501    0  0.00000000000E+00  0.00000000000E+00  0.18436302849E+04  0.18436302849E+04  0.25500000920E-02 0.  1.
       -2   -1    0    0    0  501  0.00000000000E+00  0.00000000000E+00 -0.19535088406E+03  0.19535088408E+03  0.25500000920E-02 0. -1.
    10030    2    1    2    0    0  0.00000000000E+00  0.00000000000E+00  0.16482794009E+04  0.20389811690E+04  0.12002579824E+04 0.  0.
        1    1    3    3  502    0  0.54480740381E+03  0.83500630946E+02  0.42081725154E+03  0.69345123970E+03  0.50400001928E-02 0. -1.
       -1    1    3    3    0  502 -0.54480740381E+03 -0.83500630946E+02  0.12274621493E+04  0.13455299293E+04  0.50400001928E-02 0.  1.
</event>
<event>
 5   0  0.2244308E-04  0.1200665E+04  0.7818609E-02  0.9112274E-01
        1   -1    0    0  501    0  0.00000000000E+00  0.00000000000E+00  0.13040818960E+04  0.13040818960E+04  0.50400001928E-02 0.  1.
       -1   -1    0    0    0  501  0.00000000000E+00  0.00000000000E+00 -0.27636245087E+03  0.27636245091E+03  0.50400001928E-02 0. -1.
    10030    2    1    2    0    0  0.00000000000E+00  0.00000000000E+00  0.10277194451E+04  0.15804443469E+04  0.12006652638E+04 0.  0.
        5    1    3    3  502    0  0.49314735249E+03  0.34108500658E+03  0.55209807236E+03  0.81508751953E+03  0.46999998093E+01 0.  1.
       -5    1    3    3    0  502 -0.49314735249E+03 -0.34108500658E+03  0.47562137275E+03  0.76535682737E+03  0.46999998093E+01 0. -1.
</event>
<event>
 5   0  0.2204090E-04  0.1198548E+04  0.7818609E-02  0.9114128E-01
       -1   -1    0    0    0  501  0.00000000000E+00  0.00000000000E+00  0.99770038832E+03  0.99770038833E+03  0.50400001928E-02 0. -1.
        1   -1    0    0  501    0  0.00000000000E+00  0.00000000000E+00 -0.35995734801E+03  0.35995734805E+03  0.50400001928E-02 0.  1.
    10030    2    1    2    0    0  0.00000000000E+00  0.00000000000E+00  0.63774304031E+03  0.13576577364E+04  0.11985484319E+04 0.  0.
        2    1    3    3  502    0  0.51083012980E+02 -0.21790837605E+03  0.94857962591E+03  0.97462651373E+03  0.25500000920E-02 0. -1.
       -2    1    3    3    0  502 -0.51083012980E+02  0.21790837605E+03 -0.31083658560E+03  0.38303122265E+03  0.25500000920E-02 0.  1.
</event>
<event>
 5   0  0.2340731E-04  0.1199891E+04  0.7818609E-02  0.9112952E-01
        1   -1    0    0  501    0  0.00000000000E+00  0.00000000000E+00  0.65607423637E+03  0.65607423639E+03  0.50400001928E-02 0. -1.
       -1   -1    0    0    0  501  0.00000000000E+00  0.00000000000E+00 -0.54861895587E+03  0.54861895589E+03  0.50400001928E-02 0.  1.
    10030    2    1    2    0    0  0.00000000000E+00  0.00000000000E+00  0.10745528050E+03  0.12046931923E+04  0.11998912660E+04 0.  0.
        3    1    3    3  502    0 -0.36705702373E+03 -0.41265049477E+03  0.28902308508E+03  0.62333429507E+03  0.10100000352E+00 0. -1.
       -3    1    3    3    0  502  0.36705702373E+03  0.41265049477E+03 -0.18156780458E+03  0.58135889721E+03  0.10100000352E+00 0.  1.
</event>
<event>
 5   0  0.3883890E-04  0.1199735E+04  0.7818609E-02  0.9113088E-01
        2   -1    0    0  501    0  0.00000000000E+00  0.00000000000E+00  0.81485158961E+03  0.81485158961E+03  0.25500000920E-02 0. -1.
       -2   -1    0    0    0  501  0.00000000000E+00  0.00000000000E+00 -0.44160333572E+03  0.44160333572E+03  0.25500000920E-02 0.  1.
    10030    2    1    2    0    0  0.00000000000E+00  0.00000000000E+00  0.37324825389E+03  0.12564549253E+04  0.11997352709E+04 0.  0.
        2    1    3    3  502    0  0.40489539705E+03 -0.37305354260E+03  0.43606944059E+03  0.70232882984E+03  0.25500000920E-02 0. -1.
       -2    1    3    3    0  502 -0.40489539705E+03  0.37305354260E+03 -0.62821186699E+02  0.55412609549E+03  0.25500000920E-02 0.  1.
</event>
<event>
 5   0  0.4024486E-04  0.1196675E+04  0.7818609E-02  0.9115772E-01
       -2   -1    0    0    0  501  0.00000000000E+00  0.00000000000E+00  0.31008617867E+03  0.31008617868E+03  0.25500000920E-02 0. -1.
        2   -1    0    0  501    0  0.00000000000E+00  0.00000000000E+00 -0.11545427888E+04  0.11545427888E+04  0.25500000920E-02 0.  1.
    10030    2    1    2    0    0  0.00000000000E+00  0.00000000000E+00 -0.84445661015E+03  0.14646289675E+04  0.11966749960E+04 0.  0.
        1    1    3    3  502    0 -0.78354827591E+02 -0.41495531368E+03 -0.94103039799E+03  0.10314386076E+04  0.50400001928E-02 0.  1.
       -1    1    3    3    0  502  0.78354827591E+02  0.41495531368E+03  0.96573787847E+02  0.43319035987E+03  0.50400001928E-02 0. -1.
</event>
<event>
 5   0  0.2315038E-04  0.1200452E+04  0.7818609E-02  0.9112461E-01
        1   -1    0    0  501    0  0.00000000000E+00  0.00000000000E+00  0.30600065268E+03  0.30600065272E+03  0.50400001928E-02 0.  1.
       -1   -1    0    0    0  501  0.00000000000E+00  0.00000000000E+00 -0.11773547989E+04  0.11773547989E+04  0.50400001928E-02 0. -1.
    10030    2    1    2    0    0  0.00000000000E+00  0.00000000000E+00 -0.87135414622E+03  0.14833554516E+04  0.12004521431E+04 0.  0.
        1    1    3    3  502    0  0.40824080014E+02 -0.23304908058E+02  0.30372261405E+03  0.30733882046E+03  0.50400001928E-02 0.  1.
       -1    1    3    3    0  502 -0.40824080014E+02  0.23304908058E+02 -0.11750767603E+04  0.11760166312E+04  0.50400001928E-02 0. -1.
</event>
<event>
 5   0  0.3883890E-04  0.1200951E+04  0.7818609E-02  0.9112024E-01
       -2   -1    0    0    0  501  0.00000000000E+00  0.00000000000E+00  0.20253552769E+03  0.20253552770E+03  0.25500000920E-02 0. -1.
        2   -1    0    0  501    0  0.00000000000E+00  0.00000000000E+00 -0.17802848935E+04  0.17802848935E+04  0.25500000920E-02 0.  1.
    10030    2    1    2    0    0  0.00000000000E+00  0.00000000000E+00 -0.15777493658E+04  0.19828204212E+04  0.12009511903E+04 0.  0.
        2    1    3    3  502    0  0.17663978727E+03 -0.20871459185E+03  0.93788213437E+02  0.28906681630E+03  0.25500000920E-02 0. -1.
       -2    1    3    3    0  502 -0.17663978727E+03  0.20871459185E+03 -0.16715375792E+04  0.16937536049E+04  0.25500000920E-02 0.  1.
</event>
<event>
 5   0  0.2204090E-04  0.1204336E+04  0.7818609E-02  0.9109070E-01
        1   -1    0    0  501    0  0.00000000000E+00  0.00000000000E+00  0.51232715081E+03  0.51232715084E+03  0.50400001928E-02 0.  1.
       -1   -1    0    0    0  501  0.00000000000E+00  0.00000000000E+00 -0.70776295514E+03  0.70776295516E+03  0.50400001928E-02 0. -1.
    10030    2    1    2    0    0  0.00000000000E+00  0.00000000000E+00 -0.19543580433E+03  0.12200901060E+04  0.12043357975E+04 0.  0.
        2    1    3    3  502    0  0.18387896679E+03 -0.48706606646E+03  0.20883145192E+03  0.56094153246E+03  0.25500000920E-02 0. -1.
       -2    1    3    3    0  502 -0.18387896679E+03  0.48706606646E+03 -0.40426725624E+03  0.65914857354E+03  0.25500000920E-02 0.  1.
</event>
<event>
 5   0  0.1541375E-04  0.1199184E+04  0.7818609E-02  0.9113571E-01
       -3   -1    0    0    0  501  0.00000000000E+00  0.00000000000E+00  0.32682783885E+03  0.32682785445E+03  0.10100000352E+00 0. -1.
        3   -1    0    0  501    0  0.00000000000E+00  0.00000000000E+00 -0.11000001745E+04  0.11000001791E+04  0.10100000352E+00 0.  1.
    10030    2    1    2    0    0  0.00000000000E+00  0.00000000000E+00 -0.77317233566E+03  0.14268280336E+04  0.11991842130E+04 0.  0.
        4    1    3    3  502    0 -0.92530525101E+02  0.58330516740E+03 -0.26349593889E+03  0.64671364537E+03  0.12699999809E+01 0. -1.
       -4    1    3    3    0  502  0.92530525101E+02 -0.58330516740E+03 -0.50967639676E+03  0.78011438822E+03  0.12699999809E+01 0.  1.
</event>
<event>
 5   0  0.2340731E-04  0.1200334E+04  0.7818609E-02  0.9112564E-01
        1   -1    0    0  501    0  0.00000000000E+00  0.00000000000E+00  0.45667449509E+03  0.45667449512E+03  0.50400001928E-02 0. -1.
       -1   -1    0    0    0  501  0.00000000000E+00  0.00000000000E+00 -0.78874665664E+03  0.78874665666E+03  0.50400001928E-02 0.  1.
    10030    2    1    2    0    0  0.00000000000E+00  0.00000000000E+00 -0.33207216155E+03  0.12454211518E+04  0.12003340888E+04 0.  0.
        3    1    3    3  502    0 -0.43725802245E+03  0.25680083338E+03  0.16705080419E+03  0.53389814347E+03  0.10100000352E+00 0. -1.
       -3    1    3    3    0  502  0.43725802245E+03 -0.25680083338E+03 -0.49912296574E+03  0.71152300831E+03  0.10100000352E+00 0.  1.
</event>
<event>
 5   0  0.4122956E-04  0.1201392E+04  0.7818609E-02  0.9111639E-01
        2   -1    0    0  501    0  0.00000000000E+00  0.00000000000E+00  0.60989482836E+03  0.60989482836E+03  0.25500000920E-02 0.  1.
       -2   -1    0    0    0  501  0.00000000000E+00  0.00000000000E+00 -0.59163561553E+03  0.59163561554E+03  0.25500000920E-02 0. -1.
    10030    2    1    2    0    0  0.00000000000E+00  0.00000000000E+00  0.18259212824E+02  0.12015304439E+04  0.12013916966E+04 0.  0.
        5    1    3    3  502    0  0.39184825094E+03 -0.17490665891E+03  0.42950661774E+03  0.60715353558E+03  0.46999998093E+01 0.  1.
       -5    1    3    3    0  502 -0.39184825094E+03  0.17490665891E+03 -0.41124740491E+03  0.59437690832E+03  0.46999998093E+01 0. -1.
</event>
<event>
 5   0  0.3883890E-04  0.1202389E+04  0.7818609E-02  0.9110768E-01
        2   -1    0    0  501    0  0.00000000000E+00  0.00000000000E+00  0.65767645353E+03  0.65767645353E+03  0.25500000920E-02 0. -1.
       -2   -1    0    0    0  501  0.00000000000E+00  0.00000000000E+00 -0.54956314147E+03  0.54956314148E+03  0.25500000920E-02 0.  1.
    10030    2    1    2    0    0  0.00000000000E+00  0.00000000000E+00  0.10811331205E+03  0.12072395950E+04  0.12023888520E+04 0.  0.
        2    1    3    3  502    0 -0.20225059502E+02  0.48804628135E+03 -0.29783767308E+03  0.57210620106E+03  0.25500000920E-02 0.  1.
       -2    1    3    3    0  502  0.20225059502E+02 -0.48804628135E+03  0.40595098514E+03  0.63513339395E+03  0.25500000920E-02 0. -1.
</event>
<event>
 5   0  0.2244308E-04  0.1195691E+04  0.7818609E-02  0.9116637E-01
        1   -1    0    0  501    0  0.00000000000E+00  0.00000000000E+00  0.13599621717E+04  0.13599621717E+04  0.50400001928E-02 0.  1.
       -1   -1    0    0    0  501  0.00000000000E+00  0.00000000000E+00 -0.26281545721E+03  0.26281545726E+03  0.50400001928E-02 0. -1.
    10030    2    1    2    0    0  0.00000000000E+00  0.00000000000E+00  0.10971467145E+04  0.16227776289E+04  0.11956907292E+04 0.  0.
        5    1    3    3  502    0 -0.34764881902E+03 -0.24360848138E+03 -0.22724303604E+02  0.42513912727E+03  0.46999998093E+01 0. -1.
       -5    1    3    3    0  502  0.34764881902E+03  0.24360848138E+03  0.11198710181E+04  0.11976385017E+04  0.46999998093E+01 0.  1.
</event>
<event>
 5   0  0.2244308E-04  0.1199795E+04  0.7818609E-02  0.9113036E-01
       -1   -1    0    0    0  501  0.00000000000E+00  0.00000000000E+00  0.82465294154E+03  0.82465294156E+03  0.50400001928E-02 0.  1.
        1   -1    0    0  501    0  0.00000000000E+00  0.00000000000E+00 -0.43639787005E+03  0.43639787008E+03  0.50400001928E-02 0. -1.
    10030    2    1    2    0    0  0.00000000000E+00  0.00000000000E+00  0.38825507149E+03  0.12610508116E+04  0.11997946278E+04 0.  0.
        5    1    3    3  502    0 -0.27367694854E+03  0.23776922336E+03 -0.30820821540E+03  0.47586518025E+03  0.46999998093E+01 0. -1.
       -5    1    3    3    0  502  0.27367694854E+03 -0.23776922336E+03  0.69646328690E+03  0.78518563138E+03  0.46999998093E+01 0.  1.
</event>
<event>
 5   0  0.2204090E-04  0.1202525E+04  0.7818609E-02  0.9110650E-01
       -1   -1    0    0    0  501  0.00000000000E+00  0.00000000000E+00  0.27357906239E+03  0.27357906244E+03  0.50400001928E-02 0.  1.
        1   -1    0    0  501    0  0.00000000000E+00  0.00000000000E+00 -0.13214331022E+04  0.13214331022E+04  0.50400001928E-02 0. -1.
    10030    2    1    2    0    0  0.00000000000E+00  0.00000000000E+00 -0.10478540398E+04  0.15950121647E+04  0.12025247260E+04 0.  0.
        2    1    3    3  502    0  0.54894559874E+03 -0.12310981991E+03 -0.24249822013E+03  0.61261952703E+03  0.25500000920E-02 0.  1.
       -2    1    3    3    0  502 -0.54894559874E+03  0.12310981991E+03 -0.80535581969E+03  0.98239263762E+03  0.25500000920E-02 0. -1.
</event>
<event>
 5   0  0.2315038E-04  0.1201005E+04  0.7818609E-02  0.9111978E-01
       -1   -1    0    0    0  501  0.00000000000E+00  0.00000000000E+00  0.58594198795E+03  0.58594198797E+03  0.50400001928E-02 0. -1.
        1   -1    0    0  501    0  0.00000000000E+00  0.00000000000E+00 -0.61542461317E+03  0.61542461319E+03  0.50400001928E-02 0.  1.
    10030    2    1    2    0    0  0.00000000000E+00  0.00000000000E+00 -0.29482625224E+02  0.12013666012E+04  0.12010047815E+04 0.  0.
        1    1    3    3  502    0  0.57179260534E+03  0.13811899775E+03  0.10604058210E+03  0.59771920342E+03  0.50400001928E-02 0. -1.
       -1    1    3    3    0  502 -0.57179260534E+03 -0.13811899775E+03 -0.13552320732E+03  0.60364739775E+03  0.50400001928E-02 0.  1.
</event>
<event>
 5   0  0.3883890E-04  0.1201274E+04  0.7818609E-02  0.9111743E-01
        2   -1    0    0  501    0  0.00000000000E+00  0.00000000000E+00  0.30235662674E+03  0.30235662675E+03  0.25500000920E-02 0. -1.
       -2   -1    0    0    0  501  0.00000000000E+00  0.00000000000E+00 -0.11931755097E+04  0.11931755097E+04  0.25500000920E-02 0.  1.
    10030    2    1    2    0    0  0.00000000000E+00  0.00000000000E+00 -0.89081888295E+03  0.14955321364E+04  0.12012735279E+04 0.  0.
        2    1    3    3  502    0 -0.30518787982E+00 -0.59713968060E+03 -0.52598250758E+03  0.79575969336E+03  0.25500000920E-02 0.  1.
       -2    1    3    3    0  502  0.30518787982E+00  0.59713968060E+03 -0.36483637537E+03  0.69977244308E+03  0.25500000920E-02 0. -1.
</event>
<event>
 5   0  0.2315038E-04  0.1202648E+04  0.7818609E-02  0.9110542E-01
       -1   -1    0    0    0  501  0.00000000000E+00  0.00000000000E+00  0.31011867507E+03  0.31011867511E+03  0.50400001928E-02 0. -1.
        1   -1    0    0  501    0  0.00000000000E+00  0.00000000000E+00 -0.11659754209E+04  0.11659754210E+04  0.50400001928E-02 0.  1.
    10030    2    1    2    0    0  0.00000000000E+00  0.00000000000E+00 -0.85585674588E+03  0.14760940961E+04  0.12026483322E+04 0.  0.
        1    1    3    3  502    0 -0.41048735863E+03  0.43606093508E+03 -0.49449823873E+03  0.77664504044E+03  0.50400001928E-02 0.  1.
       -1    1    3    3    0  502  0.41048735863E+03 -0.43606093508E+03 -0.36135850715E+03  0.69944905563E+03  0.50400001928E-02 0. -1.
</event>
<event>
 5   0  0.1541375E-04  0.1200774E+04  0.7818609E-02  0.9112179E-01
       -3   -1    0    0    0  501  0.00000000000E+00  0.00000000000E+00  0.46164084321E+03  0.46164085426E+03  0.10100000352E+00 0. -1.
        3   -1    0    0  501    0  0.00000000000E+00  0.00000000000E+00 -0.78083327524E+03  0.78083328177E+03  0.10100000352E+00 0.  1.
    10030    2    1    2    0    0  0.00000000000E+00  0.00000000000E+00 -0.31919243203E+03  0.12424741360E+04  0.12007739879E+04 0.  0.
        5    1    3    3  502    0  0.48938303493E+03  0.30793270172E+03  0.76464802022E+01  0.57827230811E+03  0.46999998093E+01 0. -1.
       -5    1    3    3    0  502 -0.48938303493E+03 -0.30793270172E+03 -0.32683891223E+03  0.66420182792E+03  0.46999998093E+01 0.  1.
</event>
<event>
 5   0  0.4122956E-04  0.1200022E+04  0.7818609E-02  0.9112837E-01
       -2   -1    0    0    0  501  0.00000000000E+00  0.00000000000E+00  0.27196038787E+03  0.27196038789E+03  0.25500000920E-02 0. -1.
        2   -1    0    0  501    0  0.00000000000E+00  0.00000000000E+00 -0.13237715896E+04  0.13237715896E+04  0.25500000920E-02 0.  1.
    10030    2    1    2    0    0  0.00000000000E+00  0.00000000000E+00 -0.10518112017E+04  0.15957319775E+04  0.12000223914E+04 0.  0.
        5    1    3    3  502    0  0.54561563410E+03  0.23158196681E+03 -0.40212636395E+03  0.71627810947E+03  0.46999998093E+01 0.  1.
       -5    1    3    3    0  502 -0.54561563410E+03 -0.23158196681E+03 -0.64968483777E+03  0.87945386800E+03  0.46999998093E+01 0. -1.
</event>
<event>
 5   0  0.2340731E-04  0.1201972E+04  0.7818609E-02  0.9111133E-01
        1   -1    0    0  501    0  0.00000000000E+00  0.00000000000E+00  0.29858818419E+03  0.29858818424E+03  0.50400001928E-02 0. -1.
       -1   -1    0    0    0  501  0.00000000000E+00  0.00000000000E+00 -0.12096389391E+04  0.12096389391E+04  0.50400001928E-02 0.  1.
    10030    2    1    2    0    0  0.00000000000E+00  0.00000000000E+00 -0.91105075489E+03  0.15082271233E+04  0.12019715378E+04 0.  0.
        3    1    3    3  502    0  0.11853220642E+03 -0.35102271598E+03  0.13824174668E+03  0.39544610483E+03  0.10100000352E+00 0. -1.
       -3    1    3    3    0  502 -0.11853220642E+03  0.35102271598E+03 -0.10492925016E+04  0.11127810185E+04  0.10100000352E+00 0.  1.
</event>
<event>
 5   0  0.2244308E-04  0.1201382E+04  0.7818609E-02  0.9111648E-01
        1   -1    0    0  501    0  0.00000000000E+00  0.00000000000E+00  0.13132345349E+04  0.13132345349E+04  0.50400001928E-02 0. -1.
       -1   -1    0    0    0  501  0.00000000000E+00  0.00000000000E+00 -0.27476389595E+03  0.27476389600E+03  0.50400001928E-02 0.  1.
    10030    2    1    2    0    0  0.00000000000E+00  0.00000000000E+00  0.10384706389E+04  0.15879984309E+04  0.12013815999E+04 0.  0.
        5    1    3    3  502    0  0.45822873442E+02  0.52073857915E+03  0.91031904485E+03  0.10497481874E+04  0.46999998093E+01 0. -1.
       -5    1    3    3    0  502 -0.45822873442E+02 -0.52073857915E+03  0.12815159409E+03  0.53825024349E+03  0.46999998093E+01 0.  1.
</event>
<event>
 5   0  0.2244308E-04  0.1200156E+04  0.7818609E-02  0.9112720E-01
       -1   -1    0    0    0  501  0.00000000000E+00  0.00000000000E+00  0.53029029718E+03  0.53029029721E+03  0.50400001928E-02 0.  1.
        1   -1    0    0  501    0  0.00000000000E+00  0.00000000000E+00 -0.67904946172E+03  0.67904946174E+03  0.50400001928E-02 0. -1.
    10030    2    1    2    0    0  0.00000000000E+00  0.00000000000E+00 -0.14875916453E+03  0.12093397589E+04  0.12001555581E+04 0.  0.
        5    1    3    3  502    0 -0.56173359341E+03 -0.12146169321E+03 -0.24825053510E+03  0.62605749820E+03  0.46999998093E+01 0.  1.
       -5    1    3    3    0  502  0.56173359341E+03  0.12146169321E+03  0.99491370563E+02  0.58328226074E+03  0.46999998093E+01 0. -1.
</event>
<event>
 5   0  0.3883890E-04  0.1201768E+04  0.7818609E-02  0.9111310E-01
       -2   -1    0    0    0  501  0.00000000000E+00  0.00000000000E+00  0.39037142552E+03  0.39037142553E+03  0.25500000920E-02 0. -1.
        2   -1    0    0  501    0  0.00000000000E+00  0.00000000000E+00 -0.92491863571E+03  0.92491863572E+03  0.25500000920E-02 0.  1.
    10030    2    1    2    0    0  0.00000000000E+00  0.00000000000E+00 -0.53454721019E+03  0.13152900612E+04  0.12017683742E+04 0.  0.
        2    1    3    3  502    0 -0.38340137100E+03 -0.36206518216E+03  0.47988505111E+02  0.52951931414E+03  0.25500000920E-02 0. -1.
       -2    1    3    3    0  502  0.38340137100E+03  0.36206518216E+03 -0.58253571530E+03  0.78577074711E+03  0.25500000920E-02 0.  1.
</event>
<event>
 5   0  0.2244308E-04  0.1203206E+04  0.7818609E-02  0.9110055E-01
        1   -1    0    0  501    0  0.00000000000E+00  0.00000000000E+00  0.11971504516E+04  0.11971504516E+04  0.50400001928E-02 0. -1.
       -1   -1    0    0    0  501  0.00000000000E+00  0.00000000000E+00 -0.30232303997E+03  0.30232304001E+03  0.50400001928E-02 0.  1.
    10030    2    1    2    0    0  0.00000000000E+00  0.00000000000E+00  0.89482741159E+03  0.14994734916E+04  0.12032059904E+04 0.  0.
        5    1    3    3  502    0  0.34922879406E+03  0.36422924368E+03  0.85560051040E+03  0.99332674178E+03  0.46999998093E+01 0. -1.
       -5    1    3    3    0  502 -0.34922879406E+03 -0.36422924368E+03  0.39226901192E+02  0.50614674979E+03  0.46999998093E+01 0.  1.
</event>
<event>
 5   0  0.2315038E-04  0.1200445E+04  0.7818609E-02  0.9112467E-01
        1   -1    0    0  501    0  0.00000000000E+00  0.00000000000E+00  0.73842796090E+03  0.73842796091E+03  0.50400001928E-02 0.  1.
       -1   -1    0    0    0  501  0.00000000000E+00  0.00000000000E+00 -0.48788365981E+03  0.48788365984E+03  0.50400001928E-02 0. -1.
    10030    2    1    2    0    0  0.00000000000E+00  0.00000000000E+00  0.25054430108E+03  0.12263116208E+04  0.12004448111E+04 0.  0.
        1    1    3    3  502    0 -0.39130556379E+03 -0.43909017277E+03  0.24763084515E+03  0.63815457342E+03  0.50400001928E-02 0.  1.
       -1    1    3    3    0  502  0.39130556379E+03  0.43909017277E+03  0.29134559334E+01  0.58815704733E+03  0.50400001928E-02 0. -1.
</event>
<event>
 5   0  0.3883890E-04  0.1199233E+04  0.7818609E-02  0.9113528E-01
       -2   -1    0    0    0  501  0.00000000000E+00  0.00000000000E+00  0.41440488006E+03  0.41440488007E+03  0.25500000920E-02 0.  1.
        2   -1    0    0  501    0  0.00000000000E+00  0.00000000000E+00 -0.86760611469E+03  0.86760611470E+03  0.25500000920E-02 0. -1.
    10030    2    1    2    0    0  0.00000000000E+00  0.00000000000E+00 -0.45320123463E+03  0.12820109948E+04  0.11992334350E+04 0.  0.
        2    1    3    3  502    0 -0.27289626484E+03  0.18499732896E+03  0.30881338969E+03  0.45173232422E+03  0.25500000920E-02 0.  1.
       -2    1    3    3    0  502  0.27289626484E+03 -0.18499732896E+03 -0.76201462432E+03  0.83027867055E+03  0.25500000920E-02 0. -1.
</event>
<event>
 5   0  0.1541375E-04  0.1200663E+04  0.7818609E-02  0.9112276E-01
       -4   -1    0    0    0  501  0.00000000000E+00  0.00000000000E+00  0.99049911477E+03  0.99049992895E+03  0.12699999809E+01 0. -1.
        4   -1    0    0  501    0  0.00000000000E+00  0.00000000000E+00 -0.36385298928E+03  0.36385520569E+03  0.12699999809E+01 0.  1.
    10030    2    1    2    0    0  0.00000000000E+00  0.00000000000E+00  0.62664612549E+03  0.13543551346E+04  0.12006633434E+04 0.  0.
        3    1    3    3  502    0  0.39320908150E+03  0.31938152600E+03 -0.50063182990E+02  0.50904250649E+03  0.10100000352E+00 0.  1.
       -3    1    3    3    0  502 -0.39320908150E+03 -0.31938152600E+03  0.67670930848E+03  0.84531262815E+03  0.10100000352E+00 0. -1.
</event>
<event>
 5   0  0.2204090E-04  0.1198737E+04  0.7818609E-02  0.9113963E-01
        1   -1    0    0  501    0  0.00000000000E+00  0.00000000000E+00  0.82699551734E+03  0.82699551735E+03  0.50400001928E-02 0. -1.
       -1   -1    0    0    0  501  0.00000000000E+00  0.00000000000E+00 -0.43439454670E+03  0.43439454673E+03  0.50400001928E-02 0.  1.
    10030    2    1    2    0    0  0.00000000000E+00  0.00000000000E+00  0.39260097064E+03  0.12613900641E+04  0.11987365731E+04 0.  0.
        2    1    3    3  502    0 -0.12488791237E+03  0.57951148151E+03  0.28930436594E+03  0.65964199686E+03  0.25500000920E-02 0.  1.
       -2    1    3    3    0  502  0.12488791237E+03 -0.57951148151E+03  0.10329660469E+03  0.60174806722E+03  0.25500000920E-02 0. -1.
</event>
<event>
 5   0  0.2304842E-04  0.1207413E+04  0.7818609E-02  0.9106393E-01
       -1   -1    0    0    0  501  0.00000000000E+00  0.00000000000E+00  0.92100783331E+03  0.92100783332E+03  0.50400001928E-02 0. -1.
        1   -1    0    0  501    0  0.00000000000E+00  0.00000000000E+00 -0.39572016064E+03  0.39572016067E+03  0.50400001928E-02 0.  1.
    10030    2    1    2    0    0  0.00000000000E+00  0.00000000000E+00  0.52528767267E+03  0.13167279940E+04  0.12074127178E+04 0.  0.
        4    1    3    3  502    0  0.51890939042E+03 -0.16274651130E+03 -0.23206582314E+02  0.54432852283E+03  0.12699999809E+01 0.  1.
       -4    1    3    3    0  502 -0.51890939042E+03  0.16274651130E+03  0.54849425498E+03  0.77239947116E+03  0.12699999809E+01 0. -1.
</event>
<event>
 5   0  0.2304842E-04  0.1199881E+04  0.7818609E-02  0.9112961E-01
       -1   -1    0    0    0  501  0.00000000000E+00  0.00000000000E+00  0.23919731049E+03  0.23919731054E+03  0.50400001928E-02 0.  1.
        1   -1    0    0  501    0  0.00000000000E+00  0.00000000000E+00 -0.15047353173E+04  0.15047353173E+04  0.50400001928E-02 0. -1.
    10030    2    1    2    0    0  0.00000000000E+00  0.00000000000E+00 -0.12655380068E+04  0.17439326278E+04  0.11998810624E+04 0.  0.
        4    1    3    3  502    0  0.55335380684E+03  0.10064080621E+03 -0.93624538022E+03  0.10921932211E+04  0.12699999809E+01 0. -1.
       -4    1    3    3    0  502 -0.55335380684E+03 -0.10064080621E+03 -0.32929262657E+03  0.65173940669E+03  0.12699999809E+01 0.  1.
</event>
<event>
 5   0  0.2244308E-04  0.1201092E+04  0.7818609E-02  0.9111901E-01
       -1   -1    0    0    0  501  0.00000000000E+00  0.00000000000E+00  0.32488474779E+03  0.32488474783E+03  0.50400001928E-02 0. -1.
        1   -1    0    0  501    0  0.00000000000E+00  0.00000000000E+00 -0.11101034717E+04  0.11101034717E+04  0.50400001928E-02 0.  1.
    10030    2    1    2    0    0  0.00000000000E+00  0.00000000000E+00 -0.78521872392E+03  0.14349882196E+04  0.12010923136E+04 0.  0.
        5    1    3    3  502    0 -0.54802801547E+03 -0.69386782484E+02 -0.67403085229E+03  0.87148660986E+03  0.46999998093E+01 0.  1.
       -5    1    3    3    0  502  0.54802801547E+03  0.69386782484E+02 -0.11118787162E+03  0.56350160969E+03  0.46999998093E+01 0. -1.
</event>
<event>
 5   0  0.2340731E-04  0.1200268E+04  0.7818609E-02  0.9112622E-01
       -1   -1    0    0    0  501  0.00000000000E+00  0.00000000000E+00  0.33201051049E+03  0.33201051053E+03  0.50400001928E-02 0. -1.
        1   -1    0    0  501    0  0.00000000000E+00  0.00000000000E+00 -0.10847877955E+04  0.10847877955E+04  0.50400001928E-02 0.  1.
    10030    2    1    2    0    0  0.00000000000E+00  0.00000000000E+00 -0.75277728497E+03  0.14167983060E+04  0.12002682197E+04 0.  0.
        3    1    3    3  502    0 -0.21714497336E+03 -0.30149855612E+03  0.17991442129E+03  0.41282263502E+03  0.10100000352E+00 0. -1.
       -3    1    3    3    0  502  0.21714497336E+03  0.30149855612E+03 -0.93269170626E+03  0.10039756710E+04  0.10100000352E+00 0.  1.
</event>
<event>
 5   0  0.4122956E-04  0.1200676E+04  0.7818609E-02  0.9112265E-01
        2   -1    0    0  501    0  0.00000000000E+00  0.00000000000E+00  0.38414536342E+03  0.38414536343E+03  0.25500000920E-02 0.  1.
       -2   -1    0    0    0  501  0.00000000000E+00  0.00000000000E+00 -0.93820075641E+03  0.93820075642E+03  0.25500000920E-02 0. -1.
    10030    2    1    2    0    0  0.00000000000E+00  0.00000000000E+00 -0.55405539299E+03  0.13223461198E+04  0.12006755941E+04 0.  0.
        5    1    3    3  502    0  0.29811006359E+02 -0.24405496531E+03  0.32612984386E+03  0.40845353132E+03  0.46999998093E+01 0.  1.
       -5    1    3    3    0  502 -0.29811006359E+02  0.24405496531E+03 -0.88018523685E+03  0.91389258853E+03  0.46999998093E+01 0. -1.
</event>
<event>
 5   0  0.2244308E-04  0.1201829E+04  0.7818609E-02  0.9111257E-01
       -1   -1    0    0    0  501  0.00000000000E+00  0.00000000000E+00  0.11704099590E+04  0.11704099590E+04  0.50400001928E-02 0. -1.
        1   -1    0    0  501    0  0.00000000000E+00  0.00000000000E+00 -0.30852265457E+03  0.30852265461E+03  0.50400001928E-02 0.  1.
    10030    2    1    2    0    0  0.00000000000E+00  0.00000000000E+00  0.86188730444E+03  0.14789326136E+04  0.12018285860E+04 0.  0.
        5    1    3    3  502    0  0.31754937798E+03 -0.80627595707E+02  0.10508101557E+04  0.11007099935E+04  0.46999998093E+01 0. -1.
       -5    1    3    3    0  502 -0.31754937798E+03  0.80627595707E+02 -0.18892285121E+03  0.37822262010E+03  0.46999998093E+01 0.  1.
</event>
<event>
 5   0  0.3832662E-04  0.1201024E+04  0.7818609E-02  0.9111960E-01
        2   -1    0    0  501    0  0.00000000000E+00  0.00000000000E+00  0.32837851181E+03  0.32837851182E+03  0.25500000920E-02 0.  1.
       -2   -1    0    0    0  501  0.00000000000E+00  0.00000000000E+00 -0.10981683185E+04  0.10981683185E+04  0.25500000920E-02 0. -1.
    10030    2    1    2    0    0  0.00000000000E+00  0.00000000000E+00 -0.76978980667E+03  0.14265468303E+04  0.12010243597E+04 0.  0.
        4    1    3    3  502    0 -0.25862006257E+03  0.41476947828E+03 -0.79924835065E+03  0.93686583660E+03  0.12699999809E+01 0. -1.
       -4    1    3    3    0  502  0.25862006257E+03 -0.41476947828E+03  0.29458543982E+02  0.48968099369E+03  0.12699999809E+01 0.  1.
</event>
<event>
 5   0  0.2340731E-04  0.1200015E+04  0.7818609E-02  0.9112844E-01
       -1   -1    0    0    0  501  0.00000000000E+00  0.00000000000E+00  0.42451918887E+03  0.42451918890E+03  0.50400001928E-02 0.  1.
        1   -1    0    0  501    0  0.00000000000E+00  0.00000000000E+00 -0.84803905127E+03  0.84803905129E+03  0.50400001928E-02 0. -1.
    10030    2    1    2    0    0  0.00000000000E+00  0.00000000000E+00 -0.42351986240E+03  0.12725582402E+04  0.12000147502E+04 0.  0.
        3    1    3    3  502    0  0.39616671569E+03 -0.23085324761E+03 -0.62215293448E+03  0.77286193634E+03  0.10100000352E+00 0. -1.
       -3    1    3    3    0  502 -0.39616671569E+03  0.23085324761E+03  0.19863307208E+03  0.49969630385E+03  0.10100000352E+00 0.  1.
</event>
<event>
 5   0  0.2204090E-04  0.1198472E+04  0.7818609E-02  0.9114195E-01
        1   -1    0    0  501    0  0.00000000000E+00  0.00000000000E+00  0.54881836892E+03  0.54881836894E+03  0.50400001928E-02 0. -1.
       -1   -1    0    0    0  501  0.00000000000E+00  0.00000000000E+00 -0.65428557998E+03  0.65428558000E+03  0.50400001928E-02 0.  1.
    10030    2    1    2    0    0  0.00000000000E+00  0.00000000000E+00 -0.10546721106E+03  0.12031039489E+04  0.11984722689E+04 0.  0.
        2    1    3    3  502    0 -0.45940624767E+03  0.12122602768E+03 -0.41929419563E+03  0.63368562606E+03  0.25500000920E-02 0.  1.
       -2    1    3    3    0  502  0.45940624767E+03 -0.12122602768E+03  0.31382698457E+03  0.56941832288E+03  0.25500000920E-02 0. -1.
</event>
<event>
 5   0  0.1541375E-04  0.1198718E+04  0.7818609E-02  0.9113979E-01
       -3   -1    0    0    0  501  0.00000000000E+00  0.00000000000E+00  0.86555812018E+03  0.86555812608E+03  0.10100000352E+00 0. -1.
        3   -1    0    0  501    0  0.00000000000E+00  0.00000000000E+00 -0.41502844023E+03  0.41502845252E+03  0.10100000352E+00 0.  1.
    10030    2    1    2    0    0  0.00000000000E+00  0.00000000000E+00  0.45052967995E+03  0.12805865786E+04  0.11987180622E+04 0.  0.
        1    1    3    3  502    0  0.59122235308E+03  0.31637381165E+02  0.12569836172E+03  0.60526429998E+03  0.50400001928E-02 0.  1.
       -1    1    3    3    0  502 -0.59122235308E+03 -0.31637381165E+02  0.32483131823E+03  0.67532227862E+03  0.50400001928E-02 0. -1.
</event>
<event>
 5   0  0.4024486E-04  0.1211345E+04  0.7818609E-02  0.9102984E-01
        2   -1    0    0  501    0  0.00000000000E+00  0.00000000000E+00  0.20961437932E+04  0.20961437932E+04  0.25500000920E-02 0.  1.
       -2   -1    0    0    0  501  0.00000000000E+00  0.00000000000E+00 -0.17500668154E+03  0.17500668156E+03  0.25500000920E-02 0. -1.
    10030    2    1    2    0    0  0.00000000000E+00  0.00000000000E+00  0.19211371117E+04  0.22711504748E+04  0.12113449869E+04 0.  0.
        1    1    3    3  502    0  0.48183959538E+03 -0.25766665498E+03  0.47065731497E+03  0.72116559051E+03  0.50400001928E-02 0. -1.
       -1    1    3    3    0  502 -0.48183959538E+03  0.25766665498E+03  0.14504797967E+04  0.15499848843E+04  0.50400001928E-02 0.  1.
</event>
<event>
 5   0  0.3993723E-04  0.1215428E+04  0.7818609E-02  0.9099459E-01
       -2   -1    0    0    0  501  0.00000000000E+00  0.00000000000E+00  0.67208737518E+03  0.67208737518E+03  0.25500000920E-02 0. -1.
        2   -1    0    0  501    0  0.00000000000E+00  0.00000000000E+00 -0.54950643782E+03  0.54950643782E+03  0.25500000920E-02 0.  1.
    10030    2    1    2    0    0  0.00000000000E+00  0.00000000000E+00  0.12258093736E+03  0.12215938130E+04  0.12154280554E+04 0.  0.
        3    1    3    3  502    0 -0.54157559256E+03  0.24349529629E+02  0.33730937898E+03  0.63849404805E+03  0.10100000352E+00 0.  1.
       -3    1    3    3    0  502  0.54157559256E+03 -0.24349529629E+02 -0.21472844162E+03  0.58309976495E+03  0.10100000352E+00 0. -1.
</event>
<event>
 5   0  0.4024486E-04  0.1200755E+04  0.7818609E-02  0.9112196E-01
       -2   -1    0    0    0  501  0.00000000000E+00  0.00000000000E+00  0.18410314951E+03  0.18410314952E+03  0.25500000920E-02 0.  1.
        2   -1    0    0  501    0  0.00000000000E+00  0.00000000000E+00 -0.19578876942E+04  0.19578876942E+04  0.25500000920E-02 0. -1.
    10030    2    1    2    0    0  0.00000000000E+00  0.00000000000E+00 -0.17737845447E+04  0.21419908438E+04  0.12007552472E+04 0.  0.
        1    1    3    3  502    0  0.52102479152E+03 -0.64557610542E+02 -0.36736409365E+03  0.64077366970E+03  0.50400001928E-02 0.  1.
       -1    1    3    3    0  502 -0.52102479152E+03  0.64557610542E+02 -0.14064204511E+04  0.15012171741E+04  0.50400001928E-02 0. -1.
</event>
<event>
 5   0  0.3993723E-04  0.1199402E+04  0.7818609E-02  0.9113380E-01
       -2   -1    0    0    0  501  0.00000000000E+00  0.00000000000E+00  0.16825808129E+03  0.16825808131E+03  0.25500000920E-02 0. -1.
        2   -1    0    0  501    0  0.00000000000E+00  0.00000000000E+00 -0.21374383757E+04  0.21374383757E+04  0.25500000920E-02 0.  1.
    10030    2    1    2    0    0  0.00000000000E+00  0.00000000000E+00 -0.19691802944E+04  0.23056964571E+04  0.11994019843E+04 0.  0.
        3    1    3    3  502    0 -0.31639147064E+03 -0.44901520669E+03 -0.52192894182E+03  0.75771237884E+03  0.10100000352E+00 0. -1.
       -3    1    3    3    0  502  0.31639147064E+03  0.44901520669E+03 -0.14472513526E+04  0.15479840782E+04  0.10100000352E+00 0.  1.
</event>
<event>
 5   0  0.3883890E-04  0.1191287E+04  0.7818609E-02  0.9120517E-01
        2   -1    0    0  501    0  0.00000000000E+00  0.00000000000E+00  0.10745877349E+04  0.10745877349E+04  0.25500000920E-02 0. -1.
       -2   -1    0    0    0  501  0.00000000000E+00  0.00000000000E+00 -0.33016497419E+03  0.33016497420E+03  0.25500000920E-02 0.  1.
    10030    2    1    2    0    0  0.00000000000E+00  0.00000000000E+00  0.74442276073E+03  0.14047527091E+04  0.11912870884E+04 0.  0.
        2    1    3    3  502    0 -0.21753382898E+03 -0.93619685249E+02 -0.27226223196E+03  0.36084946332E+03  0.25500000920E-02 0.  1.
       -2    1    3    3    0  502  0.21753382898E+03  0.93619685249E+02  0.10166849927E+04  0.10439032458E+04  0.25500000920E-02 0. -1.
</event>
<event>
 5   0  0.4024486E-04  0.1204109E+04  0.7818609E-02  0.9109267E-01
       -2   -1    0    0    0  501  0.00000000000E+00  0.00000000000E+00  0.25167732070E+03  0.25167732071E+03  0.25500000920E-02 0. -1.
        2   -1    0    0  501    0  0.00000000000E+00  0.00000000000E+00 -0.14402162923E+04  0.14402162923E+04  0.25500000920E-02 0.  1.
    10030    2    1    2    0    0  0.00000000000E+00  0.00000000000E+00 -0.11885389716E+04  0.16918936131E+04  0.12041092603E+04 0.  0.
        1    1    3    3  502    0  0.30528938657E+03  0.12731450106E+03 -0.13011047491E+04  0.13424917728E+04  0.50400001928E-02 0.  1.
       -1    1    3    3    0  502 -0.30528938657E+03 -0.12731450106E+03  0.11256577746E+03  0.34940184031E+03  0.50400001928E-02 0. -1.
</event>
<event>
 5   0  0.2244308E-04  0.1204142E+04  0.7818609E-02  0.9109239E-01
        1   -1    0    0  501    0  0.00000000000E+00  0.00000000000E+00  0.13454943899E+04  0.13454943899E+04  0.50400001928E-02 0. -1.
       -1   -1    0    0    0  501  0.00000000000E+00  0.00000000000E+00 -0.26940997075E+03  0.26940997080E+03  0.50400001928E-02 0.  1.
    10030    2    1    2    0    0  0.00000000000E+00  0.00000000000E+00  0.10760844192E+04  0.16149043607E+04  0.12041421914E+04 0.  0.
        5    1    3    3  502    0 -0.17495259984E+03  0.56855063320E+03  0.41360437661E+03  0.72453357759E+03  0.46999998093E+01 0.  1.
       -5    1    3    3    0  502  0.17495259984E+03 -0.56855063320E+03  0.66248004258E+03  0.89037078316E+03  0.46999998093E+01 0. -1.
</event>
<event>
 5   0  0.2244308E-04  0.1198900E+04  0.7818609E-02  0.9113820E-01
        1   -1    0    0  501    0  0.00000000000E+00  0.00000000000E+00  0.10157795432E+04  0.10157795432E+04  0.50400001928E-02 0.  1.
       -1   -1    0    0    0  501  0.00000000000E+00  0.00000000000E+00 -0.35375797768E+03  0.35375797771E+03  0.50400001928E-02 0. -1.
    10030    2    1    2    0    0  0.00000000000E+00  0.00000000000E+00  0.66202156551E+03  0.13695375209E+04  0.11988996905E+04 0.  0.
        5    1    3    3  502    0  0.57997139617E+01  0.41346507214E+03 -0.16472700149E+03  0.44513377493E+03  0.46999998093E+01 0. -1.
       -5    1    3    3    0  502 -0.57997139617E+01 -0.41346507214E+03  0.82674856699E+03  0.92440374598E+03  0.46999998093E+01 0.  1.
</event>
<event>
 5   0  0.3883890E-04  0.1199010E+04  0.7818609E-02  0.9113724E-01
       -2   -1    0    0    0  501  0.00000000000E+00  0.00000000000E+00  0.17415632536E+03  0.17415632538E+03  0.25500000920E-02 0. -1.
        2   -1    0    0  501    0  0.00000000000E+00  0.00000000000E+00 -0.20636991047E+04  0.20636991047E+04  0.25500000920E-02 0.  1.
    10030    2    1    2    0    0  0.00000000000E+00  0.00000000000E+00 -0.18895427793E+04  0.22378554301E+04  0.11990100129E+04 0.  0.
        2    1    3    3  502    0 -0.47281981080E+03  0.75427238528E+02 -0.16181283223E+04  0.16874795137E+04  0.25500000920E-02 0.  1.
       -2    1    3    3    0  502  0.47281981080E+03 -0.75427238528E+02 -0.27141445701E+03  0.55037591634E+03  0.25500000920E-02 0. -1.
</event>
<event>
 5   0  0.2340731E-04  0.1200092E+04  0.7818609E-02  0.9112776E-01
        1   -1    0    0  501    0  0.00000000000E+00  0.00000000000E+00  0.53709173707E+03  0.53709173709E+03  0.50400001928E-02 0.  1.
       -1   -1    0    0    0  501  0.00000000000E+00  0.00000000000E+00 -0.67037879317E+03  0.67037879319E+03  0.50400001928E-02 0. -1.
    10030    2    1    2    0    0  0.00000000000E+00  0.00000000000E+00 -0.13328705611E+03  0.12074705303E+04  0.12000915141E+04 0.  0.
        3    1    3    3  502    0  0.30536772264E+02  0.58839659466E+03 -0.18097254427E+03  0.61635551352E+03  0.10100000352E+00 0.  1.
       -3    1    3    3    0  502 -0.30536772264E+02 -0.58839659466E+03  0.47685488164E+02  0.59111501677E+03  0.10100000352E+00 0. -1.
</event>
<event>
 5   0  0.2244308E-04  0.1201172E+04  0.7818609E-02  0.9111831E-01
        1   -1    0    0  501    0  0.00000000000E+00  0.00000000000E+00  0.14086291820E+04  0.14086291820E+04  0.50400001928E-02 0. -1.
       -1   -1    0    0    0  501  0.00000000000E+00  0.00000000000E+00 -0.25606724683E+03  0.25606724688E+03  0.50400001928E-02 0.  1.
    10030    2    1    2    0    0  0.00000000000E+00  0.00000000000E+00  0.11525619351E+04  0.16646964289E+04  0.12011724214E+04 0.  0.
        5    1    3    3  502    0  0.22370362420E+03  0.35770604594E+03 -0.16072422692E+02  0.42222901315E+03  0.46999998093E+01 0.  1.
       -5    1    3    3    0  502 -0.22370362420E+03 -0.35770604594E+03  0.11686343578E+04  0.12424674157E+04  0.46999998093E+01 0. -1.
</event>
<event>
 5   0  0.4122956E-04  0.1199584E+04  0.7818609E-02  0.9113221E-01
        2   -1    0    0  501    0  0.00000000000E+00  0.00000000000E+00  0.88950992089E+03  0.88950992089E+03  0.25500000920E-02 0.  1.
       -2   -1    0    0    0  501  0.00000000000E+00  0.00000000000E+00 -0.40443662779E+03  0.40443662780E+03  0.25500000920E-02 0. -1.
    10030    2    1    2    0    0  0.00000000000E+00  0.00000000000E+00  0.48507329310E+03  0.12939465487E+04  0.11995839159E+04 0.  0.
        5    1    3    3  502    0 -0.20719020111E+02 -0.52326046482E+03 -0.72863897584E+02  0.52873625695E+03  0.46999998093E+01 0. -1.
       -5    1    3    3    0  502  0.20719020111E+02  0.52326046482E+03  0.55793719069E+03  0.76521029174E+03  0.46999998093E+01 0.  1.
</event>
<event>
 5   0  0.3993723E-04  0.1200274E+04  0.7818609E-02  0.9112617E-01
        2   -1    0    0  501    0  0.00000000000E+00  0.00000000000E+00  0.14677095833E+04  0.14677095833E+04  0.25500000920E-02 0. -1.
       -2   -1    0    0    0  501  0.00000000000E+00  0.00000000000E+00 -0.24539200819E+03  0.24539200820E+03  0.25500000920E-02 0.  1.
    10030    2    1    2    0    0  0.00000000000E+00  0.00000000000E+00  0.12223175751E+04  0.17131015915E+04  0.12002736390E+04 0.  0.
        3    1    3    3  502    0  0.13002883535E+03  0.37721963596E+03  0.12509818144E+04  0.13130718419E+04  0.10100000352E+00 0. -1.
       -3    1    3    3    0  502 -0.13002883535E+03 -0.37721963596E+03 -0.28664239269E+02  0.40002974964E+03  0.10100000352E+00 0.  1.
</event>
<event>
 5   0  0.2244308E-04  0.1199366E+04  0.7818609E-02  0.9113412E-01
        1   -1    0    0  501    0  0.00000000000E+00  0.00000000000E+00  0.16740576701E+04  0.16740576701E+04  0.50400001928E-02 0.  1.
       -1   -1    0    0    0  501  0.00000000000E+00  0.00000000000E+00 -0.21481919699E+03  0.21481919705E+03  0.50400001928E-02 0. -1.
    10030    2    1    2    0    0  0.00000000000E+00  0.00000000000E+00  0.14592384731E+04  0.18888768672E+04  0.11993660400E+04 0.  0.
        5    1    3    3  502    0 -0.24080520568E+03  0.95989507363E+02  0.15812238128E+04  0.16023395298E+04  0.46999998093E+01 0.  1.
       -5    1    3    3    0  502  0.24080520568E+03 -0.95989507363E+02 -0.12198533968E+03  0.28653733736E+03  0.46999998093E+01 0. -1.
</event>
<event>
 5   0  0.3883890E-04  0.1200012E+04  0.7818609E-02  0.9112846E-01
        2   -1    0    0  501    0  0.00000000000E+00  0.00000000000E+00  0.11020274281E+04  0.11020274281E+04  0.25500000920E-02 0.  1.
       -2   -1    0    0    0  501  0.00000000000E+00  0.00000000000E+00 -0.32667720464E+03  0.32667720465E+03  0.25500000920E-02 0. -1.
    10030    2    1    2    0    0  0.00000000000E+00  0.00000000000E+00  0.77535022341E+03  0.14287046327E+04  0.12000120660E+04 0.  0.
        2    1    3    3  502    0  0.21202958981E+03  0.29554546820E+03  0.95579731008E+03  0.10226691394E+04  0.25500000920E-02 0.  1.
       -2    1    3    3    0  502 -0.21202958981E+03 -0.29554546820E+03 -0.18044708667E+03  0.40603549330E+03  0.25500000920E-02 0. -1.
</event>
<event>
 5   0  0.2315038E-04  0.1199019E+04  0.7818609E-02  0.9113716E-01
       -1   -1    0    0    0  501  0.00000000000E+00  0.00000000000E+00  0.44266373132E+03  0.44266373135E+03  0.50400001928E-02 0. -1.
        1   -1    0    0  501    0  0.00000000000E+00  0.00000000000E+00 -0.81192902687E+03  0.81192902688E+03  0.50400001928E-02 0.  1.
    10030    2    1    2    0    0  0.00000000000E+00  0.00000000000E+00 -0.36926529555E+03  0.12545927582E+04  0.11990188199E+04 0.  0.
        1    1    3    3  502    0  0.58722214198E+03 -0.74615524446E+02 -0.28397642361E+03  0.65653631256E+03  0.50400001928E-02 0.  1.
       -1    1    3    3    0  502 -0.58722214198E+03  0.74615524446E+02 -0.85288871934E+02  0.59805644568E+03  0.50400001928E-02 0. -1.
</event>
<event>
 5   0  0.1541375E-04  0.1196559E+04  0.7818609E-02  0.9115874E-01
       -3   -1    0    0    0  501  0.00000000000E+00  0.00000000000E+00  0.85066019807E+03  0.85066020407E+03  0.10100000352E+00 0.  1.
        3   -1    0    0  501    0  0.00000000000E+00  0.00000000000E+00 -0.42077716320E+03  0.42077717532E+03  0.10100000352E+00 0. -1.
    10030    2    1    2    0    0  0.00000000000E+00  0.00000000000E+00  0.42988303487E+03  0.12714373794E+04  0.11965590608E+04 0.  0.
        2    1    3    3  502    0  0.32891638671E+02 -0.20710736296E+03 -0.38044654630E+03  0.43441327591E+03  0.25500000920E-02 0. -1.
       -2    1    3    3    0  502 -0.32891638671E+02  0.20710736296E+03  0.81032958117E+03  0.83702410349E+03  0.25500000920E-02 0.  1.
</event>
<event>
 5   0  0.4024486E-04  0.1198846E+04  0.7818609E-02  0.9113868E-01
       -2   -1    0    0    0  501  0.00000000000E+00  0.00000000000E+00  0.26292262780E+03  0.26292262782E+03  0.25500000920E-02 0. -1.
        2   -1    0    0  501    0  0.00000000000E+00  0.00000000000E+00 -0.13665908360E+04  0.13665908360E+04  0.25500000920E-02 0.  1.
    10030    2    1    2    0    0  0.00000000000E+00  0.00000000000E+00 -0.11036682082E+04  0.16295134638E+04  0.11988455343E+04 0.  0.
        1    1    3    3  502    0  0.24388316430E+03  0.12052255781E+03 -0.12778529076E+04  0.13064887058E+04  0.50400001928E-02 0.  1.
       -1    1    3    3    0  502 -0.24388316430E+03 -0.12052255781E+03  0.17418469943E+03  0.32302475805E+03  0.50400001928E-02 0. -1.
</event>
<event>
 5   0  0.2204090E-04  0.1198581E+04  0.7818609E-02  0.9114099E-01
        1   -1    0    0  501    0  0.00000000000E+00  0.00000000000E+00  0.61725493028E+03  0.61725493031E+03  0.50400001928E-02 0.  1.
       -1   -1    0    0    0  501  0.00000000000E+00  0.00000000000E+00 -0.58184926504E+03  0.58184926506E+03  0.50400001928E-02 0. -1.
    10030    2    1    2    0    0  0.00000000000E+00  0.00000000000E+00  0.35405665242E+02  0.11991041954E+04  0.11985813741E+04 0.  0.
        2    1    3    3  502    0 -0.37308398305E+03 -0.25131505521E+03  0.41385335069E+03  0.61124914010E+03  0.25500000920E-02 0.  1.
       -2    1    3    3    0  502  0.37308398305E+03  0.25131505521E+03 -0.37844768544E+03  0.58785505527E+03  0.25500000920E-02 0. -1.
</event>
<event>
 5   0  0.2340731E-04  0.1200187E+04  0.7818609E-02  0.9112693E-01
       -1   -1    0    0    0  501  0.00000000000E+00  0.00000000000E+00  0.73756443555E+03  0.73756443557E+03  0.50400001928E-02 0. -1.
        1   -1    0    0  501    0  0.00000000000E+00  0.00000000000E+00 -0.48824500281E+03  0.48824500284E+03  0.50400001928E-02 0.  1.
    10030    2    1    2    0    0  0.00000000000E+00  0.00000000000E+00  0.24931943274E+03  0.12258094384E+04  0.12001869020E+04 0.  0.
        3    1    3    3  502    0 -0.39651718699E+03  0.45035416056E+03  0.11627530601E+03  0.61119939995E+03  0.10100000352E+00 0.  1.
       -3    1    3    3    0  502  0.39651718699E+03 -0.45035416056E+03  0.13304412673E+03  0.61461003846E+03  0.10100000352E+00 0. -1.
</event>
<event>
 5   0  0.2244308E-04  0.1201592E+04  0.7818609E-02  0.9111464E-01
        1   -1    0    0  501    0  0.00000000000E+00  0.00000000000E+00  0.93895850759E+03  0.93895850760E+03  0.50400001928E-02 0. -1.
       -1   -1    0    0    0  501  0.00000000000E+00  0.00000000000E+00 -0.38442138516E+03  0.38442138519E+03  0.50400001928E-02 0.  1.
    10030    2    1    2    0    0  0.00000000000E+00  0.00000000000E+00  0.55453712243E+03  0.13233798928E+04  0.12015918277E+04 0.  0.
        5    1    3    3  502    0 -0.15839218345E+03  0.50101936556E+03 -0.43498590834E+02  0.52727858467E+03  0.46999998093E+01 0.  1.
       -5    1    3    3    0  502  0.15839218345E+03 -0.50101936556E+03  0.59803571327E+03  0.79610130812E+03  0.46999998093E+01 0. -1.
</event>
<event>
 5   0  0.2204090E-04  0.1199890E+04  0.7818609E-02  0.9112953E-01
        1   -1    0    0  501    0  0.00000000000E+00  0.00000000000E+00  0.15123789216E+04  0.15123789216E+04  0.50400001928E-02 0.  1.
       -1   -1    0    0    0  501  0.00000000000E+00  0.00000000000E+00 -0.23799199104E+03  0.23799199110E+03  0.50400001928E-02 0. -1.
    10030    2    1    2    0    0  0.00000000000E+00  0.00000000000E+00  0.12743869305E+04  0.17503709127E+04  0.11998901130E+04 0.  0.
        2    1    3    3  502    0 -0.21891199547E+03 -0.60402196838E+02  0.14472584747E+04  0.14649668869E+04  0.25500000920E-02 0.  1.
       -2    1    3    3    0  502  0.21891199547E+03  0.60402196838E+02 -0.17287154416E+03  0.28540402578E+03  0.25500000920E-02 0. -1.
</event>
<event>
 5   0  0.3832662E-04  0.1199826E+04  0.7818609E-02  0.9113008E-01
       -2   -1    0    0    0  501  0.00000000000E+00  0.00000000000E+00  0.25141281281E+03  0.25141281283E+03  0.25500000920E-02 0. -1.
        2   -1    0    0  501    0  0.00000000000E+00  0.00000000000E+00 -0.14314937541E+04  0.14314937541E+04  0.25500000920E-02 0.  1.
    10030    2    1    2    0    0  0.00000000000E+00  0.00000000000E+00 -0.11800809413E+04  0.16829065669E+04  0.11998264395E+04 0.  0.
        4    1    3    3  502    0 -0.18535029217E+03 -0.31246213156E+01 -0.13903111938E+04  0.14026158856E+04  0.12699999809E+01 0.  1.
       -4    1    3    3    0  502  0.18535029217E+03  0.31246213156E+01  0.21023025251E+03  0.28029068132E+03  0.12699999809E+01 0. -1.
</event>
<event>
 5   0  0.2304842E-04  0.1202271E+04  0.7818609E-02  0.9110871E-01
        1   -1    0    0  501    0  0.00000000000E+00  0.00000000000E+00  0.16985626263E+04  0.16985626263E+04  0.50400001928E-02 0.  1.
       -1   -1    0    0    0  501  0.00000000000E+00  0.00000000000E+00 -0.21274701821E+03  0.21274701827E+03  0.50400001928E-02 0. -1.
    10030    2    1    2    0    0  0.00000000000E+00  0.00000000000E+00  0.14858156081E+04  0.19113096446E+04  0.12022714071E+04 0.  0.
        4    1    3    3  502    0  0.52276407299E+03  0.29450673128E+03  0.68458264078E+03  0.91031395449E+03  0.12699999809E+01 0. -1.
       -4    1    3    3    0  502 -0.52276407299E+03 -0.29450673128E+03  0.80123296731E+03  0.10009956901E+04  0.12699999809E+01 0.  1.
</event>
<event>
 5   0  0.2340731E-04  0.1204057E+04  0.7818609E-02  0.9109313E-01
        1   -1    0    0  501    0  0.00000000000E+00  0.00000000000E+00  0.44299054175E+03  0.44299054178E+03  0.50400001928E-02 0.  1.
       -1   -1    0    0    0  501  0.00000000000E+00  0.00000000000E+00 -0.81816233949E+03  0.81816233951E+03  0.50400001928E-02 0. -1.
    10030    2    1    2    0    0  0.00000000000E+00  0.00000000000E+00 -0.37517179774E+03  0.12611528813E+04  0.12040567728E+04 0.  0.
        3    1    3    3  502    0 -0.41124429259E+03 -0.19499316956E+03 -0.60034633119E+03  0.75336573584E+03  0.10100000352E+00 0. -1.
       -3    1    3    3    0  502  0.41124429259E+03  0.19499316956E+03  0.22517453345E+03  0.50778714545E+03  0.10100000352E+00 0.  1.
</event>
<event>
 5   0  0.1541375E-04  0.1202542E+04  0.7818609E-02  0.9110635E-01
        4   -1    0    0  501    0  0.00000000000E+00  0.00000000000E+00  0.49711184849E+03  0.49711347075E+03  0.12699999809E+01 0. -1.
       -4   -1    0    0    0  501  0.00000000000E+00  0.00000000000E+00 -0.72725089624E+03  0.72725200514E+03  0.12699999809E+01 0.  1.
    10030    2    1    2    0    0  0.00000000000E+00  0.00000000000E+00 -0.23013904775E+03  0.12243654759E+04  0.12025418235E+04 0.  0.
        2    1    3    3  502    0 -0.59522466285E+03 -0.59297930602E+02 -0.52986994656E+02  0.60051333495E+03  0.25500000920E-02 0.  1.
       -2    1    3    3    0  502  0.59522466285E+03  0.59297930602E+02 -0.17715205310E+03  0.62385214095E+03  0.25500000920E-02 0. -1.
</event>
<event>
 5   0  0.4024486E-04  0.1202427E+04  0.7818609E-02  0.9110735E-01
       -2   -1    0    0    0  501  0.00000000000E+00  0.00000000000E+00  0.45325335804E+03  0.45325335805E+03  0.25500000920E-02 0. -1.
        2   -1    0    0  501    0  0.00000000000E+00  0.00000000000E+00 -0.79747325024E+03  0.79747325024E+03  0.25500000920E-02 0.  1.
    10030    2    1    2    0    0  0.00000000000E+00  0.00000000000E+00 -0.34421989219E+03  0.12507266083E+04  0.12024265942E+04 0.  0.
        1    1    3    3  502    0  0.46436220670E+03 -0.26067387876E+03 -0.46237910201E+03  0.70525000112E+03  0.50400001928E-02 0.  1.
       -1    1    3    3    0  502 -0.46436220670E+03  0.26067387876E+03  0.11815920982E+03  0.54547660717E+03  0.50400001928E-02 0. -1.
</event>
<event>
 5   0  0.3993723E-04  0.1200482E+04  0.7818609E-02  0.9112435E-01
       -2   -1    0    0    0  501  0.00000000000E+00  0.00000000000E+00  0.92824944268E+03  0.92824944268E+03  0.25500000920E-02 0. -1.
        2   -1    0    0  501    0  0.00000000000E+00  0.00000000000E+00 -0.38813841005E+03  0.38813841006E+03  0.25500000920E-02 0.  1.
    10030    2    1    2    0    0  0.00000000000E+00  0.00000000000E+00  0.54011103262E+03  0.13163878527E+04  0.12004820079E+04 0.  0.
        3    1    3    3  502    0  0.27353093710E+03 -0.32893155242E+03 -0.19163491206E+03  0.46876336189E+03  0.10100000352E+00 0.  1.
       -3    1    3    3    0  502 -0.27353093710E+03  0.32893155242E+03  0.73174594468E+03  0.84762449085E+03  0.10100000352E+00 0. -1.
</event>
<event>
 5   0  0.3993723E-04  0.1202199E+04  0.7818609E-02  0.9110934E-01
        2   -1    0    0  501    0  0.00000000000E+00  0.00000000000E+00  0.52075201182E+03  0.52075201183E+03  0.25500000920E-02 0. -1.
       -2   -1    0    0    0  501  0.00000000000E+00  0.00000000000E+00 -0.69384427447E+03  0.69384427447E+03  0.25500000920E-02 0.  1.
    10030    2    1    2    0    0  0.00000000000E+00  0.00000000000E+00 -0.17309226265E+03  0.12145962863E+04  0.12021993210E+04 0.  0.
        3    1    3    3  502    0  0.37991943284E+03 -0.39839659813E+03 -0.33041074535E+03  0.64205131859E+03  0.10100000352E+00 0.  1.
       -3    1    3    3    0  502 -0.37991943284E+03  0.39839659813E+03  0.15731848270E+03  0.57254496772E+03  0.10100000352E+00 0. -1.
</event>
<event>
 5   0  0.2304842E-04  0.1200307E+04  0.7818609E-02  0.9112588E-01
       -1   -1    0    0    0  501  0.00000000000E+00  0.00000000000E+00  0.24574410042E+03  0.24574410047E+03  0.50400001928E-02 0. -1.
        1   -1    0    0  501    0  0.00000000000E+00  0.00000000000E+00 -0.14656874548E+04  0.14656874549E+04  0.50400001928E-02 0.  1.
    10030    2    1    2    0    0  0.00000000000E+00  0.00000000000E+00 -0.12199433544E+04  0.17114315553E+04  0.12003067027E+04 0.  0.
        4    1    3    3  502    0  0.28344139323E+03  0.22702234996E+03 -0.12912495958E+04  0.13413445875E+04  0.12699999809E+01 0.  1.
       -4    1    3    3    0  502 -0.28344139323E+03 -0.22702234996E+03  0.71306241422E+02  0.37008696781E+03  0.12699999809E+01 0. -1.
</event>
<event>
 5   0  0.4024486E-04  0.1186456E+04  0.7818609E-02  0.9124794E-01
       -2   -1    0    0    0  501  0.00000000000E+00  0.00000000000E+00  0.35712019803E+03  0.35712019804E+03  0.25500000920E-02 0. -1.
        2   -1    0    0  501    0  0.00000000000E+00  0.00000000000E+00 -0.98543783744E+03  0.98543783745E+03  0.25500000920E-02 0.  1.
    10030    2    1    2    0    0  0.00000000000E+00  0.00000000000E+00 -0.62831763941E+03  0.13425580355E+04  0.11864564984E+04 0.  0.
        1    1    3    3  502    0  0.50392911394E+03 -0.31291632438E+03 -0.32281940819E+03  0.67533217625E+03  0.50400001928E-02 0. -1.
       -1    1    3    3    0  502 -0.50392911394E+03  0.31291632438E+03 -0.30549823122E+03  0.66722585925E+03  0.50400001928E-02 0.  1.
</event>
<event>
 5   0  0.2204090E-04  0.1199260E+04  0.7818609E-02  0.9113504E-01
       -1   -1    0    0    0  501  0.00000000000E+00  0.00000000000E+00  0.95790710623E+03  0.95790710625E+03  0.50400001928E-02 0.  1.
        1   -1    0    0  501    0  0.00000000000E+00  0.00000000000E+00 -0.37535602064E+03  0.37535602068E+03  0.50400001928E-02 0. -1.
    10030    2    1    2    0    0  0.00000000000E+00  0.00000000000E+00  0.58255108559E+03  0.13332631269E+04  0.11992601045E+04 0.  0.
        2    1    3    3  502    0 -0.41648613436E+03  0.30968136191E+03 -0.42603213003E+02  0.52074780825E+03  0.25500000920E-02 0. -1.
       -2    1    3    3    0  502  0.41648613436E+03 -0.30968136191E+03  0.62515429859E+03  0.81251531868E+03  0.25500000920E-02 0.  1.
</event>
<event>
 5   0  0.2315038E-04  0.1205851E+04  0.7818609E-02  0.9107751E-01
       -1   -1    0    0    0  501  0.00000000000E+00  0.00000000000E+00  0.42682104497E+03  0.42682104500E+03  0.50400001928E-02 0. -1.
        1   -1    0    0  501    0  0.00000000000E+00  0.00000000000E+00 -0.85168991702E+03  0.85168991704E+03  0.50400001928E-02 0.  1.
    10030    2    1    2    0    0  0.00000000000E+00  0.00000000000E+00 -0.42486887205E+03  0.12785109620E+04  0.12058510362E+04 0.  0.
        1    1    3    3  502    0  0.60106076207E+03 -0.33030483189E+01 -0.16231862207E+03  0.62260122464E+03  0.50400001928E-02 0. -1.
       -1    1    3    3    0  502 -0.60106076207E+03  0.33030483189E+01 -0.26255024998E+03  0.65590973740E+03  0.50400001928E-02 0.  1.
</event>
<event>
 5   0  0.2244308E-04  0.1194467E+04  0.7818609E-02  0.9117713E-01
       -1   -1    0    0    0  501  0.00000000000E+00  0.00000000000E+00  0.39824866461E+03  0.39824866465E+03  0.50400001928E-02 0. -1.
        1   -1    0    0  501    0  0.00000000000E+00  0.00000000000E+00 -0.89564137252E+03  0.89564137254E+03  0.50400001928E-02 0.  1.
    10030    2    1    2    0    0  0.00000000000E+00  0.00000000000E+00 -0.49739270791E+03  0.12938900372E+04  0.11944672128E+04 0.  0.
        5    1    3    3  502    0 -0.43175428073E+02  0.20879263350E+03 -0.85299010005E+03  0.87924551872E+03  0.46999998093E+01 0.  1.
       -5    1    3    3    0  502  0.43175428073E+02 -0.20879263350E+03  0.35559739215E+03  0.41464451847E+03  0.46999998093E+01 0. -1.
</event>
<event>
 5   0  0.3883890E-04  0.1200149E+04  0.7818609E-02  0.9112726E-01
       -2   -1    0    0    0  501  0.00000000000E+00  0.00000000000E+00  0.23907341256E+04  0.23907341256E+04  0.25500000920E-02 0.  1.
        2   -1    0    0  501    0  0.00000000000E+00  0.00000000000E+00 -0.15061871781E+03  0.15061871783E+03  0.25500000920E-02 0. -1.
    10030    2    1    2    0    0  0.00000000000E+00  0.00000000000E+00  0.22401154078E+04  0.25413528434E+04  0.12001488385E+04 0.  0.
        2    1    3    3  502    0  0.17951401267E+03  0.21119609690E+03  0.22470544564E+04  0.22640854229E+04  0.25500000920E-02 0.  1.
       -2    1    3    3    0  502 -0.17951401267E+03 -0.21119609690E+03 -0.69390486188E+01  0.27726742054E+03  0.25500000920E-02 0. -1.
</event>
<event>
 5   0  0.3832662E-04  0.1197775E+04  0.7818609E-02  0.9114806E-01
        2   -1    0    0  501    0  0.00000000000E+00  0.00000000000E+00  0.11924818367E+04  0.11924818367E+04  0.25500000920E-02 0.  1.
       -2   -1    0    0    0  501  0.00000000000E+00  0.00000000000E+00 -0.30077302218E+03  0.30077302219E+03  0.25500000920E-02 0. -1.
    10030    2    1    2    0    0  0.00000000000E+00  0.00000000000E+00  0.89170881456E+03  0.14932548589E+04  0.11977752142E+04 0.  0.
        4    1    3    3  502    0  0.53328959412E+03  0.25451117768E+03  0.32439948758E+03  0.67409967453E+03  0.12699999809E+01 0. -1.
       -4    1    3    3    0  502 -0.53328959412E+03 -0.25451117768E+03  0.56730932698E+03  0.81915518440E+03  0.12699999809E+01 0.  1.
</event>
<event>
 5   0  0.3993723E-04  0.1199229E+04  0.7818609E-02  0.9113531E-01
        2   -1    0    0  501    0  0.00000000000E+00  0.00000000000E+00  0.50095450998E+03  0.50095450999E+03  0.25500000920E-02 0.  1.
       -2   -1    0    0    0  501  0.00000000000E+00  0.00000000000E+00 -0.71770523451E+03  0.71770523451E+03  0.25500000920E-02 0. -1.
    10030    2    1    2    0    0  0.00000000000E+00  0.00000000000E+00 -0.21675072453E+03  0.12186597445E+04  0.11992292092E+04 0.  0.
        3    1    3    3  502    0  0.23626425164E+03  0.47572473688E+03 -0.39109678717E+03  0.65961468224E+03  0.10100000352E+00 0. -1.
       -3    1    3    3    0  502 -0.23626425164E+03 -0.47572473688E+03  0.17434606264E+03  0.55904506227E+03  0.10100000352E+00 0.  1.
</event>
<event>
 5   0  0.2244308E-04  0.1204256E+04  0.7818609E-02  0.9109140E-01
       -1   -1    0    0    0  501  0.00000000000E+00  0.00000000000E+00  0.31766262573E+03  0.31766262577E+03  0.50400001928E-02 0. -1.
        1   -1    0    0  501    0  0.00000000000E+00  0.00000000000E+00 -0.11413303919E+04  0.11413303919E+04  0.50400001928E-02 0.  1.
    10030    2    1    2    0    0  0.00000000000E+00  0.00000000000E+00 -0.82366776619E+03  0.14589930177E+04  0.12042558020E+04 0.  0.
        5    1    3    3  502    0  0.21343347805E+03  0.91470944244E+02  0.26120952830E+03  0.34953296105E+03  0.46999998093E+01 0. -1.
       -5    1    3    3    0  502 -0.21343347805E+03 -0.91470944244E+02 -0.10848772945E+04  0.11094600566E+04  0.46999998093E+01 0.  1.
</event>
<event>
 5   0  0.1541375E-04  0.1205565E+04  0.7818609E-02  0.9107999E-01
       -4   -1    0    0    0  501  0.00000000000E+00  0.00000000000E+00  0.45532184820E+03  0.45532361937E+03  0.12699999809E+01 0. -1.
        4   -1    0    0  501    0  0.00000000000E+00  0.00000000000E+00 -0.79799642564E+03  0.79799743623E+03  0.12699999809E+01 0.  1.
    10030    2    1    2    0    0  0.00000000000E+00  0.00000000000E+00 -0.34267457744E+03  0.12533210556E+04  0.12055653455E+04 0.  0.
        2    1    3    3  502    0  0.24561019628E+03  0.27384257528E+03 -0.66778128742E+03  0.76239489268E+03  0.25500000920E-02 0.  1.
       -2    1    3    3    0  502 -0.24561019628E+03 -0.27384257528E+03  0.32510670999E+03  0.49092616292E+03  0.25500000920E-02 0. -1.
</event>
<event>
 5   0  0.3832662E-04  0.1198024E+04  0.7818609E-02  0.9114588E-01
       -2   -1    0    0    0  501  0.00000000000E+00  0.00000000000E+00  0.24178656929E+03  0.24178656930E+03  0.25500000920E-02 0.  1.
        2   -1    0    0  501    0  0.00000000000E+00  0.00000000000E+00 -0.14840175854E+04  0.14840175854E+04  0.25500000920E-02 0. -1.
    10030    2    1    2    0    0  0.00000000000E+00  0.00000000000E+00 -0.12422310161E+04  0.17258041547E+04  0.11980242414E+04 0.  0.
        4    1    3    3  502    0 -0.54288970543E+03 -0.18810814238E+03 -0.37707221842E+03  0.68724011546E+03  0.12699999809E+01 0.  1.
       -4    1    3    3    0  502  0.54288970543E+03  0.18810814238E+03 -0.86515879773E+03  0.10385640393E+04  0.12699999809E+01 0. -1.
</event>
<event>
 5   0  0.4024486E-04  0.1199682E+04  0.7818609E-02  0.9113135E-01
       -2   -1    0    0    0  501  0.00000000000E+00  0.00000000000E+00  0.44804234948E+03  0.44804234948E+03  0.25500000920E-02 0. -1.
        2   -1    0    0  501    0  0.00000000000E+00  0.00000000000E+00 -0.80306941699E+03  0.80306941700E+03  0.25500000920E-02 0.  1.
    10030    2    1    2    0    0  0.00000000000E+00  0.00000000000E+00 -0.35502706752E+03  0.12511117665E+04  0.11996818051E+04 0.  0.
        1    1    3    3  502    0  0.43515635419E+03  0.15076077197E+03 -0.57833278887E+03  0.73929606902E+03  0.50400001928E-02 0.  1.
       -1    1    3    3    0  502 -0.43515635419E+03 -0.15076077197E+03  0.22330572135E+03  0.51181569746E+03  0.50400001928E-02 0. -1.
</event>
<event>
 5   0  0.2304842E-04  0.1201072E+04  0.7818609E-02  0.9111918E-01
        1   -1    0    0  501    0  0.00000000000E+00  0.00000000000E+00  0.89450818550E+03  0.89450818551E+03  0.50400001928E-02 0.  1.
       -1   -1    0    0    0  501  0.00000000000E+00  0.00000000000E+00 -0.40317536016E+03  0.40317536019E+03  0.50400001928E-02 0. -1.
    10030    2    1    2    0    0  0.00000000000E+00  0.00000000000E+00  0.49133282534E+03  0.12976835457E+04  0.12010722874E+04 0.  0.
        4    1    3    3  502    0  0.39762656270E+03 -0.32151672251E+03 -0.94563616345E+02  0.52002286166E+03  0.12699999809E+01 0. -1.
       -4    1    3    3    0  502 -0.39762656270E+03  0.32151672251E+03  0.58589644169E+03  0.77766068404E+03  0.12699999809E+01 0.  1.
</event>
<event>
 5   0  0.2244308E-04  0.1200161E+04  0.7818609E-02  0.9112716E-01
       -1   -1    0    0    0  501  0.00000000000E+00  0.00000000000E+00  0.38306128283E+03  0.38306128286E+03  0.50400001928E-02 0. -1.
        1   -1    0    0  501    0  0.00000000000E+00  0.00000000000E+00 -0.94004913583E+03  0.94004913585E+03  0.50400001928E-02 0.  1.
    10030    2    1    2    0    0  0.00000000000E+00  0.00000000000E+00 -0.55698785300E+03  0.13231104187E+04  0.12001607024E+04 0.  0.
        5    1    3    3  502    0  0.35541940636E+03  0.37132409610E+03  0.62854256734E+02  0.51785836515E+03  0.46999998093E+01 0.  1.
       -5    1    3    3    0  502 -0.35541940636E+03 -0.37132409610E+03 -0.61984210974E+03  0.80525205356E+03  0.46999998093E+01 0. -1.
</event>
<event>
 5   0  0.4122956E-04  0.1199741E+04  0.7818609E-02  0.9113084E-01
        2   -1    0    0  501    0  0.00000000000E+00  0.00000000000E+00  0.11286680134E+04  0.11286680134E+04  0.25500000920E-02 0.  1.
       -2   -1    0    0    0  501  0.00000000000E+00  0.00000000000E+00 -0.31882219499E+03  0.31882219500E+03  0.25500000920E-02 0. -1.
    10030    2    1    2    0    0  0.00000000000E+00  0.00000000000E+00  0.80984581842E+03  0.14474902084E+04  0.11997406611E+04 0.  0.
        5    1    3    3  502    0 -0.37010755546E+03  0.20593647964E+03  0.91741374736E+03  0.10104748934E+04  0.46999998093E+01 0.  1.
       -5    1    3    3    0  502  0.37010755546E+03 -0.20593647964E+03 -0.10756792895E+03  0.43701531506E+03  0.46999998093E+01 0. -1.
</event>
<event>
 5   0  0.4122956E-04  0.1199984E+04  0.7818609E-02  0.9112870E-01
        2   -1    0    0  501    0  0.00000000000E+00  0.00000000000E+00  0.79371312778E+03  0.79371312778E+03  0.25500000920E-02 0.  1.
       -2   -1    0    0    0  501  0.00000000000E+00  0.00000000000E+00 -0.45355258803E+03  0.45355258803E+03  0.25500000920E-02 0. -1.
    10030    2    1    2    0    0  0.00000000000E+00  0.00000000000E+00  0.34016053975E+03  0.12472657158E+04  0.11999844053E+04 0.  0.
        5    1    3    3  502    0 -0.48867258618E+03 -0.85220829941E+02 -0.18071594974E+03  0.52796195964E+03  0.46999998093E+01 0. -1.
       -5    1    3    3    0  502  0.48867258618E+03  0.85220829941E+02  0.52087648950E+03  0.71930375617E+03  0.46999998093E+01 0.  1.
</event>
<event>
 5   0  0.4122956E-04  0.1202053E+04  0.7818609E-02  0.9111062E-01
        2   -1    0    0  501    0  0.00000000000E+00  0.00000000000E+00  0.12372046550E+04  0.12372046550E+04  0.25500000920E-02 0. -1.
       -2   -1    0    0    0  501  0.00000000000E+00  0.00000000000E+00 -0.29197497950E+03  0.29197497951E+03  0.25500000920E-02 0.  1.
    10030    2    1    2    0    0  0.00000000000E+00  0.00000000000E+00  0.94522967547E+03  0.15291796345E+04  0.12020529170E+04 0.  0.
        5    1    3    3  502    0 -0.54331891851E+03  0.21361372284E+03  0.29098618818E+03  0.65231995332E+03  0.46999998093E+01 0.  1.
       -5    1    3    3    0  502  0.54331891851E+03 -0.21361372284E+03  0.65424348729E+03  0.87685968117E+03  0.46999998093E+01 0. -1.
</event>
<event>
 5   0  0.3832662E-04  0.1197114E+04  0.7818609E-02  0.9115386E-01
       -2   -1    0    0    0  501  0.00000000000E+00  0.00000000000E+00  0.52417543593E+03  0.52417543594E+03  0.25500000920E-02 0.  1.
        2   -1    0    0  501    0  0.00000000000E+00  0.00000000000E+00 -0.68349340462E+03  0.68349340462E+03  0.25500000920E-02 0. -1.
    10030    2    1    2    0    0  0.00000000000E+00  0.00000000000E+00 -0.15931796868E+03  0.12076688406E+04  0.11971139517E+04 0.  0.
        4    1    3    3  502    0 -0.40639466247E+03 -0.43792670088E+03 -0.42834769524E+02  0.59897649988E+03  0.12699999809E+01 0.  1.
       -4    1    3    3    0  502  0.40639466247E+03  0.43792670088E+03 -0.11648319916E+03  0.60869234069E+03  0.12699999809E+01 0. -1.
</event>
<event>
 5   0  0.3832662E-04  0.1195161E+04  0.7818609E-02  0.9117102E-01
       -2   -1    0    0    0  501  0.00000000000E+00  0.00000000000E+00  0.67909084188E+03  0.67909084189E+03  0.25500000920E-02 0.  1.
        2   -1    0    0  501    0  0.00000000000E+00  0.00000000000E+00 -0.52585413008E+03  0.52585413008E+03  0.25500000920E-02 0. -1.
    10030    2    1    2    0    0  0.00000000000E+00  0.00000000000E+00  0.15323671181E+03  0.12049449720E+04  0.11951614517E+04 0.  0.
        4    1    3    3  502    0 -0.40115471320E+03  0.23760889415E+03  0.45346690599E+03  0.65039752323E+03  0.12699999809E+01 0.  1.
       -4    1    3    3    0  502  0.40115471320E+03 -0.23760889415E+03 -0.30023019418E+03  0.55454744874E+03  0.12699999809E+01 0. -1.
</event>
<event>
 5   0  0.2244308E-04  0.1200590E+04  0.7818609E-02  0.9112341E-01
        1   -1    0    0  501    0  0.00000000000E+00  0.00000000000E+00  0.56937596342E+03  0.56937596345E+03  0.50400001928E-02 0. -1.
       -1   -1    0    0    0  501  0.00000000000E+00  0.00000000000E+00 -0.63289253606E+03  0.63289253608E+03  0.50400001928E-02 0.  1.
    10030    2    1    2    0    0  0.00000000000E+00  0.00000000000E+00 -0.63516572632E+02  0.12022684995E+04  0.12005895177E+04 0.  0.
        5    1    3    3  502    0 -0.33802349697E+02 -0.38534551444E+03 -0.49141866355E+03  0.62541838575E+03  0.46999998093E+01 0.  1.
       -5    1    3    3    0  502  0.33802349697E+02  0.38534551444E+03  0.42790209092E+03  0.57685011377E+03  0.46999998093E+01 0. -1.
</event>
<event>
 5   0  0.4024486E-04  0.1197178E+04  0.7818609E-02  0.9115330E-01
       -2   -1    0    0    0  501  0.00000000000E+00  0.00000000000E+00  0.20114235760E+03  0.20114235762E+03  0.25500000920E-02 0.  1.
        2   -1    0    0  501    0  0.00000000000E+00  0.00000000000E+00 -0.17813685729E+04  0.17813685729E+04  0.25500000920E-02 0. -1.
    10030    2    1    2    0    0  0.00000000000E+00  0.00000000000E+00 -0.15802262153E+04  0.19825109305E+04  0.11971778055E+04 0.  0.
        1    1    3    3  502    0  0.54862567413E+03  0.95269724421E+02 -0.11538359641E+04  0.12811728543E+04  0.50400001928E-02 0. -1.
       -1    1    3    3    0  502 -0.54862567413E+03 -0.95269724421E+02 -0.42639025120E+03  0.70133807615E+03  0.50400001928E-02 0.  1.
</event>
<event>
 5   0  0.3883890E-04  0.1202613E+04  0.7818609E-02  0.9110573E-01
        2   -1    0    0  501    0  0.00000000000E+00  0.00000000000E+00  0.14669980589E+04  0.14669980589E+04  0.25500000920E-02 0.  1.
       -2   -1    0    0    0  501  0.00000000000E+00  0.00000000000E+00 -0.24646886821E+03  0.24646886822E+03  0.25500000920E-02 0. -1.
    10030    2    1    2    0    0  0.00000000000E+00  0.00000000000E+00  0.12205291907E+04  0.17134669271E+04  0.12026127411E+04 0.  0.
        2    1    3    3  502    0  0.34493143715E+03 -0.67708687943E+02 -0.84831682033E+02  0.36160555449E+03  0.25500000920E-02 0. -1.
       -2    1    3    3    0  502 -0.34493143715E+03  0.67708687943E+02  0.13053608728E+04  0.13518613727E+04  0.25500000920E-02 0.  1.
</event>
<event>
 5   0  0.2315038E-04  0.1193651E+04  0.7818609E-02  0.9118432E-01
        1   -1    0    0  501    0  0.00000000000E+00  0.00000000000E+00  0.16761462201E+04  0.16761462201E+04  0.50400001928E-02 0.  1.
       -1   -1    0    0    0  501  0.00000000000E+00  0.00000000000E+00 -0.21251154248E+03  0.21251154254E+03  0.50400001928E-02 0. -1.
    10030    2    1    2    0    0  0.00000000000E+00  0.00000000000E+00  0.14636346776E+04  0.18886577626E+04  0.11936505665E+04 0.  0.
        1    1    3    3  502    0 -0.25662618695E+03  0.43405093522E+03  0.12370078678E+04  0.13358314561E+04  0.50400001928E-02 0.  1.
       -1    1    3    3    0  502  0.25662618695E+03 -0.43405093522E+03  0.22662680980E+03  0.55282630649E+03  0.50400001928E-02 0. -1.
</event>
<event>
 5   0  0.4122956E-04  0.1180044E+04  0.7818609E-02  0.9130505E-01
       -2   -1    0    0    0  501  0.00000000000E+00  0.00000000000E+00  0.18917926446E+03  0.18917926448E+03  0.25500000920E-02 0. -1.
        2   -1    0    0  501    0  0.00000000000E+00  0.00000000000E+00 -0.18401916754E+04  0.18401916754E+04  0.25500000920E-02 0.  1.
    10030    2    1    2    0    0  0.00000000000E+00  0.00000000000E+00 -0.16510124109E+04  0.20293709398E+04  0.11800442494E+04 0.  0.
        5    1    3    3  502    0  0.20871214662E+03  0.50455910387E+03 -0.44110123179E+03  0.70194945411E+03  0.46999998093E+01 0. -1.
       -5    1    3    3    0  502 -0.20871214662E+03 -0.50455910387E+03 -0.12099111791E+04  0.13274214857E+04  0.46999998093E+01 0.  1.
</event>
<event>
 5   0  0.3883890E-04  0.1199053E+04  0.7818609E-02  0.9113686E-01
        2   -1    0    0  501    0  0.00000000000E+00  0.00000000000E+00  0.12958977965E+04  0.12958977965E+04  0.25500000920E-02 0. -1.
       -2   -1    0    0    0  501  0.00000000000E+00  0.00000000000E+00 -0.27736124232E+03  0.27736124233E+03  0.25500000920E-02 0.  1.
    10030    2    1    2    0    0  0.00000000000E+00  0.00000000000E+00  0.10185365542E+04  0.15732590389E+04  0.11990526640E+04 0.  0.
        2    1    3    3  502    0  0.55726930838E+03  0.16327639249E+03  0.31366830168E+03  0.65999701961E+03  0.25500000920E-02 0.  1.
       -2    1    3    3    0  502 -0.55726930838E+03 -0.16327639249E+03  0.70486825253E+03  0.91326201926E+03  0.25500000920E-02 0. -1.
</event>
<event>
 5   0  0.2315038E-04  0.1203813E+04  0.7818609E-02  0.9109526E-01
        1   -1    0    0  501    0  0.00000000000E+00  0.00000000000E+00  0.97716112820E+03  0.97716112821E+03  0.50400001928E-02 0.  1.
       -1   -1    0    0    0  501  0.00000000000E+00  0.00000000000E+00 -0.37075918883E+03  0.37075918886E+03  0.50400001928E-02 0. -1.
    10030    2    1    2    0    0  0.00000000000E+00  0.00000000000E+00  0.60640193937E+03  0.13479203171E+04  0.12038130541E+04 0.  0.
        1    1    3    3  502    0 -0.20688006761E+03  0.14920054906E+03  0.91365426464E+03  0.94859068177E+03  0.50400001928E-02 0.  1.
       -1    1    3    3    0  502  0.20688006761E+03 -0.14920054906E+03 -0.30725232528E+03  0.39932963530E+03  0.50400001928E-02 0. -1.
</event>
<event>
 5   0  0.4122956E-04  0.1196729E+04  0.7818609E-02  0.9115725E-01
       -2   -1    0    0    0  501  0.00000000000E+00  0.00000000000E+00  0.41642143597E+03  0.41642143598E+03  0.25500000920E-02 0.  1.
        2   -1    0    0  501    0  0.00000000000E+00  0.00000000000E+00 -0.85980209441E+03  0.85980209441E+03  0.25500000920E-02 0. -1.
    10030    2    1    2    0    0  0.00000000000E+00  0.00000000000E+00 -0.44338065844E+03  0.12762235304E+04  0.11967289130E+04 0.  0.
        5    1    3    3  502    0  0.43420510082E+03 -0.37806694329E+03 -0.47927415901E+02  0.57774372379E+03  0.46999998093E+01 0. -1.
       -5    1    3    3    0  502 -0.43420510082E+03  0.37806694329E+03 -0.39545324254E+03  0.69847980659E+03  0.46999998093E+01 0.  1.
</event>
<event>
 5   0  0.4122956E-04  0.1198253E+04  0.7818609E-02  0.9114387E-01
       -2   -1    0    0    0  501  0.00000000000E+00  0.00000000000E+00  0.14678308927E+03  0.14678308929E+03  0.25500000920E-02 0.  1.
        2   -1    0    0  501    0  0.00000000000E+00  0.00000000000E+00 -0.24454625837E+04  0.24454625837E+04  0.25500000920E-02 0. -1.
    10030    2    1    2    0    0  0.00000000000E+00  0.00000000000E+00 -0.22986794944E+04  0.25922456730E+04  0.11982529829E+04 0.  0.
        5    1    3    3  502    0 -0.38601320283E+03 -0.79226145374E+02 -0.17307598742E+03  0.43041882195E+03  0.46999998093E+01 0.  1.
       -5    1    3    3    0  502  0.38601320283E+03  0.79226145374E+02 -0.21256035070E+04  0.21618268511E+04  0.46999998093E+01 0. -1.
</event>
<event>
 5   0  0.3993723E-04  0.1199780E+04  0.7818609E-02  0.9113049E-01
        2   -1    0    0  501    0  0.00000000000E+00  0.00000000000E+00  0.10685840396E+04  0.10685840396E+04  0.25500000920E-02 0.  1.
       -2   -1    0    0    0  501  0.00000000000E+00  0.00000000000E+00 -0.33677110316E+03  0.33677110317E+03  0.25500000920E-02 0. -1.
    10030    2    1    2    0    0  0.00000000000E+00  0.00000000000E+00  0.73181293646E+03  0.14053551428E+04  0.11997803563E+04 0.  0.
        3    1    3    3  502    0  0.19194902043E+03  0.40378678503E+03  0.83441468880E+03  0.94664464150E+03  0.10100000352E+00 0.  1.
       -3    1    3    3    0  502 -0.19194902043E+03 -0.40378678503E+03 -0.10260175234E+03  0.45871050129E+03  0.10100000352E+00 0. -1.
</event>
<event>
 5   0  0.1541375E-04  0.1199927E+04  0.7818609E-02  0.9112920E-01
        4   -1    0    0  501    0  0.00000000000E+00  0.00000000000E+00  0.82069057895E+03  0.82069156160E+03  0.12699999809E+01 0.  1.
       -4   -1    0    0    0  501  0.00000000000E+00  0.00000000000E+00 -0.43859954207E+03  0.43860138076E+03  0.12699999809E+01 0. -1.
    10030    2    1    2    0    0  0.00000000000E+00  0.00000000000E+00  0.38209103688E+03  0.12592929424E+04  0.11999271454E+04 0.  0.
        3    1    3    3  502    0 -0.11984007370E+03  0.55778549300E+03  0.38589192457E+03  0.68876620642E+03  0.10100000352E+00 0.  1.
       -3    1    3    3    0  502  0.11984007370E+03 -0.55778549300E+03 -0.38008876873E+01  0.57052673593E+03  0.10100000352E+00 0. -1.
</event>
<event>
 5   0  0.2244308E-04  0.1200510E+04  0.7818609E-02  0.9112410E-01
        1   -1    0    0  501    0  0.00000000000E+00  0.00000000000E+00  0.65728156822E+03  0.65728156824E+03  0.50400001928E-02 0.  1.
       -1   -1    0    0    0  501  0.00000000000E+00  0.00000000000E+00 -0.54817644092E+03  0.54817644095E+03  0.50400001928E-02 0. -1.
    10030    2    1    2    0    0  0.00000000000E+00  0.00000000000E+00  0.10910512730E+03  0.12054580092E+04  0.12005103428E+04 0.  0.
        5    1    3    3  502    0 -0.57074614540E+03 -0.14401183737E+03 -0.63377663789E+02  0.59205522552E+03  0.46999998093E+01 0. -1.
       -5    1    3    3    0  502  0.57074614540E+03  0.14401183737E+03  0.17248279109E+03  0.61340278367E+03  0.46999998093E+01 0.  1.
</event>
<event>
 5   0  0.3883890E-04  0.1198682E+04  0.7818609E-02  0.9114011E-01
        2   -1    0    0  501    0  0.00000000000E+00  0.00000000000E+00  0.77971211205E+03  0.77971211205E+03  0.25500000920E-02 0.  1.
       -2   -1    0    0    0  501  0.00000000000E+00  0.00000000000E+00 -0.46069516931E+03  0.46069516932E+03  0.25500000920E-02 0. -1.
    10030    2    1    2    0    0  0.00000000000E+00  0.00000000000E+00  0.31901694274E+03  0.12404072814E+04  0.11986819486E+04 0.  0.
        2    1    3    3  502    0  0.29155383628E+03  0.21353515086E+03 -0.33526536033E+03  0.49295411748E+03  0.25500000920E-02 0. -1.
       -2    1    3    3    0  502 -0.29155383628E+03 -0.21353515086E+03  0.65428230306E+03  0.74745316389E+03  0.25500000920E-02 0.  1.
</event>
<event>
 5   0  0.4024486E-04  0.1198347E+04  0.7818609E-02  0.9114305E-01
        2   -1    0    0  501    0  0.00000000000E+00  0.00000000000E+00  0.13550722861E+04  0.13550722861E+04  0.25500000920E-02 0. -1.
       -2   -1    0    0    0  501  0.00000000000E+00  0.00000000000E+00 -0.26493707859E+03  0.26493707861E+03  0.25500000920E-02 0.  1.
    10030    2    1    2    0    0  0.00000000000E+00  0.00000000000E+00  0.10901352075E+04  0.16200093647E+04  0.11983470161E+04 0.  0.
        1    1    3    3  502    0 -0.20367055104E+03  0.56084617733E+03  0.61885004649E+03  0.85965429567E+03  0.50400001928E-02 0.  1.
       -1    1    3    3    0  502  0.20367055104E+03 -0.56084617733E+03  0.47128516100E+03  0.76035506903E+03  0.50400001928E-02 0. -1.
</event>
<event>
 5   0  0.2204090E-04  0.1198821E+04  0.7818609E-02  0.9113889E-01
        1   -1    0    0  501    0  0.00000000000E+00  0.00000000000E+00  0.12957008613E+04  0.12957008613E+04  0.50400001928E-02 0. -1.
       -1   -1    0    0    0  501  0.00000000000E+00  0.00000000000E+00 -0.27729624134E+03  0.27729624139E+03  0.50400001928E-02 0.  1.
    10030    2    1    2    0    0  0.00000000000E+00  0.00000000000E+00  0.10184046199E+04  0.15729971027E+04  0.11988210522E+04 0.  0.
        2    1    3    3  502    0  0.53268753746E+02  0.91382621240E+02 -0.26495365585E+03  0.28528719450E+03  0.25500000920E-02 0.  1.
       -2    1    3    3    0  502 -0.53268753746E+02 -0.91382621240E+02  0.12833582758E+04  0.12877099082E+04  0.25500000920E-02 0. -1.
</event>
<event>
 5   0  0.2340731E-04  0.1201036E+04  0.7818609E-02  0.9111950E-01
       -1   -1    0    0    0  501  0.00000000000E+00  0.00000000000E+00  0.37731007373E+03  0.37731007376E+03  0.50400001928E-02 0.  1.
        1   -1    0    0  501    0  0.00000000000E+00  0.00000000000E+00 -0.95577115364E+03  0.95577115365E+03  0.50400001928E-02 0. -1.
    10030    2    1    2    0    0  0.00000000000E+00  0.00000000000E+00 -0.57846107991E+03  0.13330812274E+04  0.12010363599E+04 0.  0.
        3    1    3    3  502    0 -0.50830471462E+03 -0.27140889987E+03 -0.10156950079E+03  0.58510926118E+03  0.10100000352E+00 0. -1.
       -3    1    3    3    0  502  0.50830471462E+03  0.27140889987E+03 -0.47689157912E+03  0.74797196623E+03  0.10100000352E+00 0.  1.
</event>
<event>
 5   0  0.3883890E-04  0.1196108E+04  0.7818609E-02  0.9116270E-01
       -2   -1    0    0    0  501  0.00000000000E+00  0.00000000000E+00  0.50382569631E+03  0.50382569631E+03  0.25500000920E-02 0.  1.
        2   -1    0    0  501    0  0.00000000000E+00  0.00000000000E+00 -0.70990554591E+03  0.70990554591E+03  0.25500000920E-02 0. -1.
    10030    2    1    2    0    0  0.00000000000E+00  0.00000000000E+00 -0.20607984960E+03  0.12137312422E+04  0.11961081155E+04 0.  0.
        2    1    3    3  502    0  0.32905707632E+02  0.22844324511E+03 -0.66289304123E+03  0.70192327640E+03  0.25500000920E-02 0. -1.
       -2    1    3    3    0  502 -0.32905707632E+02 -0.22844324511E+03  0.45681319163E+03  0.51180796583E+03  0.25500000920E-02 0.  1.
</event>
<event>
 5   0  0.2315038E-04  0.1192130E+04  0.7818609E-02  0.9119773E-01
       -1   -1    0    0    0  501  0.00000000000E+00  0.00000000000E+00  0.34687743388E+03  0.34687743392E+03  0.50400001928E-02 0. -1.
        1   -1    0    0  501    0  0.00000000000E+00  0.00000000000E+00 -0.10242631145E+04  0.10242631145E+04  0.50400001928E-02 0.  1.
    10030    2    1    2    0    0  0.00000000000E+00  0.00000000000E+00 -0.67738568064E+03  0.13711405484E+04  0.11921304640E+04 0.  0.
        1    1    3    3  502    0  0.47765215138E+03  0.34205494123E+03 -0.45451456286E+03  0.74278977404E+03  0.50400001928E-02 0.  1.
       -1    1    3    3    0  502 -0.47765215138E+03 -0.34205494123E+03 -0.22287111778E+03  0.62835077441E+03  0.50400001928E-02 0. -1.
</event>
<event>
 5   0  0.2315038E-04  0.1201873E+04  0.7818609E-02  0.9111219E-01
        1   -1    0    0  501    0  0.00000000000E+00  0.00000000000E+00  0.14710211206E+04  0.14710211206E+04  0.50400001928E-02 0. -1.
       -1   -1    0    0    0  501  0.00000000000E+00  0.00000000000E+00 -0.24549252103E+03  0.24549252108E+03  0.50400001928E-02 0.  1.
    10030    2    1    2    0    0  0.00000000000E+00  0.00000000000E+00  0.12255285995E+04  0.17165136416E+04  0.12018730106E+04 0.  0.
        1    1    3    3  502    0 -0.47215107678E+03 -0.14781956171E+03  0.10999191799E+04  0.12060677694E+04  0.50400001928E-02 0. -1.
       -1    1    3    3    0  502  0.47215107678E+03  0.14781956171E+03  0.12560941962E+03  0.51044587220E+03  0.50400001928E-02 0.  1.
</event>
<event>
 5   0  0.2204090E-04  0.1198791E+04  0.7818609E-02  0.9113916E-01
        1   -1    0    0  501    0  0.00000000000E+00  0.00000000000E+00  0.13646350157E+04  0.13646350157E+04  0.50400001928E-02 0. -1.
       -1   -1    0    0    0  501  0.00000000000E+00  0.00000000000E+00 -0.26327545904E+03  0.26327545909E+03  0.50400001928E-02 0.  1.
    10030    2    1    2    0    0  0.00000000000E+00  0.00000000000E+00  0.11013595567E+04  0.16279104748E+04  0.11987909079E+04 0.  0.
        2    1    3    3  502    0  0.41576963143E+03  0.51010917369E+02  0.11328765146E+04  0.12078392680E+04  0.25500000920E-02 0. -1.
       -2    1    3    3    0  502 -0.41576963143E+03 -0.51010917369E+02 -0.31516957922E+02  0.42007120677E+03  0.25500000920E-02 0.  1.
</event>
<event>
 5   0  0.3832662E-04  0.1193036E+04  0.7818609E-02  0.9118974E-01
       -2   -1    0    0    0  501  0.00000000000E+00  0.00000000000E+00  0.52606218196E+03  0.52606218196E+03  0.25500000920E-02 0. -1.
        2   -1    0    0  501    0  0.00000000000E+00  0.00000000000E+00 -0.67641026845E+03  0.67641026845E+03  0.25500000920E-02 0.  1.
    10030    2    1    2    0    0  0.00000000000E+00  0.00000000000E+00 -0.15034808649E+03  0.12024724504E+04  0.11930362303E+04 0.  0.
        4    1    3    3  502    0 -0.53325647216E+03  0.12598903740E+03  0.16248011027E+03  0.57152174217E+03  0.12699999809E+01 0.  1.
       -4    1    3    3    0  502  0.53325647216E+03 -0.12598903740E+03 -0.31282819675E+03  0.63095070824E+03  0.12699999809E+01 0. -1.
</event>
<event>
 5   0  0.4122956E-04  0.1195497E+04  0.7818609E-02  0.9116807E-01
       -2   -1    0    0    0  501  0.00000000000E+00  0.00000000000E+00  0.26998406557E+03  0.26998406558E+03  0.25500000920E-02 0. -1.
        2   -1    0    0  501    0  0.00000000000E+00  0.00000000000E+00 -0.13234244473E+04  0.13234244473E+04  0.25500000920E-02 0.  1.
    10030    2    1    2    0    0  0.00000000000E+00  0.00000000000E+00 -0.10534403818E+04  0.15934085129E+04  0.11954974074E+04 0.  0.
        5    1    3    3  502    0  0.14685759860E+03 -0.13728178360E+03  0.22354996652E+03  0.30068275624E+03  0.46999998093E+01 0. -1.
       -5    1    3    3    0  502 -0.14685759860E+03  0.13728178360E+03 -0.12769903483E+04  0.12927257567E+04  0.46999998093E+01 0.  1.
</event>
<event>
 5   0  0.3832662E-04  0.1199407E+04  0.7818609E-02  0.9113375E-01
       -2   -1    0    0    0  501  0.00000000000E+00  0.00000000000E+00  0.18770651221E+03  0.18770651223E+03  0.25500000920E-02 0. -1.
        2   -1    0    0  501    0  0.00000000000E+00  0.00000000000E+00 -0.19159935766E+04  0.19159935767E+04  0.25500000920E-02 0.  1.
    10030    2    1    2    0    0  0.00000000000E+00  0.00000000000E+00 -0.17282870644E+04  0.21037000889E+04  0.11994073065E+04 0.  0.
        4    1    3    3  502    0 -0.12949788551E+03 -0.35796566814E+03 -0.51374260070E+02  0.38412244066E+03  0.12699999809E+01 0. -1.
       -4    1    3    3    0  502  0.12949788551E+03  0.35796566814E+03 -0.16769128044E+04  0.17195776482E+04  0.12699999809E+01 0.  1.
</event>
<event>
 5   0  0.4024486E-04  0.1202825E+04  0.7818609E-02  0.9110388E-01
        2   -1    0    0  501    0  0.00000000000E+00  0.00000000000E+00  0.14264120325E+04  0.14264120325E+04  0.25500000920E-02 0.  1.
       -2   -1    0    0    0  501  0.00000000000E+00  0.00000000000E+00 -0.25357098747E+03  0.25357098749E+03  0.25500000920E-02 0. -1.
    10030    2    1    2    0    0  0.00000000000E+00  0.00000000000E+00  0.11728410450E+04  0.16799830200E+04  0.12028245219E+04 0.  0.
        1    1    3    3  502    0 -0.23751599625E+03 -0.47969112841E+03  0.96937901167E+03  0.11073450661E+04  0.50400001928E-02 0.  1.
       -1    1    3    3    0  502  0.23751599625E+03  0.47969112841E+03  0.20346203332E+03  0.57263795384E+03  0.50400001928E-02 0. -1.
</event>
<event>
 5   0  0.4122956E-04  0.1203615E+04  0.7818609E-02  0.9109698E-01
        2   -1    0    0  501    0  0.00000000000E+00  0.00000000000E+00  0.85096474030E+03  0.85096474030E+03  0.25500000920E-02 0.  1.
       -2   -1    0    0    0  501  0.00000000000E+00  0.00000000000E+00 -0.42560187905E+03  0.42560187906E+03  0.25500000920E-02 0. -1.
    10030    2    1    2    0    0  0.00000000000E+00  0.00000000000E+00  0.42536286125E+03  0.12765666194E+04  0.12036148761E+04 0.  0.
        5    1    3    3  502    0 -0.23808088770E+03 -0.54407750466E+03  0.10959323824E+03  0.60393344669E+03  0.46999998093E+01 0.  1.
       -5    1    3    3    0  502  0.23808088770E+03  0.54407750466E+03  0.31576962300E+03  0.67263317267E+03  0.46999998093E+01 0. -1.
</event>
<event>
 5   0  0.3993723E-04  0.1201624E+04  0.7818609E-02  0.9111437E-01
        2   -1    0    0  501    0  0.00000000000E+00  0.00000000000E+00  0.46882338715E+03  0.46882338716E+03  0.25500000920E-02 0. -1.
       -2   -1    0    0    0  501  0.00000000000E+00  0.00000000000E+00 -0.76995897110E+03  0.76995897110E+03  0.25500000920E-02 0.  1.
    10030    2    1    2    0    0  0.00000000000E+00  0.00000000000E+00 -0.30113558395E+03  0.12387823583E+04  0.12016235231E+04 0.  0.
        3    1    3    3  502    0 -0.37655292472E+02 -0.31715469324E+03 -0.67519535324E+03  0.74692288473E+03  0.10100000352E+00 0.  1.
       -3    1    3    3    0  502  0.37655292472E+02  0.31715469324E+03  0.37405976929E+03  0.49185947353E+03  0.10100000352E+00 0. -1.
</event>
<event>
 5   0  0.3832662E-04  0.1201354E+04  0.7818609E-02  0.9111673E-01
       -2   -1    0    0    0  501  0.00000000000E+00  0.00000000000E+00  0.44626709070E+03  0.44626709070E+03  0.25500000920E-02 0.  1.
        2   -1    0    0  501    0  0.00000000000E+00  0.00000000000E+00 -0.80851258550E+03  0.80851258551E+03  0.25500000920E-02 0. -1.
    10030    2    1    2    0    0  0.00000000000E+00  0.00000000000E+00 -0.36224549481E+03  0.12547796762E+04  0.12013535022E+04 0.  0.
        4    1    3    3  502    0  0.25453708934E+03  0.35832736545E+03  0.24650302394E+03  0.50393748064E+03  0.12699999809E+01 0.  1.
       -4    1    3    3    0  502 -0.25453708934E+03 -0.35832736545E+03 -0.60874851875E+03  0.75084219558E+03  0.12699999809E+01 0. -1.
</event>
<event>
 5   0  0.2340731E-04  0.1202424E+04  0.7818609E-02  0.9110737E-01
        1   -1    0    0  501    0  0.00000000000E+00  0.00000000000E+00  0.14715726986E+04  0.14715726986E+04  0.50400001928E-02 0.  1.
       -1   -1    0    0    0  501  0.00000000000E+00  0.00000000000E+00 -0.24562565937E+03  0.24562565942E+03  0.50400001928E-02 0. -1.
    10030    2    1    2    0    0  0.00000000000E+00  0.00000000000E+00  0.12259470392E+04  0.17171983580E+04  0.12024242420E+04 0.  0.
        3    1    3    3  502    0  0.56047471944E+03 -0.97211048453E+02  0.89090256228E+03  0.10570190560E+04  0.10100000352E+00 0.  1.
       -3    1    3    3    0  502 -0.56047471944E+03  0.97211048453E+02  0.33504447691E+03  0.66017930199E+03  0.10100000352E+00 0. -1.
</event>
<event>
 5   0  0.2204090E-04  0.1204277E+04  0.7818609E-02  0.9109121E-01
       -1   -1    0    0    0  501  0.00000000000E+00  0.00000000000E+00  0.71644040600E+03  0.71644040602E+03  0.50400001928E-02 0. -1.
        1   -1    0    0  501    0  0.00000000000E+00  0.00000000000E+00 -0.50607284244E+03  0.50607284246E+03  0.50400001928E-02 0.  1.
    10030    2    1    2    0    0  0.00000000000E+00  0.00000000000E+00  0.21036756356E+03  0.12225132485E+04  0.12042774310E+04 0.  0.
        2    1    3    3  502    0 -0.89254390755E+02  0.56461526667E+03 -0.86928522949E+02  0.57819833426E+03  0.25500000920E-02 0.  1.
       -2    1    3    3    0  502  0.89254390755E+02 -0.56461526667E+03  0.29729608651E+03  0.64431491422E+03  0.25500000920E-02 0. -1.
</event>
<event>
 5   0  0.2340731E-04  0.1203667E+04  0.7818609E-02  0.9109653E-01
        1   -1    0    0  501    0  0.00000000000E+00  0.00000000000E+00  0.74489492948E+03  0.74489492949E+03  0.50400001928E-02 0.  1.
       -1   -1    0    0    0  501  0.00000000000E+00  0.00000000000E+00 -0.48624764586E+03  0.48624764589E+03  0.50400001928E-02 0. -1.
    10030    2    1    2    0    0  0.00000000000E+00  0.00000000000E+00  0.25864728361E+03  0.12311425754E+04  0.12036667411E+04 0.  0.
        3    1    3    3  502    0  0.77619218158E+02 -0.43049357822E+03 -0.29345649847E+03  0.52675059622E+03  0.10100000352E+00 0. -1.
       -3    1    3    3    0  502 -0.77619218158E+02  0.43049357822E+03  0.55210378209E+03  0.70439197917E+03  0.10100000352E+00 0.  1.
</event>
<event>
 5   0  0.3832662E-04  0.1201269E+04  0.7818609E-02  0.9111747E-01
        2   -1    0    0  501    0  0.00000000000E+00  0.00000000000E+00  0.10218214550E+04  0.10218214550E+04  0.25500000920E-02 0.  1.
       -2   -1    0    0    0  501  0.00000000000E+00  0.00000000000E+00 -0.35305757228E+03  0.35305757229E+03  0.25500000920E-02 0. -1.
    10030    2    1    2    0    0  0.00000000000E+00  0.00000000000E+00  0.66876388268E+03  0.13748790273E+04  0.12012689994E+04 0.  0.
        4    1    3    3  502    0  0.52350060345E+03  0.38977314576E+02  0.66843359315E+03  0.84992775823E+03  0.12699999809E+01 0.  1.
       -4    1    3    3    0  502 -0.52350060345E+03 -0.38977314576E+02  0.33028953066E+00  0.52495126903E+03  0.12699999809E+01 0. -1.
</event>
<event>
 5   0  0.2315038E-04  0.1200852E+04  0.7818609E-02  0.9112111E-01
        1   -1    0    0  501    0  0.00000000000E+00  0.00000000000E+00  0.57617885523E+03  0.57617885525E+03  0.50400001928E-02 0. -1.
       -1   -1    0    0    0  501  0.00000000000E+00  0.00000000000E+00 -0.62569334216E+03  0.62569334218E+03  0.50400001928E-02 0.  1.
    10030    2    1    2    0    0  0.00000000000E+00  0.00000000000E+00 -0.49514486931E+02  0.12018721974E+04  0.12008518204E+04 0.  0.
        1    1    3    3  502    0 -0.24082289302E+02 -0.32675786624E+03  0.47882097619E+03  0.58018978540E+03  0.50400001928E-02 0. -1.
       -1    1    3    3    0  502  0.24082289302E+02  0.32675786624E+03 -0.52833546312E+03  0.62168241203E+03  0.50400001928E-02 0.  1.
</event>
<event>
 5   0  0.2244308E-04  0.1200467E+04  0.7818609E-02  0.9112448E-01
        1   -1    0    0  501    0  0.00000000000E+00  0.00000000000E+00  0.77394951409E+03  0.77394951410E+03  0.50400001928E-02 0.  1.
       -1   -1    0    0    0  501  0.00000000000E+00  0.00000000000E+00 -0.46550854534E+03  0.46550854537E+03  0.50400001928E-02 0. -1.
    10030    2    1    2    0    0  0.00000000000E+00  0.00000000000E+00  0.30844096875E+03  0.12394580595E+04  0.12004667634E+04 0.  0.
        5    1    3    3  502    0  0.36170712383E+03 -0.42076642452E+03 -0.82083505614E+02  0.56092443281E+03  0.46999998093E+01 0.  1.
       -5    1    3    3    0  502 -0.36170712383E+03  0.42076642452E+03  0.39052447436E+03  0.67853362666E+03  0.46999998093E+01 0. -1.
</event>
<event>
 5   0  0.2315038E-04  0.1207458E+04  0.7818609E-02  0.9106354E-01
        1   -1    0    0  501    0  0.00000000000E+00  0.00000000000E+00  0.12279871431E+04  0.12279871431E+04  0.50400001928E-02 0. -1.
       -1   -1    0    0    0  501  0.00000000000E+00  0.00000000000E+00 -0.29681795237E+03  0.29681795241E+03  0.50400001928E-02 0.  1.
    10030    2    1    2    0    0  0.00000000000E+00  0.00000000000E+00  0.93116919070E+03  0.15248050955E+04  0.12074578740E+04 0.  0.
        1    1    3    3  502    0  0.53127069008E+03  0.28352662403E+03  0.51994080901E+03  0.79559684362E+03  0.50400001928E-02 0. -1.
       -1    1    3    3    0  502 -0.53127069008E+03 -0.28352662403E+03  0.41122838169E+03  0.72920825188E+03  0.50400001928E-02 0.  1.
</event>
<event>
 5   0  0.2204090E-04  0.1200808E+04  0.7818609E-02  0.9112149E-01
        1   -1    0    0  501    0  0.00000000000E+00  0.00000000000E+00  0.10129348159E+04  0.10129348159E+04  0.50400001928E-02 0. -1.
       -1   -1    0    0    0  501  0.00000000000E+00  0.00000000000E+00 -0.35588189399E+03  0.35588189402E+03  0.50400001928E-02 0.  1.
    10030    2    1    2    0    0  0.00000000000E+00  0.00000000000E+00  0.65705292187E+03  0.13688167099E+04  0.12008083291E+04 0.  0.
        2    1    3    3  502    0 -0.27215109868E+03 -0.31258306753E+03 -0.16666134953E+03  0.44671064466E+03  0.25500000920E-02 0.  1.
       -2    1    3    3    0  502  0.27215109868E+03  0.31258306753E+03  0.82371427140E+03  0.92210606523E+03  0.25500000920E-02 0. -1.
</event>
<event>
 5   0  0.4122956E-04  0.1200478E+04  0.7818609E-02  0.9112438E-01
        2   -1    0    0  501    0  0.00000000000E+00  0.00000000000E+00  0.60073973793E+03  0.60073973793E+03  0.25500000920E-02 0.  1.
       -2   -1    0    0    0  501  0.00000000000E+00  0.00000000000E+00 -0.59973867028E+03  0.59973867028E+03  0.25500000920E-02 0. -1.
    10030    2    1    2    0    0  0.00000000000E+00  0.00000000000E+00  0.10010676490E+01  0.12004784082E+04  0.12004779908E+04 0.  0.
        5    1    3    3  502    0  0.10320532292E+03  0.38772172509E+03  0.44691449575E+03  0.60061146451E+03  0.46999998093E+01 0.  1.
       -5    1    3    3    0  502 -0.10320532292E+03 -0.38772172509E+03 -0.44591342810E+03  0.59986694370E+03  0.46999998093E+01 0. -1.
</event>
<event>
 5   0  0.3832662E-04  0.1231435E+04  0.7818609E-02  0.9085778E-01
       -2   -1    0    0    0  501  0.00000000000E+00  0.00000000000E+00  0.34066247670E+03  0.34066247671E+03  0.25500000920E-02 0. -1.
        2   -1    0    0  501    0  0.00000000000E+00  0.00000000000E+00 -0.11128558727E+04  0.11128558727E+04  0.25500000920E-02 0.  1.
    10030    2    1    2    0    0  0.00000000000E+00  0.00000000000E+00 -0.77219339597E+03  0.14535183494E+04  0.12314353216E+04 0.  0.
        4    1    3    3  502    0  0.35537044802E+03  0.50222524600E+03 -0.41472515535E+03  0.74196827454E+03  0.12699999809E+01 0. -1.
       -4    1    3    3    0  502 -0.35537044802E+03 -0.50222524600E+03 -0.35746824062E+03  0.71155007483E+03  0.12699999809E+01 0.  1.
</event>
<event>
 5   0  0.2340731E-04  0.1200387E+04  0.7818609E-02  0.9112518E-01
        1   -1    0    0  501    0  0.00000000000E+00  0.00000000000E+00  0.88209920188E+03  0.88209920189E+03  0.50400001928E-02 0.  1.
       -1   -1    0    0    0  501  0.00000000000E+00  0.00000000000E+00 -0.40838056534E+03  0.40838056537E+03  0.50400001928E-02 0. -1.
    10030    2    1    2    0    0  0.00000000000E+00  0.00000000000E+00  0.47371863654E+03  0.12904797673E+04  0.12003868889E+04 0.  0.
        3    1    3    3  502    0 -0.55148429662E+02  0.12706860542E+03 -0.39096105639E+03  0.41477504457E+03  0.10100000352E+00 0. -1.
       -3    1    3    3    0  502  0.55148429662E+02 -0.12706860542E+03  0.86467969293E+03  0.87570472270E+03  0.10100000352E+00 0.  1.
</event>
<event>
 5   0  0.2204090E-04  0.1200180E+04  0.7818609E-02  0.9112699E-01
        1   -1    0    0  501    0  0.00000000000E+00  0.00000000000E+00  0.38956145643E+03  0.38956145646E+03  0.50400001928E-02 0.  1.
       -1   -1    0    0    0  501  0.00000000000E+00  0.00000000000E+00 -0.92439321897E+03  0.92439321898E+03  0.50400001928E-02 0. -1.
    10030    2    1    2    0    0  0.00000000000E+00  0.00000000000E+00 -0.53483176254E+03  0.13139546754E+04  0.12001799344E+04 0.  0.
        2    1    3    3  502    0 -0.54076158255E+03 -0.25848006686E+03 -0.29976220098E+03  0.67014357511E+03  0.25500000920E-02 0.  1.
       -2    1    3    3    0  502  0.54076158255E+03  0.25848006686E+03 -0.23506956156E+03  0.64381110033E+03  0.25500000920E-02 0. -1.
</event>
<event>
 5   0  0.3832662E-04  0.1200978E+04  0.7818609E-02  0.9112001E-01
        2   -1    0    0  501    0  0.00000000000E+00  0.00000000000E+00  0.10213904399E+04  0.10213904399E+04  0.25500000920E-02 0. -1.
       -2   -1    0    0    0  501  0.00000000000E+00  0.00000000000E+00 -0.35303557979E+03  0.35303557980E+03  0.25500000920E-02 0.  1.
    10030    2    1    2    0    0  0.00000000000E+00  0.00000000000E+00  0.66835486006E+03  0.13744260197E+04  0.12009782115E+04 0.  0.
        4    1    3    3  502    0  0.37233455054E+03  0.33983682715E+03 -0.39233083592E+02  0.50563122368E+03  0.12699999809E+01 0.  1.
       -4    1    3    3    0  502 -0.37233455054E+03 -0.33983682715E+03  0.70758794366E+03  0.86879479598E+03  0.12699999809E+01 0. -1.
</event>
<event>
 5   0  0.2315038E-04  0.1199499E+04  0.7818609E-02  0.9113295E-01
        1   -1    0    0  501    0  0.00000000000E+00  0.00000000000E+00  0.52514186918E+03  0.52514186920E+03  0.50400001928E-02 0. -1.
       -1   -1    0    0    0  501  0.00000000000E+00  0.00000000000E+00 -0.68495725659E+03  0.68495725661E+03  0.50400001928E-02 0.  1.
    10030    2    1    2    0    0  0.00000000000E+00  0.00000000000E+00 -0.15981538741E+03  0.12100991258E+04  0.11994994524E+04 0.  0.
        1    1    3    3  502    0  0.74661210186E+02  0.32439197513E+03  0.42339496809E+03  0.53857938029E+03  0.50400001928E-02 0. -1.
       -1    1    3    3    0  502 -0.74661210186E+02 -0.32439197513E+03 -0.58321035551E+03  0.67151974553E+03  0.50400001928E-02 0.  1.
</event>
<event>
 5   0  0.3832662E-04  0.1199573E+04  0.7818609E-02  0.9113230E-01
        2   -1    0    0  501    0  0.00000000000E+00  0.00000000000E+00  0.13611442342E+04  0.13611442342E+04  0.25500000920E-02 0. -1.
       -2   -1    0    0    0  501  0.00000000000E+00  0.00000000000E+00 -0.26429536512E+03  0.26429536514E+03  0.25500000920E-02 0.  1.
    10030    2    1    2    0    0  0.00000000000E+00  0.00000000000E+00  0.10968488691E+04  0.16254395994E+04  0.11995734448E+04 0.  0.
        4    1    3    3  502    0  0.14682844176E+03 -0.14995036075E+03  0.13097676056E+04  0.13264752148E+04  0.12699999809E+01 0. -1.
       -4    1    3    3    0  502 -0.14682844176E+03  0.14995036075E+03 -0.21291873646E+03  0.29896438456E+03  0.12699999809E+01 0.  1.
</event>
<event>
 5   0  0.2304842E-04  0.1198872E+04  0.7818609E-02  0.9113844E-01
       -1   -1    0    0    0  501  0.00000000000E+00  0.00000000000E+00  0.21244396705E+03  0.21244396711E+03  0.50400001928E-02 0. -1.
        1   -1    0    0  501    0  0.00000000000E+00  0.00000000000E+00 -0.16913807993E+04  0.16913807994E+04  0.50400001928E-02 0.  1.
    10030    2    1    2    0    0  0.00000000000E+00  0.00000000000E+00 -0.14789368323E+04  0.19038247665E+04  0.11988722148E+04 0.  0.
        4    1    3    3  502    0  0.37213533314E+03 -0.46992746253E+03 -0.73574157010E+03  0.94901727965E+03  0.12699999809E+01 0.  1.
       -4    1    3    3    0  502 -0.37213533314E+03  0.46992746253E+03 -0.74319526220E+03  0.95480748681E+03  0.12699999809E+01 0. -1.
</event>
<event>
 5   0  0.2315038E-04  0.1208742E+04  0.7818609E-02  0.9105239E-01
       -1   -1    0    0    0  501  0.00000000000E+00  0.00000000000E+00  0.87931803869E+03  0.87931803870E+03  0.50400001928E-02 0.  1.
        1   -1    0    0  501    0  0.00000000000E+00  0.00000000000E+00 -0.41539481727E+03  0.41539481730E+03  0.50400001928E-02 0. -1.
    10030    2    1    2    0    0  0.00000000000E+00  0.00000000000E+00  0.46392322142E+03  0.12947128560E+04  0.12087417525E+04 0.  0.
        1    1    3    3  502    0 -0.49145239723E+03  0.36297653781E+02 -0.14281131833E+03  0.51306729684E+03  0.50400001928E-02 0. -1.
       -1    1    3    3    0  502  0.49145239723E+03 -0.36297653781E+02  0.60673453975E+03  0.78164555917E+03  0.50400001928E-02 0.  1.
</event>
<event>
 5   0  0.3993723E-04  0.1217104E+04  0.7818609E-02  0.9098016E-01
       -2   -1    0    0    0  501  0.00000000000E+00  0.00000000000E+00  0.27866181524E+03  0.27866181525E+03  0.25500000920E-02 0.  1.
        2   -1    0    0  501    0  0.00000000000E+00  0.00000000000E+00 -0.13289780261E+04  0.13289780261E+04  0.25500000920E-02 0. -1.
    10030    2    1    2    0    0  0.00000000000E+00  0.00000000000E+00 -0.10503162109E+04  0.16076398414E+04  0.12171038233E+04 0.  0.
        3    1    3    3  502    0  0.19591626697E+03 -0.55324884565E+03 -0.31271524462E+03  0.66502503960E+03  0.10100000352E+00 0.  1.
       -3    1    3    3    0  502 -0.19591626697E+03  0.55324884565E+03 -0.73760096625E+03  0.94261480176E+03  0.10100000352E+00 0. -1.
</event>
<event>
 5   0  0.2244308E-04  0.1201037E+04  0.7818609E-02  0.9111949E-01
       -1   -1    0    0    0  501  0.00000000000E+00  0.00000000000E+00  0.39964934690E+03  0.39964934694E+03  0.50400001928E-02 0. -1.
        1   -1    0    0  501    0  0.00000000000E+00  0.00000000000E+00 -0.90234699802E+03  0.90234699803E+03  0.50400001928E-02 0.  1.
    10030    2    1    2    0    0  0.00000000000E+00  0.00000000000E+00 -0.50269765111E+03  0.13019963450E+04  0.12010368662E+04 0.  0.
        5    1    3    3  502    0 -0.54113732954E+03  0.20017730084E+03 -0.43177155626E+03  0.72065895401E+03  0.46999998093E+01 0. -1.
       -5    1    3    3    0  502  0.54113732954E+03 -0.20017730084E+03 -0.70926094853E+02  0.58133739096E+03  0.46999998093E+01 0.  1.
</event>
<event>
 5   0  0.3993723E-04  0.1199832E+04  0.7818609E-02  0.9113004E-01
        2   -1    0    0  501    0  0.00000000000E+00  0.00000000000E+00  0.10289872875E+04  0.10289872875E+04  0.25500000920E-02 0.  1.
       -2   -1    0    0    0  501  0.00000000000E+00  0.00000000000E+00 -0.34976030782E+03  0.34976030782E+03  0.25500000920E-02 0. -1.
    10030    2    1    2    0    0  0.00000000000E+00  0.00000000000E+00  0.67922697966E+03  0.13787475953E+04  0.11998315055E+04 0.  0.
        3    1    3    3  502    0 -0.24916774258E+03 -0.23347241680E+03 -0.22719976004E+03  0.41013860402E+03  0.10100000352E+00 0. -1.
       -3    1    3    3    0  502  0.24916774258E+03  0.23347241680E+03  0.90642673970E+03  0.96860899128E+03  0.10100000352E+00 0.  1.
</event>
<event>
 5   0  0.3832662E-04  0.1194410E+04  0.7818609E-02  0.9117764E-01
        2   -1    0    0  501    0  0.00000000000E+00  0.00000000000E+00  0.15790142958E+04  0.15790142958E+04  0.25500000920E-02 0. -1.
       -2   -1    0    0    0  501  0.00000000000E+00  0.00000000000E+00 -0.22587117171E+03  0.22587117173E+03  0.25500000920E-02 0.  1.
    10030    2    1    2    0    0  0.00000000000E+00  0.00000000000E+00  0.13531431241E+04  0.18048854676E+04  0.11944099952E+04 0.  0.
        4    1    3    3  502    0  0.46441830576E+03  0.42028253922E+02  0.12403625290E+04  0.13251232219E+04  0.12699999809E+01 0. -1.
       -4    1    3    3    0  502 -0.46441830576E+03 -0.42028253922E+02  0.11278059509E+03  0.47976224568E+03  0.12699999809E+01 0.  1.
</event>
<event>
 5   0  0.4024486E-04  0.1200774E+04  0.7818609E-02  0.9112180E-01
        2   -1    0    0  501    0  0.00000000000E+00  0.00000000000E+00  0.61050943698E+03  0.61050943698E+03  0.25500000920E-02 0. -1.
       -2   -1    0    0    0  501  0.00000000000E+00  0.00000000000E+00 -0.59043209011E+03  0.59043209012E+03  0.25500000920E-02 0.  1.
    10030    2    1    2    0    0  0.00000000000E+00  0.00000000000E+00  0.20077346865E+02  0.12009415271E+04  0.12007736888E+04 0.  0.
        1    1    3    3  502    0 -0.52990981857E+03  0.12072405312E+03  0.26519322670E+03  0.60473643873E+03  0.50400001928E-02 0. -1.
       -1    1    3    3    0  502  0.52990981857E+03 -0.12072405312E+03 -0.24511587983E+03  0.59620508836E+03  0.50400001928E-02 0.  1.
</event>
<event>
 5   0  0.4024486E-04  0.1198552E+04  0.7818609E-02  0.9114125E-01
        2   -1    0    0  501    0  0.00000000000E+00  0.00000000000E+00  0.22215420422E+04  0.22215420422E+04  0.25500000920E-02 0.  1.
       -2   -1    0    0    0  501  0.00000000000E+00  0.00000000000E+00 -0.16165869312E+03  0.16165869314E+03  0.25500000920E-02 0. -1.
    10030    2    1    2    0    0  0.00000000000E+00  0.00000000000E+00  0.20598833491E+04  0.23832007354E+04  0.11985517649E+04 0.  0.
        1    1    3    3  502    0  0.53486726075E+03 -0.70178594749E+02  0.15489239201E+04  0.16401747870E+04  0.50400001928E-02 0.  1.
       -1    1    3    3    0  502 -0.53486726075E+03  0.70178594749E+02  0.51095942905E+03  0.74302594836E+03  0.50400001928E-02 0. -1.
</event>
<event>
 5   0  0.2204090E-04  0.1201417E+04  0.7818609E-02  0.9111617E-01
        1   -1    0    0  501    0  0.00000000000E+00  0.00000000000E+00  0.88330475148E+03  0.88330475149E+03  0.50400001928E-02 0. -1.
       -1   -1    0    0    0  501  0.00000000000E+00  0.00000000000E+00 -0.40852366974E+03  0.40852366977E+03  0.50400001928E-02 0.  1.
    10030    2    1    2    0    0  0.00000000000E+00  0.00000000000E+00  0.47478108174E+03  0.12918284213E+04  0.12014173273E+04 0.  0.
        2    1    3    3  502    0  0.35659016365E+03 -0.26740440728E+03  0.67042450326E+03  0.80506563485E+03  0.25500000920E-02 0. -1.
       -2    1    3    3    0  502 -0.35659016365E+03  0.26740440728E+03 -0.19564342152E+03  0.48676278641E+03  0.25500000920E-02 0.  1.
</event>
<event>
 5   0  0.2304842E-04  0.1198634E+04  0.7818609E-02  0.9114053E-01
       -1   -1    0    0    0  501  0.00000000000E+00  0.00000000000E+00  0.10988253751E+04  0.10988253751E+04  0.50400001928E-02 0.  1.
        1   -1    0    0  501    0  0.00000000000E+00  0.00000000000E+00 -0.32687736278E+03  0.32687736282E+03  0.50400001928E-02 0. -1.
    10030    2    1    2    0    0  0.00000000000E+00  0.00000000000E+00  0.77194801231E+03  0.14257027379E+04  0.11986344577E+04 0.  0.
        4    1    3    3  502    0 -0.28180708321E+03  0.24744116302E+03  0.94201252682E+03  0.10139189193E+04  0.12699999809E+01 0.  1.
       -4    1    3    3    0  502  0.28180708321E+03 -0.24744116302E+03 -0.17006451451E+03  0.41178381865E+03  0.12699999809E+01 0. -1.
</event>
<event>
 5   0  0.4122956E-04  0.1200112E+04  0.7818609E-02  0.9112759E-01
        2   -1    0    0  501    0  0.00000000000E+00  0.00000000000E+00  0.99483550516E+03  0.99483550516E+03  0.25500000920E-02 0.  1.
       -2   -1    0    0    0  501  0.00000000000E+00  0.00000000000E+00 -0.36193640319E+03  0.36193640320E+03  0.25500000920E-02 0. -1.
    10030    2    1    2    0    0  0.00000000000E+00  0.00000000000E+00  0.63289910197E+03  0.13567719084E+04  0.12001119690E+04 0.  0.
        5    1    3    3  502    0  0.50982910613E+01  0.50359334913E+03 -0.52342960830E+02  0.50635375916E+03  0.46999998093E+01 0. -1.
       -5    1    3    3    0  502 -0.50982910613E+01 -0.50359334913E+03  0.68524206280E+03  0.85041814920E+03  0.46999998093E+01 0.  1.
</event>
<event>
 5   0  0.2315038E-04  0.1199261E+04  0.7818609E-02  0.9113504E-01
       -1   -1    0    0    0  501  0.00000000000E+00  0.00000000000E+00  0.61445391360E+03  0.61445391362E+03  0.50400001928E-02 0. -1.
        1   -1    0    0  501    0  0.00000000000E+00  0.00000000000E+00 -0.58516457326E+03  0.58516457328E+03  0.50400001928E-02 0.  1.
    10030    2    1    2    0    0  0.00000000000E+00  0.00000000000E+00  0.29289340341E+02  0.11996184869E+04  0.11992608760E+04 0.  0.
        1    1    3    3  502    0  0.51342915355E+03 -0.29390975137E+03  0.11247068560E+03  0.60219771903E+03  0.50400001928E-02 0. -1.
       -1    1    3    3    0  502 -0.51342915355E+03  0.29390975137E+03 -0.83181345259E+02  0.59742076787E+03  0.50400001928E-02 0.  1.
</event>
<event>
 5   0  0.2304842E-04  0.1195737E+04  0.7818609E-02  0.9116597E-01
        1   -1    0    0  501    0  0.00000000000E+00  0.00000000000E+00  0.53134471429E+03  0.53134471431E+03  0.50400001928E-02 0. -1.
       -1   -1    0    0    0  501  0.00000000000E+00  0.00000000000E+00 -0.67272043992E+03  0.67272043994E+03  0.50400001928E-02 0.  1.
    10030    2    1    2    0    0  0.00000000000E+00  0.00000000000E+00 -0.14137572563E+03  0.12040651543E+04  0.11957365094E+04 0.  0.
        4    1    3    3  502    0 -0.17550705324E+03  0.25504970134E+03 -0.58571075006E+03  0.66250416718E+03  0.12699999809E+01 0.  1.
       -4    1    3    3    0  502  0.17550705324E+03 -0.25504970134E+03  0.44433502443E+03  0.54156098708E+03  0.12699999809E+01 0. -1.
</event>
<event>
 5   0  0.2244308E-04  0.1190082E+04  0.7818609E-02  0.9121582E-01
        1   -1    0    0  501    0  0.00000000000E+00  0.00000000000E+00  0.10146999592E+04  0.10146999592E+04  0.50400001928E-02 0. -1.
       -1   -1    0    0    0  501  0.00000000000E+00  0.00000000000E+00 -0.34894443854E+03  0.34894443858E+03  0.50400001928E-02 0.  1.
    10030    2    1    2    0    0  0.00000000000E+00  0.00000000000E+00  0.66575552067E+03  0.13636443978E+04  0.11900821948E+04 0.  0.
        5    1    3    3  502    0 -0.42049054305E+03  0.94908727311E+02  0.80285658509E+03  0.91127424497E+03  0.46999998093E+01 0. -1.
       -5    1    3    3    0  502  0.42049054305E+03 -0.94908727311E+02 -0.13710106442E+03  0.45237015284E+03  0.46999998093E+01 0.  1.
</event>
<event>
 5   0  0.3832662E-04  0.1199637E+04  0.7818609E-02  0.9113175E-01
       -2   -1    0    0    0  501  0.00000000000E+00  0.00000000000E+00  0.22639486801E+03  0.22639486803E+03  0.25500000920E-02 0.  1.
        2   -1    0    0  501    0  0.00000000000E+00  0.00000000000E+00 -0.15891789109E+04  0.15891789109E+04  0.25500000920E-02 0. -1.
    10030    2    1    2    0    0  0.00000000000E+00  0.00000000000E+00 -0.13627840429E+04  0.18155737789E+04  0.11996365279E+04 0.  0.
        4    1    3    3  502    0  0.35585603518E+03  0.47878786838E+03 -0.58676899253E+03  0.83676209533E+03  0.12699999809E+01 0. -1.
       -4    1    3    3    0  502 -0.35585603518E+03 -0.47878786838E+03 -0.77601505032E+03  0.97881168357E+03  0.12699999809E+01 0.  1.
</event>
<event>
 5   0  0.2315038E-04  0.1201145E+04  0.7818609E-02  0.9111855E-01
        1   -1    0    0  501    0  0.00000000000E+00  0.00000000000E+00  0.62557735349E+03  0.62557735351E+03  0.50400001928E-02 0. -1.
       -1   -1    0    0    0  501  0.00000000000E+00  0.00000000000E+00 -0.57656746488E+03  0.57656746490E+03  0.50400001928E-02 0.  1.
    10030    2    1    2    0    0  0.00000000000E+00  0.00000000000E+00  0.49009888611E+02  0.12021448184E+04  0.12011453681E+04 0.  0.
        1    1    3    3  502    0  0.22989640354E+03 -0.12484250567E+02 -0.53064510501E+03  0.57843966009E+03  0.50400001928E-02 0.  1.
       -1    1    3    3    0  502 -0.22989640354E+03  0.12484250567E+02  0.57965499362E+03  0.62370515833E+03  0.50400001928E-02 0. -1.
</event>
<event>
 5   0  0.3883890E-04  0.1198068E+04  0.7818609E-02  0.9114550E-01
        2   -1    0    0  501    0  0.00000000000E+00  0.00000000000E+00  0.15818305683E+04  0.15818305683E+04  0.25500000920E-02 0. -1.
       -2   -1    0    0    0  501  0.00000000000E+00  0.00000000000E+00 -0.22685205569E+03  0.22685205571E+03  0.25500000920E-02 0.  1.
    10030    2    1    2    0    0  0.00000000000E+00  0.00000000000E+00  0.13549785126E+04  0.18086826240E+04  0.11980676378E+04 0.  0.
        2    1    3    3  502    0  0.32627085582E+03 -0.32897239004E+03  0.12506975569E+04  0.13337615543E+04  0.25500000920E-02 0. -1.
       -2    1    3    3    0  502 -0.32627085582E+03  0.32897239004E+03  0.10428095569E+03  0.47492106975E+03  0.25500000920E-02 0.  1.
</event>
<event>
 5   0  0.4122956E-04  0.1197631E+04  0.7818609E-02  0.9114933E-01
       -2   -1    0    0    0  501  0.00000000000E+00  0.00000000000E+00  0.10273453577E+04  0.10273453577E+04  0.25500000920E-02 0.  1.
        2   -1    0    0  501    0  0.00000000000E+00  0.00000000000E+00 -0.34903539654E+03  0.34903539655E+03  0.25500000920E-02 0. -1.
    10030    2    1    2    0    0  0.00000000000E+00  0.00000000000E+00  0.67830996113E+03  0.13763807542E+04  0.11976308184E+04 0.  0.
        5    1    3    3  502    0  0.21281474788E+03 -0.25188619374E+03  0.91357574147E+03  0.97127725028E+03  0.46999998093E+01 0.  1.
       -5    1    3    3    0  502 -0.21281474788E+03  0.25188619374E+03 -0.23526578033E+03  0.40510350395E+03  0.46999998093E+01 0. -1.
</event>
<event>
 5   0  0.2340731E-04  0.1191145E+04  0.7818609E-02  0.9120643E-01
       -1   -1    0    0    0  501  0.00000000000E+00  0.00000000000E+00  0.51572155700E+03  0.51572155703E+03  0.50400001928E-02 0.  1.
        1   -1    0    0  501    0  0.00000000000E+00  0.00000000000E+00 -0.68778720693E+03  0.68778720694E+03  0.50400001928E-02 0. -1.
    10030    2    1    2    0    0  0.00000000000E+00  0.00000000000E+00 -0.17206564992E+03  0.12035087640E+04  0.11911451453E+04 0.  0.
        3    1    3    3  502    0  0.24438361709E+03  0.10592868191E+03  0.45218989656E+03  0.52480467862E+03  0.10100000352E+00 0.  1.
       -3    1    3    3    0  502 -0.24438361709E+03 -0.10592868191E+03 -0.62425554649E+03  0.67870408535E+03  0.10100000352E+00 0. -1.
</event>
<event>
 5   0  0.1541375E-04  0.1200104E+04  0.7818609E-02  0.9112765E-01
        3   -1    0    0  501    0  0.00000000000E+00  0.00000000000E+00  0.28366229513E+03  0.28366231311E+03  0.10100000352E+00 0. -1.
       -3   -1    0    0    0  501  0.00000000000E+00  0.00000000000E+00 -0.12693348868E+04  0.12693348908E+04  0.10100000352E+00 0.  1.
    10030    2    1    2    0    0  0.00000000000E+00  0.00000000000E+00 -0.98567259167E+03  0.15529972039E+04  0.12001041028E+04 0.  0.
        1    1    3    3  502    0  0.46190572502E+03 -0.34118185449E+03 -0.26758012039E+03  0.63353064447E+03  0.50400001928E-02 0.  1.
       -1    1    3    3    0  502 -0.46190572502E+03  0.34118185449E+03 -0.71809247128E+03  0.91946655946E+03  0.50400001928E-02 0. -1.
</event>
<event>
 5   0  0.2244308E-04  0.1200590E+04  0.7818609E-02  0.9112340E-01
        1   -1    0    0  501    0  0.00000000000E+00  0.00000000000E+00  0.23071299695E+04  0.23071299695E+04  0.50400001928E-02 0. -1.
       -1   -1    0    0    0  501  0.00000000000E+00  0.00000000000E+00 -0.15619161177E+03  0.15619161185E+03  0.50400001928E-02 0.  1.
    10030    2    1    2    0    0  0.00000000000E+00  0.00000000000E+00  0.21509383577E+04  0.24633215813E+04  0.12005904358E+04 0.  0.
        5    1    3    3  502    0 -0.52171801987E+03 -0.28776012494E+03  0.92558296644E+03  0.11007822217E+04  0.46999998093E+01 0. -1.
       -5    1    3    3    0  502  0.52171801987E+03  0.28776012494E+03  0.12253553913E+04  0.13625393597E+04  0.46999998093E+01 0.  1.
</event>
<event>
 5   0  0.3883890E-04  0.1201411E+04  0.7818609E-02  0.9111622E-01
        2   -1    0    0  501    0  0.00000000000E+00  0.00000000000E+00  0.26235244995E+03  0.26235244996E+03  0.25500000920E-02 0. -1.
       -2   -1    0    0    0  501  0.00000000000E+00  0.00000000000E+00 -0.13754293981E+04  0.13754293981E+04  0.25500000920E-02 0.  1.
    10030    2    1    2    0    0  0.00000000000E+00  0.00000000000E+00 -0.11130769482E+04  0.16377818481E+04  0.12014112907E+04 0.  0.
        2    1    3    3  502    0  0.45637301620E+03 -0.10868475288E+03 -0.45090146721E+02  0.47129802329E+03  0.25500000920E-02 0. -1.
       -2    1    3    3    0  502 -0.45637301620E+03  0.10868475288E+03 -0.10679868015E+04  0.11664838248E+04  0.25500000920E-02 0.  1.
</event>
<event>
 5   0  0.2304842E-04  0.1207218E+04  0.7818609E-02  0.9106562E-01
       -1   -1    0    0    0  501  0.00000000000E+00  0.00000000000E+00  0.36889707509E+03  0.36889707512E+03  0.50400001928E-02 0.  1.
        1   -1    0    0  501    0  0.00000000000E+00  0.00000000000E+00 -0.98765791802E+03  0.98765791803E+03  0.50400001928E-02 0. -1.
    10030    2    1    2    0    0  0.00000000000E+00  0.00000000000E+00 -0.61876084293E+03  0.13565549932E+04  0.12072184842E+04 0.  0.
        4    1    3    3  502    0 -0.51647125131E+01  0.12409806473E+03 -0.97314131134E+03  0.98103650730E+03  0.12699999809E+01 0. -1.
       -4    1    3    3    0  502  0.51647125131E+01 -0.12409806473E+03  0.35438046841E+03  0.37551848585E+03  0.12699999809E+01 0.  1.
</event>
<event>
 5   0  0.3993723E-04  0.1197480E+04  0.7818609E-02  0.9115065E-01
       -2   -1    0    0    0  501  0.00000000000E+00  0.00000000000E+00  0.18519086389E+03  0.18519086391E+03  0.25500000920E-02 0. -1.
        2   -1    0    0  501    0  0.00000000000E+00  0.00000000000E+00 -0.19357844875E+04  0.19357844875E+04  0.25500000920E-02 0.  1.
    10030    2    1    2    0    0  0.00000000000E+00  0.00000000000E+00 -0.17505936236E+04  0.21209753514E+04  0.11974800233E+04 0.  0.
        3    1    3    3  502    0 -0.22272609700E+03  0.55570265760E+03 -0.85973106412E+03  0.10476401437E+04  0.10100000352E+00 0. -1.
       -3    1    3    3    0  502  0.22272609700E+03 -0.55570265760E+03 -0.89086255952E+03  0.10733352077E+04  0.10100000352E+00 0.  1.
</event>
<event>
 5   0  0.4122956E-04  0.1204581E+04  0.7818609E-02  0.9108857E-01
       -2   -1    0    0    0  501  0.00000000000E+00  0.00000000000E+00  0.28579798504E+03  0.28579798505E+03  0.25500000920E-02 0. -1.
        2   -1    0    0  501    0  0.00000000000E+00  0.00000000000E+00 -0.12692658310E+04  0.12692658310E+04  0.25500000920E-02 0.  1.
    10030    2    1    2    0    0  0.00000000000E+00  0.00000000000E+00 -0.98346784595E+03  0.15550638160E+04  0.12045806191E+04 0.  0.
        5    1    3    3  502    0 -0.53624197848E+03 -0.14717245176E+03 -0.19308872602E+03  0.58865994951E+03  0.46999998093E+01 0.  1.
       -5    1    3    3    0  502  0.53624197848E+03  0.14717245176E+03 -0.79037911993E+03  0.96640386654E+03  0.46999998093E+01 0. -1.
</event>
<event>
 5   0  0.3832662E-04  0.1205647E+04  0.7818609E-02  0.9107928E-01
        2   -1    0    0  501    0  0.00000000000E+00  0.00000000000E+00  0.14116604673E+04  0.14116604673E+04  0.25500000920E-02 0.  1.
       -2   -1    0    0    0  501  0.00000000000E+00  0.00000000000E+00 -0.25742463334E+03  0.25742463335E+03  0.25500000920E-02 0. -1.
    10030    2    1    2    0    0  0.00000000000E+00  0.00000000000E+00  0.11542358340E+04  0.16690851007E+04  0.12056470100E+04 0.  0.
        4    1    3    3  502    0 -0.28719985940E+03  0.42832035674E+03  0.10092880506E+04  0.11334046362E+04  0.12699999809E+01 0.  1.
       -4    1    3    3    0  502  0.28719985940E+03 -0.42832035674E+03  0.14494778332E+03  0.53568046448E+03  0.12699999809E+01 0. -1.
</event>
<event>
 5   0  0.2304842E-04  0.1183109E+04  0.7818609E-02  0.9127771E-01
       -1   -1    0    0    0  501  0.00000000000E+00  0.00000000000E+00  0.48074790226E+03  0.48074790229E+03  0.50400001928E-02 0. -1.
        1   -1    0    0  501    0  0.00000000000E+00  0.00000000000E+00 -0.72790114655E+03  0.72790114657E+03  0.50400001928E-02 0.  1.
    10030    2    1    2    0    0  0.00000000000E+00  0.00000000000E+00 -0.24715324429E+03  0.12086490489E+04  0.11831093767E+04 0.  0.
        4    1    3    3  502    0 -0.32574013453E+03 -0.95464541013E+02  0.37135584797E+03  0.50311717577E+03  0.12699999809E+01 0. -1.
       -4    1    3    3    0  502  0.32574013453E+03  0.95464541013E+02 -0.61850909226E+03  0.70553187308E+03  0.12699999809E+01 0.  1.
</event>
<event>
 5   0  0.4024486E-04  0.1199661E+04  0.7818609E-02  0.9113153E-01
       -2   -1    0    0    0  501  0.00000000000E+00  0.00000000000E+00  0.47560579367E+03  0.47560579368E+03  0.25500000920E-02 0.  1.
        2   -1    0    0  501    0  0.00000000000E+00  0.00000000000E+00 -0.75650151628E+03  0.75650151628E+03  0.25500000920E-02 0. -1.
    10030    2    1    2    0    0  0.00000000000E+00  0.00000000000E+00 -0.28089572260E+03  0.12321073100E+04  0.11996607922E+04 0.  0.
        1    1    3    3  502    0  0.53599932489E+03 -0.26142508000E+03 -0.74220047060E+02  0.60095504337E+03  0.50400001928E-02 0. -1.
       -1    1    3    3    0  502 -0.53599932489E+03  0.26142508000E+03 -0.20667567554E+03  0.63115226659E+03  0.50400001928E-02 0.  1.
</event>
<event>
 5   0  0.2304842E-04  0.1202384E+04  0.7818609E-02  0.9110772E-01
        1   -1    0    0  501    0  0.00000000000E+00  0.00000000000E+00  0.55204303993E+03  0.55204303995E+03  0.50400001928E-02 0. -1.
       -1   -1    0    0    0  501  0.00000000000E+00  0.00000000000E+00 -0.65471700193E+03  0.65471700195E+03  0.50400001928E-02 0.  1.
    10030    2    1    2    0    0  0.00000000000E+00  0.00000000000E+00 -0.10267396200E+03  0.12067600419E+04  0.12023842382E+04 0.  0.
        4    1    3    3  502    0  0.57146031529E+03  0.82082647853E+02 -0.21965509127E+03  0.61770091877E+03  0.12699999809E+01 0.  1.
       -4    1    3    3    0  502 -0.57146031529E+03 -0.82082647853E+02  0.11698112927E+03  0.58905912313E+03  0.12699999809E+01 0. -1.
</event>
<event>
 5   0  0.3832662E-04  0.1195034E+04  0.7818609E-02  0.9117214E-01
       -2   -1    0    0    0  501  0.00000000000E+00  0.00000000000E+00  0.64705490900E+03  0.64705490901E+03  0.25500000920E-02 0.  1.
        2   -1    0    0  501    0  0.00000000000E+00  0.00000000000E+00 -0.55177208037E+03  0.55177208038E+03  0.25500000920E-02 0. -1.
    10030    2    1    2    0    0  0.00000000000E+00  0.00000000000E+00  0.95282828628E+02  0.11988269894E+04  0.11950344485E+04 0.  0.
        4    1    3    3  502    0 -0.47325558846E+03  0.59463543550E+01 -0.31823375928E+03  0.57033371773E+03  0.12699999809E+01 0. -1.
       -4    1    3    3    0  502  0.47325558846E+03 -0.59463543550E+01  0.41351658791E+03  0.62849327165E+03  0.12699999809E+01 0.  1.
</event>
<event>
 5   0  0.2315038E-04  0.1202374E+04  0.7818609E-02  0.9110781E-01
       -1   -1    0    0    0  501  0.00000000000E+00  0.00000000000E+00  0.27443718585E+03  0.27443718590E+03  0.50400001928E-02 0. -1.
        1   -1    0    0  501    0  0.00000000000E+00  0.00000000000E+00 -0.13169706344E+04  0.13169706344E+04  0.50400001928E-02 0.  1.
    10030    2    1    2    0    0  0.00000000000E+00  0.00000000000E+00 -0.10425334486E+04  0.15914078203E+04  0.12023738434E+04 0.  0.
        1    1    3    3  502    0 -0.40885153664E+03  0.80465365994E+02 -0.10948280870E+04  0.11714447465E+04  0.50400001928E-02 0.  1.
       -1    1    3    3    0  502  0.40885153664E+03 -0.80465365994E+02  0.52294638381E+02  0.41996307381E+03  0.50400001928E-02 0. -1.
</event>
<event>
 5   0  0.4122956E-04  0.1200250E+04  0.7818609E-02  0.9112638E-01
        2   -1    0    0  501    0  0.00000000000E+00  0.00000000000E+00  0.13604353092E+04  0.13604353092E+04  0.25500000920E-02 0.  1.
       -2   -1    0    0    0  501  0.00000000000E+00  0.00000000000E+00 -0.26473139588E+03  0.26473139589E+03  0.25500000920E-02 0. -1.
    10030    2    1    2    0    0  0.00000000000E+00  0.00000000000E+00  0.10957039133E+04  0.16251667051E+04  0.12002498714E+04 0.  0.
        5    1    3    3  502    0  0.50563044696E+03  0.25986992099E+03  0.80806882409E+03  0.98802420982E+03  0.46999998093E+01 0.  1.
       -5    1    3    3    0  502 -0.50563044696E+03 -0.25986992099E+03  0.28763508924E+03  0.63714249528E+03  0.46999998093E+01 0. -1.
</event>
<event>
 5   0  0.4122956E-04  0.1199576E+04  0.7818609E-02  0.9113228E-01
       -2   -1    0    0    0  501  0.00000000000E+00  0.00000000000E+00  0.40880417100E+03  0.40880417101E+03  0.25500000920E-02 0. -1.
        2   -1    0    0  501    0  0.00000000000E+00  0.00000000000E+00 -0.87999500623E+03  0.87999500624E+03  0.25500000920E-02 0.  1.
    10030    2    1    2    0    0  0.00000000000E+00  0.00000000000E+00 -0.47119083523E+03  0.12887991772E+04  0.11995759734E+04 0.  0.
        5    1    3    3  502    0  0.51514178318E+03  0.23820751351E+03 -0.27238842015E+02  0.56822347785E+03  0.46999998093E+01 0. -1.
       -5    1    3    3    0  502 -0.51514178318E+03 -0.23820751351E+03 -0.44395199322E+03  0.72057569939E+03  0.46999998093E+01 0.  1.
</event>
<event>
 5   0  0.3883890E-04  0.1210331E+04  0.7818609E-02  0.9103862E-01
        2   -1    0    0  501    0  0.00000000000E+00  0.00000000000E+00  0.94743968295E+03  0.94743968295E+03  0.25500000920E-02 0. -1.
       -2   -1    0    0    0  501  0.00000000000E+00  0.00000000000E+00 -0.38654209791E+03  0.38654209792E+03  0.25500000920E-02 0.  1.
    10030    2    1    2    0    0  0.00000000000E+00  0.00000000000E+00  0.56089758504E+03  0.13339817809E+04  0.12103310666E+04 0.  0.
        2    1    3    3  502    0  0.16845195544E+03  0.16353479047E+02 -0.35992750042E+03  0.39773270313E+03  0.25500000920E-02 0.  1.
       -2    1    3    3    0  502 -0.16845195544E+03 -0.16353479047E+02  0.92082508546E+03  0.93624907775E+03  0.25500000920E-02 0. -1.
</event>
<event>
 5   0  0.3883890E-04  0.1200589E+04  0.7818609E-02  0.9112341E-01
        2   -1    0    0  501    0  0.00000000000E+00  0.00000000000E+00  0.13131697167E+04  0.13131697167E+04  0.25500000920E-02 0. -1.
       -2   -1    0    0    0  501  0.00000000000E+00  0.00000000000E+00 -0.27441487020E+03  0.27441487021E+03  0.25500000920E-02 0.  1.
    10030    2    1    2    0    0  0.00000000000E+00  0.00000000000E+00  0.10387548465E+04  0.15875845869E+04  0.12005886845E+04 0.  0.
        2    1    3    3  502    0  0.19024485367E+03  0.27569285586E+03  0.11781006165E+04  0.12247941532E+04  0.25500000920E-02 0. -1.
       -2    1    3    3    0  502 -0.19024485367E+03 -0.27569285586E+03 -0.13934577004E+03  0.36279043366E+03  0.25500000920E-02 0.  1.
</event>
<event>
 5   0  0.4024486E-04  0.1198652E+04  0.7818609E-02  0.9114038E-01
       -2   -1    0    0    0  501  0.00000000000E+00  0.00000000000E+00  0.15989646184E+03  0.15989646186E+03  0.25500000920E-02 0.  1.
        2   -1    0    0  501    0  0.00000000000E+00  0.00000000000E+00 -0.22464001981E+04  0.22464001981E+04  0.25500000920E-02 0. -1.
    10030    2    1    2    0    0  0.00000000000E+00  0.00000000000E+00 -0.20865037363E+04  0.24062966600E+04  0.11986516484E+04 0.  0.
        1    1    3    3  502    0 -0.40623570227E+03  0.25375069818E+03 -0.32006422181E+03  0.57607114902E+03  0.50400001928E-02 0.  1.
       -1    1    3    3    0  502  0.40623570227E+03 -0.25375069818E+03 -0.17664395145E+04  0.18302255110E+04  0.50400001928E-02 0. -1.
</event>
<event>
 5   0  0.2340731E-04  0.1198208E+04  0.7818609E-02  0.9114426E-01
        1   -1    0    0  501    0  0.00000000000E+00  0.00000000000E+00  0.43103975920E+03  0.43103975923E+03  0.50400001928E-02 0.  1.
       -1   -1    0    0    0  501  0.00000000000E+00  0.00000000000E+00 -0.83269783737E+03  0.83269783738E+03  0.50400001928E-02 0. -1.
    10030    2    1    2    0    0  0.00000000000E+00  0.00000000000E+00 -0.40165807817E+03  0.12637375966E+04  0.11982084549E+04 0.  0.
        3    1    3    3  502    0 -0.35914461594E+02 -0.52475902637E+03  0.10167375270E+03  0.53572329285E+03  0.10100000352E+00 0.  1.
       -3    1    3    3    0  502  0.35914461594E+02  0.52475902637E+03 -0.50333183087E+03  0.72801430376E+03  0.10100000352E+00 0. -1.
</event>
<event>
 5   0  0.2340731E-04  0.1199398E+04  0.7818609E-02  0.9113384E-01
       -1   -1    0    0    0  501  0.00000000000E+00  0.00000000000E+00  0.26493414707E+03  0.26493414712E+03  0.50400001928E-02 0.  1.
        1   -1    0    0  501    0  0.00000000000E+00  0.00000000000E+00 -0.13574643534E+04  0.13574643534E+04  0.50400001928E-02 0. -1.
    10030    2    1    2    0    0  0.00000000000E+00  0.00000000000E+00 -0.10925302063E+04  0.16223985005E+04  0.11993976166E+04 0.  0.
        3    1    3    3  502    0  0.31689089391E+03 -0.39806678307E+03 -0.11688493091E+03  0.52205277483E+03  0.10100000352E+00 0.  1.
       -3    1    3    3    0  502 -0.31689089391E+03  0.39806678307E+03 -0.97564527543E+03  0.11003457257E+04  0.10100000352E+00 0. -1.
</event>
<event>
 5   0  0.1541375E-04  0.1218339E+04  0.7818609E-02  0.9096955E-01
        3   -1    0    0  501    0  0.00000000000E+00  0.00000000000E+00  0.63778221176E+03  0.63778221976E+03  0.10100000352E+00 0. -1.
       -3   -1    0    0    0  501  0.00000000000E+00  0.00000000000E+00 -0.58184004724E+03  0.58184005600E+03  0.10100000352E+00 0.  1.
    10030    2    1    2    0    0  0.00000000000E+00  0.00000000000E+00  0.55942164527E+02  0.12196222758E+04  0.12183386105E+04 0.  0.
        4    1    3    3  502    0 -0.16360035306E+03  0.22475512757E+03 -0.51463847497E+03  0.58492248692E+03  0.12699999809E+01 0.  1.
       -4    1    3    3    0  502  0.16360035306E+03 -0.22475512757E+03  0.57058063950E+03  0.63469978884E+03  0.12699999809E+01 0. -1.
</event>
<event>
 5   0  0.3993723E-04  0.1203057E+04  0.7818609E-02  0.9110185E-01
       -2   -1    0    0    0  501  0.00000000000E+00  0.00000000000E+00  0.34216274005E+03  0.34216274006E+03  0.25500000920E-02 0.  1.
        2   -1    0    0  501    0  0.00000000000E+00  0.00000000000E+00 -0.10574990842E+04  0.10574990842E+04  0.25500000920E-02 0. -1.
    10030    2    1    2    0    0  0.00000000000E+00  0.00000000000E+00 -0.71533634416E+03  0.13996618243E+04  0.12030574122E+04 0.  0.
        3    1    3    3  502    0  0.40618107082E+03  0.44324866169E+03 -0.33485991391E+03  0.68817411353E+03  0.10100000352E+00 0. -1.
       -3    1    3    3    0  502 -0.40618107082E+03 -0.44324866169E+03 -0.38047643024E+03  0.71148771075E+03  0.10100000352E+00 0.  1.
</event>
<event>
 5   0  0.2304842E-04  0.1200412E+04  0.7818609E-02  0.9112496E-01
       -1   -1    0    0    0  501  0.00000000000E+00  0.00000000000E+00  0.43118120821E+03  0.43118120824E+03  0.50400001928E-02 0.  1.
        1   -1    0    0  501    0  0.00000000000E+00  0.00000000000E+00 -0.83548919980E+03  0.83548919982E+03  0.50400001928E-02 0. -1.
    10030    2    1    2    0    0  0.00000000000E+00  0.00000000000E+00 -0.40430799159E+03  0.12666704081E+04  0.12004120003E+04 0.  0.
        4    1    3    3  502    0  0.66893087254E+02 -0.52688169595E+03 -0.49716890971E+03  0.72750088957E+03  0.12699999809E+01 0. -1.
       -4    1    3    3    0  502 -0.66893087254E+02  0.52688169595E+03  0.92860918115E+02  0.53916951848E+03  0.12699999809E+01 0.  1.
</event>
<event>
 5   0  0.3883890E-04  0.1200566E+04  0.7818609E-02  0.9112361E-01
        2   -1    0    0  501    0  0.00000000000E+00  0.00000000000E+00  0.10957805425E+04  0.10957805425E+04  0.25500000920E-02 0.  1.
       -2   -1    0    0    0  501  0.00000000000E+00  0.00000000000E+00 -0.32884293134E+03  0.32884293135E+03  0.25500000920E-02 0. -1.
    10030    2    1    2    0    0  0.00000000000E+00  0.00000000000E+00  0.76693761120E+03  0.14246234739E+04  0.12005660094E+04 0.  0.
        2    1    3    3  502    0  0.90923801011E+01  0.21788680853E+02  0.10952293834E+04  0.10954838293E+04  0.25500000920E-02 0.  1.
       -2    1    3    3    0  502 -0.90923801011E+01 -0.21788680853E+02 -0.32829177216E+03  0.32913964462E+03  0.25500000920E-02 0. -1.
</event>
<event>
 5   0  0.2304842E-04  0.1197766E+04  0.7818609E-02  0.9114814E-01
        1   -1    0    0  501    0  0.00000000000E+00  0.00000000000E+00  0.15953077759E+04  0.15953077759E+04  0.50400001928E-02 0. -1.
       -1   -1    0    0    0  501  0.00000000000E+00  0.00000000000E+00 -0.22482236892E+03  0.22482236897E+03  0.50400001928E-02 0.  1.
    10030    2    1    2    0    0  0.00000000000E+00  0.00000000000E+00  0.13704854070E+04  0.18201301449E+04  0.11977660429E+04 0.  0.
        4    1    3    3  502    0  0.34820381640E+03 -0.34632241859E+03  0.16440598667E+03  0.51789579717E+03  0.12699999809E+01 0.  1.
       -4    1    3    3    0  502 -0.34820381640E+03  0.34632241859E+03  0.12060794203E+04  0.13022343477E+04  0.12699999809E+01 0. -1.
</event>
<event>
 5   0  0.2315038E-04  0.1199192E+04  0.7818609E-02  0.9113564E-01
        1   -1    0    0  501    0  0.00000000000E+00  0.00000000000E+00  0.37655084447E+03  0.37655084450E+03  0.50400001928E-02 0.  1.
       -1   -1    0    0    0  501  0.00000000000E+00  0.00000000000E+00 -0.95475842652E+03  0.95475842653E+03  0.50400001928E-02 0. -1.
    10030    2    1    2    0    0  0.00000000000E+00  0.00000000000E+00 -0.57820758205E+03  0.13313092710E+04  0.11991915473E+04 0.  0.
        1    1    3    3  502    0 -0.40402001915E+03  0.40382898292E+03 -0.49140225612E+03  0.75351589278E+03  0.50400001928E-02 0. -1.
       -1    1    3    3    0  502  0.40402001915E+03 -0.40382898292E+03 -0.86805325921E+02  0.57779337825E+03  0.50400001928E-02 0.  1.
</event>
<event>
 5   0  0.2204090E-04  0.1193521E+04  0.7818609E-02  0.9118546E-01
        1   -1    0    0  501    0  0.00000000000E+00  0.00000000000E+00  0.72407627894E+03  0.72407627896E+03  0.50400001928E-02 0.  1.
       -1   -1    0    0    0  501  0.00000000000E+00  0.00000000000E+00 -0.49183108857E+03  0.49183108860E+03  0.50400001928E-02 0. -1.
    10030    2    1    2    0    0  0.00000000000E+00  0.00000000000E+00  0.23224519037E+03  0.12159073676E+04  0.11935212181E+04 0.  0.
        2    1    3    3  502    0  0.16174697045E+03  0.15839736152E+03 -0.44638540190E+03  0.50051147202E+03  0.25500000920E-02 0. -1.
       -2    1    3    3    0  502 -0.16174697045E+03 -0.15839736152E+03  0.67863059227E+03  0.71539589554E+03  0.25500000920E-02 0.  1.
</event>
<event>
 5   0  0.2340731E-04  0.1197816E+04  0.7818609E-02  0.9114771E-01
        1   -1    0    0  501    0  0.00000000000E+00  0.00000000000E+00  0.74913897818E+03  0.74913897820E+03  0.50400001928E-02 0.  1.
       -1   -1    0    0    0  501  0.00000000000E+00  0.00000000000E+00 -0.47880391111E+03  0.47880391114E+03  0.50400001928E-02 0. -1.
    10030    2    1    2    0    0  0.00000000000E+00  0.00000000000E+00  0.27033506707E+03  0.12279428893E+04  0.11978158001E+04 0.  0.
        3    1    3    3  502    0 -0.37798805291E+03  0.30950721148E+03 -0.21998647123E+03  0.53578329558E+03  0.10100000352E+00 0.  1.
       -3    1    3    3    0  502  0.37798805291E+03 -0.30950721148E+03  0.49032153830E+03  0.69215959375E+03  0.10100000352E+00 0. -1.
</event>
<event>
 5   0  0.3832662E-04  0.1199713E+04  0.7818609E-02  0.9113108E-01
        2   -1    0    0  501    0  0.00000000000E+00  0.00000000000E+00  0.15297302492E+04  0.15297302492E+04  0.25500000920E-02 0.  1.
       -2   -1    0    0    0  501  0.00000000000E+00  0.00000000000E+00 -0.23522313016E+03  0.23522313017E+03  0.25500000920E-02 0. -1.
    10030    2    1    2    0    0  0.00000000000E+00  0.00000000000E+00  0.12945071190E+04  0.17649533793E+04  0.11997131949E+04 0.  0.
        4    1    3    3  502    0  0.23600961137E+03  0.16560507530E+03 -0.12660389149E+03  0.31489003773E+03  0.12699999809E+01 0. -1.
       -4    1    3    3    0  502 -0.23600961137E+03 -0.16560507530E+03  0.14211110105E+04  0.14500633416E+04  0.12699999809E+01 0.  1.
</event>
<event>
 5   0  0.3832662E-04  0.1199832E+04  0.7818609E-02  0.9113004E-01
       -2   -1    0    0    0  501  0.00000000000E+00  0.00000000000E+00  0.40620382222E+03  0.40620382223E+03  0.25500000920E-02 0. -1.
        2   -1    0    0  501    0  0.00000000000E+00  0.00000000000E+00 -0.88600600439E+03  0.88600600439E+03  0.25500000920E-02 0.  1.
    10030    2    1    2    0    0  0.00000000000E+00  0.00000000000E+00 -0.47980218217E+03  0.12922098266E+04  0.11998316974E+04 0.  0.
        4    1    3    3  502    0 -0.29790698099E+03  0.33018325492E+03 -0.67355327249E+03  0.80712153666E+03  0.12699999809E+01 0.  1.
       -4    1    3    3    0  502  0.29790698099E+03 -0.33018325492E+03  0.19375109033E+03  0.48508828996E+03  0.12699999809E+01 0. -1.
</event>
<event>
 5   0  0.2204090E-04  0.1198741E+04  0.7818609E-02  0.9113959E-01
        1   -1    0    0  501    0  0.00000000000E+00  0.00000000000E+00  0.12343735171E+04  0.12343735171E+04  0.50400001928E-02 0.  1.
       -1   -1    0    0    0  501  0.00000000000E+00  0.00000000000E+00 -0.29103433580E+03  0.29103433585E+03  0.50400001928E-02 0. -1.
    10030    2    1    2    0    0  0.00000000000E+00  0.00000000000E+00  0.94333918128E+03  0.15254078529E+04  0.11987411342E+04 0.  0.
        2    1    3    3  502    0  0.35969331325E+03 -0.15957746758E+03  0.10469795550E+04  0.11184857783E+04  0.25500000920E-02 0.  1.
       -2    1    3    3    0  502 -0.35969331325E+03  0.15957746758E+03 -0.10364037369E+03  0.40692207463E+03  0.25500000920E-02 0. -1.
</event>
<event>
 5   0  0.3832662E-04  0.1201990E+04  0.7818609E-02  0.9111117E-01
        2   -1    0    0  501    0  0.00000000000E+00  0.00000000000E+00  0.18130100555E+04  0.18130100555E+04  0.25500000920E-02 0.  1.
       -2   -1    0    0    0  501  0.00000000000E+00  0.00000000000E+00 -0.19922387760E+03  0.19922387761E+03  0.25500000920E-02 0. -1.
    10030    2    1    2    0    0  0.00000000000E+00  0.00000000000E+00  0.16137861779E+04  0.20122339332E+04  0.12019898392E+04 0.  0.
        4    1    3    3  502    0  0.78423542841E+02  0.53174644688E+01  0.18043654541E+04  0.18060771945E+04  0.12699999809E+01 0.  1.
       -4    1    3    3    0  502 -0.78423542841E+02 -0.53174644688E+01 -0.19057927617E+03  0.20615673868E+03  0.12699999809E+01 0. -1.
</event>
<event>
 5   0  0.4024486E-04  0.1180609E+04  0.7818609E-02  0.9130001E-01
        2   -1    0    0  501    0  0.00000000000E+00  0.00000000000E+00  0.49219613189E+03  0.49219613189E+03  0.25500000920E-02 0. -1.
       -2   -1    0    0    0  501  0.00000000000E+00  0.00000000000E+00 -0.70796881539E+03  0.70796881539E+03  0.25500000920E-02 0.  1.
    10030    2    1    2    0    0  0.00000000000E+00  0.00000000000E+00 -0.21577268350E+03  0.12001649473E+04  0.11806091859E+04 0.  0.
        1    1    3    3  502    0  0.24187004965E+03  0.52220974542E+03  0.25649226781E+02  0.57607466703E+03  0.50400001928E-02 0. -1.
       -1    1    3    3    0  502 -0.24187004965E+03 -0.52220974542E+03 -0.24142191028E+03  0.62409028026E+03  0.50400001928E-02 0.  1.
</event>
<event>
 5   0  0.3832662E-04  0.1200499E+04  0.7818609E-02  0.9112420E-01
       -2   -1    0    0    0  501  0.00000000000E+00  0.00000000000E+00  0.74851423876E+03  0.74851423876E+03  0.25500000920E-02 0.  1.
        2   -1    0    0  501    0  0.00000000000E+00  0.00000000000E+00 -0.48135304467E+03  0.48135304468E+03  0.25500000920E-02 0. -1.
    10030    2    1    2    0    0  0.00000000000E+00  0.00000000000E+00  0.26716119409E+03  0.12298672834E+04  0.12004992425E+04 0.  0.
        4    1    3    3  502    0  0.55138929012E+03  0.17611618648E+03 -0.29212162896E+02  0.57957055115E+03  0.12699999809E+01 0. -1.
       -4    1    3    3    0  502 -0.55138929012E+03 -0.17611618648E+03  0.29637335698E+03  0.65029673229E+03  0.12699999809E+01 0.  1.
</event>
<event>
 5   0  0.2340731E-04  0.1196504E+04  0.7818609E-02  0.9115922E-01
       -1   -1    0    0    0  501  0.00000000000E+00  0.00000000000E+00  0.60479811885E+03  0.60479811887E+03  0.50400001928E-02 0. -1.
        1   -1    0    0  501    0  0.00000000000E+00  0.00000000000E+00 -0.59177718992E+03  0.59177718994E+03  0.50400001928E-02 0.  1.
    10030    2    1    2    0    0  0.00000000000E+00  0.00000000000E+00  0.13020928932E+02  0.11965753088E+04  0.11965044610E+04 0.  0.
        3    1    3    3  502    0 -0.24761796359E+03  0.12001817088E+03 -0.52473347452E+03  0.59250674825E+03  0.10100000352E+00 0.  1.
       -3    1    3    3    0  502  0.24761796359E+03 -0.12001817088E+03  0.53775440345E+03  0.60406856057E+03  0.10100000352E+00 0. -1.
</event>
<event>
 5   0  0.4122956E-04  0.1200616E+04  0.7818609E-02  0.9112318E-01
       -2   -1    0    0    0  501  0.00000000000E+00  0.00000000000E+00  0.27121842316E+03  0.27121842317E+03  0.25500000920E-02 0.  1.
        2   -1    0    0  501    0  0.00000000000E+00  0.00000000000E+00 -0.13287061351E+04  0.13287061351E+04  0.25500000920E-02 0. -1.
    10030    2    1    2    0    0  0.00000000000E+00  0.00000000000E+00 -0.10574877119E+04  0.15999245583E+04  0.12006158133E+04 0.  0.
        5    1    3    3  502    0 -0.43064304212E+03  0.31636163477E+03 -0.89322366155E+03  0.10408692104E+04  0.46999998093E+01 0. -1.
       -5    1    3    3    0  502  0.43064304212E+03 -0.31636163477E+03 -0.16426405036E+03  0.55905534782E+03  0.46999998093E+01 0.  1.
</event>
<event>
 5   0  0.2340731E-04  0.1199027E+04  0.7818609E-02  0.9113708E-01
       -1   -1    0    0    0  501  0.00000000000E+00  0.00000000000E+00  0.11148063049E+04  0.11148063049E+04  0.50400001928E-02 0. -1.
        1   -1    0    0  501    0  0.00000000000E+00  0.00000000000E+00 -0.32240267053E+03  0.32240267057E+03  0.50400001928E-02 0.  1.
    10030    2    1    2    0    0  0.00000000000E+00  0.00000000000E+00  0.79240363435E+03  0.14372089755E+04  0.11990271554E+04 0.  0.
        3    1    3    3  502    0 -0.45242535025E+03 -0.13230129717E+03 -0.47821971201E+02  0.47379244603E+03  0.10100000352E+00 0.  1.
       -3    1    3    3    0  502  0.45242535025E+03  0.13230129717E+03  0.84022560555E+03  0.96341652944E+03  0.10100000352E+00 0. -1.
</event>
<event>
 5   0  0.2340731E-04  0.1198996E+04  0.7818609E-02  0.9113736E-01
        1   -1    0    0  501    0  0.00000000000E+00  0.00000000000E+00  0.14334476971E+04  0.14334476972E+04  0.50400001928E-02 0. -1.
       -1   -1    0    0    0  501  0.00000000000E+00  0.00000000000E+00 -0.25072259503E+03  0.25072259508E+03  0.50400001928E-02 0.  1.
    10030    2    1    2    0    0  0.00000000000E+00  0.00000000000E+00  0.11827251021E+04  0.16841702922E+04  0.11989957907E+04 0.  0.
        3    1    3    3  502    0  0.10253973749E+03 -0.36436396105E+03  0.12443698813E+04  0.13006659469E+04  0.10100000352E+00 0.  1.
       -3    1    3    3    0  502 -0.10253973749E+03  0.36436396105E+03 -0.61644779142E+02  0.38350434531E+03  0.10100000352E+00 0. -1.
</event>
<event>
 5   0  0.3993723E-04  0.1201283E+04  0.7818609E-02  0.9111735E-01
        2   -1    0    0  501    0  0.00000000000E+00  0.00000000000E+00  0.37378482881E+03  0.37378482882E+03  0.25500000920E-02 0. -1.
       -2   -1    0    0    0  501  0.00000000000E+00  0.00000000000E+00 -0.96518090708E+03  0.96518090709E+03  0.25500000920E-02 0.  1.
    10030    2    1    2    0    0  0.00000000000E+00  0.00000000000E+00 -0.59139607827E+03  0.13389657359E+04  0.12012826148E+04 0.  0.
        3    1    3    3  502    0  0.31641640755E+03  0.30319592808E+03 -0.75353540155E+03  0.87170105275E+03  0.10100000352E+00 0.  1.
       -3    1    3    3    0  502 -0.31641640755E+03 -0.30319592808E+03  0.16213932328E+03  0.46726468316E+03  0.10100000352E+00 0. -1.
</event>
<event>
 5   0  0.2315038E-04  0.1204938E+04  0.7818609E-02  0.9108545E-01
       -1   -1    0    0    0  501  0.00000000000E+00  0.00000000000E+00  0.27864930058E+03  0.27864930063E+03  0.50400001928E-02 0. -1.
        1   -1    0    0  501    0  0.00000000000E+00  0.00000000000E+00 -0.13026005718E+04  0.13026005718E+04  0.50400001928E-02 0.  1.
    10030    2    1    2    0    0  0.00000000000E+00  0.00000000000E+00 -0.10239512712E+04  0.15812498724E+04  0.12049377383E+04 0.  0.
        1    1    3    3  502    0 -0.46816743954E+03 -0.10379643245E+03 -0.99058924437E+03  0.11005550881E+04  0.50400001928E-02 0.  1.
       -1    1    3    3    0  502  0.46816743954E+03  0.10379643245E+03 -0.33362026841E+02  0.48069478434E+03  0.50400001928E-02 0. -1.
</event>
<event>
 5   0  0.2304842E-04  0.1203528E+04  0.7818609E-02  0.9109774E-01
       -1   -1    0    0    0  501  0.00000000000E+00  0.00000000000E+00  0.86178937654E+03  0.86178937655E+03  0.50400001928E-02 0. -1.
        1   -1    0    0  501    0  0.00000000000E+00  0.00000000000E+00 -0.42019533938E+03  0.42019533941E+03  0.50400001928E-02 0.  1.
    10030    2    1    2    0    0  0.00000000000E+00  0.00000000000E+00  0.44159403716E+03  0.12819847160E+04  0.12035279466E+04 0.  0.
        4    1    3    3  502    0 -0.26552108914E+03  0.37712012502E+03  0.63251320332E+03  0.78281262301E+03  0.12699999809E+01 0. -1.
       -4    1    3    3    0  502  0.26552108914E+03 -0.37712012502E+03 -0.19091916615E+03  0.49917209295E+03  0.12699999809E+01 0.  1.
</event>
<event>
 5   0  0.2244308E-04  0.1200000E+04  0.7818609E-02  0.9112856E-01
        1   -1    0    0  501    0  0.00000000000E+00  0.00000000000E+00  0.35106583961E+03  0.35106583964E+03  0.50400001928E-02 0. -1.
       -1   -1    0    0    0  501  0.00000000000E+00  0.00000000000E+00 -0.10254488290E+04  0.10254488290E+04  0.50400001928E-02 0.  1.
    10030    2    1    2    0    0  0.00000000000E+00  0.00000000000E+00 -0.67438298935E+03  0.13765146686E+04  0.12000000902E+04 0.  0.
        5    1    3    3  502    0 -0.88984410465E+02 -0.24312018655E+03 -0.95805771437E+03  0.99243252893E+03  0.46999998093E+01 0.  1.
       -5    1    3    3    0  502  0.88984410465E+02  0.24312018655E+03  0.28367472502E+03  0.38408213969E+03  0.46999998093E+01 0. -1.
</event>
<event>
 5   0  0.2304842E-04  0.1193599E+04  0.7818609E-02  0.9118478E-01
        1   -1    0    0  501    0  0.00000000000E+00  0.00000000000E+00  0.15319421183E+04  0.15319421184E+04  0.50400001928E-02 0. -1.
       -1   -1    0    0    0  501  0.00000000000E+00  0.00000000000E+00 -0.23249535308E+03  0.23249535313E+03  0.50400001928E-02 0.  1.
    10030    2    1    2    0    0  0.00000000000E+00  0.00000000000E+00  0.12994467653E+04  0.17644374715E+04  0.11935986323E+04 0.  0.
        4    1    3    3  502    0  0.16235318734E+02 -0.20866170542E+03 -0.17646447464E+03  0.27376014427E+03  0.12699999809E+01 0.  1.
       -4    1    3    3    0  502 -0.16235318734E+02  0.20866170542E+03  0.14759112399E+04  0.14906773272E+04  0.12699999809E+01 0. -1.
</event>
<event>
 5   0  0.2315038E-04  0.1196537E+04  0.7818609E-02  0.9115893E-01
        1   -1    0    0  501    0  0.00000000000E+00  0.00000000000E+00  0.69591273308E+03  0.69591273310E+03  0.50400001928E-02 0.  1.
       -1   -1    0    0    0  501  0.00000000000E+00  0.00000000000E+00 -0.51432498226E+03  0.51432498229E+03  0.50400001928E-02 0. -1.
    10030    2    1    2    0    0  0.00000000000E+00  0.00000000000E+00  0.18158775082E+03  0.12102377154E+04  0.11965371772E+04 0.  0.
        1    1    3    3  502    0  0.44520083138E+03  0.20982368816E+03  0.43482901362E+03  0.65673893709E+03  0.50400001928E-02 0.  1.
       -1    1    3    3    0  502 -0.44520083138E+03 -0.20982368816E+03 -0.25324126279E+03  0.55349877830E+03  0.50400001928E-02 0. -1.
</event>
<event>
 5   0  0.3832662E-04  0.1202374E+04  0.7818609E-02  0.9110781E-01
       -2   -1    0    0    0  501  0.00000000000E+00  0.00000000000E+00  0.97221054071E+03  0.97221054072E+03  0.25500000920E-02 0. -1.
        2   -1    0    0  501    0  0.00000000000E+00  0.00000000000E+00 -0.37175673788E+03  0.37175673789E+03  0.25500000920E-02 0.  1.
    10030    2    1    2    0    0  0.00000000000E+00  0.00000000000E+00  0.60045380283E+03  0.13439672786E+04  0.12023740169E+04 0.  0.
        4    1    3    3  502    0 -0.56246228758E+03 -0.20652815681E+03  0.24539387663E+03  0.64748549952E+03  0.12699999809E+01 0. -1.
       -4    1    3    3    0  502  0.56246228758E+03  0.20652815681E+03  0.35505992621E+03  0.69648177909E+03  0.12699999809E+01 0.  1.
</event>
<event>
 5   0  0.2304842E-04  0.1184891E+04  0.7818609E-02  0.9126185E-01
        1   -1    0    0  501    0  0.00000000000E+00  0.00000000000E+00  0.86900611592E+03  0.86900611594E+03  0.50400001928E-02 0. -1.
       -1   -1    0    0    0  501  0.00000000000E+00  0.00000000000E+00 -0.40390020998E+03  0.40390021001E+03  0.50400001928E-02 0.  1.
    10030    2    1    2    0    0  0.00000000000E+00  0.00000000000E+00  0.46510590595E+03  0.12729063259E+04  0.11848911388E+04 0.  0.
        4    1    3    3  502    0  0.33173367741E+03  0.29223795760E+03 -0.19112793872E+03  0.48164484680E+03  0.12699999809E+01 0.  1.
       -4    1    3    3    0  502 -0.33173367741E+03 -0.29223795760E+03  0.65623384467E+03  0.79126147915E+03  0.12699999809E+01 0. -1.
</event>
<event>
 5   0  0.2304842E-04  0.1199691E+04  0.7818609E-02  0.9113127E-01
        1   -1    0    0  501    0  0.00000000000E+00  0.00000000000E+00  0.73855613228E+03  0.73855613230E+03  0.50400001928E-02 0.  1.
       -1   -1    0    0    0  501  0.00000000000E+00  0.00000000000E+00 -0.48718636481E+03  0.48718636483E+03  0.50400001928E-02 0. -1.
    10030    2    1    2    0    0  0.00000000000E+00  0.00000000000E+00  0.25136976747E+03  0.12257424971E+04  0.11996907557E+04 0.  0.
        4    1    3    3  502    0 -0.45715977488E+03 -0.40239149190E+02 -0.26896531676E+03  0.53193815751E+03  0.12699999809E+01 0. -1.
       -4    1    3    3    0  502  0.45715977488E+03  0.40239149190E+02  0.52033508423E+03  0.69380433962E+03  0.12699999809E+01 0.  1.
</event>
<event>
 5   0  0.2340731E-04  0.1198711E+04  0.7818609E-02  0.9113986E-01
       -1   -1    0    0    0  501  0.00000000000E+00  0.00000000000E+00  0.25091666258E+03  0.25091666263E+03  0.50400001928E-02 0.  1.
        1   -1    0    0  501    0  0.00000000000E+00  0.00000000000E+00 -0.14316587459E+04  0.14316587459E+04  0.50400001928E-02 0. -1.
    10030    2    1    2    0    0  0.00000000000E+00  0.00000000000E+00 -0.11807420834E+04  0.16825754086E+04  0.11987110320E+04 0.  0.
        3    1    3    3  502    0 -0.51252539091E+03  0.18849474115E+03 -0.24365295753E+03  0.59797936226E+03  0.10100000352E+00 0.  1.
       -3    1    3    3    0  502  0.51252539091E+03 -0.18849474115E+03 -0.93708912582E+03  0.10845960463E+04  0.10100000352E+00 0. -1.
</event>
<event>
 5   0  0.2340731E-04  0.1199388E+04  0.7818609E-02  0.9113392E-01
        1   -1    0    0  501    0  0.00000000000E+00  0.00000000000E+00  0.36097897698E+03  0.36097897701E+03  0.50400001928E-02 0.  1.
       -1   -1    0    0    0  501  0.00000000000E+00  0.00000000000E+00 -0.99627161329E+03  0.99627161330E+03  0.50400001928E-02 0. -1.
    10030    2    1    2    0    0  0.00000000000E+00  0.00000000000E+00 -0.63529263631E+03  0.13572505903E+04  0.11993883571E+04 0.  0.
        3    1    3    3  502    0 -0.92622626216E+02 -0.58896988224E+03 -0.39070916661E+03  0.71282405694E+03  0.10100000352E+00 0. -1.
       -3    1    3    3    0  502  0.92622626216E+02  0.58896988224E+03 -0.24458346970E+03  0.64442653338E+03  0.10100000352E+00 0.  1.
</event>
<event>
 5   0  0.3832662E-04  0.1200945E+04  0.7818609E-02  0.9112030E-01
        2   -1    0    0  501    0  0.00000000000E+00  0.00000000000E+00  0.11045546334E+04  0.11045546334E+04  0.25500000920E-02 0.  1.
       -2   -1    0    0    0  501  0.00000000000E+00  0.00000000000E+00 -0.32643655544E+03  0.32643655545E+03  0.25500000920E-02 0. -1.
    10030    2    1    2    0    0  0.00000000000E+00  0.00000000000E+00  0.77811807796E+03  0.14309911888E+04  0.12009446446E+04 0.  0.
        4    1    3    3  502    0  0.22162676902E+03  0.32886716040E+03  0.92630798228E+03  0.10076309468E+04  0.12699999809E+01 0.  1.
       -4    1    3    3    0  502 -0.22162676902E+03 -0.32886716040E+03 -0.14818990431E+03  0.42336024209E+03  0.12699999809E+01 0. -1.
</event>
<event>
 5   0  0.2204090E-04  0.1199381E+04  0.7818609E-02  0.9113399E-01
       -1   -1    0    0    0  501  0.00000000000E+00  0.00000000000E+00  0.47817227108E+03  0.47817227111E+03  0.50400001928E-02 0.  1.
        1   -1    0    0  501    0  0.00000000000E+00  0.00000000000E+00 -0.75209005467E+03  0.75209005469E+03  0.50400001928E-02 0. -1.
    10030    2    1    2    0    0  0.00000000000E+00  0.00000000000E+00 -0.27391778359E+03  0.12302623258E+04  0.11993808562E+04 0.  0.
        2    1    3    3  502    0  0.50873988652E+03  0.16683951630E+00 -0.46264362000E+03  0.68764483500E+03  0.25500000920E-02 0. -1.
       -2    1    3    3    0  502 -0.50873988652E+03 -0.16683951630E+00  0.18872583641E+03  0.54261749079E+03  0.25500000920E-02 0.  1.
</event>
<event>
 5   0  0.2304842E-04  0.1192774E+04  0.7818609E-02  0.9119205E-01
        1   -1    0    0  501    0  0.00000000000E+00  0.00000000000E+00  0.43570111651E+03  0.43570111654E+03  0.50400001928E-02 0.  1.
       -1   -1    0    0    0  501  0.00000000000E+00  0.00000000000E+00 -0.81633336307E+03  0.81633336308E+03  0.50400001928E-02 0. -1.
    10030    2    1    2    0    0  0.00000000000E+00  0.00000000000E+00 -0.38063224655E+03  0.12520344796E+04  0.11927738390E+04 0.  0.
        4    1    3    3  502    0  0.17102924187E+02  0.30236367763E+03 -0.72961160785E+03  0.78996899609E+03  0.12699999809E+01 0. -1.
       -4    1    3    3    0  502 -0.17102924187E+02 -0.30236367763E+03  0.34897936130E+03  0.46206548354E+03  0.12699999809E+01 0.  1.
</event>
<event>
 5   0  0.3832662E-04  0.1189595E+04  0.7818609E-02  0.9122013E-01
       -2   -1    0    0    0  501  0.00000000000E+00  0.00000000000E+00  0.40399373413E+03  0.40399373413E+03  0.25500000920E-02 0. -1.
        2   -1    0    0  501    0  0.00000000000E+00  0.00000000000E+00 -0.87571703430E+03  0.87571703431E+03  0.25500000920E-02 0.  1.
    10030    2    1    2    0    0  0.00000000000E+00  0.00000000000E+00 -0.47172330018E+03  0.12797107684E+04  0.11895952164E+04 0.  0.
        4    1    3    3  502    0  0.10216663229E+03 -0.37655396459E+02 -0.86490283345E+03  0.87173073471E+03  0.12699999809E+01 0.  1.
       -4    1    3    3    0  502 -0.10216663229E+03  0.37655396459E+02  0.39317953327E+03  0.40798003373E+03  0.12699999809E+01 0. -1.
</event>
<event>
 5   0  0.4122956E-04  0.1200733E+04  0.7818609E-02  0.9112215E-01
        2   -1    0    0  501    0  0.00000000000E+00  0.00000000000E+00  0.24484561604E+04  0.24484561604E+04  0.25500000920E-02 0.  1.
       -2   -1    0    0    0  501  0.00000000000E+00  0.00000000000E+00 -0.14721109775E+03  0.14721109777E+03  0.25500000920E-02 0. -1.
    10030    2    1    2    0    0  0.00000000000E+00  0.00000000000E+00  0.23012450627E+04  0.25956672582E+04  0.12007329748E+04 0.  0.
        5    1    3    3  502    0  0.37415651216E+03  0.36334519941E+03  0.17933709175E+04  0.18676761409E+04  0.46999998093E+01 0.  1.
       -5    1    3    3    0  502 -0.37415651216E+03 -0.36334519941E+03  0.50787414515E+03  0.72799111728E+03  0.46999998093E+01 0. -1.
</event>
<event>
 5   0  0.2304842E-04  0.1199129E+04  0.7818609E-02  0.9113619E-01
       -1   -1    0    0    0  501  0.00000000000E+00  0.00000000000E+00  0.71083478245E+03  0.71083478246E+03  0.50400001928E-02 0. -1.
        1   -1    0    0  501    0  0.00000000000E+00  0.00000000000E+00 -0.50571226883E+03  0.50571226885E+03  0.50400001928E-02 0.  1.
    10030    2    1    2    0    0  0.00000000000E+00  0.00000000000E+00  0.20512251362E+03  0.12165470513E+04  0.11991294686E+04 0.  0.
        4    1    3    3  502    0  0.21914129820E+03 -0.17192016450E+03 -0.43609029115E+03  0.51745126000E+03  0.12699999809E+01 0.  1.
       -4    1    3    3    0  502 -0.21914129820E+03  0.17192016450E+03  0.64121280477E+03  0.69909579132E+03  0.12699999809E+01 0. -1.
</event>
<event>
 5   0  0.3832662E-04  0.1201275E+04  0.7818609E-02  0.9111741E-01
        2   -1    0    0  501    0  0.00000000000E+00  0.00000000000E+00  0.11121250230E+04  0.11121250230E+04  0.25500000920E-02 0.  1.
       -2   -1    0    0    0  501  0.00000000000E+00  0.00000000000E+00 -0.32439297072E+03  0.32439297073E+03  0.25500000920E-02 0. -1.
    10030    2    1    2    0    0  0.00000000000E+00  0.00000000000E+00  0.78773205229E+03  0.14365179938E+04  0.12012752225E+04 0.  0.
        4    1    3    3  502    0  0.16084801156E+03  0.57642946444E+03  0.33264576587E+03  0.68468812517E+03  0.12699999809E+01 0. -1.
       -4    1    3    3    0  502 -0.16084801156E+03 -0.57642946444E+03  0.45508628642E+03  0.75182986858E+03  0.12699999809E+01 0.  1.
</event>
<event>
 5   0  0.3993723E-04  0.1198720E+04  0.7818609E-02  0.9113978E-01
        2   -1    0    0  501    0  0.00000000000E+00  0.00000000000E+00  0.12446051674E+04  0.12446051674E+04  0.25500000920E-02 0. -1.
       -2   -1    0    0    0  501  0.00000000000E+00  0.00000000000E+00 -0.28863156411E+03  0.28863156412E+03  0.25500000920E-02 0.  1.
    10030    2    1    2    0    0  0.00000000000E+00  0.00000000000E+00  0.95597360332E+03  0.15332367315E+04  0.11987198775E+04 0.  0.
        3    1    3    3  502    0  0.19800023491E+03 -0.10974273454E+03 -0.23184609927E+03  0.32403732001E+03  0.10100000352E+00 0.  1.
       -3    1    3    3    0  502 -0.19800023491E+03  0.10974273454E+03  0.11878197026E+04  0.12091994115E+04  0.10100000352E+00 0. -1.
</event>
<event>
 5   0  0.2244308E-04  0.1201584E+04  0.7818609E-02  0.9111471E-01
       -1   -1    0    0    0  501  0.00000000000E+00  0.00000000000E+00  0.10141860867E+04  0.10141860867E+04  0.50400001928E-02 0. -1.
        1   -1    0    0  501    0  0.00000000000E+00  0.00000000000E+00 -0.35590243798E+03  0.35590243801E+03  0.50400001928E-02 0.  1.
    10030    2    1    2    0    0  0.00000000000E+00  0.00000000000E+00  0.65828364871E+03  0.13700885247E+04  0.12015844554E+04 0.  0.
        5    1    3    3  502    0 -0.80230630627E+02  0.44269236031E+02 -0.34786633477E+03  0.35976352819E+03  0.46999998093E+01 0.  1.
       -5    1    3    3    0  502  0.80230630627E+02 -0.44269236031E+02  0.10061499835E+04  0.10103249965E+04  0.46999998093E+01 0. -1.
</event>
<event>
 5   0  0.3883890E-04  0.1202896E+04  0.7818609E-02  0.9110325E-01
        2   -1    0    0  501    0  0.00000000000E+00  0.00000000000E+00  0.17421754588E+04  0.17421754588E+04  0.25500000920E-02 0.  1.
       -2   -1    0    0    0  501  0.00000000000E+00  0.00000000000E+00 -0.20763691709E+03  0.20763691710E+03  0.25500000920E-02 0. -1.
    10030    2    1    2    0    0  0.00000000000E+00  0.00000000000E+00  0.15345385418E+04  0.19498123760E+04  0.12028964067E+04 0.  0.
        2    1    3    3  502    0 -0.45254234966E+03 -0.37181854186E+03  0.54563197868E+03  0.80047352390E+03  0.25500000920E-02 0. -1.
       -2    1    3    3    0  502  0.45254234966E+03  0.37181854186E+03  0.98890656309E+03  0.11493388520E+04  0.25500000920E-02 0.  1.
</event>
<event>
 5   0  0.2244308E-04  0.1202347E+04  0.7818609E-02  0.9110804E-01
       -1   -1    0    0    0  501  0.00000000000E+00  0.00000000000E+00  0.55586983128E+03  0.55586983130E+03  0.50400001928E-02 0. -1.
        1   -1    0    0  501    0  0.00000000000E+00  0.00000000000E+00 -0.65016982080E+03  0.65016982082E+03  0.50400001928E-02 0.  1.
    10030    2    1    2    0    0  0.00000000000E+00  0.00000000000E+00 -0.94299989518E+02  0.12060396521E+04  0.12023473518E+04 0.  0.
        5    1    3    3  502    0  0.37239374589E+03  0.47136129800E+03 -0.24076673376E+02  0.60121572786E+03  0.46999998093E+01 0. -1.
       -5    1    3    3    0  502 -0.37239374589E+03 -0.47136129800E+03 -0.70223316142E+02  0.60482392426E+03  0.46999998093E+01 0.  1.
</event>
<event>
 5   0  0.3883890E-04  0.1203716E+04  0.7818609E-02  0.9109610E-01
       -2   -1    0    0    0  501  0.00000000000E+00  0.00000000000E+00  0.36480202604E+03  0.36480202605E+03  0.25500000920E-02 0. -1.
        2   -1    0    0  501    0  0.00000000000E+00  0.00000000000E+00 -0.99295871038E+03  0.99295871038E+03  0.25500000920E-02 0.  1.
    10030    2    1    2    0    0  0.00000000000E+00  0.00000000000E+00 -0.62815668434E+03  0.13577607364E+04  0.12037164937E+04 0.  0.
        2    1    3    3  502    0  0.43511091800E+02  0.10639905535E+03  0.35230449409E+03  0.37058390501E+03  0.25500000920E-02 0. -1.
       -2    1    3    3    0  502 -0.43511091800E+02 -0.10639905535E+03 -0.98046117842E+03  0.98717683142E+03  0.25500000920E-02 0.  1.
</event>
<event>
 5   0  0.2340731E-04  0.1199789E+04  0.7818609E-02  0.9113042E-01
       -1   -1    0    0    0  501  0.00000000000E+00  0.00000000000E+00  0.10352684342E+04  0.10352684342E+04  0.50400001928E-02 0. -1.
        1   -1    0    0  501    0  0.00000000000E+00  0.00000000000E+00 -0.34761335030E+03  0.34761335034E+03  0.50400001928E-02 0.  1.
    10030    2    1    2    0    0  0.00000000000E+00  0.00000000000E+00  0.68765508393E+03  0.13828817846E+04  0.11997885296E+04 0.  0.
        3    1    3    3  502    0 -0.56767564196E+03  0.11240366438E+03  0.16164708821E+03  0.60084940673E+03  0.10100000352E+00 0.  1.
       -3    1    3    3    0  502  0.56767564196E+03 -0.11240366438E+03  0.52600799572E+03  0.78203237785E+03  0.10100000352E+00 0. -1.
</event>
<event>
 5   0  0.3993723E-04  0.1205168E+04  0.7818609E-02  0.9108345E-01
       -2   -1    0    0    0  501  0.00000000000E+00  0.00000000000E+00  0.34643134312E+03  0.34643134312E+03  0.25500000920E-02 0. -1.
        2   -1    0    0  501    0  0.00000000000E+00  0.00000000000E+00 -0.10481361879E+04  0.10481361879E+04  0.25500000920E-02 0.  1.
    10030    2    1    2    0    0  0.00000000000E+00  0.00000000000E+00 -0.70170484480E+03  0.13945675310E+04  0.12051675856E+04 0.  0.
        3    1    3    3  502    0  0.53857287612E+03  0.20274731426E+03 -0.14404812044E+03  0.59322600039E+03  0.10100000352E+00 0. -1.
       -3    1    3    3    0  502 -0.53857287612E+03 -0.20274731426E+03 -0.55765672436E+03  0.80134153066E+03  0.10100000352E+00 0.  1.
</event>
<event>
 5   0  0.2204090E-04  0.1200136E+04  0.7818609E-02  0.9112737E-01
        1   -1    0    0  501    0  0.00000000000E+00  0.00000000000E+00  0.10756515218E+04  0.10756515218E+04  0.50400001928E-02 0.  1.
       -1   -1    0    0    0  501  0.00000000000E+00  0.00000000000E+00 -0.33475690254E+03  0.33475690258E+03  0.50400001928E-02 0. -1.
    10030    2    1    2    0    0  0.00000000000E+00  0.00000000000E+00  0.74089461923E+03  0.14104084244E+04  0.12001362784E+04 0.  0.
        2    1    3    3  502    0  0.38119651171E+02  0.43709664034E+03  0.85152940141E+03  0.95791904787E+03  0.25500000920E-02 0.  1.
       -2    1    3    3    0  502 -0.38119651171E+02 -0.43709664034E+03 -0.11063478218E+03  0.45248937649E+03  0.25500000920E-02 0. -1.
</event>
<event>
 5   0  0.2315038E-04  0.1200053E+04  0.7818609E-02  0.9112810E-01
       -1   -1    0    0    0  501  0.00000000000E+00  0.00000000000E+00  0.95482700034E+03  0.95482700035E+03  0.50400001928E-02 0. -1.
        1   -1    0    0  501    0  0.00000000000E+00  0.00000000000E+00 -0.37706480575E+03  0.37706480579E+03  0.50400001928E-02 0.  1.
    10030    2    1    2    0    0  0.00000000000E+00  0.00000000000E+00  0.57776219459E+03  0.13318918061E+04  0.12000527612E+04 0.  0.
        1    1    3    3  502    0  0.23128616655E+03 -0.53222383615E+03  0.45820732186E+03  0.73939803383E+03  0.50400001928E-02 0.  1.
       -1    1    3    3    0  502 -0.23128616655E+03  0.53222383615E+03  0.11955487272E+03  0.59249377230E+03  0.50400001928E-02 0. -1.
</event>
<event>
 5   0  0.3883890E-04  0.1194664E+04  0.7818609E-02  0.9117540E-01
       -2   -1    0    0    0  501  0.00000000000E+00  0.00000000000E+00  0.31023773695E+03  0.31023773696E+03  0.25500000920E-02 0.  1.
        2   -1    0    0  501    0  0.00000000000E+00  0.00000000000E+00 -0.11501029654E+04  0.11501029654E+04  0.25500000920E-02 0. -1.
    10030    2    1    2    0    0  0.00000000000E+00  0.00000000000E+00 -0.83986522846E+03  0.14603407024E+04  0.11946637037E+04 0.  0.
        2    1    3    3  502    0  0.26954059901E+03  0.39880658917E+03  0.12430341758E+02  0.48151151957E+03  0.25500000920E-02 0.  1.
       -2    1    3    3    0  502 -0.26954059901E+03 -0.39880658917E+03 -0.85229557022E+03  0.97882918280E+03  0.25500000920E-02 0. -1.
</event>
<event>
 5   0  0.2340731E-04  0.1198586E+04  0.7818609E-02  0.9114095E-01
        1   -1    0    0  501    0  0.00000000000E+00  0.00000000000E+00  0.10218970441E+04  0.10218970441E+04  0.50400001928E-02 0. -1.
       -1   -1    0    0    0  501  0.00000000000E+00  0.00000000000E+00 -0.35145598388E+03  0.35145598392E+03  0.50400001928E-02 0.  1.
    10030    2    1    2    0    0  0.00000000000E+00  0.00000000000E+00  0.67044106025E+03  0.13733530281E+04  0.11985855516E+04 0.  0.
        3    1    3    3  502    0  0.27384155608E+03  0.20781137225E+03  0.89769264792E+03  0.96126316095E+03  0.10100000352E+00 0. -1.
       -3    1    3    3    0  502 -0.27384155608E+03 -0.20781137225E+03 -0.22725158767E+03  0.41208986711E+03  0.10100000352E+00 0.  1.
</event>
<event>
 5   0  0.3832662E-04  0.1201076E+04  0.7818609E-02  0.9111915E-01
       -2   -1    0    0    0  501  0.00000000000E+00  0.00000000000E+00  0.37368461328E+03  0.37368461329E+03  0.25500000920E-02 0.  1.
        2   -1    0    0  501    0  0.00000000000E+00  0.00000000000E+00 -0.96510735535E+03  0.96510735535E+03  0.25500000920E-02 0. -1.
    10030    2    1    2    0    0  0.00000000000E+00  0.00000000000E+00 -0.59142274207E+03  0.13387919686E+04  0.12010757992E+04 0.  0.
        4    1    3    3  502    0 -0.95440625880E+02 -0.30223010513E+03  0.27286633113E+03  0.41822194715E+03  0.12699999809E+01 0.  1.
       -4    1    3    3    0  502  0.95440625880E+02  0.30223010513E+03 -0.86428907320E+03  0.92057002149E+03  0.12699999809E+01 0. -1.
</event>
<event>
 5   0  0.3993723E-04  0.1197656E+04  0.7818609E-02  0.9114911E-01
        2   -1    0    0  501    0  0.00000000000E+00  0.00000000000E+00  0.11300819875E+04  0.11300819875E+04  0.25500000920E-02 0. -1.
       -2   -1    0    0    0  501  0.00000000000E+00  0.00000000000E+00 -0.31731745816E+03  0.31731745817E+03  0.25500000920E-02 0.  1.
    10030    2    1    2    0    0  0.00000000000E+00  0.00000000000E+00  0.81276452936E+03  0.14473994457E+04  0.11976556163E+04 0.  0.
        3    1    3    3  502    0  0.17300007773E+03  0.51709247103E+03  0.10721114774E+03  0.55570485952E+03  0.10100000352E+00 0. -1.
       -3    1    3    3    0  502 -0.17300007773E+03 -0.51709247103E+03  0.70555338162E+03  0.89169458617E+03  0.10100000352E+00 0.  1.
</event>
<event>
 5   0  0.4122956E-04  0.1198658E+04  0.7818609E-02  0.9114032E-01
        2   -1    0    0  501    0  0.00000000000E+00  0.00000000000E+00  0.78961711976E+03  0.78961711976E+03  0.25500000920E-02 0.  1.
       -2   -1    0    0    0  501  0.00000000000E+00  0.00000000000E+00 -0.45489790225E+03  0.45489790226E+03  0.25500000920E-02 0. -1.
    10030    2    1    2    0    0  0.00000000000E+00  0.00000000000E+00  0.33471921751E+03  0.12445150220E+04  0.11986578684E+04 0.  0.
        5    1    3    3  502    0  0.58172966363E+03 -0.11945027321E+03  0.25103637976E+03  0.64476284266E+03  0.46999998093E+01 0.  1.
       -5    1    3    3    0  502 -0.58172966363E+03  0.11945027321E+03  0.83682837747E+02  0.59975217936E+03  0.46999998093E+01 0. -1.
</event>
<event>
 5   0  0.2304842E-04  0.1218190E+04  0.7818609E-02  0.9097082E-01
        1   -1    0    0  501    0  0.00000000000E+00  0.00000000000E+00  0.90211519059E+03  0.90211519060E+03  0.50400001928E-02 0. -1.
       -1   -1    0    0    0  501  0.00000000000E+00  0.00000000000E+00 -0.41125190977E+03  0.41125190981E+03  0.50400001928E-02 0.  1.
    10030    2    1    2    0    0  0.00000000000E+00  0.00000000000E+00  0.49086328081E+03  0.13133671004E+04  0.12181897964E+04 0.  0.
        4    1    3    3  502    0 -0.36307735806E+03 -0.72091022825E+02  0.76693098585E+03  0.85159088386E+03  0.12699999809E+01 0. -1.
       -4    1    3    3    0  502  0.36307735806E+03  0.72091022825E+02 -0.27606770504E+03  0.46177621655E+03  0.12699999809E+01 0.  1.
</event>
<event>
 5   0  0.2315038E-04  0.1201958E+04  0.7818609E-02  0.9111144E-01
        1   -1    0    0  501    0  0.00000000000E+00  0.00000000000E+00  0.25337483127E+03  0.25337483132E+03  0.50400001928E-02 0. -1.
       -1   -1    0    0    0  501  0.00000000000E+00  0.00000000000E+00 -0.14254610078E+04  0.14254610078E+04  0.50400001928E-02 0.  1.
    10030    2    1    2    0    0  0.00000000000E+00  0.00000000000E+00 -0.11720861765E+04  0.16788358391E+04  0.12019583061E+04 0.  0.
        1    1    3    3  502    0 -0.35020094237E+03 -0.17215522011E+03 -0.12244326618E+04  0.12851122376E+04  0.50400001928E-02 0.  1.
       -1    1    3    3    0  502  0.35020094237E+03  0.17215522011E+03  0.52346485301E+02  0.39372360152E+03  0.50400001928E-02 0. -1.
</event>
<event>
 5   0  0.2244308E-04  0.1195750E+04  0.7818609E-02  0.9116584E-01
        1   -1    0    0  501    0  0.00000000000E+00  0.00000000000E+00  0.12991670443E+04  0.12991670443E+04  0.50400001928E-02 0. -1.
       -1   -1    0    0    0  501  0.00000000000E+00  0.00000000000E+00 -0.27514149202E+03  0.27514149206E+03  0.50400001928E-02 0.  1.
    10030    2    1    2    0    0  0.00000000000E+00  0.00000000000E+00  0.10240255523E+04  0.15743085364E+04  0.11957504071E+04 0.  0.
        5    1    3    3  502    0 -0.69711780638E+02 -0.57256379239E+03  0.30491229414E+03  0.65244358057E+03  0.46999998093E+01 0.  1.
       -5    1    3    3    0  502  0.69711780638E+02  0.57256379239E+03  0.71911325816E+03  0.92186495582E+03  0.46999998093E+01 0. -1.
</event>
<event>
 5   0  0.3832662E-04  0.1200051E+04  0.7818609E-02  0.9112812E-01
       -2   -1    0    0    0  501  0.00000000000E+00  0.00000000000E+00  0.27024092243E+03  0.27024092244E+03  0.25500000920E-02 0. -1.
        2   -1    0    0  501    0  0.00000000000E+00  0.00000000000E+00 -0.13322571535E+04  0.13322571535E+04  0.25500000920E-02 0.  1.
    10030    2    1    2    0    0  0.00000000000E+00  0.00000000000E+00 -0.10620162310E+04  0.16024980759E+04  0.12000506691E+04 0.  0.
        4    1    3    3  502    0 -0.54842742748E+03 -0.21388347157E+03 -0.68622026496E+03  0.90411207688E+03  0.12699999809E+01 0. -1.
       -4    1    3    3    0  502  0.54842742748E+03  0.21388347157E+03 -0.37579596607E+03  0.69838599903E+03  0.12699999809E+01 0.  1.
</event>
<event>
 5   0  0.3832662E-04  0.1200261E+04  0.7818609E-02  0.9112628E-01
       -2   -1    0    0    0  501  0.00000000000E+00  0.00000000000E+00  0.41423483280E+03  0.41423483281E+03  0.25500000920E-02 0.  1.
        2   -1    0    0  501    0  0.00000000000E+00  0.00000000000E+00 -0.86945043758E+03  0.86945043759E+03  0.25500000920E-02 0. -1.
    10030    2    1    2    0    0  0.00000000000E+00  0.00000000000E+00 -0.45521560478E+03  0.12836852704E+04  0.12002610660E+04 0.  0.
        4    1    3    3  502    0 -0.10466768655E+03  0.44094704361E+03  0.19313801751E+03  0.49263934738E+03  0.12699999809E+01 0.  1.
       -4    1    3    3    0  502  0.10466768655E+03 -0.44094704361E+03 -0.64835362229E+03  0.79104592301E+03  0.12699999809E+01 0. -1.
</event>
<event>
 5   0  0.4122956E-04  0.1200556E+04  0.7818609E-02  0.9112370E-01
       -2   -1    0    0    0  501  0.00000000000E+00  0.00000000000E+00  0.67665369055E+03  0.67665369056E+03  0.25500000920E-02 0. -1.
        2   -1    0    0  501    0  0.00000000000E+00  0.00000000000E+00 -0.53252297967E+03  0.53252297968E+03  0.25500000920E-02 0.  1.
    10030    2    1    2    0    0  0.00000000000E+00  0.00000000000E+00  0.14413071088E+03  0.12091766702E+04  0.12005559371E+04 0.  0.
        5    1    3    3  502    0 -0.18625235041E+03  0.40563892750E+02 -0.50121083009E+03  0.53625530639E+03  0.46999998093E+01 0.  1.
       -5    1    3    3    0  502  0.18625235041E+03 -0.40563892750E+02  0.64534154097E+03  0.67292136385E+03  0.46999998093E+01 0. -1.
</event>
<event>
 5   0  0.3832662E-04  0.1199910E+04  0.7818609E-02  0.9112935E-01
        2   -1    0    0  501    0  0.00000000000E+00  0.00000000000E+00  0.13117793526E+04  0.13117793526E+04  0.25500000920E-02 0. -1.
       -2   -1    0    0    0  501  0.00000000000E+00  0.00000000000E+00 -0.27439514168E+03  0.27439514169E+03  0.25500000920E-02 0.  1.
    10030    2    1    2    0    0  0.00000000000E+00  0.00000000000E+00  0.10373842110E+04  0.15861744943E+04  0.11999097988E+04 0.  0.
        4    1    3    3  502    0 -0.34544327265E+03  0.15336463105E+03 -0.97228560114E+02  0.39026500032E+03  0.12699999809E+01 0.  1.
       -4    1    3    3    0  502  0.34544327265E+03 -0.15336463105E+03  0.11346127711E+04  0.11959094940E+04  0.12699999809E+01 0. -1.
</event>
<event>
 5   0  0.3883890E-04  0.1193852E+04  0.7818609E-02  0.9118255E-01
       -2   -1    0    0    0  501  0.00000000000E+00  0.00000000000E+00  0.33998498261E+03  0.33998498262E+03  0.25500000920E-02 0. -1.
        2   -1    0    0  501    0  0.00000000000E+00  0.00000000000E+00 -0.10480479650E+04  0.10480479650E+04  0.25500000920E-02 0.  1.
    10030    2    1    2    0    0  0.00000000000E+00  0.00000000000E+00 -0.70806298241E+03  0.13880329476E+04  0.11938518655E+04 0.  0.
        2    1    3    3  502    0 -0.39851386040E+03  0.25159105467E+02 -0.86990572514E+03  0.95717409501E+03  0.25500000920E-02 0.  1.
       -2    1    3    3    0  502  0.39851386040E+03 -0.25159105467E+02  0.16184274273E+03  0.43085885264E+03  0.25500000920E-02 0. -1.
</event>
<event>
 5   0  0.4122956E-04  0.1201084E+04  0.7818609E-02  0.9111908E-01
       -2   -1    0    0    0  501  0.00000000000E+00  0.00000000000E+00  0.51153982572E+03  0.51153982572E+03  0.25500000920E-02 0.  1.
        2   -1    0    0  501    0  0.00000000000E+00  0.00000000000E+00 -0.70502921388E+03  0.70502921389E+03  0.25500000920E-02 0. -1.
    10030    2    1    2    0    0  0.00000000000E+00  0.00000000000E+00 -0.19348938817E+03  0.12165690396E+04  0.12010837127E+04 0.  0.
        5    1    3    3  502    0  0.49074616653E+03 -0.24446004186E+03  0.15143661117E+03  0.56881249040E+03  0.46999998093E+01 0.  1.
       -5    1    3    3    0  502 -0.49074616653E+03  0.24446004186E+03 -0.34492599933E+03  0.64775654921E+03  0.46999998093E+01 0. -1.
</event>
<event>
 5   0  0.4122956E-04  0.1196637E+04  0.7818609E-02  0.9115805E-01
       -2   -1    0    0    0  501  0.00000000000E+00  0.00000000000E+00  0.42235771203E+03  0.42235771204E+03  0.25500000920E-02 0. -1.
        2   -1    0    0  501    0  0.00000000000E+00  0.00000000000E+00 -0.84758752393E+03  0.84758752393E+03  0.25500000920E-02 0.  1.
    10030    2    1    2    0    0  0.00000000000E+00  0.00000000000E+00 -0.42522981190E+03  0.12699452360E+04  0.11966371670E+04 0.  0.
        5    1    3    3  502    0  0.90683697970E+02  0.17456395481E+03  0.38703735237E+03  0.43418441879E+03  0.46999998093E+01 0. -1.
       -5    1    3    3    0  502 -0.90683697970E+02 -0.17456395481E+03 -0.81226716426E+03  0.83576081718E+03  0.46999998093E+01 0.  1.
</event>
<event>
 5   0  0.2204090E-04  0.1201671E+04  0.7818609E-02  0.9111395E-01
       -1   -1    0    0    0  501  0.00000000000E+00  0.00000000000E+00  0.92597486136E+03  0.92597486138E+03  0.50400001928E-02 0. -1.
        1   -1    0    0  501    0  0.00000000000E+00  0.00000000000E+00 -0.38986297431E+03  0.38986297434E+03  0.50400001928E-02 0.  1.
    10030    2    1    2    0    0  0.00000000000E+00  0.00000000000E+00  0.53611188705E+03  0.13158378357E+04  0.12016710259E+04 0.  0.
        2    1    3    3  502    0 -0.50939339016E+03 -0.28392561221E+03  0.42638927309E+03  0.72242867566E+03  0.25500000920E-02 0. -1.
       -2    1    3    3    0  502  0.50939339016E+03  0.28392561221E+03  0.10972261397E+03  0.59340916005E+03  0.25500000920E-02 0.  1.
</event>
<event>
 5   0  0.2204090E-04  0.1198578E+04  0.7818609E-02  0.9114102E-01
       -1   -1    0    0    0  501  0.00000000000E+00  0.00000000000E+00  0.25225980611E+03  0.25225980616E+03  0.50400001928E-02 0.  1.
        1   -1    0    0  501    0  0.00000000000E+00  0.00000000000E+00 -0.14237200221E+04  0.14237200221E+04  0.50400001928E-02 0. -1.
    10030    2    1    2    0    0  0.00000000000E+00  0.00000000000E+00 -0.11714602160E+04  0.16759798283E+04  0.11985780522E+04 0.  0.
        2    1    3    3  502    0  0.21962542918E+03 -0.50006842335E+03 -0.93064333149E+03  0.10790740325E+04  0.25500000920E-02 0. -1.
       -2    1    3    3    0  502 -0.21962542918E+03  0.50006842335E+03 -0.24081688452E+03  0.59690579579E+03  0.25500000920E-02 0.  1.
</event>
<event>
 5   0  0.1541375E-04  0.1197174E+04  0.7818609E-02  0.9115334E-01
        4   -1    0    0  501    0  0.00000000000E+00  0.00000000000E+00  0.43784176325E+03  0.43784360512E+03  0.12699999809E+01 0.  1.
       -4   -1    0    0    0  501  0.00000000000E+00  0.00000000000E+00 -0.81834225572E+03  0.81834324119E+03  0.12699999809E+01 0. -1.
    10030    2    1    2    0    0  0.00000000000E+00  0.00000000000E+00 -0.38050049247E+03  0.12561868463E+04  0.11971736583E+04 0.  0.
        2    1    3    3  502    0 -0.22339449823E+03  0.38000272508E+03  0.23468006795E+03  0.49938152469E+03  0.25500000920E-02 0.  1.
       -2    1    3    3    0  502  0.22339449823E+03 -0.38000272508E+03 -0.61518056042E+03  0.75680532162E+03  0.25500000920E-02 0. -1.
</event>
<event>
 5   0  0.2340731E-04  0.1196566E+04  0.7818609E-02  0.9115867E-01
        1   -1    0    0  501    0  0.00000000000E+00  0.00000000000E+00  0.13490079376E+04  0.13490079376E+04  0.50400001928E-02 0. -1.
       -1   -1    0    0    0  501  0.00000000000E+00  0.00000000000E+00 -0.26533774723E+03  0.26533774727E+03  0.50400001928E-02 0.  1.
    10030    2    1    2    0    0  0.00000000000E+00  0.00000000000E+00  0.10836701903E+04  0.16143456848E+04  0.11965662994E+04 0.  0.
        3    1    3    3  502    0  0.40681253792E+03 -0.14784296769E+03 -0.15395484785E+02  0.43311778451E+03  0.10100000352E+00 0.  1.
       -3    1    3    3    0  502 -0.40681253792E+03  0.14784296769E+03  0.10990656751E+04  0.11812279003E+04  0.10100000352E+00 0. -1.
</event>
<event>
 5   0  0.3993723E-04  0.1200946E+04  0.7818609E-02  0.9112029E-01
        2   -1    0    0  501    0  0.00000000000E+00  0.00000000000E+00  0.15439189547E+04  0.15439189547E+04  0.25500000920E-02 0.  1.
       -2   -1    0    0    0  501  0.00000000000E+00  0.00000000000E+00 -0.23354049225E+03  0.23354049227E+03  0.25500000920E-02 0. -1.
    10030    2    1    2    0    0  0.00000000000E+00  0.00000000000E+00  0.13103784625E+04  0.17774594470E+04  0.12009456153E+04 0.  0.
        3    1    3    3  502    0 -0.79518472637E+02  0.23340381292E+03 -0.15515269777E+03  0.29132953369E+03  0.10100000352E+00 0. -1.
       -3    1    3    3    0  502  0.79518472637E+02 -0.23340381292E+03  0.14655311603E+04  0.14861299133E+04  0.10100000352E+00 0.  1.
</event>
<event>
 5   0  0.2315038E-04  0.1200629E+04  0.7818609E-02  0.9112306E-01
       -1   -1    0    0    0  501  0.00000000000E+00  0.00000000000E+00  0.27312577400E+03  0.27312577405E+03  0.50400001928E-02 0. -1.
        1   -1    0    0  501    0  0.00000000000E+00  0.00000000000E+00 -0.13194571186E+04  0.13194571186E+04  0.50400001928E-02 0.  1.
    10030    2    1    2    0    0  0.00000000000E+00  0.00000000000E+00 -0.10463313446E+04  0.15925828926E+04  0.12006294130E+04 0.  0.
        1    1    3    3  502    0 -0.48741811281E+03 -0.19099854829E+03 -0.13344718420E+03  0.54024532681E+03  0.50400001928E-02 0. -1.
       -1    1    3    3    0  502  0.48741811281E+03  0.19099854829E+03 -0.91288416038E+03  0.10523375658E+04  0.50400001928E-02 0.  1.
</event>
<event>
 5   0  0.2204090E-04  0.1200302E+04  0.7818609E-02  0.9112592E-01
        1   -1    0    0  501    0  0.00000000000E+00  0.00000000000E+00  0.17216008748E+04  0.17216008748E+04  0.50400001928E-02 0.  1.
       -1   -1    0    0    0  501  0.00000000000E+00  0.00000000000E+00 -0.20921290184E+03  0.20921290190E+03  0.50400001928E-02 0. -1.
    10030    2    1    2    0    0  0.00000000000E+00  0.00000000000E+00  0.15123879730E+04  0.19308137767E+04  0.12003018202E+04 0.  0.
        2    1    3    3  502    0  0.20303882946E+03  0.15402208557E+03 -0.11784896617E+03  0.28077739928E+03  0.25500000920E-02 0. -1.
       -2    1    3    3    0  502 -0.20303882946E+03 -0.15402208557E+03  0.16302369392E+04  0.16500363775E+04  0.25500000920E-02 0.  1.
</event>
<event>
 5   0  0.2244308E-04  0.1200685E+04  0.7818609E-02  0.9112257E-01
       -1   -1    0    0    0  501  0.00000000000E+00  0.00000000000E+00  0.51209639963E+03  0.51209639966E+03  0.50400001928E-02 0.  1.
        1   -1    0    0  501    0  0.00000000000E+00  0.00000000000E+00 -0.70379522879E+03  0.70379522880E+03  0.50400001928E-02 0. -1.
    10030    2    1    2    0    0  0.00000000000E+00  0.00000000000E+00 -0.19169882915E+03  0.12158916285E+04  0.12006848092E+04 0.  0.
        5    1    3    3  502    0 -0.13443726079E+02 -0.54674178066E+03  0.15483706717E+03  0.56842230415E+03  0.46999998093E+01 0.  1.
       -5    1    3    3    0  502  0.13443726079E+02  0.54674178066E+03 -0.34653589632E+03  0.64746932431E+03  0.46999998093E+01 0. -1.
</event>
<event>
 5   0  0.3883890E-04  0.1198653E+04  0.7818609E-02  0.9114036E-01
        2   -1    0    0  501    0  0.00000000000E+00  0.00000000000E+00  0.41578884674E+03  0.41578884675E+03  0.25500000920E-02 0.  1.
       -2   -1    0    0    0  501  0.00000000000E+00  0.00000000000E+00 -0.86388185883E+03  0.86388185883E+03  0.25500000920E-02 0. -1.
    10030    2    1    2    0    0  0.00000000000E+00  0.00000000000E+00 -0.44809301209E+03  0.12796707056E+04  0.11986533140E+04 0.  0.
        2    1    3    3  502    0 -0.34573858668E+03  0.16091872572E+02 -0.74640082473E+03  0.82274437698E+03  0.25500000920E-02 0. -1.
       -2    1    3    3    0  502  0.34573858668E+03 -0.16091872572E+02  0.29830781264E+03  0.45692632860E+03  0.25500000920E-02 0.  1.
</event>
<event>
 5   0  0.3832662E-04  0.1200968E+04  0.7818609E-02  0.9112009E-01
        2   -1    0    0  501    0  0.00000000000E+00  0.00000000000E+00  0.26272838224E+04  0.26272838224E+04  0.25500000920E-02 0.  1.
       -2   -1    0    0    0  501  0.00000000000E+00  0.00000000000E+00 -0.13724484986E+03  0.13724484988E+03  0.25500000920E-02 0. -1.
    10030    2    1    2    0    0  0.00000000000E+00  0.00000000000E+00  0.24900389725E+04  0.27645286723E+04  0.12009682323E+04 0.  0.
        4    1    3    3  502    0  0.10020222035E+03  0.31453644553E+03  0.90370470871E+02  0.34226027441E+03  0.12699999809E+01 0. -1.
       -4    1    3    3    0  502 -0.10020222035E+03 -0.31453644553E+03  0.23996685017E+04  0.24222683979E+04  0.12699999809E+01 0.  1.
</event>
<event>
 5   0  0.2340731E-04  0.1207973E+04  0.7818609E-02  0.9105906E-01
       -1   -1    0    0    0  501  0.00000000000E+00  0.00000000000E+00  0.59946795023E+03  0.59946795025E+03  0.50400001928E-02 0.  1.
        1   -1    0    0  501    0  0.00000000000E+00  0.00000000000E+00 -0.60853951244E+03  0.60853951246E+03  0.50400001928E-02 0. -1.
    10030    2    1    2    0    0  0.00000000000E+00  0.00000000000E+00 -0.90715622067E+01  0.12080074627E+04  0.12079734007E+04 0.  0.
        3    1    3    3  502    0  0.46035378990E+03  0.10799484963E+03 -0.38032746321E+03  0.60682574838E+03  0.10100000352E+00 0. -1.
       -3    1    3    3    0  502 -0.46035378990E+03 -0.10799484963E+03  0.37125590100E+03  0.60118171433E+03  0.10100000352E+00 0.  1.
</event>
<event>
 5   0  0.3883890E-04  0.1200921E+04  0.7818609E-02  0.9112051E-01
        2   -1    0    0  501    0  0.00000000000E+00  0.00000000000E+00  0.11081384915E+04  0.11081384916E+04  0.25500000920E-02 0.  1.
       -2   -1    0    0    0  501  0.00000000000E+00  0.00000000000E+00 -0.32536808201E+03  0.32536808202E+03  0.25500000920E-02 0. -1.
    10030    2    1    2    0    0  0.00000000000E+00  0.00000000000E+00  0.78277040954E+03  0.14335065736E+04  0.12009211391E+04 0.  0.
        2    1    3    3  502    0 -0.33505636714E+03 -0.49789261205E+03  0.41505104758E+03  0.72967608869E+03  0.25500000920E-02 0. -1.
       -2    1    3    3    0  502  0.33505636714E+03  0.49789261205E+03  0.36771936196E+03  0.70383048489E+03  0.25500000920E-02 0.  1.
</event>
<event>
 5   0  0.2244308E-04  0.1199433E+04  0.7818609E-02  0.9113353E-01
       -1   -1    0    0    0  501  0.00000000000E+00  0.00000000000E+00  0.21075748336E+03  0.21075748342E+03  0.50400001928E-02 0. -1.
        1   -1    0    0  501    0  0.00000000000E+00  0.00000000000E+00 -0.17065117082E+04  0.17065117082E+04  0.50400001928E-02 0.  1.
    10030    2    1    2    0    0  0.00000000000E+00  0.00000000000E+00 -0.14957542248E+04  0.19172691916E+04  0.11994333879E+04 0.  0.
        5    1    3    3  502    0  0.13186794465E+03  0.33362832297E+02  0.18574386728E+03  0.23027181250E+03  0.46999998093E+01 0. -1.
       -5    1    3    3    0  502 -0.13186794465E+03 -0.33362832297E+02 -0.16814980921E+04  0.16869973791E+04  0.46999998093E+01 0.  1.
</event>
<event>
 5   0  0.1541375E-04  0.1201219E+04  0.7818609E-02  0.9111790E-01
       -3   -1    0    0    0  501  0.00000000000E+00  0.00000000000E+00  0.32541626442E+03  0.32541628010E+03  0.10100000352E+00 0. -1.
        3   -1    0    0  501    0  0.00000000000E+00  0.00000000000E+00 -0.11085236869E+04  0.11085236915E+04  0.10100000352E+00 0.  1.
    10030    2    1    2    0    0  0.00000000000E+00  0.00000000000E+00 -0.78310742245E+03  0.14339399716E+04  0.12012188006E+04 0.  0.
        4    1    3    3  502    0 -0.56501559503E+03 -0.39867448198E+02 -0.15311079302E+03  0.58675085334E+03  0.12699999809E+01 0.  1.
       -4    1    3    3    0  502  0.56501559503E+03  0.39867448198E+02 -0.62999662943E+03  0.84718911823E+03  0.12699999809E+01 0. -1.
</event>
<event>
 5   0  0.2304842E-04  0.1196295E+04  0.7818609E-02  0.9116105E-01
       -1   -1    0    0    0  501  0.00000000000E+00  0.00000000000E+00  0.12881258261E+04  0.12881258261E+04  0.50400001928E-02 0. -1.
        1   -1    0    0  501    0  0.00000000000E+00  0.00000000000E+00 -0.27775291873E+03  0.27775291878E+03  0.50400001928E-02 0.  1.
    10030    2    1    2    0    0  0.00000000000E+00  0.00000000000E+00  0.10103729074E+04  0.15658787449E+04  0.11962954617E+04 0.  0.
        4    1    3    3  502    0 -0.32611376262E+02 -0.55532213530E+03  0.79295358477E+03  0.96861921121E+03  0.12699999809E+01 0. -1.
       -4    1    3    3    0  502  0.32611376262E+02  0.55532213530E+03  0.21741932259E+03  0.59725953367E+03  0.12699999809E+01 0.  1.
</event>
<event>
 5   0  0.2204090E-04  0.1198936E+04  0.7818609E-02  0.9113789E-01
        1   -1    0    0  501    0  0.00000000000E+00  0.00000000000E+00  0.53213439691E+03  0.53213439694E+03  0.50400001928E-02 0.  1.
       -1   -1    0    0    0  501  0.00000000000E+00  0.00000000000E+00 -0.67532126485E+03  0.67532126487E+03  0.50400001928E-02 0. -1.
    10030    2    1    2    0    0  0.00000000000E+00  0.00000000000E+00 -0.14318686794E+03  0.12074556618E+04  0.11989356514E+04 0.  0.
        2    1    3    3  502    0  0.25273190528E+03  0.33886954624E+03  0.35646310788E+03  0.55296648416E+03  0.25500000920E-02 0.  1.
       -2    1    3    3    0  502 -0.25273190528E+03 -0.33886954624E+03 -0.49964997582E+03  0.65448917765E+03  0.25500000920E-02 0. -1.
</event>
<event>
 5   0  0.2244308E-04  0.1205651E+04  0.7818609E-02  0.9107924E-01
       -1   -1    0    0    0  501  0.00000000000E+00  0.00000000000E+00  0.37464169598E+03  0.37464169601E+03  0.50400001928E-02 0.  1.
        1   -1    0    0  501    0  0.00000000000E+00  0.00000000000E+00 -0.96999016452E+03  0.96999016453E+03  0.50400001928E-02 0. -1.
    10030    2    1    2    0    0  0.00000000000E+00  0.00000000000E+00 -0.59534846854E+03  0.13446318605E+04  0.12056512935E+04 0.  0.
        5    1    3    3  502    0  0.35469056612E+03  0.36319174681E+03  0.64855144270E+02  0.51180262054E+03  0.46999998093E+01 0.  1.
       -5    1    3    3    0  502 -0.35469056612E+03 -0.36319174681E+03 -0.66020361281E+03  0.83282924001E+03  0.46999998093E+01 0. -1.
</event>
<event>
 5   0  0.2315038E-04  0.1201258E+04  0.7818609E-02  0.9111756E-01
        1   -1    0    0  501    0  0.00000000000E+00  0.00000000000E+00  0.47557654010E+03  0.47557654012E+03  0.50400001928E-02 0. -1.
       -1   -1    0    0    0  501  0.00000000000E+00  0.00000000000E+00 -0.75856389340E+03  0.75856389342E+03  0.50400001928E-02 0.  1.
    10030    2    1    2    0    0  0.00000000000E+00  0.00000000000E+00 -0.28298735331E+03  0.12341404335E+04  0.12012579938E+04 0.  0.
        1    1    3    3  502    0 -0.57174079881E+03  0.17599247848E+03 -0.86222343466E+02  0.60439654701E+03  0.50400001928E-02 0. -1.
       -1    1    3    3    0  502  0.57174079881E+03 -0.17599247848E+03 -0.19676500984E+03  0.62974388653E+03  0.50400001928E-02 0.  1.
</event>
<event>
 5   0  0.3993723E-04  0.1195921E+04  0.7818609E-02  0.9116435E-01
       -2   -1    0    0    0  501  0.00000000000E+00  0.00000000000E+00  0.27648187777E+03  0.27648187778E+03  0.25500000920E-02 0. -1.
        2   -1    0    0  501    0  0.00000000000E+00  0.00000000000E+00 -0.12932372120E+04  0.12932372120E+04  0.25500000920E-02 0.  1.
    10030    2    1    2    0    0  0.00000000000E+00  0.00000000000E+00 -0.10167553342E+04  0.15697190898E+04  0.11959208214E+04 0.  0.
        3    1    3    3  502    0 -0.16637700129E+03 -0.93451619814E+02  0.23544285252E+03  0.30306411666E+03  0.10100000352E+00 0. -1.
       -3    1    3    3    0  502  0.16637700129E+03  0.93451619814E+02 -0.12521981867E+04  0.12666549731E+04  0.10100000352E+00 0.  1.
</event>
<event>
 5   0  0.3993723E-04  0.1202381E+04  0.7818609E-02  0.9110775E-01
        2   -1    0    0  501    0  0.00000000000E+00  0.00000000000E+00  0.11621864437E+04  0.11621864437E+04  0.25500000920E-02 0.  1.
       -2   -1    0    0    0  501  0.00000000000E+00  0.00000000000E+00 -0.31099166704E+03  0.31099166705E+03  0.25500000920E-02 0. -1.
    10030    2    1    2    0    0  0.00000000000E+00  0.00000000000E+00  0.85119477663E+03  0.14731781107E+04  0.12023814695E+04 0.  0.
        3    1    3    3  502    0  0.28861183324E+03  0.37351260589E+03 -0.30574796190E+02  0.47301510061E+03  0.10100000352E+00 0. -1.
       -3    1    3    3    0  502 -0.28861183324E+03 -0.37351260589E+03  0.88176957282E+03  0.10001630101E+04  0.10100000352E+00 0.  1.
</event>
<event>
 5   0  0.2244308E-04  0.1200181E+04  0.7818609E-02  0.9112698E-01
        1   -1    0    0  501    0  0.00000000000E+00  0.00000000000E+00  0.11809502690E+04  0.11809502690E+04  0.50400001928E-02 0. -1.
       -1   -1    0    0    0  501  0.00000000000E+00  0.00000000000E+00 -0.30493104253E+03  0.30493104257E+03  0.50400001928E-02 0.  1.
    10030    2    1    2    0    0  0.00000000000E+00  0.00000000000E+00  0.87601922646E+03  0.14858813116E+04  0.12001806476E+04 0.  0.
        5    1    3    3  502    0  0.98924778444E+02  0.56991465697E+03  0.63570025887E+03  0.85949155734E+03  0.46999998093E+01 0. -1.
       -5    1    3    3    0  502 -0.98924778444E+02 -0.56991465697E+03  0.24031896759E+03  0.62638975423E+03  0.46999998093E+01 0.  1.
</event>
<event>
 5   0  0.2340731E-04  0.1205099E+04  0.7818609E-02  0.9108405E-01
       -1   -1    0    0    0  501  0.00000000000E+00  0.00000000000E+00  0.45156880248E+03  0.45156880250E+03  0.50400001928E-02 0. -1.
        1   -1    0    0  501    0  0.00000000000E+00  0.00000000000E+00 -0.80400971988E+03  0.80400971989E+03  0.50400001928E-02 0.  1.
    10030    2    1    2    0    0  0.00000000000E+00  0.00000000000E+00 -0.35244091740E+03  0.12555785224E+04  0.12050986788E+04 0.  0.
        3    1    3    3  502    0  0.28053996686E+03 -0.19653807404E+03 -0.69270281627E+03  0.77276586973E+03  0.10100000352E+00 0.  1.
       -3    1    3    3    0  502 -0.28053996686E+03  0.19653807404E+03  0.34026189887E+03  0.48281265267E+03  0.10100000352E+00 0. -1.
</event>
<event>
 5   0  0.2340731E-04  0.1204505E+04  0.7818609E-02  0.9108922E-01
       -1   -1    0    0    0  501  0.00000000000E+00  0.00000000000E+00  0.69476345472E+03  0.69476345474E+03  0.50400001928E-02 0. -1.
        1   -1    0    0  501    0  0.00000000000E+00  0.00000000000E+00 -0.52205988882E+03  0.52205988885E+03  0.50400001928E-02 0.  1.
    10030    2    1    2    0    0  0.00000000000E+00  0.00000000000E+00  0.17270356589E+03  0.12168233436E+04  0.12045050966E+04 0.  0.
        3    1    3    3  502    0 -0.45153432647E+03 -0.10631156034E+03  0.47436663998E+03  0.66348256584E+03  0.10100000352E+00 0. -1.
       -3    1    3    3    0  502  0.45153432647E+03  0.10631156034E+03 -0.30166307409E+03  0.55334077774E+03  0.10100000352E+00 0.  1.
</event>
<event>
 5   0  0.3883890E-04  0.1199016E+04  0.7818609E-02  0.9113718E-01
        2   -1    0    0  501    0  0.00000000000E+00  0.00000000000E+00  0.10866034998E+04  0.10866034998E+04  0.25500000920E-02 0.  1.
       -2   -1    0    0    0  501  0.00000000000E+00  0.00000000000E+00 -0.33076454431E+03  0.33076454432E+03  0.25500000920E-02 0. -1.
    10030    2    1    2    0    0  0.00000000000E+00  0.00000000000E+00  0.75583895549E+03  0.14173680441E+04  0.11990161158E+04 0.  0.
        2    1    3    3  502    0  0.19043620809E+03  0.52180763449E+03  0.11132630906E+03  0.56651805254E+03  0.25500000920E-02 0. -1.
       -2    1    3    3    0  502 -0.19043620809E+03 -0.52180763449E+03  0.64451264643E+03  0.85084999159E+03  0.25500000920E-02 0.  1.
</event>
<event>
 5   0  0.3883890E-04  0.1207438E+04  0.7818609E-02  0.9106371E-01
        2   -1    0    0  501    0  0.00000000000E+00  0.00000000000E+00  0.12006294142E+04  0.12006294142E+04  0.25500000920E-02 0. -1.
       -2   -1    0    0    0  501  0.00000000000E+00  0.00000000000E+00 -0.30357109693E+03  0.30357109694E+03  0.25500000920E-02 0.  1.
    10030    2    1    2    0    0  0.00000000000E+00  0.00000000000E+00  0.89705831731E+03  0.15042005112E+04  0.12074375981E+04 0.  0.
        2    1    3    3  502    0 -0.43237852405E+03  0.25181626165E+03  0.86936242673E+03  0.10030721044E+04  0.25500000920E-02 0. -1.
       -2    1    3    3    0  502  0.43237852405E+03 -0.25181626165E+03  0.27695890582E+02  0.50112840675E+03  0.25500000920E-02 0.  1.
</event>
<event>
 5   0  0.2304842E-04  0.1199845E+04  0.7818609E-02  0.9112992E-01
       -1   -1    0    0    0  501  0.00000000000E+00  0.00000000000E+00  0.63975892254E+03  0.63975892256E+03  0.50400001928E-02 0.  1.
        1   -1    0    0  501    0  0.00000000000E+00  0.00000000000E+00 -0.56256701780E+03  0.56256701782E+03  0.50400001928E-02 0. -1.
    10030    2    1    2    0    0  0.00000000000E+00  0.00000000000E+00  0.77191904743E+02  0.12023259404E+04  0.11998454387E+04 0.  0.
        4    1    3    3  502    0 -0.21645324522E+03  0.33237042442E+01  0.59925474140E+03  0.63715846724E+03  0.12699999809E+01 0.  1.
       -4    1    3    3    0  502  0.21645324522E+03 -0.33237042442E+01 -0.52206283666E+03  0.56516747314E+03  0.12699999809E+01 0. -1.
</event>
<event>
 5   0  0.4024486E-04  0.1200069E+04  0.7818609E-02  0.9112796E-01
       -2   -1    0    0    0  501  0.00000000000E+00  0.00000000000E+00  0.47757355859E+03  0.47757355860E+03  0.25500000920E-02 0. -1.
        2   -1    0    0  501    0  0.00000000000E+00  0.00000000000E+00 -0.75389780574E+03  0.75389780574E+03  0.25500000920E-02 0.  1.
    10030    2    1    2    0    0  0.00000000000E+00  0.00000000000E+00 -0.27632424715E+03  0.12314713643E+04  0.12000694278E+04 0.  0.
        1    1    3    3  502    0  0.59478865647E+03 -0.21446535400E+02 -0.59956647973E+02  0.59818751191E+03  0.50400001928E-02 0. -1.
       -1    1    3    3    0  502 -0.59478865647E+03  0.21446535400E+02 -0.21636759917E+03  0.63328385243E+03  0.50400001928E-02 0.  1.
</event>
<event>
 5   0  0.1541375E-04  0.1184159E+04  0.7818609E-02  0.9126836E-01
        3   -1    0    0  501    0  0.00000000000E+00  0.00000000000E+00  0.14844054889E+04  0.14844054923E+04  0.10100000352E+00 0.  1.
       -3   -1    0    0    0  501  0.00000000000E+00  0.00000000000E+00 -0.23616060915E+03  0.23616063075E+03  0.10100000352E+00 0. -1.
    10030    2    1    2    0    0  0.00000000000E+00  0.00000000000E+00  0.12482448797E+04  0.17205661230E+04  0.11841589860E+04 0.  0.
        2    1    3    3  502    0  0.28555869777E+03 -0.32853974529E+03  0.12072677133E+04  0.12833461987E+04  0.25500000920E-02 0.  1.
       -2    1    3    3    0  502 -0.28555869777E+03  0.32853974529E+03  0.40977166451E+02  0.43721992439E+03  0.25500000920E-02 0. -1.
</event>
<event>
 5   0  0.4122956E-04  0.1196636E+04  0.7818609E-02  0.9115806E-01
        2   -1    0    0  501    0  0.00000000000E+00  0.00000000000E+00  0.14740014289E+04  0.14740014289E+04  0.25500000920E-02 0.  1.
       -2   -1    0    0    0  501  0.00000000000E+00  0.00000000000E+00 -0.24286557294E+03  0.24286557295E+03  0.25500000920E-02 0. -1.
    10030    2    1    2    0    0  0.00000000000E+00  0.00000000000E+00  0.12311358560E+04  0.17168670019E+04  0.11966356197E+04 0.  0.
        5    1    3    3  502    0 -0.34395761910E+03 -0.38528056919E+03  0.18225081882E+03  0.54770924010E+03  0.46999998093E+01 0. -1.
       -5    1    3    3    0  502  0.34395761910E+03  0.38528056919E+03  0.10488850372E+04  0.11691577618E+04  0.46999998093E+01 0.  1.
</event>
<event>
 5   0  0.4122956E-04  0.1198777E+04  0.7818609E-02  0.9113928E-01
        2   -1    0    0  501    0  0.00000000000E+00  0.00000000000E+00  0.96354694955E+03  0.96354694956E+03  0.25500000920E-02 0.  1.
       -2   -1    0    0    0  501  0.00000000000E+00  0.00000000000E+00 -0.37285821415E+03  0.37285821416E+03  0.25500000920E-02 0. -1.
    10030    2    1    2    0    0  0.00000000000E+00  0.00000000000E+00  0.59068873540E+03  0.13364051637E+04  0.11987767013E+04 0.  0.
        5    1    3    3  502    0  0.12682624102E+03  0.42229481596E+03 -0.15725439978E+03  0.46815472148E+03  0.46999998093E+01 0. -1.
       -5    1    3    3    0  502 -0.12682624102E+03 -0.42229481596E+03  0.74794313518E+03  0.86825044224E+03  0.46999998093E+01 0.  1.
</event>
<event>
 5   0  0.3883890E-04  0.1198086E+04  0.7818609E-02  0.9114534E-01
        2   -1    0    0  501    0  0.00000000000E+00  0.00000000000E+00  0.67629443737E+03  0.67629443738E+03  0.25500000920E-02 0.  1.
       -2   -1    0    0    0  501  0.00000000000E+00  0.00000000000E+00 -0.53061548480E+03  0.53061548480E+03  0.25500000920E-02 0. -1.
    10030    2    1    2    0    0  0.00000000000E+00  0.00000000000E+00  0.14567895258E+03  0.12069099222E+04  0.11980856409E+04 0.  0.
        2    1    3    3  502    0 -0.10398461430E+03  0.58587815088E+03  0.14253207160E+03  0.61186714174E+03  0.25500000920E-02 0. -1.
       -2    1    3    3    0  502  0.10398461430E+03 -0.58587815088E+03  0.31468809782E+01  0.59504278045E+03  0.25500000920E-02 0.  1.
</event>
<event>
 5   0  0.2244308E-04  0.1163338E+04  0.7818609E-02  0.9145566E-01
        1   -1    0    0  501    0  0.00000000000E+00  0.00000000000E+00  0.55012312717E+03  0.55012312719E+03  0.50400001928E-02 0. -1.
       -1   -1    0    0    0  501  0.00000000000E+00  0.00000000000E+00 -0.61502412708E+03  0.61502412710E+03  0.50400001928E-02 0.  1.
    10030    2    1    2    0    0  0.00000000000E+00  0.00000000000E+00 -0.64900999914E+02  0.11651472543E+04  0.11633382932E+04 0.  0.
        5    1    3    3  502    0 -0.37493741742E+03 -0.46390325889E+02 -0.47539012847E+03  0.60724623800E+03  0.46999998093E+01 0.  1.
       -5    1    3    3    0  502  0.37493741742E+03  0.46390325889E+02  0.41048912856E+03  0.55790101629E+03  0.46999998093E+01 0. -1.
</event>
<event>
 5   0  0.3993723E-04  0.1216119E+04  0.7818609E-02  0.9098863E-01
        2   -1    0    0  501    0  0.00000000000E+00  0.00000000000E+00  0.94112911455E+03  0.94112911455E+03  0.25500000920E-02 0.  1.
       -2   -1    0    0    0  501  0.00000000000E+00  0.00000000000E+00 -0.39286473759E+03  0.39286473760E+03  0.25500000920E-02 0. -1.
    10030    2    1    2    0    0  0.00000000000E+00  0.00000000000E+00  0.54826437696E+03  0.13339938521E+04  0.12161191432E+04 0.  0.
        3    1    3    3  502    0 -0.36881555126E+03 -0.21038111331E+03 -0.20331628388E+03  0.47076814375E+03  0.10100000352E+00 0. -1.
       -3    1    3    3    0  502  0.36881555126E+03  0.21038111331E+03  0.75158066084E+03  0.86322570839E+03  0.10100000352E+00 0.  1.
</event>
<event>
 5   0  0.2340731E-04  0.1200940E+04  0.7818609E-02  0.9112034E-01
        1   -1    0    0  501    0  0.00000000000E+00  0.00000000000E+00  0.54984716339E+03  0.54984716341E+03  0.50400001928E-02 0. -1.
       -1   -1    0    0    0  501  0.00000000000E+00  0.00000000000E+00 -0.65575348438E+03  0.65575348440E+03  0.50400001928E-02 0.  1.
    10030    2    1    2    0    0  0.00000000000E+00  0.00000000000E+00 -0.10590632099E+03  0.12056006478E+04  0.12009399540E+04 0.  0.
        3    1    3    3  502    0  0.25449685506E+03  0.24701721208E+03  0.43346626101E+03  0.56007067584E+03  0.10100000352E+00 0. -1.
       -3    1    3    3    0  502 -0.25449685506E+03 -0.24701721208E+03 -0.53937258200E+03  0.64552997197E+03  0.10100000352E+00 0.  1.
</event>
<event>
 5   0  0.3832662E-04  0.1191640E+04  0.7818609E-02  0.9120205E-01
        2   -1    0    0  501    0  0.00000000000E+00  0.00000000000E+00  0.64883722356E+03  0.64883722356E+03  0.25500000920E-02 0. -1.
       -2   -1    0    0    0  501  0.00000000000E+00  0.00000000000E+00 -0.54713517047E+03  0.54713517048E+03  0.25500000920E-02 0.  1.
    10030    2    1    2    0    0  0.00000000000E+00  0.00000000000E+00  0.10170205308E+03  0.11959723940E+04  0.11916403231E+04 0.  0.
        4    1    3    3  502    0 -0.13950463962E+03 -0.30594165019E+03  0.54451132333E+03  0.63996564902E+03  0.12699999809E+01 0. -1.
       -4    1    3    3    0  502  0.13950463962E+03  0.30594165019E+03 -0.44280927024E+03  0.55600674502E+03  0.12699999809E+01 0.  1.
</event>
<event>
 5   0  0.2204090E-04  0.1200807E+04  0.7818609E-02  0.9112150E-01
       -1   -1    0    0    0  501  0.00000000000E+00  0.00000000000E+00  0.34992773026E+03  0.34992773030E+03  0.50400001928E-02 0.  1.
        1   -1    0    0  501    0  0.00000000000E+00  0.00000000000E+00 -0.10301680395E+04  0.10301680395E+04  0.50400001928E-02 0. -1.
    10030    2    1    2    0    0  0.00000000000E+00  0.00000000000E+00 -0.68024030924E+03  0.13800957698E+04  0.12008070018E+04 0.  0.
        2    1    3    3  502    0  0.47703774872E+03 -0.36342267100E+03 -0.37349584426E+03  0.70649854720E+03  0.25500000920E-02 0. -1.
       -2    1    3    3    0  502 -0.47703774872E+03  0.36342267100E+03 -0.30674446498E+03  0.67359722261E+03  0.25500000920E-02 0.  1.
</event>
<event>
 5   0  0.2315038E-04  0.1199551E+04  0.7818609E-02  0.9113250E-01
       -1   -1    0    0    0  501  0.00000000000E+00  0.00000000000E+00  0.78036012348E+03  0.78036012350E+03  0.50400001928E-02 0.  1.
        1   -1    0    0  501    0  0.00000000000E+00  0.00000000000E+00 -0.46098033328E+03  0.46098033331E+03  0.50400001928E-02 0. -1.
    10030    2    1    2    0    0  0.00000000000E+00  0.00000000000E+00  0.31937979020E+03  0.12413404568E+04  0.11995510324E+04 0.  0.
        1    1    3    3  502    0  0.28049059499E+03  0.35553773075E+03 -0.24726399336E+03  0.51596660193E+03  0.50400001928E-02 0. -1.
       -1    1    3    3    0  502 -0.28049059499E+03 -0.35553773075E+03  0.56664378356E+03  0.72537385488E+03  0.50400001928E-02 0.  1.
</event>
<event>
 5   0  0.4122956E-04  0.1200681E+04  0.7818609E-02  0.9112260E-01
       -2   -1    0    0    0  501  0.00000000000E+00  0.00000000000E+00  0.49441298699E+03  0.49441298699E+03  0.25500000920E-02 0. -1.
        2   -1    0    0  501    0  0.00000000000E+00  0.00000000000E+00 -0.72896344472E+03  0.72896344473E+03  0.25500000920E-02 0.  1.
    10030    2    1    2    0    0  0.00000000000E+00  0.00000000000E+00 -0.23455045774E+03  0.12233764317E+04  0.12006814634E+04 0.  0.
        5    1    3    3  502    0  0.28673377815E+03 -0.37409792255E+03  0.26153345831E+03  0.53906155029E+03  0.46999998093E+01 0. -1.
       -5    1    3    3    0  502 -0.28673377815E+03  0.37409792255E+03 -0.49608391605E+03  0.68431488143E+03  0.46999998093E+01 0.  1.
</event>
<event>
 5   0  0.2244308E-04  0.1201826E+04  0.7818609E-02  0.9111260E-01
        1   -1    0    0  501    0  0.00000000000E+00  0.00000000000E+00  0.55804257412E+03  0.55804257415E+03  0.50400001928E-02 0.  1.
       -1   -1    0    0    0  501  0.00000000000E+00  0.00000000000E+00 -0.64707704430E+03  0.64707704432E+03  0.50400001928E-02 0. -1.
    10030    2    1    2    0    0  0.00000000000E+00  0.00000000000E+00 -0.89034470177E+02  0.12051196185E+04  0.12018261763E+04 0.  0.
        5    1    3    3  502    0  0.15061190103E+03  0.45716248430E+03 -0.40521531836E+03  0.62920825329E+03  0.46999998093E+01 0. -1.
       -5    1    3    3    0  502 -0.15061190103E+03 -0.45716248430E+03  0.31618084818E+03  0.57591136517E+03  0.46999998093E+01 0.  1.
</event>
<event>
 5   0  0.3993723E-04  0.1200308E+04  0.7818609E-02  0.9112587E-01
        2   -1    0    0  501    0  0.00000000000E+00  0.00000000000E+00  0.58418913624E+03  0.58418913624E+03  0.25500000920E-02 0. -1.
       -2   -1    0    0    0  501  0.00000000000E+00  0.00000000000E+00 -0.61655487043E+03  0.61655487043E+03  0.25500000920E-02 0.  1.
    10030    2    1    2    0    0  0.00000000000E+00  0.00000000000E+00 -0.32365734188E+02  0.12007440067E+04  0.12003077225E+04 0.  0.
        3    1    3    3  502    0 -0.20734599777E+03  0.48873169356E+02 -0.57746050504E+03  0.61550109225E+03  0.10100000352E+00 0.  1.
       -3    1    3    3    0  502  0.20734599777E+03 -0.48873169356E+02  0.54509477085E+03  0.58524291443E+03  0.10100000352E+00 0. -1.
</event>
<event>
 5   0  0.4024486E-04  0.1192876E+04  0.7818609E-02  0.9119115E-01
        2   -1    0    0  501    0  0.00000000000E+00  0.00000000000E+00  0.12860623891E+04  0.12860623891E+04  0.25500000920E-02 0.  1.
       -2   -1    0    0    0  501  0.00000000000E+00  0.00000000000E+00 -0.27661044008E+03  0.27661044009E+03  0.25500000920E-02 0. -1.
    10030    2    1    2    0    0  0.00000000000E+00  0.00000000000E+00  0.10094519490E+04  0.15626728292E+04  0.11928759926E+04 0.  0.
        1    1    3    3  502    0  0.51628933825E+03 -0.24080200340E+03  0.73611146599E+03  0.93080630424E+03  0.50400001928E-02 0.  1.
       -1    1    3    3    0  502 -0.51628933825E+03  0.24080200340E+03  0.27334048299E+03  0.63186652491E+03  0.50400001928E-02 0. -1.
</event>
<event>
 5   0  0.2204090E-04  0.1200379E+04  0.7818609E-02  0.9112525E-01
        1   -1    0    0  501    0  0.00000000000E+00  0.00000000000E+00  0.29095269024E+03  0.29095269029E+03  0.50400001928E-02 0.  1.
       -1   -1    0    0    0  501  0.00000000000E+00  0.00000000000E+00 -0.12380964414E+04  0.12380964414E+04  0.50400001928E-02 0. -1.
    10030    2    1    2    0    0  0.00000000000E+00  0.00000000000E+00 -0.94714375119E+03  0.15290491317E+04  0.12003790909E+04 0.  0.
        2    1    3    3  502    0 -0.27943779356E+03  0.13798421892E+03 -0.11269512109E+04  0.11692493989E+04  0.25500000920E-02 0. -1.
       -2    1    3    3    0  502  0.27943779356E+03 -0.13798421892E+03  0.17980745972E+03  0.35979973279E+03  0.25500000920E-02 0.  1.
</event>
<event>
 5   0  0.2204090E-04  0.1199536E+04  0.7818609E-02  0.9113263E-01
        1   -1    0    0  501    0  0.00000000000E+00  0.00000000000E+00  0.81233888114E+03  0.81233888115E+03  0.50400001928E-02 0.  1.
       -1   -1    0    0    0  501  0.00000000000E+00  0.00000000000E+00 -0.44282232457E+03  0.44282232459E+03  0.50400001928E-02 0. -1.
    10030    2    1    2    0    0  0.00000000000E+00  0.00000000000E+00  0.36951655657E+03  0.12551612057E+04  0.11995362299E+04 0.  0.
        2    1    3    3  502    0  0.10004794134E+03  0.55932075061E+03  0.38568487341E+03  0.68673292786E+03  0.25500000920E-02 0.  1.
       -2    1    3    3    0  502 -0.10004794134E+03 -0.55932075061E+03 -0.16168316832E+02  0.56842827789E+03  0.25500000920E-02 0. -1.
</event>
<event>
 5   0  0.3993723E-04  0.1198551E+04  0.7818609E-02  0.9114126E-01
        2   -1    0    0  501    0  0.00000000000E+00  0.00000000000E+00  0.15825406716E+04  0.15825406716E+04  0.25500000920E-02 0.  1.
       -2   -1    0    0    0  501  0.00000000000E+00  0.00000000000E+00 -0.22693323780E+03  0.22693323781E+03  0.25500000920E-02 0. -1.
    10030    2    1    2    0    0  0.00000000000E+00  0.00000000000E+00  0.13556074338E+04  0.18094739094E+04  0.11985509227E+04 0.  0.
        3    1    3    3  502    0  0.24489714047E+03  0.15241393588E+03 -0.11523155239E+03  0.31061702807E+03  0.10100000352E+00 0. -1.
       -3    1    3    3    0  502 -0.24489714047E+03 -0.15241393588E+03  0.14708389862E+04  0.14988568813E+04  0.10100000352E+00 0.  1.
</event>
<event>
 5   0  0.3993723E-04  0.1201455E+04  0.7818609E-02  0.9111584E-01
       -2   -1    0    0    0  501  0.00000000000E+00  0.00000000000E+00  0.46670435135E+03  0.46670435136E+03  0.25500000920E-02 0. -1.
        2   -1    0    0  501    0  0.00000000000E+00  0.00000000000E+00 -0.77323831848E+03  0.77323831849E+03  0.25500000920E-02 0.  1.
    10030    2    1    2    0    0  0.00000000000E+00  0.00000000000E+00 -0.30653396713E+03  0.12399426698E+04  0.12014552640E+04 0.  0.
        3    1    3    3  502    0 -0.23509225648E+03  0.45573550980E+03 -0.47619708762E+03  0.69980490167E+03  0.10100000352E+00 0.  1.
       -3    1    3    3    0  502  0.23509225648E+03 -0.45573550980E+03  0.16966312048E+03  0.54013776817E+03  0.10100000352E+00 0. -1.
</event>
<event>
 5   0  0.2304842E-04  0.1199391E+04  0.7818609E-02  0.9113390E-01
       -1   -1    0    0    0  501  0.00000000000E+00  0.00000000000E+00  0.42252101550E+03  0.42252101553E+03  0.50400001928E-02 0.  1.
        1   -1    0    0  501    0  0.00000000000E+00  0.00000000000E+00 -0.85116423608E+03  0.85116423609E+03  0.50400001928E-02 0. -1.
    10030    2    1    2    0    0  0.00000000000E+00  0.00000000000E+00 -0.42864322057E+03  0.12736852516E+04  0.11993911412E+04 0.  0.
        4    1    3    3  502    0  0.45503808695E+03 -0.23234504175E+03  0.11911719627E+03  0.52462786653E+03  0.12699999809E+01 0.  1.
       -4    1    3    3    0  502 -0.45503808695E+03  0.23234504175E+03 -0.54776041684E+03  0.74905738509E+03  0.12699999809E+01 0. -1.
</event>
<event>
 5   0  0.2304842E-04  0.1200103E+04  0.7818609E-02  0.9112766E-01
        1   -1    0    0  501    0  0.00000000000E+00  0.00000000000E+00  0.23769418251E+03  0.23769418257E+03  0.50400001928E-02 0.  1.
       -1   -1    0    0    0  501  0.00000000000E+00  0.00000000000E+00 -0.15148111229E+04  0.15148111229E+04  0.50400001928E-02 0. -1.
    10030    2    1    2    0    0  0.00000000000E+00  0.00000000000E+00 -0.12771169404E+04  0.17525053055E+04  0.12001029815E+04 0.  0.
        4    1    3    3  502    0  0.54500833515E+03 -0.24789587398E+03 -0.69648877244E+03  0.91846865638E+03  0.12699999809E+01 0. -1.
       -4    1    3    3    0  502 -0.54500833515E+03  0.24789587398E+03 -0.58062816797E+03  0.83403664912E+03  0.12699999809E+01 0.  1.
</event>
<event>
 5   0  0.2315038E-04  0.1201126E+04  0.7818609E-02  0.9111871E-01
        1   -1    0    0  501    0  0.00000000000E+00  0.00000000000E+00  0.16521244036E+04  0.16521244036E+04  0.50400001928E-02 0.  1.
       -1   -1    0    0    0  501  0.00000000000E+00  0.00000000000E+00 -0.21831040286E+03  0.21831040292E+03  0.50400001928E-02 0. -1.
    10030    2    1    2    0    0  0.00000000000E+00  0.00000000000E+00  0.14338140008E+04  0.18704348065E+04  0.12011260453E+04 0.  0.
        1    1    3    3  502    0  0.31624481234E+03  0.30968404995E+03  0.84813772183E+02  0.45067545762E+03  0.50400001928E-02 0. -1.
       -1    1    3    3    0  502 -0.31624481234E+03 -0.30968404995E+03  0.13490002286E+04  0.14197593489E+04  0.50400001928E-02 0.  1.
</event>
<event>
 5   0  0.2315038E-04  0.1198225E+04  0.7818609E-02  0.9114412E-01
        1   -1    0    0  501    0  0.00000000000E+00  0.00000000000E+00  0.14421060590E+04  0.14421060590E+04  0.50400001928E-02 0.  1.
       -1   -1    0    0    0  501  0.00000000000E+00  0.00000000000E+00 -0.24889692646E+03  0.24889692651E+03  0.50400001928E-02 0. -1.
    10030    2    1    2    0    0  0.00000000000E+00  0.00000000000E+00  0.11932091326E+04  0.16910029856E+04  0.11982249635E+04 0.  0.
        1    1    3    3  502    0  0.46799550248E+03 -0.13996758452E+03  0.10706923945E+03  0.50007453157E+03  0.50400001928E-02 0. -1.
       -1    1    3    3    0  502 -0.46799550248E+03  0.13996758452E+03  0.10861398931E+04  0.11909284540E+04  0.50400001928E-02 0.  1.
</event>
<event>
 5   0  0.2204090E-04  0.1201297E+04  0.7818609E-02  0.9111722E-01
        1   -1    0    0  501    0  0.00000000000E+00  0.00000000000E+00  0.10750703217E+04  0.10750703218E+04  0.50400001928E-02 0. -1.
       -1   -1    0    0    0  501  0.00000000000E+00  0.00000000000E+00 -0.33558625487E+03  0.33558625491E+03  0.50400001928E-02 0.  1.
    10030    2    1    2    0    0  0.00000000000E+00  0.00000000000E+00  0.73948406687E+03  0.14106565767E+04  0.12012973371E+04 0.  0.
        2    1    3    3  502    0  0.35290741153E+02  0.47369799723E+03  0.80142858162E+03  0.93162385136E+03  0.25500000920E-02 0. -1.
       -2    1    3    3    0  502 -0.35290741153E+02 -0.47369799723E+03 -0.61944514746E+02  0.47903272530E+03  0.25500000920E-02 0.  1.
</event>
<event>
 5   0  0.2244308E-04  0.1199821E+04  0.7818609E-02  0.9113013E-01
       -1   -1    0    0    0  501  0.00000000000E+00  0.00000000000E+00  0.10874296436E+04  0.10874296436E+04  0.50400001928E-02 0.  1.
        1   -1    0    0  501    0  0.00000000000E+00  0.00000000000E+00 -0.33095703471E+03  0.33095703474E+03  0.50400001928E-02 0. -1.
    10030    2    1    2    0    0  0.00000000000E+00  0.00000000000E+00  0.75647260888E+03  0.14183866783E+04  0.11998208038E+04 0.  0.
        5    1    3    3  502    0  0.23568635035E+03 -0.22416278683E+02  0.10298441907E+04  0.10567174137E+04  0.46999998093E+01 0.  1.
       -5    1    3    3    0  502 -0.23568635035E+03  0.22416278683E+02 -0.27337158178E+03  0.36166926468E+03  0.46999998093E+01 0. -1.
</event>
<event>
 5   0  0.2204090E-04  0.1199977E+04  0.7818609E-02  0.9112877E-01
       -1   -1    0    0    0  501  0.00000000000E+00  0.00000000000E+00  0.68203240096E+03  0.68203240098E+03  0.50400001928E-02 0.  1.
        1   -1    0    0  501    0  0.00000000000E+00  0.00000000000E+00 -0.52781389635E+03  0.52781389637E+03  0.50400001928E-02 0. -1.
    10030    2    1    2    0    0  0.00000000000E+00  0.00000000000E+00  0.15421850461E+03  0.12098462974E+04  0.11999769648E+04 0.  0.
        2    1    3    3  502    0 -0.50238315239E+03  0.29202915517E+03 -0.73505869698E+02  0.58572431413E+03  0.25500000920E-02 0. -1.
       -2    1    3    3    0  502  0.50238315239E+03 -0.29202915517E+03  0.22772437431E+03  0.62412198322E+03  0.25500000920E-02 0.  1.
</event>
<event>
 5   0  0.4024486E-04  0.1200188E+04  0.7818609E-02  0.9112692E-01
       -2   -1    0    0    0  501  0.00000000000E+00  0.00000000000E+00  0.55462631672E+03  0.55462631672E+03  0.25500000920E-02 0. -1.
        2   -1    0    0  501    0  0.00000000000E+00  0.00000000000E+00 -0.64928887009E+03  0.64928887009E+03  0.25500000920E-02 0.  1.
    10030    2    1    2    0    0  0.00000000000E+00  0.00000000000E+00 -0.94662553370E+02  0.12039151868E+04  0.12001878095E+04 0.  0.
        1    1    3    3  502    0  0.13432394398E+03 -0.37386842090E+02 -0.63281509916E+03  0.64799355524E+03  0.50400001928E-02 0.  1.
       -1    1    3    3    0  502 -0.13432394398E+03  0.37386842090E+02  0.53815254579E+03  0.55592163157E+03  0.50400001928E-02 0. -1.
</event>
<event>
 5   0  0.4024486E-04  0.1201467E+04  0.7818609E-02  0.9111573E-01
       -2   -1    0    0    0  501  0.00000000000E+00  0.00000000000E+00  0.38634661248E+03  0.38634661249E+03  0.25500000920E-02 0. -1.
        2   -1    0    0  501    0  0.00000000000E+00  0.00000000000E+00 -0.93408598095E+03  0.93408598096E+03  0.25500000920E-02 0.  1.
    10030    2    1    2    0    0  0.00000000000E+00  0.00000000000E+00 -0.54773936847E+03  0.13204325934E+04  0.12014673604E+04 0.  0.
        1    1    3    3  502    0 -0.43519355817E+03 -0.43188190680E+01 -0.72895927365E+03  0.84899570549E+03  0.50400001928E-02 0.  1.
       -1    1    3    3    0  502  0.43519355817E+03  0.43188190680E+01  0.18121990518E+03  0.47143688796E+03  0.50400001928E-02 0. -1.
</event>
<event>
 5   0  0.3883890E-04  0.1201751E+04  0.7818609E-02  0.9111325E-01
       -2   -1    0    0    0  501  0.00000000000E+00  0.00000000000E+00  0.31680721282E+03  0.31680721283E+03  0.25500000920E-02 0.  1.
        2   -1    0    0  501    0  0.00000000000E+00  0.00000000000E+00 -0.11396560001E+04  0.11396560001E+04  0.25500000920E-02 0. -1.
    10030    2    1    2    0    0  0.00000000000E+00  0.00000000000E+00 -0.82284878726E+03  0.14564632129E+04  0.12017507911E+04 0.  0.
        2    1    3    3  502    0  0.38376900491E+03 -0.13334600777E+02  0.14869475596E+03  0.41178464173E+03  0.25500000920E-02 0.  1.
       -2    1    3    3    0  502 -0.38376900491E+03  0.13334600777E+02 -0.97154354322E+03  0.10446785712E+04  0.25500000920E-02 0. -1.
</event>
<event>
 5   0  0.2304842E-04  0.1189978E+04  0.7818609E-02  0.9121674E-01
        1   -1    0    0  501    0  0.00000000000E+00  0.00000000000E+00  0.35625074333E+03  0.35625074336E+03  0.50400001928E-02 0. -1.
       -1   -1    0    0    0  501  0.00000000000E+00  0.00000000000E+00 -0.99371591369E+03  0.99371591371E+03  0.50400001928E-02 0.  1.
    10030    2    1    2    0    0  0.00000000000E+00  0.00000000000E+00 -0.63746517037E+03  0.13499666571E+04  0.11899782064E+04 0.  0.
        4    1    3    3  502    0 -0.40748311785E+03 -0.33622867182E+03 -0.82210578472E+01  0.52835727475E+03  0.12699999809E+01 0. -1.
       -4    1    3    3    0  502  0.40748311785E+03  0.33622867182E+03 -0.62924411252E+03  0.82160938233E+03  0.12699999809E+01 0.  1.
</event>
<event>
 5   0  0.2304842E-04  0.1202497E+04  0.7818609E-02  0.9110674E-01
       -1   -1    0    0    0  501  0.00000000000E+00  0.00000000000E+00  0.84625951765E+03  0.84625951766E+03  0.50400001928E-02 0.  1.
        1   -1    0    0  501    0  0.00000000000E+00  0.00000000000E+00 -0.42717358926E+03  0.42717358929E+03  0.50400001928E-02 0. -1.
    10030    2    1    2    0    0  0.00000000000E+00  0.00000000000E+00  0.41908592839E+03  0.12734331070E+04  0.12024969283E+04 0.  0.
        4    1    3    3  502    0 -0.11474910436E+03 -0.58814865265E+03  0.26155125054E+03  0.65383244347E+03  0.12699999809E+01 0. -1.
       -4    1    3    3    0  502  0.11474910436E+03  0.58814865265E+03  0.15753467784E+03  0.61960066349E+03  0.12699999809E+01 0.  1.
</event>
<event>
 5   0  0.2315038E-04  0.1191637E+04  0.7818609E-02  0.9120208E-01
       -1   -1    0    0    0  501  0.00000000000E+00  0.00000000000E+00  0.36483996392E+03  0.36483996395E+03  0.50400001928E-02 0. -1.
        1   -1    0    0  501    0  0.00000000000E+00  0.00000000000E+00 -0.97302855948E+03  0.97302855950E+03  0.50400001928E-02 0.  1.
    10030    2    1    2    0    0  0.00000000000E+00  0.00000000000E+00 -0.60818859556E+03  0.13378685234E+04  0.11916370329E+04 0.  0.
        1    1    3    3  502    0 -0.53894915925E+03  0.24704156171E+03 -0.37055270801E+03  0.69914593535E+03  0.50400001928E-02 0.  1.
       -1    1    3    3    0  502  0.53894915925E+03 -0.24704156171E+03 -0.23763588756E+03  0.63872258810E+03  0.50400001928E-02 0. -1.
</event>
<event>
 5   0  0.2204090E-04  0.1204372E+04  0.7818609E-02  0.9109038E-01
       -1   -1    0    0    0  501  0.00000000000E+00  0.00000000000E+00  0.30562108441E+03  0.30562108445E+03  0.50400001928E-02 0. -1.
        1   -1    0    0  501    0  0.00000000000E+00  0.00000000000E+00 -0.11865285972E+04  0.11865285973E+04  0.50400001928E-02 0.  1.
    10030    2    1    2    0    0  0.00000000000E+00  0.00000000000E+00 -0.88090751283E+03  0.14921496817E+04  0.12043722956E+04 0.  0.
        2    1    3    3  502    0 -0.41755209061E+03 -0.33449645814E+03 -0.78288342769E+03  0.94823208670E+03  0.25500000920E-02 0.  1.
       -2    1    3    3    0  502  0.41755209061E+03  0.33449645814E+03 -0.98024085141E+02  0.54391759501E+03  0.25500000920E-02 0. -1.
</event>
<event>
 5   0  0.1541375E-04  0.1200205E+04  0.7818609E-02  0.9112677E-01
       -4   -1    0    0    0  501  0.00000000000E+00  0.00000000000E+00  0.44541865558E+03  0.44542046612E+03  0.12699999809E+01 0. -1.
        4   -1    0    0  501    0  0.00000000000E+00  0.00000000000E+00 -0.80850117884E+03  0.80850217631E+03  0.12699999809E+01 0.  1.
    10030    2    1    2    0    0  0.00000000000E+00  0.00000000000E+00 -0.36308252326E+03  0.12539226424E+04  0.12002054301E+04 0.  0.
        3    1    3    3  502    0 -0.27145326384E+03  0.22665908834E+03 -0.68807270446E+03  0.77363122584E+03  0.10100000352E+00 0.  1.
       -3    1    3    3    0  502  0.27145326384E+03 -0.22665908834E+03  0.32499018120E+03  0.48029141659E+03  0.10100000352E+00 0. -1.
</event>
<event>
 5   0  0.3993723E-04  0.1200150E+04  0.7818609E-02  0.9112725E-01
        2   -1    0    0  501    0  0.00000000000E+00  0.00000000000E+00  0.90165013841E+03  0.90165013841E+03  0.25500000920E-02 0.  1.
       -2   -1    0    0    0  501  0.00000000000E+00  0.00000000000E+00 -0.39936806371E+03  0.39936806372E+03  0.25500000920E-02 0. -1.
    10030    2    1    2    0    0  0.00000000000E+00  0.00000000000E+00  0.50228207470E+03  0.13010182021E+04  0.12001504405E+04 0.  0.
        3    1    3    3  502    0  0.90393187724E+01  0.58714061869E+03  0.11716399264E+03  0.59878479170E+03  0.10100000352E+00 0.  1.
       -3    1    3    3    0  502 -0.90393187724E+01 -0.58714061869E+03  0.38511808206E+03  0.70223341044E+03  0.10100000352E+00 0. -1.
</event>
<event>
 5   0  0.4024486E-04  0.1196348E+04  0.7818609E-02  0.9116059E-01
        2   -1    0    0  501    0  0.00000000000E+00  0.00000000000E+00  0.96645943915E+03  0.96645943915E+03  0.25500000920E-02 0. -1.
       -2   -1    0    0    0  501  0.00000000000E+00  0.00000000000E+00 -0.37022987515E+03  0.37022987516E+03  0.25500000920E-02 0.  1.
    10030    2    1    2    0    0  0.00000000000E+00  0.00000000000E+00  0.59622956400E+03  0.13366893143E+04  0.11963480388E+04 0.  0.
        1    1    3    3  502    0  0.31689460271E+03  0.61401429979E+02 -0.26456918429E+03  0.41735977062E+03  0.50400001928E-02 0.  1.
       -1    1    3    3    0  502 -0.31689460271E+03 -0.61401429979E+02  0.86079874829E+03  0.91932954369E+03  0.50400001928E-02 0. -1.
</event>
<event>
 5   0  0.3993723E-04  0.1197672E+04  0.7818609E-02  0.9114896E-01
       -2   -1    0    0    0  501  0.00000000000E+00  0.00000000000E+00  0.48763015708E+03  0.48763015708E+03  0.25500000920E-02 0. -1.
        2   -1    0    0  501    0  0.00000000000E+00  0.00000000000E+00 -0.73540332621E+03  0.73540332621E+03  0.25500000920E-02 0.  1.
    10030    2    1    2    0    0  0.00000000000E+00  0.00000000000E+00 -0.24777316913E+03  0.12230334833E+04  0.11976724752E+04 0.  0.
        3    1    3    3  502    0  0.32868236487E+03  0.35261319238E+03 -0.48670810684E+03  0.68502040253E+03  0.10100000352E+00 0.  1.
       -3    1    3    3    0  502 -0.32868236487E+03 -0.35261319238E+03  0.23893493771E+03  0.53801308077E+03  0.10100000352E+00 0. -1.
</event>
<event>
 5   0  0.2304842E-04  0.1199257E+04  0.7818609E-02  0.9113507E-01
       -1   -1    0    0    0  501  0.00000000000E+00  0.00000000000E+00  0.24631069582E+03  0.24631069587E+03  0.50400001928E-02 0.  1.
        1   -1    0    0  501    0  0.00000000000E+00  0.00000000000E+00 -0.14597604592E+04  0.14597604592E+04  0.50400001928E-02 0. -1.
    10030    2    1    2    0    0  0.00000000000E+00  0.00000000000E+00 -0.12134497633E+04  0.17060711550E+04  0.11992574611E+04 0.  0.
        4    1    3    3  502    0 -0.49145064706E+03  0.33184409621E+03 -0.73323896676E+03  0.94301921399E+03  0.12699999809E+01 0. -1.
       -4    1    3    3    0  502  0.49145064706E+03 -0.33184409621E+03 -0.48021079659E+03  0.76305194105E+03  0.12699999809E+01 0.  1.
</event>
<event>
 5   0  0.3883890E-04  0.1204394E+04  0.7818609E-02  0.9109019E-01
       -2   -1    0    0    0  501  0.00000000000E+00  0.00000000000E+00  0.40885749897E+03  0.40885749898E+03  0.25500000920E-02 0. -1.
        2   -1    0    0  501    0  0.00000000000E+00  0.00000000000E+00 -0.88696274169E+03  0.88696274169E+03  0.25500000920E-02 0.  1.
    10030    2    1    2    0    0  0.00000000000E+00  0.00000000000E+00 -0.47810524271E+03  0.12958202407E+04  0.12043942349E+04 0.  0.
        2    1    3    3  502    0  0.30834723987E+03 -0.46563236856E+03 -0.48143076367E+03  0.73733784875E+03  0.25500000920E-02 0.  1.
       -2    1    3    3    0  502 -0.30834723987E+03  0.46563236856E+03  0.33255209529E+01  0.55848239192E+03  0.25500000920E-02 0. -1.
</event>
<event>
 5   0  0.3883890E-04  0.1199772E+04  0.7818609E-02  0.9113056E-01
        2   -1    0    0  501    0  0.00000000000E+00  0.00000000000E+00  0.98238051579E+03  0.98238051580E+03  0.25500000920E-02 0. -1.
       -2   -1    0    0    0  501  0.00000000000E+00  0.00000000000E+00 -0.36631783898E+03  0.36631783899E+03  0.25500000920E-02 0.  1.
    10030    2    1    2    0    0  0.00000000000E+00  0.00000000000E+00  0.61606267682E+03  0.13486983548E+04  0.11997724911E+04 0.  0.
        2    1    3    3  502    0  0.81748502006E+02  0.41799359014E+03  0.78291678981E+03  0.89126884763E+03  0.25500000920E-02 0. -1.
       -2    1    3    3    0  502 -0.81748502006E+02 -0.41799359014E+03 -0.16685411300E+03  0.45742950715E+03  0.25500000920E-02 0.  1.
</event>
<event>
 5   0  0.2304842E-04  0.1202786E+04  0.7818609E-02  0.9110422E-01
        1   -1    0    0  501    0  0.00000000000E+00  0.00000000000E+00  0.11790415022E+04  0.11790415022E+04  0.50400001928E-02 0.  1.
       -1   -1    0    0    0  501  0.00000000000E+00  0.00000000000E+00 -0.30675195031E+03  0.30675195035E+03  0.50400001928E-02 0. -1.
    10030    2    1    2    0    0  0.00000000000E+00  0.00000000000E+00  0.87228955186E+03  0.14857934525E+04  0.12027855675E+04 0.  0.
        4    1    3    3  502    0  0.72422849939E+02 -0.55239855109E+01 -0.30131220919E+03  0.30994554992E+03  0.12699999809E+01 0. -1.
       -4    1    3    3    0  502 -0.72422849939E+02  0.55239855109E+01  0.11736017610E+04  0.11758479026E+04  0.12699999809E+01 0.  1.
</event>
<event>
 5   0  0.2204090E-04  0.1201111E+04  0.7818609E-02  0.9111885E-01
        1   -1    0    0  501    0  0.00000000000E+00  0.00000000000E+00  0.95177099413E+03  0.95177099414E+03  0.50400001928E-02 0. -1.
       -1   -1    0    0    0  501  0.00000000000E+00  0.00000000000E+00 -0.37894284696E+03  0.37894284700E+03  0.50400001928E-02 0.  1.
    10030    2    1    2    0    0  0.00000000000E+00  0.00000000000E+00  0.57282814716E+03  0.13307138411E+04  0.12011108362E+04 0.  0.
        2    1    3    3  502    0 -0.48372374633E+03  0.10077227844E+02  0.68057928984E+03  0.83503196529E+03  0.25500000920E-02 0. -1.
       -2    1    3    3    0  502  0.48372374633E+03 -0.10077227844E+02 -0.10775114268E+03  0.49568187585E+03  0.25500000920E-02 0.  1.
</event>
<event>
 5   0  0.2244308E-04  0.1198774E+04  0.7818609E-02  0.9113930E-01
       -1   -1    0    0    0  501  0.00000000000E+00  0.00000000000E+00  0.48052466714E+03  0.48052466717E+03  0.50400001928E-02 0.  1.
        1   -1    0    0  501    0  0.00000000000E+00  0.00000000000E+00 -0.74765127668E+03  0.74765127669E+03  0.50400001928E-02 0. -1.
    10030    2    1    2    0    0  0.00000000000E+00  0.00000000000E+00 -0.26712660953E+03  0.12281759439E+04  0.11987741754E+04 0.  0.
        5    1    3    3  502    0  0.22009422242E+03 -0.19639063929E+03 -0.66811883592E+03  0.73035307821E+03  0.46999998093E+01 0. -1.
       -5    1    3    3    0  502 -0.22009422242E+03  0.19639063929E+03  0.40099222639E+03  0.49782286565E+03  0.46999998093E+01 0.  1.
</event>
<event>
 5   0  0.3832662E-04  0.1237261E+04  0.7818609E-02  0.9080853E-01
       -2   -1    0    0    0  501  0.00000000000E+00  0.00000000000E+00  0.37459903150E+03  0.37459903151E+03  0.25500000920E-02 0.  1.
        2   -1    0    0  501    0  0.00000000000E+00  0.00000000000E+00 -0.10216351508E+04  0.10216351508E+04  0.25500000920E-02 0. -1.
    10030    2    1    2    0    0  0.00000000000E+00  0.00000000000E+00 -0.64703611925E+03  0.13962341823E+04  0.12372607454E+04 0.  0.
        4    1    3    3  502    0  0.12580720558E+03 -0.31374869945E+03 -0.90819719195E+03  0.96906627831E+03  0.12699999809E+01 0. -1.
       -4    1    3    3    0  502 -0.12580720558E+03  0.31374869945E+03  0.26116107270E+03  0.42716790396E+03  0.12699999809E+01 0.  1.
</event>
<event>
 5   0  0.2244308E-04  0.1198881E+04  0.7818609E-02  0.9113836E-01
       -1   -1    0    0    0  501  0.00000000000E+00  0.00000000000E+00  0.33740337618E+03  0.33740337622E+03  0.50400001928E-02 0.  1.
        1   -1    0    0  501    0  0.00000000000E+00  0.00000000000E+00 -0.10649834788E+04  0.10649834788E+04  0.50400001928E-02 0. -1.
    10030    2    1    2    0    0  0.00000000000E+00  0.00000000000E+00 -0.72758010258E+03  0.14023868550E+04  0.11988811807E+04 0.  0.
        5    1    3    3  502    0  0.57044991038E+03 -0.18055288251E+03 -0.32170376011E+03  0.67935840534E+03  0.46999998093E+01 0. -1.
       -5    1    3    3    0  502 -0.57044991038E+03  0.18055288251E+03 -0.40587634247E+03  0.72302844966E+03  0.46999998093E+01 0.  1.
</event>
<event>
 5   0  0.4024486E-04  0.1202051E+04  0.7818609E-02  0.9111063E-01
       -2   -1    0    0    0  501  0.00000000000E+00  0.00000000000E+00  0.51854183678E+03  0.51854183679E+03  0.25500000920E-02 0.  1.
        2   -1    0    0  501    0  0.00000000000E+00  0.00000000000E+00 -0.69662935922E+03  0.69662935922E+03  0.25500000920E-02 0. -1.
    10030    2    1    2    0    0  0.00000000000E+00  0.00000000000E+00 -0.17808752243E+03  0.12151711960E+04  0.12020506936E+04 0.  0.
        1    1    3    3  502    0 -0.31779468026E+03 -0.26086180228E+03 -0.53222267863E+03  0.67253499415E+03  0.50400001928E-02 0. -1.
       -1    1    3    3    0  502  0.31779468026E+03  0.26086180228E+03  0.35413515620E+03  0.54263620186E+03  0.50400001928E-02 0.  1.
</event>
<event>
 5   0  0.2244308E-04  0.1204113E+04  0.7818609E-02  0.9109264E-01
        1   -1    0    0  501    0  0.00000000000E+00  0.00000000000E+00  0.75224063043E+03  0.75224063045E+03  0.50400001928E-02 0. -1.
       -1   -1    0    0    0  501  0.00000000000E+00  0.00000000000E+00 -0.48185615311E+03  0.48185615314E+03  0.50400001928E-02 0.  1.
    10030    2    1    2    0    0  0.00000000000E+00  0.00000000000E+00  0.27038447732E+03  0.12340967836E+04  0.12041125802E+04 0.  0.
        5    1    3    3  502    0  0.39638850168E+03  0.15382139967E+03  0.57202735387E+03  0.71275679641E+03  0.46999998093E+01 0. -1.
       -5    1    3    3    0  502 -0.39638850168E+03 -0.15382139967E+03 -0.30164287655E+03  0.52133998718E+03  0.46999998093E+01 0.  1.
</event>
<event>
 5   0  0.2315038E-04  0.1194353E+04  0.7818609E-02  0.9117814E-01
       -1   -1    0    0    0  501  0.00000000000E+00  0.00000000000E+00  0.11365125772E+04  0.11365125772E+04  0.50400001928E-02 0. -1.
        1   -1    0    0  501    0  0.00000000000E+00  0.00000000000E+00 -0.31378403380E+03  0.31378403384E+03  0.50400001928E-02 0.  1.
    10030    2    1    2    0    0  0.00000000000E+00  0.00000000000E+00  0.82272854343E+03  0.14502966111E+04  0.11943525459E+04 0.  0.
        1    1    3    3  502    0  0.46954848485E+02  0.31728000319E+03  0.10230463111E+04  0.10721450988E+04  0.50400001928E-02 0. -1.
       -1    1    3    3    0  502 -0.46954848485E+02 -0.31728000319E+03 -0.20031776763E+03  0.37815151232E+03  0.50400001928E-02 0.  1.
</event>
<event>
 5   0  0.2340731E-04  0.1199275E+04  0.7818609E-02  0.9113492E-01
        1   -1    0    0  501    0  0.00000000000E+00  0.00000000000E+00  0.14129779404E+04  0.14129779404E+04  0.50400001928E-02 0. -1.
       -1   -1    0    0    0  501  0.00000000000E+00  0.00000000000E+00 -0.25447316306E+03  0.25447316311E+03  0.50400001928E-02 0.  1.
    10030    2    1    2    0    0  0.00000000000E+00  0.00000000000E+00  0.11585047773E+04  0.16674511035E+04  0.11992747239E+04 0.  0.
        3    1    3    3  502    0  0.19407704132E+03 -0.42201956501E+03  0.11064964199E+04  0.12000419779E+04  0.10100000352E+00 0. -1.
       -3    1    3    3    0  502 -0.19407704132E+03  0.42201956501E+03  0.52008357357E+02  0.46740912556E+03  0.10100000352E+00 0.  1.
</event>
<event>
 5   0  0.2244308E-04  0.1199614E+04  0.7818609E-02  0.9113195E-01
       -1   -1    0    0    0  501  0.00000000000E+00  0.00000000000E+00  0.50069467085E+03  0.50069467088E+03  0.50400001928E-02 0.  1.
        1   -1    0    0  501    0  0.00000000000E+00  0.00000000000E+00 -0.71853834618E+03  0.71853834620E+03  0.50400001928E-02 0. -1.
    10030    2    1    2    0    0  0.00000000000E+00  0.00000000000E+00 -0.21784367533E+03  0.12192330171E+04  0.11996138058E+04 0.  0.
        5    1    3    3  502    0 -0.19491789642E+03  0.12504595280E+03  0.45340499790E+03  0.50914404521E+03  0.46999998093E+01 0.  1.
       -5    1    3    3    0  502  0.19491789642E+03 -0.12504595280E+03 -0.67124867323E+03  0.71008897187E+03  0.46999998093E+01 0. -1.
</event>
<event>
 5   0  0.3832662E-04  0.1203564E+04  0.7818609E-02  0.9109743E-01
       -2   -1    0    0    0  501  0.00000000000E+00  0.00000000000E+00  0.65095255327E+03  0.65095255328E+03  0.25500000920E-02 0.  1.
        2   -1    0    0  501    0  0.00000000000E+00  0.00000000000E+00 -0.55632552880E+03  0.55632552881E+03  0.25500000920E-02 0. -1.
    10030    2    1    2    0    0  0.00000000000E+00  0.00000000000E+00  0.94627024471E+02  0.12072780821E+04  0.12035639134E+04 0.  0.
        4    1    3    3  502    0  0.47483984008E+03  0.50392415521E+01  0.41810494906E+03  0.63270184843E+03  0.12699999809E+01 0.  1.
       -4    1    3    3    0  502 -0.47483984008E+03 -0.50392415521E+01 -0.32347792459E+03  0.57457623365E+03  0.12699999809E+01 0. -1.
</event>
<event>
 5   0  0.3993723E-04  0.1202832E+04  0.7818609E-02  0.9110381E-01
        2   -1    0    0  501    0  0.00000000000E+00  0.00000000000E+00  0.11145592100E+04  0.11145592100E+04  0.25500000920E-02 0.  1.
       -2   -1    0    0    0  501  0.00000000000E+00  0.00000000000E+00 -0.32452399299E+03  0.32452399300E+03  0.25500000920E-02 0. -1.
    10030    2    1    2    0    0  0.00000000000E+00  0.00000000000E+00  0.79003521702E+03  0.14390832030E+04  0.12028320003E+04 0.  0.
        3    1    3    3  502    0  0.29013550723E+03 -0.44058161155E+03  0.49483359797E+02  0.52984845200E+03  0.10100000352E+00 0. -1.
       -3    1    3    3    0  502 -0.29013550723E+03  0.44058161155E+03  0.74055185722E+03  0.90923475100E+03  0.10100000352E+00 0.  1.
</event>
<event>
 5   0  0.3883890E-04  0.1209642E+04  0.7818609E-02  0.9104458E-01
       -2   -1    0    0    0  501  0.00000000000E+00  0.00000000000E+00  0.13459247194E+03  0.13459247196E+03  0.25500000920E-02 0.  1.
        2   -1    0    0  501    0  0.00000000000E+00  0.00000000000E+00 -0.27178978921E+04  0.27178978921E+04  0.25500000920E-02 0. -1.
    10030    2    1    2    0    0  0.00000000000E+00  0.00000000000E+00 -0.25833054202E+04  0.28524903641E+04  0.12096422542E+04 0.  0.
        2    1    3    3  502    0  0.19180155264E+03 -0.28869243838E+03 -0.24604787347E+04  0.24847709680E+04  0.25500000920E-02 0. -1.
       -2    1    3    3    0  502 -0.19180155264E+03  0.28869243838E+03 -0.12282668549E+03  0.36771939608E+03  0.25500000920E-02 0.  1.
</event>
<event>
 5   0  0.4024486E-04  0.1200685E+04  0.7818609E-02  0.9112257E-01
        2   -1    0    0  501    0  0.00000000000E+00  0.00000000000E+00  0.13369337964E+04  0.13369337964E+04  0.25500000920E-02 0.  1.
       -2   -1    0    0    0  501  0.00000000000E+00  0.00000000000E+00 -0.26958030380E+03  0.26958030381E+03  0.25500000920E-02 0. -1.
    10030    2    1    2    0    0  0.00000000000E+00  0.00000000000E+00  0.10673534926E+04  0.16065141002E+04  0.12006848363E+04 0.  0.
        1    1    3    3  502    0  0.32046903589E+03 -0.30635411160E+03  0.10752896985E+04  0.11630998153E+04  0.50400001928E-02 0.  1.
       -1    1    3    3    0  502 -0.32046903589E+03  0.30635411160E+03 -0.79362058976E+01  0.44341428490E+03  0.50400001928E-02 0. -1.
</event>
<event>
 5   0  0.4122956E-04  0.1202718E+04  0.7818609E-02  0.9110481E-01
       -2   -1    0    0    0  501  0.00000000000E+00  0.00000000000E+00  0.58752014280E+03  0.58752014280E+03  0.25500000920E-02 0.  1.
        2   -1    0    0  501    0  0.00000000000E+00  0.00000000000E+00 -0.61552363299E+03  0.61552363299E+03  0.25500000920E-02 0. -1.
    10030    2    1    2    0    0  0.00000000000E+00  0.00000000000E+00 -0.28003490191E+02  0.12030437758E+04  0.12027178102E+04 0.  0.
        5    1    3    3  502    0  0.45789768263E+03 -0.46844394041E+02 -0.40107659339E+03  0.61053190643E+03  0.46999998093E+01 0. -1.
       -5    1    3    3    0  502 -0.45789768263E+03  0.46844394041E+02  0.37307310320E+03  0.59251186936E+03  0.46999998093E+01 0.  1.
</event>
<event>
 5   0  0.3993723E-04  0.1197330E+04  0.7818609E-02  0.9115197E-01
        2   -1    0    0  501    0  0.00000000000E+00  0.00000000000E+00  0.82133694270E+03  0.82133694270E+03  0.25500000920E-02 0.  1.
       -2   -1    0    0    0  501  0.00000000000E+00  0.00000000000E+00 -0.43636132197E+03  0.43636132197E+03  0.25500000920E-02 0. -1.
    10030    2    1    2    0    0  0.00000000000E+00  0.00000000000E+00  0.38497562073E+03  0.12576982647E+04  0.11973298194E+04 0.  0.
        3    1    3    3  502    0 -0.11946719215E+03 -0.45322845893E+03  0.58370547430E+03  0.74859904950E+03  0.10100000352E+00 0.  1.
       -3    1    3    3    0  502  0.11946719215E+03  0.45322845893E+03 -0.19872985357E+03  0.50909921517E+03  0.10100000352E+00 0. -1.
</event>
<event>
 5   0  0.2315038E-04  0.1197028E+04  0.7818609E-02  0.9115462E-01
        1   -1    0    0  501    0  0.00000000000E+00  0.00000000000E+00  0.14973230444E+03  0.14973230453E+03  0.50400001928E-02 0. -1.
       -1   -1    0    0    0  501  0.00000000000E+00  0.00000000000E+00 -0.23923958517E+04  0.23923958517E+04  0.50400001928E-02 0.  1.
    10030    2    1    2    0    0  0.00000000000E+00  0.00000000000E+00 -0.22426635473E+04  0.25421281563E+04  0.11970278930E+04 0.  0.
        1    1    3    3  502    0 -0.49037390223E+03 -0.14400778060E+03 -0.17828025895E+04  0.18546131343E+04  0.50400001928E-02 0.  1.
       -1    1    3    3    0  502  0.49037390223E+03  0.14400778060E+03 -0.45986095780E+03  0.68751502195E+03  0.50400001928E-02 0. -1.
</event>
<event>
 5   0  0.2340731E-04  0.1199249E+04  0.7818609E-02  0.9113514E-01
       -1   -1    0    0    0  501  0.00000000000E+00  0.00000000000E+00  0.40040859119E+03  0.40040859122E+03  0.50400001928E-02 0. -1.
        1   -1    0    0  501    0  0.00000000000E+00  0.00000000000E+00 -0.89795659586E+03  0.89795659587E+03  0.50400001928E-02 0.  1.
    10030    2    1    2    0    0  0.00000000000E+00  0.00000000000E+00 -0.49754800466E+03  0.12983651871E+04  0.11992489909E+04 0.  0.
        3    1    3    3  502    0 -0.11212098522E+02  0.14379172338E+03  0.38134955058E+03  0.40771222792E+03  0.10100000352E+00 0. -1.
       -3    1    3    3    0  502  0.11212098522E+02 -0.14379172338E+03 -0.87889755525E+03  0.89065295917E+03  0.10100000352E+00 0.  1.
</event>
<event>
 5   0  0.2244308E-04  0.1200388E+04  0.7818609E-02  0.9112517E-01
       -1   -1    0    0    0  501  0.00000000000E+00  0.00000000000E+00  0.94095346205E+03  0.94095346207E+03  0.50400001928E-02 0. -1.
        1   -1    0    0  501    0  0.00000000000E+00  0.00000000000E+00 -0.38283802133E+03  0.38283802136E+03  0.50400001928E-02 0.  1.
    10030    2    1    2    0    0  0.00000000000E+00  0.00000000000E+00  0.55811544072E+03  0.13237914834E+04  0.12003878733E+04 0.  0.
        5    1    3    3  502    0  0.16414663562E+03  0.12678647183E+03 -0.34203854931E+03  0.40003923137E+03  0.46999998093E+01 0.  1.
       -5    1    3    3    0  502 -0.16414663562E+03 -0.12678647183E+03  0.90015399003E+03  0.92375225206E+03  0.46999998093E+01 0. -1.
</event>
<event>
 5   0  0.2340731E-04  0.1199638E+04  0.7818609E-02  0.9113173E-01
        1   -1    0    0  501    0  0.00000000000E+00  0.00000000000E+00  0.51112477062E+03  0.51112477064E+03  0.50400001928E-02 0. -1.
       -1   -1    0    0    0  501  0.00000000000E+00  0.00000000000E+00 -0.70390455213E+03  0.70390455215E+03  0.50400001928E-02 0.  1.
    10030    2    1    2    0    0  0.00000000000E+00  0.00000000000E+00 -0.19277978151E+03  0.12150293228E+04  0.11996383668E+04 0.  0.
        3    1    3    3  502    0  0.19447194296E+03  0.48091245373E+03  0.20861635524E+03  0.55912155980E+03  0.10100000352E+00 0. -1.
       -3    1    3    3    0  502 -0.19447194296E+03 -0.48091245373E+03 -0.40139613676E+03  0.65590776299E+03  0.10100000352E+00 0.  1.
</event>
<event>
 5   0  0.3883890E-04  0.1201545E+04  0.7818609E-02  0.9111505E-01
       -2   -1    0    0    0  501  0.00000000000E+00  0.00000000000E+00  0.21628347791E+03  0.21628347792E+03  0.25500000920E-02 0. -1.
        2   -1    0    0  501    0  0.00000000000E+00  0.00000000000E+00 -0.16687719070E+04  0.16687719070E+04  0.25500000920E-02 0.  1.
    10030    2    1    2    0    0  0.00000000000E+00  0.00000000000E+00 -0.14524884291E+04  0.18850553850E+04  0.12015453248E+04 0.  0.
        2    1    3    3  502    0  0.51833940794E+03 -0.24214332751E+03 -0.43858774237E+03  0.72088025402E+03  0.25500000920E-02 0. -1.
       -2    1    3    3    0  502 -0.51833940794E+03  0.24214332751E+03 -0.10139006868E+04  0.11641751309E+04  0.25500000920E-02 0.  1.
</event>
<event>
 5   0  0.3993723E-04  0.1198496E+04  0.7818609E-02  0.9114174E-01
        2   -1    0    0  501    0  0.00000000000E+00  0.00000000000E+00  0.10703208767E+04  0.10703208767E+04  0.25500000920E-02 0. -1.
       -2   -1    0    0    0  501  0.00000000000E+00  0.00000000000E+00 -0.33550540893E+03  0.33550540894E+03  0.25500000920E-02 0.  1.
    10030    2    1    2    0    0  0.00000000000E+00  0.00000000000E+00  0.73481546774E+03  0.14058262856E+04  0.11984964638E+04 0.  0.
        3    1    3    3  502    0 -0.41197253592E+03  0.40221738752E+03  0.56227350691E+03  0.80476810570E+03  0.10100000352E+00 0. -1.
       -3    1    3    3    0  502  0.41197253592E+03 -0.40221738752E+03  0.17254196083E+03  0.60105817990E+03  0.10100000352E+00 0.  1.
</event>
<event>
 5   0  0.2340731E-04  0.1199859E+04  0.7818609E-02  0.9112980E-01
       -1   -1    0    0    0  501  0.00000000000E+00  0.00000000000E+00  0.35470001004E+03  0.35470001007E+03  0.50400001928E-02 0. -1.
        1   -1    0    0  501    0  0.00000000000E+00  0.00000000000E+00 -0.10147028486E+04  0.10147028486E+04  0.50400001928E-02 0.  1.
    10030    2    1    2    0    0  0.00000000000E+00  0.00000000000E+00 -0.66000283856E+03  0.13694028587E+04  0.11998585094E+04 0.  0.
        3    1    3    3  502    0 -0.13195419194E+03  0.93449598798E+02  0.32936235106E+03  0.36691184879E+03  0.10100000352E+00 0. -1.
       -3    1    3    3    0  502  0.13195419194E+03 -0.93449598798E+02 -0.98936518962E+03  0.10024910099E+04  0.10100000352E+00 0.  1.
</event>
<event>
 5   0  0.2204090E-04  0.1201022E+04  0.7818609E-02  0.9111962E-01
        1   -1    0    0  501    0  0.00000000000E+00  0.00000000000E+00  0.94387304448E+03  0.94387304449E+03  0.50400001928E-02 0. -1.
       -1   -1    0    0    0  501  0.00000000000E+00  0.00000000000E+00 -0.38205727934E+03  0.38205727937E+03  0.50400001928E-02 0.  1.
    10030    2    1    2    0    0  0.00000000000E+00  0.00000000000E+00  0.56181576513E+03  0.13259303239E+04  0.12010221771E+04 0.  0.
        2    1    3    3  502    0 -0.13468335669E+03 -0.28131134175E+03  0.84744236922E+03  0.90301397925E+03  0.25500000920E-02 0. -1.
       -2    1    3    3    0  502  0.13468335669E+03  0.28131134175E+03 -0.28562660409E+03  0.42291634461E+03  0.25500000920E-02 0.  1.
</event>
<event>
 5   0  0.3883890E-04  0.1200138E+04  0.7818609E-02  0.9112736E-01
       -2   -1    0    0    0  501  0.00000000000E+00  0.00000000000E+00  0.29330406188E+03  0.29330406189E+03  0.25500000920E-02 0. -1.
        2   -1    0    0  501    0  0.00000000000E+00  0.00000000000E+00 -0.12276766901E+04  0.12276766901E+04  0.25500000920E-02 0.  1.
    10030    2    1    2    0    0  0.00000000000E+00  0.00000000000E+00 -0.93437262823E+03  0.15209807520E+04  0.12001375919E+04 0.  0.
        2    1    3    3  502    0  0.22995769142E+03 -0.36309632090E+03  0.63529175503E+02  0.43445993398E+03  0.25500000920E-02 0. -1.
       -2    1    3    3    0  502 -0.22995769142E+03  0.36309632090E+03 -0.99790180373E+03  0.10865208180E+04  0.25500000920E-02 0.  1.
</event>
<event>
 5   0  0.2204090E-04  0.1199310E+04  0.7818609E-02  0.9113461E-01
        1   -1    0    0  501    0  0.00000000000E+00  0.00000000000E+00  0.84459431897E+03  0.84459431899E+03  0.50400001928E-02 0. -1.
       -1   -1    0    0    0  501  0.00000000000E+00  0.00000000000E+00 -0.42574995723E+03  0.42574995725E+03  0.50400001928E-02 0.  1.
    10030    2    1    2    0    0  0.00000000000E+00  0.00000000000E+00  0.41884436175E+03  0.12703442762E+04  0.11993097935E+04 0.  0.
        2    1    3    3  502    0  0.19006041260E+03 -0.81526638551E+02  0.80562484337E+03  0.83174571925E+03  0.25500000920E-02 0. -1.
       -2    1    3    3    0  502 -0.19006041260E+03  0.81526638551E+02 -0.38678048162E+03  0.43859855700E+03  0.25500000920E-02 0.  1.
</event>
<event>
 5   0  0.1541375E-04  0.1203289E+04  0.7818609E-02  0.9109983E-01
       -3   -1    0    0    0  501  0.00000000000E+00  0.00000000000E+00  0.11519070854E+04  0.11519070899E+04  0.10100000352E+00 0. -1.
        3   -1    0    0  501    0  0.00000000000E+00  0.00000000000E+00 -0.31424053581E+03  0.31424055204E+03  0.10100000352E+00 0.  1.
    10030    2    1    2    0    0  0.00000000000E+00  0.00000000000E+00  0.83766654963E+03  0.14661476419E+04  0.12032886850E+04 0.  0.
        4    1    3    3  502    0  0.44020064576E+03  0.35821278576E+03  0.66216150173E+03  0.87209659768E+03  0.12699999809E+01 0. -1.
       -4    1    3    3    0  502 -0.44020064576E+03 -0.35821278576E+03  0.17550504790E+03  0.59405104423E+03  0.12699999809E+01 0.  1.
</event>
<event>
 5   0  0.4024486E-04  0.1216217E+04  0.7818609E-02  0.9098779E-01
        2   -1    0    0  501    0  0.00000000000E+00  0.00000000000E+00  0.64608596036E+03  0.64608596036E+03  0.25500000920E-02 0.  1.
       -2   -1    0    0    0  501  0.00000000000E+00  0.00000000000E+00 -0.57236347160E+03  0.57236347160E+03  0.25500000920E-02 0. -1.
    10030    2    1    2    0    0  0.00000000000E+00  0.00000000000E+00  0.73722488762E+02  0.12184494320E+04  0.12162170912E+04 0.  0.
        1    1    3    3  502    0  0.19084139756E+03 -0.50344059833E+03  0.32008693498E+03  0.62636133425E+03  0.50400001928E-02 0.  1.
       -1    1    3    3    0  502 -0.19084139756E+03  0.50344059833E+03 -0.24636444622E+03  0.59208809772E+03  0.50400001928E-02 0. -1.
</event>
<event>
 5   0  0.2304842E-04  0.1201697E+04  0.7818609E-02  0.9111373E-01
        1   -1    0    0  501    0  0.00000000000E+00  0.00000000000E+00  0.43318446084E+03  0.43318446087E+03  0.50400001928E-02 0. -1.
       -1   -1    0    0    0  501  0.00000000000E+00  0.00000000000E+00 -0.83340676267E+03  0.83340676268E+03  0.50400001928E-02 0.  1.
    10030    2    1    2    0    0  0.00000000000E+00  0.00000000000E+00 -0.40022230183E+03  0.12665912235E+04  0.12016968988E+04 0.  0.
        4    1    3    3  502    0 -0.55567348982E+02  0.57750697061E+03 -0.36480288774E+03  0.68533553182E+03  0.12699999809E+01 0. -1.
       -4    1    3    3    0  502  0.55567348982E+02 -0.57750697061E+03 -0.35419414087E+02  0.58125569173E+03  0.12699999809E+01 0.  1.
</event>
<event>
 5   0  0.2315038E-04  0.1202101E+04  0.7818609E-02  0.9111020E-01
       -1   -1    0    0    0  501  0.00000000000E+00  0.00000000000E+00  0.64502532922E+03  0.64502532923E+03  0.50400001928E-02 0. -1.
        1   -1    0    0  501    0  0.00000000000E+00  0.00000000000E+00 -0.56007341875E+03  0.56007341877E+03  0.50400001928E-02 0.  1.
    10030    2    1    2    0    0  0.00000000000E+00  0.00000000000E+00  0.84951910468E+02  0.12050987480E+04  0.12021007301E+04 0.  0.
        1    1    3    3  502    0 -0.30690617783E+03  0.35204724601E+03  0.42174855889E+03  0.62928571600E+03  0.50400001928E-02 0. -1.
       -1    1    3    3    0  502  0.30690617783E+03 -0.35204724601E+03 -0.33679664842E+03  0.57581303200E+03  0.50400001928E-02 0.  1.
</event>
<event>
 5   0  0.2204090E-04  0.1201222E+04  0.7818609E-02  0.9111788E-01
       -1   -1    0    0    0  501  0.00000000000E+00  0.00000000000E+00  0.54514566117E+03  0.54514566119E+03  0.50400001928E-02 0.  1.
        1   -1    0    0  501    0  0.00000000000E+00  0.00000000000E+00 -0.66171944216E+03  0.66171944218E+03  0.50400001928E-02 0. -1.
    10030    2    1    2    0    0  0.00000000000E+00  0.00000000000E+00 -0.11657378099E+03  0.12068651034E+04  0.12012218493E+04 0.  0.
        2    1    3    3  502    0  0.59286564734E+02  0.26899905300E+03 -0.59451526376E+03  0.65522804132E+03  0.25500000920E-02 0. -1.
       -2    1    3    3    0  502 -0.59286564734E+02 -0.26899905300E+03  0.47794148277E+03  0.55163706205E+03  0.25500000920E-02 0.  1.
</event>
<event>
 5   0  0.4024486E-04  0.1234288E+04  0.7818609E-02  0.9083363E-01
        2   -1    0    0  501    0  0.00000000000E+00  0.00000000000E+00  0.66344225255E+03  0.66344225255E+03  0.25500000920E-02 0.  1.
       -2   -1    0    0    0  501  0.00000000000E+00  0.00000000000E+00 -0.57407672654E+03  0.57407672655E+03  0.25500000920E-02 0. -1.
    10030    2    1    2    0    0  0.00000000000E+00  0.00000000000E+00  0.89365526003E+02  0.12375189791E+04  0.12342880646E+04 0.  0.
        1    1    3    3  502    0 -0.93811293817E+02 -0.46978853876E+03 -0.34539210123E+03  0.59059083435E+03  0.50400001928E-02 0. -1.
       -1    1    3    3    0  502  0.93811293817E+02  0.46978853876E+03  0.43475762724E+03  0.64692814475E+03  0.50400001928E-02 0.  1.
</event>
<event>
 5   0  0.4122956E-04  0.1203141E+04  0.7818609E-02  0.9110112E-01
       -2   -1    0    0    0  501  0.00000000000E+00  0.00000000000E+00  0.24875033315E+03  0.24875033316E+03  0.25500000920E-02 0.  1.
        2   -1    0    0  501    0  0.00000000000E+00  0.00000000000E+00 -0.14548194646E+04  0.14548194646E+04  0.25500000920E-02 0. -1.
    10030    2    1    2    0    0  0.00000000000E+00  0.00000000000E+00 -0.12060691314E+04  0.17035697977E+04  0.12031406011E+04 0.  0.
        5    1    3    3  502    0  0.43870912657E+03  0.10835849295E+01 -0.20264125572E+02  0.43920336596E+03  0.46999998093E+01 0.  1.
       -5    1    3    3    0  502 -0.43870912657E+03 -0.10835849295E+01 -0.11858050058E+04  0.12643664318E+04  0.46999998093E+01 0. -1.
</event>
<event>
 5   0  0.2340731E-04  0.1196190E+04  0.7818609E-02  0.9116198E-01
       -1   -1    0    0    0  501  0.00000000000E+00  0.00000000000E+00  0.43774126502E+03  0.43774126505E+03  0.50400001928E-02 0. -1.
        1   -1    0    0  501    0  0.00000000000E+00  0.00000000000E+00 -0.81718906785E+03  0.81718906786E+03  0.50400001928E-02 0.  1.
    10030    2    1    2    0    0  0.00000000000E+00  0.00000000000E+00 -0.37944780282E+03  0.12549303329E+04  0.11961895775E+04 0.  0.
        3    1    3    3  502    0  0.43905314809E+03  0.25683187880E+03 -0.51979604303E+03  0.72726763806E+03  0.10100000352E+00 0.  1.
       -3    1    3    3    0  502 -0.43905314809E+03 -0.25683187880E+03  0.14034824020E+03  0.52766269486E+03  0.10100000352E+00 0. -1.
</event>
<event>
 5   0  0.3832662E-04  0.1199743E+04  0.7818609E-02  0.9113082E-01
        2   -1    0    0  501    0  0.00000000000E+00  0.00000000000E+00  0.13090537882E+04  0.13090537882E+04  0.25500000920E-02 0.  1.
       -2   -1    0    0    0  501  0.00000000000E+00  0.00000000000E+00 -0.27488987520E+03  0.27488987522E+03  0.25500000920E-02 0. -1.
    10030    2    1    2    0    0  0.00000000000E+00  0.00000000000E+00  0.10341639130E+04  0.15839436635E+04  0.11997426932E+04 0.  0.
        4    1    3    3  502    0  0.54024880141E+03  0.25587090961E+03  0.45099982114E+03  0.74882650953E+03  0.12699999809E+01 0. -1.
       -4    1    3    3    0  502 -0.54024880141E+03 -0.25587090961E+03  0.58316409189E+03  0.83511715393E+03  0.12699999809E+01 0.  1.
</event>
<event>
 5   0  0.2304842E-04  0.1198781E+04  0.7818609E-02  0.9113924E-01
       -1   -1    0    0    0  501  0.00000000000E+00  0.00000000000E+00  0.50497565814E+03  0.50497565817E+03  0.50400001928E-02 0. -1.
        1   -1    0    0  501    0  0.00000000000E+00  0.00000000000E+00 -0.71145779841E+03  0.71145779843E+03  0.50400001928E-02 0.  1.
    10030    2    1    2    0    0  0.00000000000E+00  0.00000000000E+00 -0.20648214027E+03  0.12164334566E+04  0.11987808307E+04 0.  0.
        4    1    3    3  502    0 -0.43983716705E+03  0.34432980825E+03  0.11732464918E+03  0.57077704629E+03  0.12699999809E+01 0. -1.
       -4    1    3    3    0  502  0.43983716705E+03 -0.34432980825E+03 -0.32380678945E+03  0.64565641030E+03  0.12699999809E+01 0.  1.
</event>
<event>
 5   0  0.2244308E-04  0.1186373E+04  0.7818609E-02  0.9124868E-01
        1   -1    0    0  501    0  0.00000000000E+00  0.00000000000E+00  0.89010892306E+03  0.89010892308E+03  0.50400001928E-02 0.  1.
       -1   -1    0    0    0  501  0.00000000000E+00  0.00000000000E+00 -0.39531152479E+03  0.39531152482E+03  0.50400001928E-02 0. -1.
    10030    2    1    2    0    0  0.00000000000E+00  0.00000000000E+00  0.49479739827E+03  0.12854204479E+04  0.11863731548E+04 0.  0.
        5    1    3    3  502    0 -0.51576546557E+03 -0.29240200370E+03  0.22755938411E+03  0.63507346862E+03  0.46999998093E+01 0. -1.
       -5    1    3    3    0  502  0.51576546557E+03  0.29240200370E+03  0.26723801416E+03  0.65034697928E+03  0.46999998093E+01 0.  1.
</event>
<event>
 5   0  0.2204090E-04  0.1198761E+04  0.7818609E-02  0.9113942E-01
       -1   -1    0    0    0  501  0.00000000000E+00  0.00000000000E+00  0.51343071516E+03  0.51343071518E+03  0.50400001928E-02 0. -1.
        1   -1    0    0  501    0  0.00000000000E+00  0.00000000000E+00 -0.69971807893E+03  0.69971807895E+03  0.50400001928E-02 0.  1.
    10030    2    1    2    0    0  0.00000000000E+00  0.00000000000E+00 -0.18628736377E+03  0.12131487941E+04  0.11987606161E+04 0.  0.
        2    1    3    3  502    0  0.26566919939E+03  0.53606939566E+03 -0.56568038991E+02  0.60095795486E+03  0.25500000920E-02 0. -1.
       -2    1    3    3    0  502 -0.26566919939E+03 -0.53606939566E+03 -0.12971932478E+03  0.61219083928E+03  0.25500000920E-02 0.  1.
</event>
<event>
 5   0  0.2204090E-04  0.1202240E+04  0.7818609E-02  0.9110898E-01
       -1   -1    0    0    0  501  0.00000000000E+00  0.00000000000E+00  0.78816630867E+03  0.78816630869E+03  0.50400001928E-02 0.  1.
        1   -1    0    0  501    0  0.00000000000E+00  0.00000000000E+00 -0.45846295013E+03  0.45846295016E+03  0.50400001928E-02 0. -1.
    10030    2    1    2    0    0  0.00000000000E+00  0.00000000000E+00  0.32970335854E+03  0.12466292588E+04  0.12022396618E+04 0.  0.
        2    1    3    3  502    0 -0.35875696090E+03 -0.29741112470E+03  0.55858890924E+03  0.72744862610E+03  0.25500000920E-02 0.  1.
       -2    1    3    3    0  502  0.35875696090E+03  0.29741112470E+03 -0.22888555069E+03  0.51918063274E+03  0.25500000920E-02 0. -1.
</event>
<event>
 5   0  0.2244308E-04  0.1196071E+04  0.7818609E-02  0.9116302E-01
       -1   -1    0    0    0  501  0.00000000000E+00  0.00000000000E+00  0.33610347985E+03  0.33610347989E+03  0.50400001928E-02 0. -1.
        1   -1    0    0  501    0  0.00000000000E+00  0.00000000000E+00 -0.10640969946E+04  0.10640969946E+04  0.50400001928E-02 0.  1.
    10030    2    1    2    0    0  0.00000000000E+00  0.00000000000E+00 -0.72799351473E+03  0.14002004745E+04  0.11960714073E+04 0.  0.
        5    1    3    3  502    0 -0.47745956032E+02  0.31617988111E+03  0.22759550939E+03  0.39251904340E+03  0.46999998093E+01 0. -1.
       -5    1    3    3    0  502  0.47745956032E+02 -0.31617988111E+03 -0.95558902412E+03  0.10076814311E+04  0.46999998093E+01 0.  1.
</event>
<event>
 5   0  0.2244308E-04  0.1190419E+04  0.7818609E-02  0.9121284E-01
        1   -1    0    0  501    0  0.00000000000E+00  0.00000000000E+00  0.21969899303E+04  0.21969899303E+04  0.50400001928E-02 0. -1.
       -1   -1    0    0    0  501  0.00000000000E+00  0.00000000000E+00 -0.16125455637E+03  0.16125455645E+03  0.50400001928E-02 0.  1.
    10030    2    1    2    0    0  0.00000000000E+00  0.00000000000E+00  0.20357353739E+04  0.23582444867E+04  0.11904194835E+04 0.  0.
        5    1    3    3  502    0 -0.38548174149E+03 -0.44985921089E+03  0.11313762110E+04  0.12771075536E+04  0.46999998093E+01 0.  1.
       -5    1    3    3    0  502  0.38548174149E+03  0.44985921089E+03  0.90435916291E+03  0.10811369331E+04  0.46999998093E+01 0. -1.
</event>
<event>
 5   0  0.2204090E-04  0.1173817E+04  0.7818609E-02  0.9136088E-01
       -1   -1    0    0    0  501  0.00000000000E+00  0.00000000000E+00  0.36253132862E+03  0.36253132865E+03  0.50400001928E-02 0. -1.
        1   -1    0    0  501    0  0.00000000000E+00  0.00000000000E+00 -0.95015665053E+03  0.95015665055E+03  0.50400001928E-02 0.  1.
    10030    2    1    2    0    0  0.00000000000E+00  0.00000000000E+00 -0.58762532191E+03  0.13126879792E+04  0.11738169413E+04 0.  0.
        2    1    3    3  502    0  0.49288217055E+03  0.29793585783E+03 -0.42015140595E+03  0.71289958154E+03  0.25500000920E-02 0.  1.
       -2    1    3    3    0  502 -0.49288217055E+03 -0.29793585783E+03 -0.16747391597E+03  0.59978839766E+03  0.25500000920E-02 0. -1.
</event>
<event>
 5   0  0.2204090E-04  0.1196192E+04  0.7818609E-02  0.9116196E-01
       -1   -1    0    0    0  501  0.00000000000E+00  0.00000000000E+00  0.39917378761E+03  0.39917378765E+03  0.50400001928E-02 0.  1.
        1   -1    0    0  501    0  0.00000000000E+00  0.00000000000E+00 -0.89614867974E+03  0.89614867975E+03  0.50400001928E-02 0. -1.
    10030    2    1    2    0    0  0.00000000000E+00  0.00000000000E+00 -0.49697489212E+03  0.12953224674E+04  0.11961923972E+04 0.  0.
        2    1    3    3  502    0  0.49902295049E+03 -0.25313138014E+03 -0.47722633062E+03  0.73542122037E+03  0.25500000920E-02 0. -1.
       -2    1    3    3    0  502 -0.49902295049E+03  0.25313138014E+03 -0.19748561502E+02  0.55990124702E+03  0.25500000920E-02 0.  1.
</event>
<event>
 5   0  0.1541375E-04  0.1199249E+04  0.7818609E-02  0.9113515E-01
        4   -1    0    0  501    0  0.00000000000E+00  0.00000000000E+00  0.14449056703E+04  0.14449062285E+04  0.12699999809E+01 0.  1.
       -4   -1    0    0    0  501  0.00000000000E+00  0.00000000000E+00 -0.24883704997E+03  0.24884029082E+03  0.12699999809E+01 0. -1.
    10030    2    1    2    0    0  0.00000000000E+00  0.00000000000E+00  0.11960686204E+04  0.16937465193E+04  0.11992485676E+04 0.  0.
        2    1    3    3  502    0 -0.21956255574E+03  0.38652176747E+03  0.11663892153E+04  0.12482269802E+04  0.25500000920E-02 0.  1.
       -2    1    3    3    0  502  0.21956255574E+03 -0.38652176747E+03  0.29679405089E+02  0.44551953908E+03  0.25500000920E-02 0. -1.
</event>
<event>
 5   0  0.4024486E-04  0.1201816E+04  0.7818609E-02  0.9111268E-01
        2   -1    0    0  501    0  0.00000000000E+00  0.00000000000E+00  0.13535538605E+04  0.13535538605E+04  0.25500000920E-02 0. -1.
       -2   -1    0    0    0  501  0.00000000000E+00  0.00000000000E+00 -0.26677210538E+03  0.26677210539E+03  0.25500000920E-02 0.  1.
    10030    2    1    2    0    0  0.00000000000E+00  0.00000000000E+00  0.10867817551E+04  0.16203259659E+04  0.12018159811E+04 0.  0.
        1    1    3    3  502    0  0.14504498934E+03 -0.13261514622E+03  0.13089982453E+04  0.13236696083E+04  0.50400001928E-02 0. -1.
       -1    1    3    3    0  502 -0.14504498934E+03  0.13261514622E+03 -0.22221649015E+03  0.29665635753E+03  0.50400001928E-02 0.  1.
</event>
<event>
 5   0  0.2244308E-04  0.1200701E+04  0.7818609E-02  0.9112243E-01
       -1   -1    0    0    0  501  0.00000000000E+00  0.00000000000E+00  0.39734742214E+03  0.39734742217E+03  0.50400001928E-02 0.  1.
        1   -1    0    0  501    0  0.00000000000E+00  0.00000000000E+00 -0.90706715978E+03  0.90706715979E+03  0.50400001928E-02 0. -1.
    10030    2    1    2    0    0  0.00000000000E+00  0.00000000000E+00 -0.50971973764E+03  0.13044145820E+04  0.12007011246E+04 0.  0.
        5    1    3    3  502    0  0.10424291178E+03 -0.59057625401E+03 -0.22507229513E+03  0.64056734579E+03  0.46999998093E+01 0.  1.
       -5    1    3    3    0  502 -0.10424291178E+03  0.59057625401E+03 -0.28464744251E+03  0.66384723618E+03  0.46999998093E+01 0. -1.
</event>
<event>
 5   0  0.2204090E-04  0.1202579E+04  0.7818609E-02  0.9110602E-01
        1   -1    0    0  501    0  0.00000000000E+00  0.00000000000E+00  0.48926099290E+03  0.48926099293E+03  0.50400001928E-02 0.  1.
       -1   -1    0    0    0  501  0.00000000000E+00  0.00000000000E+00 -0.73896976454E+03  0.73896976456E+03  0.50400001928E-02 0. -1.
    10030    2    1    2    0    0  0.00000000000E+00  0.00000000000E+00 -0.24970877164E+03  0.12282307575E+04  0.12025790298E+04 0.  0.
        2    1    3    3  502    0  0.34253819419E+03  0.20127434254E+03  0.33611014782E+03  0.52039773916E+03  0.25500000920E-02 0.  1.
       -2    1    3    3    0  502 -0.34253819419E+03 -0.20127434254E+03 -0.58581891946E+03  0.70783301833E+03  0.25500000920E-02 0. -1.
</event>
<event>
 5   0  0.2315038E-04  0.1198976E+04  0.7818609E-02  0.9113754E-01
       -1   -1    0    0    0  501  0.00000000000E+00  0.00000000000E+00  0.70865363803E+03  0.70865363805E+03  0.50400001928E-02 0. -1.
        1   -1    0    0  501    0  0.00000000000E+00  0.00000000000E+00 -0.50713868440E+03  0.50713868443E+03  0.50400001928E-02 0.  1.
    10030    2    1    2    0    0  0.00000000000E+00  0.00000000000E+00  0.20151495363E+03  0.12157923225E+04  0.11989756857E+04 0.  0.
        1    1    3    3  502    0  0.49739834724E+03 -0.80325614741E+02  0.43016506670E+03  0.66249475836E+03  0.50400001928E-02 0. -1.
       -1    1    3    3    0  502 -0.49739834724E+03  0.80325614741E+02 -0.22865011307E+03  0.55329756412E+03  0.50400001928E-02 0.  1.
</event>
<event>
 5   0  0.4122956E-04  0.1200619E+04  0.7818609E-02  0.9112315E-01
       -2   -1    0    0    0  501  0.00000000000E+00  0.00000000000E+00  0.30110100710E+03  0.30110100711E+03  0.25500000920E-02 0. -1.
        2   -1    0    0  501    0  0.00000000000E+00  0.00000000000E+00 -0.11968458248E+04  0.11968458248E+04  0.25500000920E-02 0.  1.
    10030    2    1    2    0    0  0.00000000000E+00  0.00000000000E+00 -0.89574481774E+03  0.14979468319E+04  0.12006189790E+04 0.  0.
        5    1    3    3  502    0 -0.14171410827E+03  0.22863812848E+03  0.22167407873E+03  0.34859685807E+03  0.46999998093E+01 0. -1.
       -5    1    3    3    0  502  0.14171410827E+03 -0.22863812848E+03 -0.11174188965E+04  0.11493499739E+04  0.46999998093E+01 0.  1.
</event>
<event>
 5   0  0.4122956E-04  0.1198962E+04  0.7818609E-02  0.9113765E-01
       -2   -1    0    0    0  501  0.00000000000E+00  0.00000000000E+00  0.32233940894E+03  0.32233940895E+03  0.25500000920E-02 0. -1.
        2   -1    0    0  501    0  0.00000000000E+00  0.00000000000E+00 -0.11149042359E+04  0.11149042359E+04  0.25500000920E-02 0.  1.
    10030    2    1    2    0    0  0.00000000000E+00  0.00000000000E+00 -0.79256482700E+03  0.14372436449E+04  0.11989621720E+04 0.  0.
        5    1    3    3  502    0 -0.41645432905E+03 -0.39169834846E+03 -0.61236728026E+03  0.83778134397E+03  0.46999998093E+01 0.  1.
       -5    1    3    3    0  502  0.41645432905E+03  0.39169834846E+03 -0.18019754674E+03  0.59946230092E+03  0.46999998093E+01 0. -1.
</event>
<event>
 5   0  0.3832662E-04  0.1199739E+04  0.7818609E-02  0.9113085E-01
        2   -1    0    0  501    0  0.00000000000E+00  0.00000000000E+00  0.74897235589E+03  0.74897235589E+03  0.25500000920E-02 0. -1.
       -2   -1    0    0    0  501  0.00000000000E+00  0.00000000000E+00 -0.48044946596E+03  0.48044946597E+03  0.25500000920E-02 0.  1.
    10030    2    1    2    0    0  0.00000000000E+00  0.00000000000E+00  0.26852288993E+03  0.12294218219E+04  0.11997389190E+04 0.  0.
        4    1    3    3  502    0  0.84290343896E+01 -0.43642026387E+03  0.55591230161E+03  0.70680534472E+03  0.12699999809E+01 0. -1.
       -4    1    3    3    0  502 -0.84290343896E+01  0.43642026387E+03 -0.28738941168E+03  0.52261647715E+03  0.12699999809E+01 0.  1.
</event>
<event>
 5   0  0.2244308E-04  0.1195975E+04  0.7818609E-02  0.9116387E-01
       -1   -1    0    0    0  501  0.00000000000E+00  0.00000000000E+00  0.69266109453E+03  0.69266109455E+03  0.50400001928E-02 0.  1.
        1   -1    0    0  501    0  0.00000000000E+00  0.00000000000E+00 -0.51625404316E+03  0.51625404319E+03  0.50400001928E-02 0. -1.
    10030    2    1    2    0    0  0.00000000000E+00  0.00000000000E+00  0.17640705137E+03  0.12089151377E+04  0.11959750677E+04 0.  0.
        5    1    3    3  502    0  0.33911001761E+03 -0.23469479964E+03 -0.34948226929E+03  0.54058967764E+03  0.46999998093E+01 0. -1.
       -5    1    3    3    0  502 -0.33911001761E+03  0.23469479964E+03  0.52588932066E+03  0.66832546009E+03  0.46999998093E+01 0.  1.
</event>
<event>
 5   0  0.3883890E-04  0.1209310E+04  0.7818609E-02  0.9104747E-01
        2   -1    0    0  501    0  0.00000000000E+00  0.00000000000E+00  0.52725622259E+03  0.52725622260E+03  0.25500000920E-02 0. -1.
       -2   -1    0    0    0  501  0.00000000000E+00  0.00000000000E+00 -0.69341521282E+03  0.69341521283E+03  0.25500000920E-02 0.  1.
    10030    2    1    2    0    0  0.00000000000E+00  0.00000000000E+00 -0.16615899023E+03  0.12206714354E+04  0.12093096970E+04 0.  0.
        2    1    3    3  502    0  0.40912635182E+03 -0.37830998547E+03  0.15386981323E+03  0.57808194600E+03  0.25500000920E-02 0. -1.
       -2    1    3    3    0  502 -0.40912635182E+03  0.37830998547E+03 -0.32002880346E+03  0.64258948942E+03  0.25500000920E-02 0.  1.
</event>
<event>
 5   0  0.2204090E-04  0.1199494E+04  0.7818609E-02  0.9113299E-01
       -1   -1    0    0    0  501  0.00000000000E+00  0.00000000000E+00  0.73748702755E+03  0.73748702757E+03  0.50400001928E-02 0. -1.
        1   -1    0    0  501    0  0.00000000000E+00  0.00000000000E+00 -0.48773276280E+03  0.48773276283E+03  0.50400001928E-02 0.  1.
    10030    2    1    2    0    0  0.00000000000E+00  0.00000000000E+00  0.24975426475E+03  0.12252197904E+04  0.11994942026E+04 0.  0.
        2    1    3    3  502    0 -0.21102345890E+03 -0.35685409183E+03 -0.31780066662E+03  0.52237247896E+03  0.25500000920E-02 0.  1.
       -2    1    3    3    0  502  0.21102345890E+03  0.35685409183E+03  0.56755493137E+03  0.70284731144E+03  0.25500000920E-02 0. -1.
</event>
<event>
 5   0  0.3883890E-04  0.1202487E+04  0.7818609E-02  0.9110682E-01
       -2   -1    0    0    0  501  0.00000000000E+00  0.00000000000E+00  0.53990915562E+03  0.53990915563E+03  0.25500000920E-02 0. -1.
        2   -1    0    0  501    0  0.00000000000E+00  0.00000000000E+00 -0.66954571720E+03  0.66954571721E+03  0.25500000920E-02 0.  1.
    10030    2    1    2    0    0  0.00000000000E+00  0.00000000000E+00 -0.12963656158E+03  0.12094548728E+04  0.12024871938E+04 0.  0.
        2    1    3    3  502    0 -0.34484765467E+03  0.38634996019E+03 -0.37205128822E+03  0.63765849617E+03  0.25500000920E-02 0.  1.
       -2    1    3    3    0  502  0.34484765467E+03 -0.38634996019E+03  0.24241472664E+03  0.57179637667E+03  0.25500000920E-02 0. -1.
</event>
<event>
 5   0  0.2244308E-04  0.1199282E+04  0.7818609E-02  0.9113485E-01
       -1   -1    0    0    0  501  0.00000000000E+00  0.00000000000E+00  0.74644954320E+03  0.74644954322E+03  0.50400001928E-02 0.  1.
        1   -1    0    0  501    0  0.00000000000E+00  0.00000000000E+00 -0.48170630221E+03  0.48170630224E+03  0.50400001928E-02 0. -1.
    10030    2    1    2    0    0  0.00000000000E+00  0.00000000000E+00  0.26474324099E+03  0.12281558455E+04  0.11992822008E+04 0.  0.
        5    1    3    3  502    0 -0.49889943276E+03 -0.29271851768E+03 -0.29427764657E+02  0.57920018814E+03  0.46999998093E+01 0. -1.
       -5    1    3    3    0  502  0.49889943276E+03  0.29271851768E+03  0.29417100564E+03  0.64895565732E+03  0.46999998093E+01 0.  1.
</event>
<event>
 5   0  0.3832662E-04  0.1201352E+04  0.7818609E-02  0.9111674E-01
       -2   -1    0    0    0  501  0.00000000000E+00  0.00000000000E+00  0.49795652144E+03  0.49795652145E+03  0.25500000920E-02 0.  1.
        2   -1    0    0  501    0  0.00000000000E+00  0.00000000000E+00 -0.72458410121E+03  0.72458410122E+03  0.25500000920E-02 0. -1.
    10030    2    1    2    0    0  0.00000000000E+00  0.00000000000E+00 -0.22662757977E+03  0.12225406227E+04  0.12013515365E+04 0.  0.
        4    1    3    3  502    0 -0.12042282712E+02 -0.45279575564E+03  0.28815783148E+03  0.53684780119E+03  0.12699999809E+01 0.  1.
       -4    1    3    3    0  502  0.12042282712E+02  0.45279575564E+03 -0.51478541124E+03  0.68569282148E+03  0.12699999809E+01 0. -1.
</event>
<event>
 5   0  0.2315038E-04  0.1200615E+04  0.7818609E-02  0.9112318E-01
       -1   -1    0    0    0  501  0.00000000000E+00  0.00000000000E+00  0.33503861817E+03  0.33503861820E+03  0.50400001928E-02 0. -1.
        1   -1    0    0  501    0  0.00000000000E+00  0.00000000000E+00 -0.10756050016E+04  0.10756050017E+04  0.50400001928E-02 0.  1.
    10030    2    1    2    0    0  0.00000000000E+00  0.00000000000E+00 -0.74056638348E+03  0.14106436199E+04  0.12006151981E+04 0.  0.
        1    1    3    3  502    0  0.40427298025E+02  0.46894866846E+03 -0.80804977868E+03  0.93514259070E+03  0.50400001928E-02 0.  1.
       -1    1    3    3    0  502 -0.40427298025E+02 -0.46894866846E+03  0.67483395208E+02  0.47550102916E+03  0.50400001928E-02 0. -1.
</event>
<event>
 5   0  0.2244308E-04  0.1202840E+04  0.7818609E-02  0.9110374E-01
       -1   -1    0    0    0  501  0.00000000000E+00  0.00000000000E+00  0.47200238501E+03  0.47200238504E+03  0.50400001928E-02 0.  1.
        1   -1    0    0  501    0  0.00000000000E+00  0.00000000000E+00 -0.76632289155E+03  0.76632289157E+03  0.50400001928E-02 0. -1.
    10030    2    1    2    0    0  0.00000000000E+00  0.00000000000E+00 -0.29432050654E+03  0.12383252766E+04  0.12028403594E+04 0.  0.
        5    1    3    3  502    0  0.12574596153E+03 -0.30792977978E+03  0.36867144162E+03  0.49656169605E+03  0.46999998093E+01 0.  1.
       -5    1    3    3    0  502 -0.12574596153E+03  0.30792977978E+03 -0.66299194816E+03  0.74176358056E+03  0.46999998093E+01 0. -1.
</event>
<event>
 5   0  0.2304842E-04  0.1199275E+04  0.7818609E-02  0.9113492E-01
       -1   -1    0    0    0  501  0.00000000000E+00  0.00000000000E+00  0.27202838627E+03  0.27202838631E+03  0.50400001928E-02 0. -1.
        1   -1    0    0  501    0  0.00000000000E+00  0.00000000000E+00 -0.13217922659E+04  0.13217922659E+04  0.50400001928E-02 0.  1.
    10030    2    1    2    0    0  0.00000000000E+00  0.00000000000E+00 -0.10497638797E+04  0.15938206523E+04  0.11992748094E+04 0.  0.
        4    1    3    3  502    0 -0.27339063429E+03  0.51105676311E+03 -0.72922617374E+03  0.93150087462E+03  0.12699999809E+01 0.  1.
       -4    1    3    3    0  502  0.27339063429E+03 -0.51105676311E+03 -0.32053770592E+03  0.66231977764E+03  0.12699999809E+01 0. -1.
</event>
<event>
 5   0  0.3883890E-04  0.1201907E+04  0.7818609E-02  0.9111189E-01
       -2   -1    0    0    0  501  0.00000000000E+00  0.00000000000E+00  0.48069779732E+03  0.48069779733E+03  0.25500000920E-02 0. -1.
        2   -1    0    0  501    0  0.00000000000E+00  0.00000000000E+00 -0.75129310760E+03  0.75129310760E+03  0.25500000920E-02 0.  1.
    10030    2    1    2    0    0  0.00000000000E+00  0.00000000000E+00 -0.27059531027E+03  0.12319909049E+04  0.12019067218E+04 0.  0.
        2    1    3    3  502    0  0.25321965128E+03 -0.31649165616E+03  0.31949456955E+03  0.51610458261E+03  0.25500000920E-02 0. -1.
       -2    1    3    3    0  502 -0.25321965128E+03  0.31649165616E+03 -0.59008987982E+03  0.71588632232E+03  0.25500000920E-02 0.  1.
</event>
<event>
 5   0  0.4024486E-04  0.1200193E+04  0.7818609E-02  0.9112687E-01
       -2   -1    0    0    0  501  0.00000000000E+00  0.00000000000E+00  0.43157680068E+03  0.43157680069E+03  0.25500000920E-02 0.  1.
        2   -1    0    0  501    0  0.00000000000E+00  0.00000000000E+00 -0.83441920539E+03  0.83441920540E+03  0.25500000920E-02 0. -1.
    10030    2    1    2    0    0  0.00000000000E+00  0.00000000000E+00 -0.40284240471E+03  0.12659960061E+04  0.12001932696E+04 0.  0.
        1    1    3    3  502    0  0.62259972489E+02 -0.20367383450E+03  0.39037012475E+03  0.44468884555E+03  0.50400001928E-02 0.  1.
       -1    1    3    3    0  502 -0.62259972489E+02  0.20367383450E+03 -0.79321252946E+03  0.82130716054E+03  0.50400001928E-02 0. -1.
</event>
<event>
 5   0  0.2244308E-04  0.1199533E+04  0.7818609E-02  0.9113265E-01
       -1   -1    0    0    0  501  0.00000000000E+00  0.00000000000E+00  0.46252392972E+03  0.46252392974E+03  0.50400001928E-02 0. -1.
        1   -1    0    0  501    0  0.00000000000E+00  0.00000000000E+00 -0.77773260577E+03  0.77773260579E+03  0.50400001928E-02 0.  1.
    10030    2    1    2    0    0  0.00000000000E+00  0.00000000000E+00 -0.31520867605E+03  0.12402565355E+04  0.11995331444E+04 0.  0.
        5    1    3    3  502    0  0.35273606410E+02  0.46345458983E+03  0.23429311699E+03  0.52052832662E+03  0.46999998093E+01 0. -1.
       -5    1    3    3    0  502 -0.35273606410E+02 -0.46345458983E+03 -0.54950179305E+03  0.71972820891E+03  0.46999998093E+01 0.  1.
</event>
<event>
 5   0  0.4122956E-04  0.1198338E+04  0.7818609E-02  0.9114313E-01
       -2   -1    0    0    0  501  0.00000000000E+00  0.00000000000E+00  0.30963321592E+03  0.30963321593E+03  0.25500000920E-02 0. -1.
        2   -1    0    0  501    0  0.00000000000E+00  0.00000000000E+00 -0.11594468435E+04  0.11594468435E+04  0.25500000920E-02 0.  1.
    10030    2    1    2    0    0  0.00000000000E+00  0.00000000000E+00 -0.84981362761E+03  0.14690800595E+04  0.11983376066E+04 0.  0.
        5    1    3    3  502    0  0.16146883965E+03  0.16211253424E+03  0.25394117850E+03  0.34184919493E+03  0.46999998093E+01 0. -1.
       -5    1    3    3    0  502 -0.16146883965E+03 -0.16211253424E+03 -0.11037548061E+04  0.11272308645E+04  0.46999998093E+01 0.  1.
</event>
<event>
 5   0  0.4122956E-04  0.1200273E+04  0.7818609E-02  0.9112618E-01
       -2   -1    0    0    0  501  0.00000000000E+00  0.00000000000E+00  0.56322351177E+03  0.56322351177E+03  0.25500000920E-02 0. -1.
        2   -1    0    0  501    0  0.00000000000E+00  0.00000000000E+00 -0.63946884723E+03  0.63946884723E+03  0.25500000920E-02 0.  1.
    10030    2    1    2    0    0  0.00000000000E+00  0.00000000000E+00 -0.76245335463E+02  0.12026923590E+04  0.12002731186E+04 0.  0.
        5    1    3    3  502    0 -0.14738802542E+03 -0.28658684052E+03  0.46914523318E+03  0.56918765535E+03  0.46999998093E+01 0. -1.
       -5    1    3    3    0  502  0.14738802542E+03  0.28658684052E+03 -0.54539056864E+03  0.63350470366E+03  0.46999998093E+01 0.  1.
</event>
<event>
 5   0  0.4122956E-04  0.1198429E+04  0.7818609E-02  0.9114233E-01
        2   -1    0    0  501    0  0.00000000000E+00  0.00000000000E+00  0.37566847762E+03  0.37566847763E+03  0.25500000920E-02 0. -1.
       -2   -1    0    0    0  501  0.00000000000E+00  0.00000000000E+00 -0.95578449012E+03  0.95578449013E+03  0.25500000920E-02 0.  1.
    10030    2    1    2    0    0  0.00000000000E+00  0.00000000000E+00 -0.58011601250E+03  0.13314529678E+04  0.11984291458E+04 0.  0.
        5    1    3    3  502    0  0.59251005920E+03 -0.73883456281E+02 -0.34570870661E+03  0.68997357571E+03  0.46999998093E+01 0. -1.
       -5    1    3    3    0  502 -0.59251005920E+03  0.73883456281E+02 -0.23440730589E+03  0.64147939204E+03  0.46999998093E+01 0.  1.
</event>
<event>
 5   0  0.2304842E-04  0.1199428E+04  0.7818609E-02  0.9113357E-01
       -1   -1    0    0    0  501  0.00000000000E+00  0.00000000000E+00  0.23508697606E+03  0.23508697612E+03  0.50400001928E-02 0.  1.
        1   -1    0    0  501    0  0.00000000000E+00  0.00000000000E+00 -0.15298882489E+04  0.15298882489E+04  0.50400001928E-02 0. -1.
    10030    2    1    2    0    0  0.00000000000E+00  0.00000000000E+00 -0.12948012728E+04  0.17649752250E+04  0.11994278673E+04 0.  0.
        4    1    3    3  502    0 -0.28315803146E+03 -0.31784551512E+03 -0.25782170545E+02  0.42646286530E+03  0.12699999809E+01 0.  1.
       -4    1    3    3    0  502  0.28315803146E+03  0.31784551512E+03 -0.12690191023E+04  0.13385123597E+04  0.12699999809E+01 0. -1.
</event>
<event>
 5   0  0.3832662E-04  0.1202828E+04  0.7818609E-02  0.9110385E-01
        2   -1    0    0  501    0  0.00000000000E+00  0.00000000000E+00  0.84075368308E+03  0.84075368308E+03  0.25500000920E-02 0.  1.
       -2   -1    0    0    0  501  0.00000000000E+00  0.00000000000E+00 -0.43020773935E+03  0.43020773936E+03  0.25500000920E-02 0. -1.
    10030    2    1    2    0    0  0.00000000000E+00  0.00000000000E+00  0.41054594373E+03  0.12709614224E+04  0.12028279035E+04 0.  0.
        4    1    3    3  502    0 -0.38398908285E+03 -0.16818655903E+03  0.66093402079E+03  0.78266833789E+03  0.12699999809E+01 0.  1.
       -4    1    3    3    0  502  0.38398908285E+03  0.16818655903E+03 -0.25038807707E+03  0.48829308456E+03  0.12699999809E+01 0. -1.
</event>
<event>
 5   0  0.2315038E-04  0.1194572E+04  0.7818609E-02  0.9117621E-01
       -1   -1    0    0    0  501  0.00000000000E+00  0.00000000000E+00  0.28569881996E+03  0.28569882000E+03  0.50400001928E-02 0.  1.
        1   -1    0    0  501    0  0.00000000000E+00  0.00000000000E+00 -0.12486950684E+04  0.12486950684E+04  0.50400001928E-02 0. -1.
    10030    2    1    2    0    0  0.00000000000E+00  0.00000000000E+00 -0.96299624843E+03  0.15343938884E+04  0.11945722374E+04 0.  0.
        1    1    3    3  502    0 -0.73714690263E+02  0.29665358388E+03 -0.11406128403E+04  0.11808619123E+04  0.50400001928E-02 0. -1.
       -1    1    3    3    0  502  0.73714690263E+02 -0.29665358388E+03  0.17761659189E+03  0.35353197611E+03  0.50400001928E-02 0.  1.
</event>
<event>
 5   0  0.1541375E-04  0.1200671E+04  0.7818609E-02  0.9112269E-01
       -3   -1    0    0    0  501  0.00000000000E+00  0.00000000000E+00  0.76374128272E+03  0.76374128940E+03  0.10100000352E+00 0. -1.
        3   -1    0    0  501    0  0.00000000000E+00  0.00000000000E+00 -0.47189132338E+03  0.47189133419E+03  0.10100000352E+00 0.  1.
    10030    2    1    2    0    0  0.00000000000E+00  0.00000000000E+00  0.29184995934E+03  0.12356326236E+04  0.12006713046E+04 0.  0.
        3    1    3    3  502    0  0.34043912772E+02  0.44440176590E+03  0.55981854879E+03  0.71557580682E+03  0.10100000352E+00 0. -1.
       -3    1    3    3    0  502 -0.34043912772E+02 -0.44440176590E+03 -0.26796858945E+03  0.52005681677E+03  0.10100000352E+00 0.  1.
</event>
<event>
 5   0  0.2315038E-04  0.1203865E+04  0.7818609E-02  0.9109480E-01
       -1   -1    0    0    0  501  0.00000000000E+00  0.00000000000E+00  0.61140499583E+03  0.61140499585E+03  0.50400001928E-02 0.  1.
        1   -1    0    0  501    0  0.00000000000E+00  0.00000000000E+00 -0.59260647124E+03  0.59260647126E+03  0.50400001928E-02 0. -1.
    10030    2    1    2    0    0  0.00000000000E+00  0.00000000000E+00  0.18798524594E+02  0.12040114671E+04  0.12038647052E+04 0.  0.
        1    1    3    3  502    0  0.35619358014E+03  0.48450475725E+03 -0.17133780483E+02  0.60159146669E+03  0.50400001928E-02 0. -1.
       -1    1    3    3    0  502 -0.35619358014E+03 -0.48450475725E+03  0.35932305078E+02  0.60242000042E+03  0.50400001928E-02 0.  1.
</event>
<event>
 5   0  0.2204090E-04  0.1199165E+04  0.7818609E-02  0.9113588E-01
        1   -1    0    0  501    0  0.00000000000E+00  0.00000000000E+00  0.45015015027E+03  0.45015015030E+03  0.50400001928E-02 0.  1.
       -1   -1    0    0    0  501  0.00000000000E+00  0.00000000000E+00 -0.79862087866E+03  0.79862087867E+03  0.50400001928E-02 0. -1.
    10030    2    1    2    0    0  0.00000000000E+00  0.00000000000E+00 -0.34847072839E+03  0.12487710290E+04  0.11991652239E+04 0.  0.
        2    1    3    3  502    0 -0.68113299955E+02  0.59525744289E+03 -0.15029607062E+03  0.61770523213E+03  0.25500000920E-02 0. -1.
       -2    1    3    3    0  502  0.68113299955E+02 -0.59525744289E+03 -0.19817465777E+03  0.63106579684E+03  0.25500000920E-02 0.  1.
</event>
<event>
 5   0  0.3832662E-04  0.1215824E+04  0.7818609E-02  0.9099117E-01
       -2   -1    0    0    0  501  0.00000000000E+00  0.00000000000E+00  0.27065579593E+03  0.27065579594E+03  0.25500000920E-02 0.  1.
        2   -1    0    0  501    0  0.00000000000E+00  0.00000000000E+00 -0.13654142418E+04  0.13654142418E+04  0.25500000920E-02 0. -1.
    10030    2    1    2    0    0  0.00000000000E+00  0.00000000000E+00 -0.10947584459E+04  0.16360700378E+04  0.12158244584E+04 0.  0.
        4    1    3    3  502    0 -0.17241893017E+03 -0.92844190402E+02 -0.13218071184E+04  0.13362350102E+04  0.12699999809E+01 0. -1.
       -4    1    3    3    0  502  0.17241893017E+03  0.92844190402E+02  0.22704867254E+03  0.29983502759E+03  0.12699999809E+01 0.  1.
</event>
<event>
 5   0  0.2304842E-04  0.1198601E+04  0.7818609E-02  0.9114082E-01
       -1   -1    0    0    0  501  0.00000000000E+00  0.00000000000E+00  0.39460394576E+03  0.39460394579E+03  0.50400001928E-02 0. -1.
        1   -1    0    0  501    0  0.00000000000E+00  0.00000000000E+00 -0.91018050968E+03  0.91018050970E+03  0.50400001928E-02 0.  1.
    10030    2    1    2    0    0  0.00000000000E+00  0.00000000000E+00 -0.51557656392E+03  0.13047844555E+04  0.11986005515E+04 0.  0.
        4    1    3    3  502    0  0.19970549043E+03 -0.44972207259E+03 -0.63018625096E+03  0.79954271261E+03  0.12699999809E+01 0.  1.
       -4    1    3    3    0  502 -0.19970549043E+03  0.44972207259E+03  0.11460968704E+03  0.50524174288E+03  0.12699999809E+01 0. -1.
</event>
<event>
 5   0  0.2315038E-04  0.1198070E+04  0.7818609E-02  0.9114548E-01
        1   -1    0    0  501    0  0.00000000000E+00  0.00000000000E+00  0.24190014300E+03  0.24190014306E+03  0.50400001928E-02 0. -1.
       -1   -1    0    0    0  501  0.00000000000E+00  0.00000000000E+00 -0.14834333972E+04  0.14834333972E+04  0.50400001928E-02 0.  1.
    10030    2    1    2    0    0  0.00000000000E+00  0.00000000000E+00 -0.12415332542E+04  0.17253335403E+04  0.11980696991E+04 0.  0.
        1    1    3    3  502    0  0.28925725624E+03  0.41695108559E+03 -0.16236218066E+03  0.53280338381E+03  0.50400001928E-02 0. -1.
       -1    1    3    3    0  502 -0.28925725624E+03 -0.41695108559E+03 -0.10791710735E+04  0.11925301565E+04  0.50400001928E-02 0.  1.
</event>
<event>
 5   0  0.4024486E-04  0.1199687E+04  0.7818609E-02  0.9113131E-01
        2   -1    0    0  501    0  0.00000000000E+00  0.00000000000E+00  0.61177013228E+03  0.61177013228E+03  0.25500000920E-02 0.  1.
       -2   -1    0    0    0  501  0.00000000000E+00  0.00000000000E+00 -0.58814934160E+03  0.58814934160E+03  0.25500000920E-02 0. -1.
    10030    2    1    2    0    0  0.00000000000E+00  0.00000000000E+00  0.23620790680E+02  0.11999194739E+04  0.11996869600E+04 0.  0.
        1    1    3    3  502    0  0.48437904488E+03 -0.23453424270E+03 -0.25316137216E+03  0.59474368470E+03  0.50400001928E-02 0. -1.
       -1    1    3    3    0  502 -0.48437904488E+03  0.23453424270E+03  0.27678216284E+03  0.60517578918E+03  0.50400001928E-02 0.  1.
</event>
<event>
 5   0  0.4122956E-04  0.1196983E+04  0.7818609E-02  0.9115501E-01
        2   -1    0    0  501    0  0.00000000000E+00  0.00000000000E+00  0.43926663379E+03  0.43926663380E+03  0.25500000920E-02 0. -1.
       -2   -1    0    0    0  501  0.00000000000E+00  0.00000000000E+00 -0.81543208309E+03  0.81543208309E+03  0.25500000920E-02 0.  1.
    10030    2    1    2    0    0  0.00000000000E+00  0.00000000000E+00 -0.37616544929E+03  0.12546987169E+04  0.11969830512E+04 0.  0.
        5    1    3    3  502    0 -0.18053943338E+03  0.96203695744E+02  0.40145966629E+03  0.45060136677E+03  0.46999998093E+01 0. -1.
       -5    1    3    3    0  502  0.18053943338E+03 -0.96203695744E+02 -0.77762511558E+03  0.80409735012E+03  0.46999998093E+01 0.  1.
</event>
<event>
 5   0  0.2304842E-04  0.1199664E+04  0.7818609E-02  0.9113151E-01
        1   -1    0    0  501    0  0.00000000000E+00  0.00000000000E+00  0.48195813540E+03  0.48195813542E+03  0.50400001928E-02 0.  1.
       -1   -1    0    0    0  501  0.00000000000E+00  0.00000000000E+00 -0.74653444092E+03  0.74653444094E+03  0.50400001928E-02 0. -1.
    10030    2    1    2    0    0  0.00000000000E+00  0.00000000000E+00 -0.26457630552E+03  0.12284925764E+04  0.11996638649E+04 0.  0.
        4    1    3    3  502    0  0.32233931838E+03  0.41653734610E+03 -0.42622372901E+03  0.67755020252E+03  0.12699999809E+01 0. -1.
       -4    1    3    3    0  502 -0.32233931838E+03 -0.41653734610E+03  0.16164742348E+03  0.55094237384E+03  0.12699999809E+01 0.  1.
</event>
<event>
 5   0  0.3832662E-04  0.1208903E+04  0.7818609E-02  0.9105099E-01
       -2   -1    0    0    0  501  0.00000000000E+00  0.00000000000E+00  0.29861079982E+03  0.29861079983E+03  0.25500000920E-02 0. -1.
        2   -1    0    0  501    0  0.00000000000E+00  0.00000000000E+00 -0.12235374082E+04  0.12235374082E+04  0.25500000920E-02 0.  1.
    10030    2    1    2    0    0  0.00000000000E+00  0.00000000000E+00 -0.92492660837E+03  0.15221482080E+04  0.12089027820E+04 0.  0.
        4    1    3    3  502    0  0.28361052847E+03 -0.13921888212E+03  0.18636984032E+03  0.36681352112E+03  0.12699999809E+01 0. -1.
       -4    1    3    3    0  502 -0.28361052847E+03  0.13921888212E+03 -0.11112964487E+04  0.11553346869E+04  0.12699999809E+01 0.  1.
</event>
<event>
 5   0  0.3883890E-04  0.1198431E+04  0.7818609E-02  0.9114231E-01
       -2   -1    0    0    0  501  0.00000000000E+00  0.00000000000E+00  0.96829679085E+03  0.96829679085E+03  0.25500000920E-02 0.  1.
        2   -1    0    0  501    0  0.00000000000E+00  0.00000000000E+00 -0.37081494764E+03  0.37081494764E+03  0.25500000920E-02 0. -1.
    10030    2    1    2    0    0  0.00000000000E+00  0.00000000000E+00  0.59748184321E+03  0.13391117385E+04  0.11984305133E+04 0.  0.
        2    1    3    3  502    0  0.48576019442E+03  0.69113045027E+02  0.68309530299E+03  0.84104623680E+03  0.25500000920E-02 0.  1.
       -2    1    3    3    0  502 -0.48576019442E+03 -0.69113045027E+02 -0.85613459770E+02  0.49806550169E+03  0.25500000920E-02 0. -1.
</event>
<event>
 5   0  0.2315038E-04  0.1199581E+04  0.7818609E-02  0.9113223E-01
       -1   -1    0    0    0  501  0.00000000000E+00  0.00000000000E+00  0.29877756627E+03  0.29877756631E+03  0.50400001928E-02 0. -1.
        1   -1    0    0  501    0  0.00000000000E+00  0.00000000000E+00 -0.12040686311E+04  0.12040686311E+04  0.50400001928E-02 0.  1.
    10030    2    1    2    0    0  0.00000000000E+00  0.00000000000E+00 -0.90529106480E+03  0.15028461974E+04  0.11995810856E+04 0.  0.
        1    1    3    3  502    0 -0.25578401773E+01 -0.34007916765E+03  0.16630853291E+03  0.37857484195E+03  0.50400001928E-02 0. -1.
       -1    1    3    3    0  502  0.25578401773E+01  0.34007916765E+03 -0.10715995977E+04  0.11242713554E+04  0.50400001928E-02 0.  1.
</event>
<event>
 5   0  0.3883890E-04  0.1203438E+04  0.7818609E-02  0.9109853E-01
        2   -1    0    0  501    0  0.00000000000E+00  0.00000000000E+00  0.34444825633E+03  0.34444825634E+03  0.25500000920E-02 0. -1.
       -2   -1    0    0    0  501  0.00000000000E+00  0.00000000000E+00 -0.10511462256E+04  0.10511462256E+04  0.25500000920E-02 0.  1.
    10030    2    1    2    0    0  0.00000000000E+00  0.00000000000E+00 -0.70669796931E+03  0.13955944820E+04  0.12034375506E+04 0.  0.
        2    1    3    3  502    0 -0.18307779617E+03  0.17827933397E+03 -0.98509374332E+03  0.10176987194E+04  0.25500000920E-02 0.  1.
       -2    1    3    3    0  502  0.18307779617E+03 -0.17827933397E+03  0.27839577401E+03  0.37789576256E+03  0.25500000920E-02 0. -1.
</event>
<event>
 5   0  0.2204090E-04  0.1193791E+04  0.7818609E-02  0.9118308E-01
       -1   -1    0    0    0  501  0.00000000000E+00  0.00000000000E+00  0.26850532196E+03  0.26850532201E+03  0.50400001928E-02 0.  1.
        1   -1    0    0  501    0  0.00000000000E+00  0.00000000000E+00 -0.13269174608E+04  0.13269174608E+04  0.50400001928E-02 0. -1.
    10030    2    1    2    0    0  0.00000000000E+00  0.00000000000E+00 -0.10584121388E+04  0.15954227828E+04  0.11937912717E+04 0.  0.
        2    1    3    3  502    0 -0.56140789901E+03 -0.20234358010E+03 -0.54625000430E+03  0.80901843037E+03  0.25500000920E-02 0.  1.
       -2    1    3    3    0  502  0.56140789901E+03  0.20234358010E+03 -0.51216213454E+03  0.78640435244E+03  0.25500000920E-02 0. -1.
</event>
<event>
 5   0  0.2304842E-04  0.1198250E+04  0.7818609E-02  0.9114390E-01
       -1   -1    0    0    0  501  0.00000000000E+00  0.00000000000E+00  0.13316899970E+04  0.13316899970E+04  0.50400001928E-02 0. -1.
        1   -1    0    0  501    0  0.00000000000E+00  0.00000000000E+00 -0.26954512300E+03  0.26954512305E+03  0.50400001928E-02 0.  1.
    10030    2    1    2    0    0  0.00000000000E+00  0.00000000000E+00  0.10621448740E+04  0.16012351201E+04  0.11982496302E+04 0.  0.
        4    1    3    3  502    0  0.14025239802E+03 -0.21829481492E+03  0.12527124464E+04  0.12793019377E+04  0.12699999809E+01 0. -1.
       -4    1    3    3    0  502 -0.14025239802E+03  0.21829481492E+03 -0.19056757242E+03  0.32193318240E+03  0.12699999809E+01 0.  1.
</event>
<event>
 5   0  0.4024486E-04  0.1203145E+04  0.7818609E-02  0.9110108E-01
        2   -1    0    0  501    0  0.00000000000E+00  0.00000000000E+00  0.93609079396E+03  0.93609079396E+03  0.25500000920E-02 0. -1.
       -2   -1    0    0    0  501  0.00000000000E+00  0.00000000000E+00 -0.38659647740E+03  0.38659647741E+03  0.25500000920E-02 0.  1.
    10030    2    1    2    0    0  0.00000000000E+00  0.00000000000E+00  0.54949431656E+03  0.13226872714E+04  0.12031448848E+04 0.  0.
        1    1    3    3  502    0 -0.20104155656E+02 -0.19043050297E+02 -0.38589543856E+03  0.38688771545E+03  0.50400001928E-02 0.  1.
       -1    1    3    3    0  502  0.20104155656E+02  0.19043050297E+02  0.93538975512E+03  0.93579955591E+03  0.50400001928E-02 0. -1.
</event>
<event>
 5   0  0.3883890E-04  0.1199772E+04  0.7818609E-02  0.9113056E-01
       -2   -1    0    0    0  501  0.00000000000E+00  0.00000000000E+00  0.31610714981E+03  0.31610714982E+03  0.25500000920E-02 0. -1.
        2   -1    0    0  501    0  0.00000000000E+00  0.00000000000E+00 -0.11384225180E+04  0.11384225180E+04  0.25500000920E-02 0.  1.
    10030    2    1    2    0    0  0.00000000000E+00  0.00000000000E+00 -0.82231536820E+03  0.14545296678E+04  0.11997724742E+04 0.  0.
        2    1    3    3  502    0 -0.25639287025E+03 -0.12873781743E+03 -0.10498570299E+04  0.10883522008E+04  0.25500000920E-02 0.  1.
       -2    1    3    3    0  502  0.25639287025E+03  0.12873781743E+03  0.22754166174E+03  0.36617746707E+03  0.25500000920E-02 0. -1.
</event>
<event>
 5   0  0.2315038E-04  0.1199075E+04  0.7818609E-02  0.9113667E-01
        1   -1    0    0  501    0  0.00000000000E+00  0.00000000000E+00  0.12709583044E+04  0.12709583044E+04  0.50400001928E-02 0.  1.
       -1   -1    0    0    0  501  0.00000000000E+00  0.00000000000E+00 -0.28281423691E+03  0.28281423695E+03  0.50400001928E-02 0. -1.
    10030    2    1    2    0    0  0.00000000000E+00  0.00000000000E+00  0.98814406753E+03  0.15537725414E+04  0.11990748151E+04 0.  0.
        1    1    3    3  502    0  0.98412649596E+02 -0.32438487486E+03  0.11348554103E+04  0.11844017050E+04  0.50400001928E-02 0.  1.
       -1    1    3    3    0  502 -0.98412649596E+02  0.32438487486E+03 -0.14671134275E+03  0.36937083636E+03  0.50400001928E-02 0. -1.
</event>
<event>
 5   0  0.2204090E-04  0.1201482E+04  0.7818609E-02  0.9111561E-01
       -1   -1    0    0    0  501  0.00000000000E+00  0.00000000000E+00  0.77303103517E+03  0.77303103519E+03  0.50400001928E-02 0.  1.
        1   -1    0    0  501    0  0.00000000000E+00  0.00000000000E+00 -0.46685006194E+03  0.46685006197E+03  0.50400001928E-02 0. -1.
    10030    2    1    2    0    0  0.00000000000E+00  0.00000000000E+00  0.30618097323E+03  0.12398810972E+04  0.12014817297E+04 0.  0.
        2    1    3    3  502    0 -0.20195869039E+03  0.53462609451E+03 -0.37967686248E+02  0.57275991372E+03  0.25500000920E-02 0. -1.
       -2    1    3    3    0  502  0.20195869039E+03 -0.53462609451E+03  0.34414865948E+03  0.66712118343E+03  0.25500000920E-02 0.  1.
</event>
<event>
 5   0  0.4024486E-04  0.1201588E+04  0.7818609E-02  0.9111468E-01
       -2   -1    0    0    0  501  0.00000000000E+00  0.00000000000E+00  0.41468533949E+03  0.41468533950E+03  0.25500000920E-02 0. -1.
        2   -1    0    0  501    0  0.00000000000E+00  0.00000000000E+00 -0.87042739770E+03  0.87042739770E+03  0.25500000920E-02 0.  1.
    10030    2    1    2    0    0  0.00000000000E+00  0.00000000000E+00 -0.45574205821E+03  0.12851127372E+04  0.12015880840E+04 0.  0.
        1    1    3    3  502    0  0.98965647175E+02  0.57055150945E+03 -0.56648032808E+02  0.58183522058E+03  0.50400001928E-02 0. -1.
       -1    1    3    3    0  502 -0.98965647175E+02 -0.57055150945E+03 -0.39909402540E+03  0.70327751663E+03  0.50400001928E-02 0.  1.
</event>
<event>
 5   0  0.2204090E-04  0.1199682E+04  0.7818609E-02  0.9113135E-01
        1   -1    0    0  501    0  0.00000000000E+00  0.00000000000E+00  0.41115030991E+03  0.41115030994E+03  0.50400001928E-02 0. -1.
       -1   -1    0    0    0  501  0.00000000000E+00  0.00000000000E+00 -0.87512826053E+03  0.87512826054E+03  0.50400001928E-02 0.  1.
    10030    2    1    2    0    0  0.00000000000E+00  0.00000000000E+00 -0.46397795062E+03  0.12862785705E+04  0.11996820505E+04 0.  0.
        2    1    3    3  502    0 -0.16473925672E+03 -0.21660539227E+03  0.34115504888E+03  0.43639854038E+03  0.25500000920E-02 0. -1.
       -2    1    3    3    0  502  0.16473925672E+03  0.21660539227E+03 -0.80513299950E+03  0.84988003010E+03  0.25500000920E-02 0.  1.
</event>
<event>
 5   0  0.2315038E-04  0.1199468E+04  0.7818609E-02  0.9113322E-01
       -1   -1    0    0    0  501  0.00000000000E+00  0.00000000000E+00  0.10322474596E+04  0.10322474597E+04  0.50400001928E-02 0. -1.
        1   -1    0    0  501    0  0.00000000000E+00  0.00000000000E+00 -0.34844453342E+03  0.34844453346E+03  0.50400001928E-02 0.  1.
    10030    2    1    2    0    0  0.00000000000E+00  0.00000000000E+00  0.68380292622E+03  0.13806919931E+04  0.11994681896E+04 0.  0.
        1    1    3    3  502    0 -0.49045226442E+01 -0.43263280260E+03 -0.13616109423E+03  0.45358024630E+03  0.50400001928E-02 0.  1.
       -1    1    3    3    0  502  0.49045226442E+01  0.43263280260E+03  0.81996402045E+03  0.92711174681E+03  0.50400001928E-02 0. -1.
</event>
<event>
 5   0  0.3832662E-04  0.1200450E+04  0.7818609E-02  0.9112462E-01
        2   -1    0    0  501    0  0.00000000000E+00  0.00000000000E+00  0.60229161519E+03  0.60229161520E+03  0.25500000920E-02 0. -1.
       -2   -1    0    0    0  501  0.00000000000E+00  0.00000000000E+00 -0.59816589239E+03  0.59816589240E+03  0.25500000920E-02 0.  1.
    10030    2    1    2    0    0  0.00000000000E+00  0.00000000000E+00  0.41257227975E+01  0.12004575076E+04  0.12004504180E+04 0.  0.
        4    1    3    3  502    0 -0.82384844169E+02 -0.16130887571E+03 -0.57018248854E+03  0.59826206554E+03  0.12699999809E+01 0.  1.
       -4    1    3    3    0  502  0.82384844169E+02  0.16130887571E+03  0.57430821133E+03  0.60219544206E+03  0.12699999809E+01 0. -1.
</event>
<event>
 5   0  0.3832662E-04  0.1200909E+04  0.7818609E-02  0.9112061E-01
        2   -1    0    0  501    0  0.00000000000E+00  0.00000000000E+00  0.40853064115E+03  0.40853064116E+03  0.25500000920E-02 0. -1.
       -2   -1    0    0    0  501  0.00000000000E+00  0.00000000000E+00 -0.88254206691E+03  0.88254206692E+03  0.25500000920E-02 0.  1.
    10030    2    1    2    0    0  0.00000000000E+00  0.00000000000E+00 -0.47401142576E+03  0.12910727081E+04  0.12009087833E+04 0.  0.
        4    1    3    3  502    0  0.91537482568E+02 -0.50369744791E+03 -0.57433694648E+03  0.76938596994E+03  0.12699999809E+01 0.  1.
       -4    1    3    3    0  502 -0.91537482568E+02  0.50369744791E+03  0.10032552072E+03  0.52168673814E+03  0.12699999809E+01 0. -1.
</event>
<event>
 5   0  0.3832662E-04  0.1182310E+04  0.7818609E-02  0.9128483E-01
        2   -1    0    0  501    0  0.00000000000E+00  0.00000000000E+00  0.75162195665E+03  0.75162195665E+03  0.25500000920E-02 0. -1.
       -2   -1    0    0    0  501  0.00000000000E+00  0.00000000000E+00 -0.46494662837E+03  0.46494662838E+03  0.25500000920E-02 0.  1.
    10030    2    1    2    0    0  0.00000000000E+00  0.00000000000E+00  0.28667532828E+03  0.12165685850E+04  0.11823097641E+04 0.  0.
        4    1    3    3  502    0  0.44544949193E+03 -0.33072428303E+03  0.35335641737E+03  0.65777364788E+03  0.12699999809E+01 0. -1.
       -4    1    3    3    0  502 -0.44544949193E+03  0.33072428303E+03 -0.66681089091E+02  0.55879493715E+03  0.12699999809E+01 0.  1.
</event>
<event>
 5   0  0.3993723E-04  0.1199756E+04  0.7818609E-02  0.9113070E-01
       -2   -1    0    0    0  501  0.00000000000E+00  0.00000000000E+00  0.44398526479E+03  0.44398526479E+03  0.25500000920E-02 0.  1.
        2   -1    0    0  501    0  0.00000000000E+00  0.00000000000E+00 -0.81050865545E+03  0.81050865546E+03  0.25500000920E-02 0. -1.
    10030    2    1    2    0    0  0.00000000000E+00  0.00000000000E+00 -0.36652339067E+03  0.12544939203E+04  0.11997564753E+04 0.  0.
        3    1    3    3  502    0  0.46813010736E+03 -0.11891904956E+03  0.18873115233E+03  0.51856243195E+03  0.10100000352E+00 0.  1.
       -3    1    3    3    0  502 -0.46813010736E+03  0.11891904956E+03 -0.55525454299E+03  0.73593148831E+03  0.10100000352E+00 0. -1.
</event>
<event>
 5   0  0.2315038E-04  0.1200206E+04  0.7818609E-02  0.9112676E-01
        1   -1    0    0  501    0  0.00000000000E+00  0.00000000000E+00  0.19114408761E+04  0.19114408761E+04  0.50400001928E-02 0.  1.
       -1   -1    0    0    0  501  0.00000000000E+00  0.00000000000E+00 -0.18840435695E+03  0.18840435702E+03  0.50400001928E-02 0. -1.
    10030    2    1    2    0    0  0.00000000000E+00  0.00000000000E+00  0.17230365191E+04  0.20998452331E+04  0.12002062976E+04 0.  0.
        1    1    3    3  502    0  0.34158361922E+02 -0.30482340077E+03  0.17639297195E+04  0.17903999985E+04  0.50400001928E-02 0.  1.
       -1    1    3    3    0  502 -0.34158361922E+02  0.30482340077E+03 -0.40893200363E+02  0.30944523459E+03  0.50400001928E-02 0. -1.
</event>
<event>
 5   0  0.3883890E-04  0.1201319E+04  0.7818609E-02  0.9111703E-01
        2   -1    0    0  501    0  0.00000000000E+00  0.00000000000E+00  0.21556783318E+04  0.21556783318E+04  0.25500000920E-02 0. -1.
       -2   -1    0    0    0  501  0.00000000000E+00  0.00000000000E+00 -0.16736804405E+03  0.16736804407E+03  0.25500000920E-02 0.  1.
    10030    2    1    2    0    0  0.00000000000E+00  0.00000000000E+00  0.19883102878E+04  0.23230463759E+04  0.12013187188E+04 0.  0.
        2    1    3    3  502    0  0.24536275804E+03 -0.11969084303E+03 -0.40467925044E+02  0.27598266957E+03  0.25500000920E-02 0.  1.
       -2    1    3    3    0  502 -0.24536275804E+03  0.11969084303E+03  0.20287782128E+04  0.20470637063E+04  0.25500000920E-02 0. -1.
</event>
<event>
 5   0  0.4024486E-04  0.1192082E+04  0.7818609E-02  0.9119816E-01
        2   -1    0    0  501    0  0.00000000000E+00  0.00000000000E+00  0.13262456923E+04  0.13262456923E+04  0.25500000920E-02 0. -1.
       -2   -1    0    0    0  501  0.00000000000E+00  0.00000000000E+00 -0.26787238537E+03  0.26787238539E+03  0.25500000920E-02 0.  1.
    10030    2    1    2    0    0  0.00000000000E+00  0.00000000000E+00  0.10583733069E+04  0.15941180776E+04  0.11920815361E+04 0.  0.
        1    1    3    3  502    0 -0.19972378875E+03 -0.42364395555E+03  0.10221623837E+04  0.11243574749E+04  0.50400001928E-02 0. -1.
       -1    1    3    3    0  502  0.19972378875E+03  0.42364395555E+03  0.36210923229E+02  0.46976060271E+03  0.50400001928E-02 0.  1.
</event>
<event>
 5   0  0.2204090E-04  0.1200947E+04  0.7818609E-02  0.9112028E-01
        1   -1    0    0  501    0  0.00000000000E+00  0.00000000000E+00  0.10988647534E+04  0.10988647534E+04  0.50400001928E-02 0. -1.
       -1   -1    0    0    0  501  0.00000000000E+00  0.00000000000E+00 -0.32812838270E+03  0.32812838274E+03  0.50400001928E-02 0.  1.
    10030    2    1    2    0    0  0.00000000000E+00  0.00000000000E+00  0.77073637066E+03  0.14269931361E+04  0.12009474832E+04 0.  0.
        2    1    3    3  502    0 -0.31847175960E+03 -0.42499399243E+03  0.71833474670E+03  0.89333586270E+03  0.25500000920E-02 0. -1.
       -2    1    3    3    0  502  0.31847175960E+03  0.42499399243E+03  0.52401623965E+02  0.53365727341E+03  0.25500000920E-02 0.  1.
</event>
<event>
 5   0  0.2204090E-04  0.1195330E+04  0.7818609E-02  0.9116954E-01
       -1   -1    0    0    0  501  0.00000000000E+00  0.00000000000E+00  0.16914324819E+03  0.16914324827E+03  0.50400001928E-02 0.  1.
        1   -1    0    0  501    0  0.00000000000E+00  0.00000000000E+00 -0.21118408656E+04  0.21118408656E+04  0.50400001928E-02 0. -1.
    10030    2    1    2    0    0  0.00000000000E+00  0.00000000000E+00 -0.19426976174E+04  0.22809841138E+04  0.11953302870E+04 0.  0.
        2    1    3    3  502    0  0.77054951618E+02  0.49718786625E+03 -0.35574979538E+03  0.61619084449E+03  0.25500000920E-02 0.  1.
       -2    1    3    3    0  502 -0.77054951618E+02 -0.49718786625E+03 -0.15869478220E+04  0.16647932693E+04  0.25500000920E-02 0. -1.
</event>
<event>
 5   0  0.3832662E-04  0.1200491E+04  0.7818609E-02  0.9112427E-01
       -2   -1    0    0    0  501  0.00000000000E+00  0.00000000000E+00  0.25589308331E+03  0.25589308332E+03  0.25500000920E-02 0.  1.
        2   -1    0    0  501    0  0.00000000000E+00  0.00000000000E+00 -0.14079894693E+04  0.14079894693E+04  0.25500000920E-02 0. -1.
    10030    2    1    2    0    0  0.00000000000E+00  0.00000000000E+00 -0.11520963860E+04  0.16638825526E+04  0.12004911771E+04 0.  0.
        4    1    3    3  502    0  0.14189373764E+03 -0.56513570145E+03 -0.37624772701E+03  0.69359653893E+03  0.12699999809E+01 0. -1.
       -4    1    3    3    0  502 -0.14189373764E+03  0.56513570145E+03 -0.77584865896E+03  0.97028601368E+03  0.12699999809E+01 0.  1.
</event>
<event>
 5   0  0.3832662E-04  0.1197599E+04  0.7818609E-02  0.9114961E-01
        2   -1    0    0  501    0  0.00000000000E+00  0.00000000000E+00  0.45004676162E+03  0.45004676162E+03  0.25500000920E-02 0.  1.
       -2   -1    0    0    0  501  0.00000000000E+00  0.00000000000E+00 -0.79671854815E+03  0.79671854816E+03  0.25500000920E-02 0. -1.
    10030    2    1    2    0    0  0.00000000000E+00  0.00000000000E+00 -0.34667178654E+03  0.12467653098E+04  0.11975986014E+04 0.  0.
        4    1    3    3  502    0  0.55114251009E+03  0.18327020798E+03 -0.32496200755E+03  0.66554335307E+03  0.12699999809E+01 0. -1.
       -4    1    3    3    0  502 -0.55114251009E+03 -0.18327020798E+03 -0.21709778983E+02  0.58122195671E+03  0.12699999809E+01 0.  1.
</event>
<event>
 5   0  0.3832662E-04  0.1199148E+04  0.7818609E-02  0.9113603E-01
       -2   -1    0    0    0  501  0.00000000000E+00  0.00000000000E+00  0.32191698859E+03  0.32191698860E+03  0.25500000920E-02 0.  1.
        2   -1    0    0  501    0  0.00000000000E+00  0.00000000000E+00 -0.11167127419E+04  0.11167127419E+04  0.25500000920E-02 0. -1.
    10030    2    1    2    0    0  0.00000000000E+00  0.00000000000E+00 -0.79479575335E+03  0.14386297305E+04  0.11991477023E+04 0.  0.
        4    1    3    3  502    0 -0.31385381668E+03 -0.12426769903E+03 -0.99187880846E+03  0.10477460870E+04  0.12699999809E+01 0. -1.
       -4    1    3    3    0  502  0.31385381668E+03  0.12426769903E+03  0.19708305511E+03  0.39088364353E+03  0.12699999809E+01 0.  1.
</event>
<event>
 5   0  0.2340731E-04  0.1199897E+04  0.7818609E-02  0.9112947E-01
        1   -1    0    0  501    0  0.00000000000E+00  0.00000000000E+00  0.97673117456E+03  0.97673117458E+03  0.50400001928E-02 0. -1.
       -1   -1    0    0    0  501  0.00000000000E+00  0.00000000000E+00 -0.36851292350E+03  0.36851292354E+03  0.50400001928E-02 0.  1.
    10030    2    1    2    0    0  0.00000000000E+00  0.00000000000E+00  0.60821825106E+03  0.13452440981E+04  0.11998967633E+04 0.  0.
        3    1    3    3  502    0 -0.55563665271E+03 -0.13720139158E+03  0.10236202776E+03  0.58140717799E+03  0.10100000352E+00 0.  1.
       -3    1    3    3    0  502  0.55563665271E+03  0.13720139158E+03  0.50585622331E+03  0.76383692012E+03  0.10100000352E+00 0. -1.
</event>
<event>
 5   0  0.1541375E-04  0.1199291E+04  0.7818609E-02  0.9113478E-01
       -3   -1    0    0    0  501  0.00000000000E+00  0.00000000000E+00  0.56291451420E+03  0.56291452326E+03  0.10100000352E+00 0. -1.
        3   -1    0    0  501    0  0.00000000000E+00  0.00000000000E+00 -0.63877294789E+03  0.63877295588E+03  0.10100000352E+00 0.  1.
    10030    2    1    2    0    0  0.00000000000E+00  0.00000000000E+00 -0.75858433697E+02  0.12016874791E+04  0.11992907469E+04 0.  0.
        1    1    3    3  502    0  0.30807244856E+03 -0.24354740013E+03 -0.49199109971E+03  0.62950711822E+03  0.50400001928E-02 0.  1.
       -1    1    3    3    0  502 -0.30807244856E+03  0.24354740013E+03  0.41613266602E+03  0.57218036092E+03  0.50400001928E-02 0. -1.
</event>
<event>
 5   0  0.2340731E-04  0.1200151E+04  0.7818609E-02  0.9112724E-01
        1   -1    0    0  501    0  0.00000000000E+00  0.00000000000E+00  0.10998131222E+04  0.10998131222E+04  0.50400001928E-02 0.  1.
       -1   -1    0    0    0  501  0.00000000000E+00  0.00000000000E+00 -0.32741083612E+03  0.32741083616E+03  0.50400001928E-02 0. -1.
    10030    2    1    2    0    0  0.00000000000E+00  0.00000000000E+00  0.77240228608E+03  0.14272239584E+04  0.12001512137E+04 0.  0.
        3    1    3    3  502    0 -0.11402963852E+03  0.80732922964E+01  0.10867447201E+04  0.10927406067E+04  0.10100000352E+00 0.  1.
       -3    1    3    3    0  502  0.11402963852E+03 -0.80732922964E+01 -0.31434243407E+03  0.33448335170E+03  0.10100000352E+00 0. -1.
</event>
<event>
 5   0  0.3883890E-04  0.1198351E+04  0.7818609E-02  0.9114301E-01
       -2   -1    0    0    0  501  0.00000000000E+00  0.00000000000E+00  0.57369250089E+03  0.57369250089E+03  0.25500000920E-02 0. -1.
        2   -1    0    0  501    0  0.00000000000E+00  0.00000000000E+00 -0.62579053401E+03  0.62579053402E+03  0.25500000920E-02 0.  1.
    10030    2    1    2    0    0  0.00000000000E+00  0.00000000000E+00 -0.52098033126E+02  0.11994830349E+04  0.11983510946E+04 0.  0.
        2    1    3    3  502    0 -0.38669933759E+03 -0.72622375780E+02  0.42626381811E+03  0.58009587983E+03  0.25500000920E-02 0. -1.
       -2    1    3    3    0  502  0.38669933759E+03  0.72622375780E+02 -0.47836185124E+03  0.61938715508E+03  0.25500000920E-02 0.  1.
</event>
<event>
 5   0  0.2204090E-04  0.1199693E+04  0.7818609E-02  0.9113125E-01
        1   -1    0    0  501    0  0.00000000000E+00  0.00000000000E+00  0.33755606524E+03  0.33755606527E+03  0.50400001928E-02 0. -1.
       -1   -1    0    0    0  501  0.00000000000E+00  0.00000000000E+00 -0.10659437203E+04  0.10659437203E+04  0.50400001928E-02 0.  1.
    10030    2    1    2    0    0  0.00000000000E+00  0.00000000000E+00 -0.72838765503E+03  0.14034997855E+04  0.11996929074E+04 0.  0.
        2    1    3    3  502    0  0.50623437354E+03 -0.97016006232E+02 -0.72312176321E+03  0.88802614311E+03  0.25500000920E-02 0.  1.
       -2    1    3    3    0  502 -0.50623437354E+03  0.97016006232E+02 -0.52658918195E+01  0.51547364244E+03  0.25500000920E-02 0. -1.
</event>
<event>
 5   0  0.2204090E-04  0.1198238E+04  0.7818609E-02  0.9114401E-01
       -1   -1    0    0    0  501  0.00000000000E+00  0.00000000000E+00  0.26277067568E+03  0.26277067573E+03  0.50400001928E-02 0. -1.
        1   -1    0    0  501    0  0.00000000000E+00  0.00000000000E+00 -0.13659946378E+04  0.13659946378E+04  0.50400001928E-02 0.  1.
    10030    2    1    2    0    0  0.00000000000E+00  0.00000000000E+00 -0.11032239621E+04  0.16287653135E+04  0.11982375958E+04 0.  0.
        2    1    3    3  502    0  0.39838905597E+03  0.30806643403E+03 -0.99275601462E+03  0.11131860906E+04  0.25500000920E-02 0.  1.
       -2    1    3    3    0  502 -0.39838905597E+03 -0.30806643403E+03 -0.11046794747E+03  0.51557922293E+03  0.25500000920E-02 0. -1.
</event>
<event>
 5   0  0.2315038E-04  0.1199517E+04  0.7818609E-02  0.9113279E-01
       -1   -1    0    0    0  501  0.00000000000E+00  0.00000000000E+00  0.28652868497E+03  0.28652868502E+03  0.50400001928E-02 0.  1.
        1   -1    0    0  501    0  0.00000000000E+00  0.00000000000E+00 -0.12554083705E+04  0.12554083705E+04  0.50400001928E-02 0. -1.
    10030    2    1    2    0    0  0.00000000000E+00  0.00000000000E+00 -0.96887968552E+03  0.15419370555E+04  0.11995174189E+04 0.  0.
        1    1    3    3  502    0 -0.31417949178E+03 -0.50759234328E+03 -0.41001855862E+03  0.72420574318E+03  0.50400001928E-02 0.  1.
       -1    1    3    3    0  502  0.31417949178E+03  0.50759234328E+03 -0.55886112690E+03  0.81773131235E+03  0.50400001928E-02 0. -1.
</event>
<event>
 5   0  0.3883890E-04  0.1204535E+04  0.7818609E-02  0.9108896E-01
       -2   -1    0    0    0  501  0.00000000000E+00  0.00000000000E+00  0.27237805028E+03  0.27237805029E+03  0.25500000920E-02 0.  1.
        2   -1    0    0  501    0  0.00000000000E+00  0.00000000000E+00 -0.13317020777E+04  0.13317020777E+04  0.25500000920E-02 0. -1.
    10030    2    1    2    0    0  0.00000000000E+00  0.00000000000E+00 -0.10593240275E+04  0.16040801280E+04  0.12045354548E+04 0.  0.
        2    1    3    3  502    0 -0.42605187584E+03  0.41071224786E+03 -0.38064443774E+03  0.70362983126E+03  0.25500000920E-02 0.  1.
       -2    1    3    3    0  502  0.42605187584E+03 -0.41071224786E+03 -0.67867958971E+03  0.90045029677E+03  0.25500000920E-02 0. -1.
</event>
<event>
 5   0  0.3832662E-04  0.1200023E+04  0.7818609E-02  0.9112837E-01
       -2   -1    0    0    0  501  0.00000000000E+00  0.00000000000E+00  0.18849178727E+03  0.18849178729E+03  0.25500000920E-02 0.  1.
        2   -1    0    0  501    0  0.00000000000E+00  0.00000000000E+00 -0.19099695667E+04  0.19099695667E+04  0.25500000920E-02 0. -1.
    10030    2    1    2    0    0  0.00000000000E+00  0.00000000000E+00 -0.17214777794E+04  0.20984613540E+04  0.12000226286E+04 0.  0.
        4    1    3    3  502    0  0.17427438712E+03  0.13095347489E+03  0.11679248809E+03  0.24731047848E+03  0.12699999809E+01 0.  1.
       -4    1    3    3    0  502 -0.17427438712E+03 -0.13095347489E+03 -0.18382702675E+04  0.18511508755E+04  0.12699999809E+01 0. -1.
</event>
<event>
 5   0  0.2315038E-04  0.1204036E+04  0.7818609E-02  0.9109331E-01
        1   -1    0    0  501    0  0.00000000000E+00  0.00000000000E+00  0.14778224956E+04  0.14778224957E+04  0.50400001928E-02 0. -1.
       -1   -1    0    0    0  501  0.00000000000E+00  0.00000000000E+00 -0.24524323398E+03  0.24524323403E+03  0.50400001928E-02 0.  1.
    10030    2    1    2    0    0  0.00000000000E+00  0.00000000000E+00  0.12325792617E+04  0.17230657297E+04  0.12040364914E+04 0.  0.
        1    1    3    3  502    0 -0.57604105437E+03  0.53210033457E+02  0.37780477732E+03  0.69093491283E+03  0.50400001928E-02 0.  1.
       -1    1    3    3    0  502  0.57604105437E+03 -0.53210033457E+02  0.85477448434E+03  0.10321308168E+04  0.50400001928E-02 0. -1.
</event>
<event>
 5   0  0.4024486E-04  0.1201573E+04  0.7818609E-02  0.9111480E-01
        2   -1    0    0  501    0  0.00000000000E+00  0.00000000000E+00  0.14778099544E+04  0.14778099544E+04  0.25500000920E-02 0. -1.
       -2   -1    0    0    0  501  0.00000000000E+00  0.00000000000E+00 -0.24424295278E+03  0.24424295279E+03  0.25500000920E-02 0.  1.
    10030    2    1    2    0    0  0.00000000000E+00  0.00000000000E+00  0.12335670016E+04  0.17220529072E+04  0.12015734134E+04 0.  0.
        1    1    3    3  502    0  0.27095463251E+03 -0.29052720195E+03  0.12626977638E+04  0.13237175343E+04  0.50400001928E-02 0. -1.
       -1    1    3    3    0  502 -0.27095463251E+03  0.29052720195E+03 -0.29130762174E+02  0.39833537288E+03  0.50400001928E-02 0.  1.
</event>
<event>
 5   0  0.2204090E-04  0.1208404E+04  0.7818609E-02  0.9105532E-01
       -1   -1    0    0    0  501  0.00000000000E+00  0.00000000000E+00  0.11188589911E+04  0.11188589911E+04  0.50400001928E-02 0. -1.
        1   -1    0    0  501    0  0.00000000000E+00  0.00000000000E+00 -0.32627892834E+03  0.32627892838E+03  0.50400001928E-02 0.  1.
    10030    2    1    2    0    0  0.00000000000E+00  0.00000000000E+00  0.79258006277E+03  0.14451379195E+04  0.12084040924E+04 0.  0.
        2    1    3    3  502    0 -0.24305392314E+03 -0.38699281568E+03  0.86897028585E+03  0.98180853869E+03  0.25500000920E-02 0. -1.
       -2    1    3    3    0  502  0.24305392314E+03  0.38699281568E+03 -0.76390223085E+02  0.46332938082E+03  0.25500000920E-02 0.  1.
</event>
<event>
 5   0  0.2304842E-04  0.1197556E+04  0.7818609E-02  0.9114998E-01
       -1   -1    0    0    0  501  0.00000000000E+00  0.00000000000E+00  0.43869618116E+03  0.43869618119E+03  0.50400001928E-02 0. -1.
        1   -1    0    0  501    0  0.00000000000E+00  0.00000000000E+00 -0.81727452476E+03  0.81727452477E+03  0.50400001928E-02 0.  1.
    10030    2    1    2    0    0  0.00000000000E+00  0.00000000000E+00 -0.37857834359E+03  0.12559707060E+04  0.11975561999E+04 0.  0.
        4    1    3    3  502    0 -0.29443986158E+02 -0.42448482728E+02  0.43635313611E+03  0.43940242865E+03  0.12699999809E+01 0. -1.
       -4    1    3    3    0  502  0.29443986158E+02  0.42448482728E+02 -0.81493147970E+03  0.81656827732E+03  0.12699999809E+01 0.  1.
</event>
<event>
 5   0  0.2315038E-04  0.1199180E+04  0.7818609E-02  0.9113574E-01
       -1   -1    0    0    0  501  0.00000000000E+00  0.00000000000E+00  0.32529810564E+03  0.32529810567E+03  0.50400001928E-02 0. -1.
        1   -1    0    0  501    0  0.00000000000E+00  0.00000000000E+00 -0.11051657560E+04  0.11051657560E+04  0.50400001928E-02 0.  1.
    10030    2    1    2    0    0  0.00000000000E+00  0.00000000000E+00 -0.77986765036E+03  0.14304638617E+04  0.11991802648E+04 0.  0.
        1    1    3    3  502    0  0.34736448706E+03 -0.22277841193E+03  0.12895147632E+03  0.43234337159E+03  0.50400001928E-02 0. -1.
       -1    1    3    3    0  502 -0.34736448706E+03  0.22277841193E+03 -0.90881912668E+03  0.99812049009E+03  0.50400001928E-02 0.  1.
</event>
<event>
 5   0  0.2315038E-04  0.1199724E+04  0.7818609E-02  0.9113098E-01
       -1   -1    0    0    0  501  0.00000000000E+00  0.00000000000E+00  0.52440218283E+03  0.52440218285E+03  0.50400001928E-02 0.  1.
        1   -1    0    0  501    0  0.00000000000E+00  0.00000000000E+00 -0.68618020572E+03  0.68618020574E+03  0.50400001928E-02 0. -1.
    10030    2    1    2    0    0  0.00000000000E+00  0.00000000000E+00 -0.16177802290E+03  0.12105823886E+04  0.11997239645E+04 0.  0.
        1    1    3    3  502    0  0.22640620586E+03 -0.48514384532E+03  0.19213349504E+03  0.56880541545E+03  0.50400001928E-02 0.  1.
       -1    1    3    3    0  502 -0.22640620586E+03  0.48514384532E+03 -0.35391151794E+03  0.64177697314E+03  0.50400001928E-02 0. -1.
</event>
<event>
 5   0  0.2315038E-04  0.1200260E+04  0.7818609E-02  0.9112629E-01
        1   -1    0    0  501    0  0.00000000000E+00  0.00000000000E+00  0.59008774499E+03  0.59008774501E+03  0.50400001928E-02 0. -1.
       -1   -1    0    0    0  501  0.00000000000E+00  0.00000000000E+00 -0.61034333348E+03  0.61034333350E+03  0.50400001928E-02 0.  1.
    10030    2    1    2    0    0  0.00000000000E+00  0.00000000000E+00 -0.20255588491E+02  0.12004310785E+04  0.12002601740E+04 0.  0.
        1    1    3    3  502    0 -0.50369256784E+03 -0.20356100266E+03 -0.26514024929E+03  0.60451851628E+03  0.50400001928E-02 0. -1.
       -1    1    3    3    0  502  0.50369256784E+03  0.20356100266E+03  0.24488466079E+03  0.59591256223E+03  0.50400001928E-02 0.  1.
</event>
<event>
 5   0  0.2204090E-04  0.1199940E+04  0.7818609E-02  0.9112909E-01
        1   -1    0    0  501    0  0.00000000000E+00  0.00000000000E+00  0.81901356581E+03  0.81901356583E+03  0.50400001928E-02 0. -1.
       -1   -1    0    0    0  501  0.00000000000E+00  0.00000000000E+00 -0.43950898269E+03  0.43950898272E+03  0.50400001928E-02 0.  1.
    10030    2    1    2    0    0  0.00000000000E+00  0.00000000000E+00  0.37950458313E+03  0.12585225485E+04  0.11999396971E+04 0.  0.
        2    1    3    3  502    0  0.26010642865E+03  0.30753302633E+03 -0.27662774547E+03  0.48862544559E+03  0.25500000920E-02 0.  1.
       -2    1    3    3    0  502 -0.26010642865E+03 -0.30753302633E+03  0.65613232859E+03  0.76989710295E+03  0.25500000920E-02 0. -1.
</event>
<event>
 5   0  0.2304842E-04  0.1200792E+04  0.7818609E-02  0.9112164E-01
        1   -1    0    0  501    0  0.00000000000E+00  0.00000000000E+00  0.36128305386E+03  0.36128305390E+03  0.50400001928E-02 0. -1.
       -1   -1    0    0    0  501  0.00000000000E+00  0.00000000000E+00 -0.99776449424E+03  0.99776449426E+03  0.50400001928E-02 0.  1.
    10030    2    1    2    0    0  0.00000000000E+00  0.00000000000E+00 -0.63648144038E+03  0.13590475482E+04  0.12007920778E+04 0.  0.
        4    1    3    3  502    0 -0.52133723372E+03 -0.88082258158E+02 -0.64020098440E+03  0.83030711716E+03  0.12699999809E+01 0.  1.
       -4    1    3    3    0  502  0.52133723372E+03  0.88082258158E+02  0.37195440241E+01  0.52874043100E+03  0.12699999809E+01 0. -1.
</event>
<event>
 5   0  0.3883890E-04  0.1194248E+04  0.7818609E-02  0.9117906E-01
        2   -1    0    0  501    0  0.00000000000E+00  0.00000000000E+00  0.79267610462E+03  0.79267610462E+03  0.25500000920E-02 0.  1.
       -2   -1    0    0    0  501  0.00000000000E+00  0.00000000000E+00 -0.44981432458E+03  0.44981432459E+03  0.25500000920E-02 0. -1.
    10030    2    1    2    0    0  0.00000000000E+00  0.00000000000E+00  0.34286178003E+03  0.12424904292E+04  0.11942479920E+04 0.  0.
        2    1    3    3  502    0 -0.18855526738E+03  0.54066125157E+03 -0.47907263395E+01  0.57261734944E+03  0.25500000920E-02 0. -1.
       -2    1    3    3    0  502  0.18855526738E+03 -0.54066125157E+03  0.34765250637E+03  0.66987307977E+03  0.25500000920E-02 0.  1.
</event>
<event>
 5   0  0.2204090E-04  0.1198842E+04  0.7818609E-02  0.9113870E-01
        1   -1    0    0  501    0  0.00000000000E+00  0.00000000000E+00  0.13310889096E+04  0.13310889096E+04  0.50400001928E-02 0.  1.
       -1   -1    0    0    0  501  0.00000000000E+00  0.00000000000E+00 -0.26993373428E+03  0.26993373433E+03  0.50400001928E-02 0. -1.
    10030    2    1    2    0    0  0.00000000000E+00  0.00000000000E+00  0.10611551753E+04  0.16010226439E+04  0.11988424418E+04 0.  0.
        2    1    3    3  502    0  0.14888912336E+03 -0.50192036221E+03  0.92042106981E+03  0.10588989408E+04  0.25500000920E-02 0.  1.
       -2    1    3    3    0  502 -0.14888912336E+03  0.50192036221E+03  0.14073410552E+03  0.54212370315E+03  0.25500000920E-02 0. -1.
</event>
<event>
 5   0  0.2244308E-04  0.1199165E+04  0.7818609E-02  0.9113588E-01
        1   -1    0    0  501    0  0.00000000000E+00  0.00000000000E+00  0.95548755331E+03  0.95548755333E+03  0.50400001928E-02 0. -1.
       -1   -1    0    0    0  501  0.00000000000E+00  0.00000000000E+00 -0.37624685242E+03  0.37624685245E+03  0.50400001928E-02 0.  1.
    10030    2    1    2    0    0  0.00000000000E+00  0.00000000000E+00  0.57924070090E+03  0.13317344058E+04  0.11991650170E+04 0.  0.
        5    1    3    3  502    0 -0.16613249887E+03  0.31390749960E+03 -0.24683365589E+03  0.43253539643E+03  0.46999998093E+01 0.  1.
       -5    1    3    3    0  502  0.16613249887E+03 -0.31390749960E+03  0.82607435678E+03  0.89919900935E+03  0.46999998093E+01 0. -1.
</event>
<event>
 5   0  0.4024486E-04  0.1203233E+04  0.7818609E-02  0.9110032E-01
       -2   -1    0    0    0  501  0.00000000000E+00  0.00000000000E+00  0.54036843156E+03  0.54036843157E+03  0.25500000920E-02 0. -1.
        2   -1    0    0  501    0  0.00000000000E+00  0.00000000000E+00 -0.66980630310E+03  0.66980630310E+03  0.25500000920E-02 0.  1.
    10030    2    1    2    0    0  0.00000000000E+00  0.00000000000E+00 -0.12943787154E+03  0.12101747347E+04  0.12032326150E+04 0.  0.
        1    1    3    3  502    0 -0.89983061779E+02 -0.59008029571E+03 -0.14032227041E+03  0.61317374894E+03  0.50400001928E-02 0.  1.
       -1    1    3    3    0  502  0.89983061779E+02  0.59008029571E+03  0.10884398874E+02  0.59700098573E+03  0.50400001928E-02 0. -1.
</event>
<event>
 5   0  0.4024486E-04  0.1197483E+04  0.7818609E-02  0.9115063E-01
       -2   -1    0    0    0  501  0.00000000000E+00  0.00000000000E+00  0.24019015279E+03  0.24019015280E+03  0.25500000920E-02 0. -1.
        2   -1    0    0  501    0  0.00000000000E+00  0.00000000000E+00 -0.14925313503E+04  0.14925313503E+04  0.25500000920E-02 0.  1.
    10030    2    1    2    0    0  0.00000000000E+00  0.00000000000E+00 -0.12523411975E+04  0.17327215031E+04  0.11974829153E+04 0.  0.
        1    1    3    3  502    0 -0.39224068900E+02 -0.50764589899E+03 -0.17032129233E+03  0.53689126366E+03  0.50400001928E-02 0.  1.
       -1    1    3    3    0  502  0.39224068900E+02  0.50764589899E+03 -0.10820199052E+04  0.11958302395E+04  0.50400001928E-02 0. -1.
</event>
<event>
 5   0  0.3883890E-04  0.1199448E+04  0.7818609E-02  0.9113340E-01
       -2   -1    0    0    0  501  0.00000000000E+00  0.00000000000E+00  0.44944674188E+03  0.44944674188E+03  0.25500000920E-02 0.  1.
        2   -1    0    0  501    0  0.00000000000E+00  0.00000000000E+00 -0.80024787419E+03  0.80024787419E+03  0.25500000920E-02 0. -1.
    10030    2    1    2    0    0  0.00000000000E+00  0.00000000000E+00 -0.35080113231E+03  0.12496946161E+04  0.11994478726E+04 0.  0.
        2    1    3    3  502    0 -0.15699470396E+03  0.54951634635E+03 -0.36482220506E+03  0.67801975878E+03  0.25500000920E-02 0. -1.
       -2    1    3    3    0  502  0.15699470396E+03 -0.54951634635E+03  0.14021072746E+02  0.57167485730E+03  0.25500000920E-02 0.  1.
</event>
<event>
 5   0  0.4122956E-04  0.1200206E+04  0.7818609E-02  0.9112676E-01
        2   -1    0    0  501    0  0.00000000000E+00  0.00000000000E+00  0.13334336298E+04  0.13334336298E+04  0.25500000920E-02 0.  1.
       -2   -1    0    0    0  501  0.00000000000E+00  0.00000000000E+00 -0.27007238737E+03  0.27007238738E+03  0.25500000920E-02 0. -1.
    10030    2    1    2    0    0  0.00000000000E+00  0.00000000000E+00  0.10633612424E+04  0.16035060172E+04  0.12002059887E+04 0.  0.
        5    1    3    3  502    0 -0.58896631434E+03 -0.42791293802E+02  0.38910032945E+03  0.70720122358E+03  0.46999998093E+01 0.  1.
       -5    1    3    3    0  502  0.58896631434E+03  0.42791293802E+02  0.67426091295E+03  0.89630479358E+03  0.46999998093E+01 0. -1.
</event>
<event>
 5   0  0.2204090E-04  0.1197697E+04  0.7818609E-02  0.9114875E-01
       -1   -1    0    0    0  501  0.00000000000E+00  0.00000000000E+00  0.11227393975E+04  0.11227393975E+04  0.50400001928E-02 0.  1.
        1   -1    0    0  501    0  0.00000000000E+00  0.00000000000E+00 -0.31941478889E+03  0.31941478893E+03  0.50400001928E-02 0. -1.
    10030    2    1    2    0    0  0.00000000000E+00  0.00000000000E+00  0.80332460859E+03  0.14421541864E+04  0.11976970696E+04 0.  0.
        2    1    3    3  502    0  0.39117157217E+03  0.45244810090E+03  0.36563790144E+03  0.70101038356E+03  0.25500000920E-02 0.  1.
       -2    1    3    3    0  502 -0.39117157217E+03 -0.45244810090E+03  0.43768670715E+03  0.74114380286E+03  0.25500000920E-02 0. -1.
</event>
<event>
 5   0  0.4024486E-04  0.1199455E+04  0.7818609E-02  0.9113334E-01
       -2   -1    0    0    0  501  0.00000000000E+00  0.00000000000E+00  0.24400855001E+03  0.24400855002E+03  0.25500000920E-02 0.  1.
        2   -1    0    0  501    0  0.00000000000E+00  0.00000000000E+00 -0.14740176960E+04  0.14740176960E+04  0.25500000920E-02 0. -1.
    10030    2    1    2    0    0  0.00000000000E+00  0.00000000000E+00 -0.12300091460E+04  0.17180262461E+04  0.11994547440E+04 0.  0.
        1    1    3    3  502    0  0.46053472230E+03 -0.29691410001E+03 -0.96416269229E+03  0.11089904916E+04  0.50400001928E-02 0. -1.
       -1    1    3    3    0  502 -0.46053472230E+03  0.29691410001E+03 -0.26584645374E+03  0.60903575447E+03  0.50400001928E-02 0.  1.
</event>
<event>
 5   0  0.2315038E-04  0.1193805E+04  0.7818609E-02  0.9118297E-01
        1   -1    0    0  501    0  0.00000000000E+00  0.00000000000E+00  0.11823705922E+04  0.11823705923E+04  0.50400001928E-02 0. -1.
       -1   -1    0    0    0  501  0.00000000000E+00  0.00000000000E+00 -0.30133727707E+03  0.30133727712E+03  0.50400001928E-02 0.  1.
    10030    2    1    2    0    0  0.00000000000E+00  0.00000000000E+00  0.88103331517E+03  0.14837078694E+04  0.11938045649E+04 0.  0.
        1    1    3    3  502    0 -0.55729212651E+03 -0.21216497230E+03  0.40754401980E+03  0.72227461387E+03  0.50400001928E-02 0. -1.
       -1    1    3    3    0  502  0.55729212651E+03  0.21216497230E+03  0.47348929537E+03  0.76143325550E+03  0.50400001928E-02 0.  1.
</event>
<event>
 5   0  0.1541375E-04  0.1202115E+04  0.7818609E-02  0.9111007E-01
        4   -1    0    0  501    0  0.00000000000E+00  0.00000000000E+00  0.57749754992E+03  0.57749894638E+03  0.12699999809E+01 0. -1.
       -4   -1    0    0    0  501  0.00000000000E+00  0.00000000000E+00 -0.62557589137E+03  0.62557718050E+03  0.12699999809E+01 0.  1.
    10030    2    1    2    0    0  0.00000000000E+00  0.00000000000E+00 -0.48078341445E+02  0.12030761269E+04  0.12021150694E+04 0.  0.
        1    1    3    3  502    0 -0.21715740572E+03 -0.12565535304E+03  0.52258752712E+03  0.57969330696E+03  0.50400001928E-02 0. -1.
       -1    1    3    3    0  502  0.21715740572E+03  0.12565535304E+03 -0.57066586856E+03  0.62338281992E+03  0.50400001928E-02 0.  1.
</event>
<event>
 5   0  0.2315038E-04  0.1198729E+04  0.7818609E-02  0.9113970E-01
       -1   -1    0    0    0  501  0.00000000000E+00  0.00000000000E+00  0.87501640142E+03  0.87501640144E+03  0.50400001928E-02 0. -1.
        1   -1    0    0  501    0  0.00000000000E+00  0.00000000000E+00 -0.41054946426E+03  0.41054946429E+03  0.50400001928E-02 0.  1.
    10030    2    1    2    0    0  0.00000000000E+00  0.00000000000E+00  0.46446693716E+03  0.12855658657E+04  0.11987285178E+04 0.  0.
        1    1    3    3  502    0 -0.55600256035E+03 -0.12654417802E+02  0.47189116866E+03  0.72936976664E+03  0.50400001928E-02 0. -1.
       -1    1    3    3    0  502  0.55600256035E+03  0.12654417802E+02 -0.74242314905E+01  0.55619609909E+03  0.50400001928E-02 0.  1.
</event>
<event>
 5   0  0.2244308E-04  0.1201329E+04  0.7818609E-02  0.9111694E-01
       -1   -1    0    0    0  501  0.00000000000E+00  0.00000000000E+00  0.67800520485E+03  0.67800520487E+03  0.50400001928E-02 0. -1.
        1   -1    0    0  501    0  0.00000000000E+00  0.00000000000E+00 -0.53214608673E+03  0.53214608675E+03  0.50400001928E-02 0.  1.
    10030    2    1    2    0    0  0.00000000000E+00  0.00000000000E+00  0.14585911812E+03  0.12101512916E+04  0.12013289584E+04 0.  0.
        5    1    3    3  502    0  0.17469772635E+03  0.16020359507E+03  0.62888044482E+03  0.67208421447E+03  0.46999998093E+01 0. -1.
       -5    1    3    3    0  502 -0.17469772635E+03 -0.16020359507E+03 -0.48302132670E+03  0.53806707715E+03  0.46999998093E+01 0.  1.
</event>
<event>
 5   0  0.1541375E-04  0.1200386E+04  0.7818609E-02  0.9112519E-01
       -4   -1    0    0    0  501  0.00000000000E+00  0.00000000000E+00  0.76140206955E+03  0.76140312871E+03  0.12699999809E+01 0. -1.
        4   -1    0    0  501    0  0.00000000000E+00  0.00000000000E+00 -0.47311387056E+03  0.47311557512E+03  0.12699999809E+01 0.  1.
    10030    2    1    2    0    0  0.00000000000E+00  0.00000000000E+00  0.28828819899E+03  0.12345187038E+04  0.12003859148E+04 0.  0.
        5    1    3    3  502    0 -0.15331489379E+03 -0.51897311596E+03  0.41108375822E+03  0.67959583432E+03  0.46999998093E+01 0.  1.
       -5    1    3    3    0  502  0.15331489379E+03  0.51897311596E+03 -0.12279555924E+03  0.55492286952E+03  0.46999998093E+01 0. -1.
</event>
<event>
 5   0  0.4024486E-04  0.1200359E+04  0.7818609E-02  0.9112543E-01
        2   -1    0    0  501    0  0.00000000000E+00  0.00000000000E+00  0.20031937235E+04  0.20031937235E+04  0.25500000920E-02 0. -1.
       -2   -1    0    0    0  501  0.00000000000E+00  0.00000000000E+00 -0.17982050263E+03  0.17982050265E+03  0.25500000920E-02 0.  1.
    10030    2    1    2    0    0  0.00000000000E+00  0.00000000000E+00  0.18233732208E+04  0.21830142261E+04  0.12003587834E+04 0.  0.
        1    1    3    3  502    0  0.46134143597E+03 -0.14566648969E+03  0.15576493378E+04  0.16310506143E+04  0.50400001928E-02 0. -1.
       -1    1    3    3    0  502 -0.46134143597E+03  0.14566648969E+03  0.26572388304E+03  0.55196361185E+03  0.50400001928E-02 0.  1.
</event>
<event>
 5   0  0.3993723E-04  0.1197729E+04  0.7818609E-02  0.9114847E-01
        2   -1    0    0  501    0  0.00000000000E+00  0.00000000000E+00  0.74660082407E+03  0.74660082407E+03  0.25500000920E-02 0.  1.
       -2   -1    0    0    0  501  0.00000000000E+00  0.00000000000E+00 -0.48036201755E+03  0.48036201756E+03  0.25500000920E-02 0. -1.
    10030    2    1    2    0    0  0.00000000000E+00  0.00000000000E+00  0.26623880652E+03  0.12269628416E+04  0.11977289813E+04 0.  0.
        3    1    3    3  502    0 -0.43269128643E+03 -0.25673998715E+03  0.46585722133E+03  0.68568223779E+03  0.10100000352E+00 0.  1.
       -3    1    3    3    0  502  0.43269128643E+03  0.25673998715E+03 -0.19961841481E+03  0.54128060384E+03  0.10100000352E+00 0. -1.
</event>
<event>
 5   0  0.2315038E-04  0.1199772E+04  0.7818609E-02  0.9113056E-01
       -1   -1    0    0    0  501  0.00000000000E+00  0.00000000000E+00  0.13123615633E+03  0.13123615643E+03  0.50400001928E-02 0. -1.
        1   -1    0    0  501    0  0.00000000000E+00  0.00000000000E+00 -0.27421039163E+04  0.27421039164E+04  0.50400001928E-02 0.  1.
    10030    2    1    2    0    0  0.00000000000E+00  0.00000000000E+00 -0.26108677600E+04  0.28733400728E+04  0.11997719423E+04 0.  0.
        1    1    3    3  502    0  0.52324880350E+03  0.24427593743E+03 -0.16945830168E+04  0.17902713886E+04  0.50400001928E-02 0.  1.
       -1    1    3    3    0  502 -0.52324880350E+03 -0.24427593743E+03 -0.91628474318E+03  0.10830686842E+04  0.50400001928E-02 0. -1.
</event>
<event>
 5   0  0.2204090E-04  0.1194146E+04  0.7818609E-02  0.9117996E-01
       -1   -1    0    0    0  501  0.00000000000E+00  0.00000000000E+00  0.43835510046E+03  0.43835510049E+03  0.50400001928E-02 0. -1.
        1   -1    0    0  501    0  0.00000000000E+00  0.00000000000E+00 -0.81325844193E+03  0.81325844194E+03  0.50400001928E-02 0.  1.
    10030    2    1    2    0    0  0.00000000000E+00  0.00000000000E+00 -0.37490334146E+03  0.12516135424E+04  0.11941456964E+04 0.  0.
        2    1    3    3  502    0 -0.20076309549E+03 -0.37068787516E+03 -0.63062458518E+03  0.75855302303E+03  0.25500000920E-02 0.  1.
       -2    1    3    3    0  502  0.20076309549E+03  0.37068787516E+03  0.25572124372E+03  0.49306051941E+03  0.25500000920E-02 0. -1.
</event>
<event>
 5   0  0.1541375E-04  0.1199075E+04  0.7818609E-02  0.9113667E-01
        3   -1    0    0  501    0  0.00000000000E+00  0.00000000000E+00  0.21491972652E+03  0.21491975025E+03  0.10100000352E+00 0. -1.
       -3   -1    0    0    0  501  0.00000000000E+00  0.00000000000E+00 -0.16724612980E+04  0.16724613010E+04  0.10100000352E+00 0.  1.
    10030    2    1    2    0    0  0.00000000000E+00  0.00000000000E+00 -0.14575415714E+04  0.18873810513E+04  0.11990745599E+04 0.  0.
        4    1    3    3  502    0  0.48493848414E+03  0.34325576507E+02 -0.17651280299E+03  0.51720591752E+03  0.12699999809E+01 0. -1.
       -4    1    3    3    0  502 -0.48493848414E+03 -0.34325576507E+02 -0.12810287685E+04  0.13701751337E+04  0.12699999809E+01 0.  1.
</event>
<event>
 5   0  0.2304842E-04  0.1199799E+04  0.7818609E-02  0.9113033E-01
        1   -1    0    0  501    0  0.00000000000E+00  0.00000000000E+00  0.42616737422E+03  0.42616737425E+03  0.50400001928E-02 0. -1.
       -1   -1    0    0    0  501  0.00000000000E+00  0.00000000000E+00 -0.84445551291E+03  0.84445551292E+03  0.50400001928E-02 0.  1.
    10030    2    1    2    0    0  0.00000000000E+00  0.00000000000E+00 -0.41828813869E+03  0.12706228872E+04  0.11997989642E+04 0.  0.
        4    1    3    3  502    0 -0.29554337137E+03  0.26337207381E+02  0.34301405707E+03  0.45354138632E+03  0.12699999809E+01 0. -1.
       -4    1    3    3    0  502  0.29554337137E+03 -0.26337207381E+02 -0.76130219576E+03  0.81708150085E+03  0.12699999809E+01 0.  1.
</event>
<event>
 5   0  0.2204090E-04  0.1202831E+04  0.7818609E-02  0.9110382E-01
        1   -1    0    0  501    0  0.00000000000E+00  0.00000000000E+00  0.11688833727E+04  0.11688833727E+04  0.50400001928E-02 0. -1.
       -1   -1    0    0    0  501  0.00000000000E+00  0.00000000000E+00 -0.30944113062E+03  0.30944113066E+03  0.50400001928E-02 0.  1.
    10030    2    1    2    0    0  0.00000000000E+00  0.00000000000E+00  0.85944224204E+03  0.14783245033E+04  0.12028309814E+04 0.  0.
        2    1    3    3  502    0  0.19924084414E+03  0.47148804269E+03  0.41643465230E+02  0.51354850460E+03  0.25500000920E-02 0.  1.
       -2    1    3    3    0  502 -0.19924084414E+03 -0.47148804269E+03  0.81779877681E+03  0.96477599873E+03  0.25500000920E-02 0. -1.
</event>
<event>
 5   0  0.2340731E-04  0.1200008E+04  0.7818609E-02  0.9112850E-01
       -1   -1    0    0    0  501  0.00000000000E+00  0.00000000000E+00  0.10835879005E+04  0.10835879005E+04  0.50400001928E-02 0.  1.
        1   -1    0    0  501    0  0.00000000000E+00  0.00000000000E+00 -0.33223386643E+03  0.33223386647E+03  0.50400001928E-02 0. -1.
    10030    2    1    2    0    0  0.00000000000E+00  0.00000000000E+00  0.75135403406E+03  0.14158217670E+04  0.12000076630E+04 0.  0.
        3    1    3    3  502    0 -0.43620851338E+03  0.19685171027E+03  0.80266989739E+03  0.93450919597E+03  0.10100000352E+00 0.  1.
       -3    1    3    3    0  502  0.43620851338E+03 -0.19685171027E+03 -0.51315863330E+02  0.48131257100E+03  0.10100000352E+00 0. -1.
</event>
<event>
 5   0  0.4024486E-04  0.1200874E+04  0.7818609E-02  0.9112092E-01
       -2   -1    0    0    0  501  0.00000000000E+00  0.00000000000E+00  0.35072174569E+03  0.35072174570E+03  0.25500000920E-02 0.  1.
        2   -1    0    0  501    0  0.00000000000E+00  0.00000000000E+00 -0.10279502467E+04  0.10279502467E+04  0.25500000920E-02 0. -1.
    10030    2    1    2    0    0  0.00000000000E+00  0.00000000000E+00 -0.67722850098E+03  0.13786719924E+04  0.12008738568E+04 0.  0.
        1    1    3    3  502    0 -0.27025885654E+02 -0.87529232290E+02 -0.10198803299E+04  0.10239861583E+04  0.50400001928E-02 0. -1.
       -1    1    3    3    0  502  0.27025885654E+02  0.87529232290E+02  0.34265182893E+03  0.35468583408E+03  0.50400001928E-02 0.  1.
</event>
<event>
 5   0  0.2244308E-04  0.1199538E+04  0.7818609E-02  0.9113261E-01
        1   -1    0    0  501    0  0.00000000000E+00  0.00000000000E+00  0.11371145084E+04  0.11371145084E+04  0.50400001928E-02 0. -1.
       -1   -1    0    0    0  501  0.00000000000E+00  0.00000000000E+00 -0.31634723749E+03  0.31634723753E+03  0.50400001928E-02 0.  1.
    10030    2    1    2    0    0  0.00000000000E+00  0.00000000000E+00  0.82076727093E+03  0.14534617460E+04  0.11995383003E+04 0.  0.
        5    1    3    3  502    0 -0.35720004682E+03  0.31171737891E+03  0.85548815616E+03  0.97808060664E+03  0.46999998093E+01 0. -1.
       -5    1    3    3    0  502  0.35720004682E+03 -0.31171737891E+03 -0.34720885221E+02  0.47538113933E+03  0.46999998093E+01 0.  1.
</event>
<event>
 5   0  0.3883890E-04  0.1197855E+04  0.7818609E-02  0.9114736E-01
        2   -1    0    0  501    0  0.00000000000E+00  0.00000000000E+00  0.46051635064E+03  0.46051635065E+03  0.25500000920E-02 0.  1.
       -2   -1    0    0    0  501  0.00000000000E+00  0.00000000000E+00 -0.77893853110E+03  0.77893853110E+03  0.25500000920E-02 0. -1.
    10030    2    1    2    0    0  0.00000000000E+00  0.00000000000E+00 -0.31842218045E+03  0.12394548817E+04  0.11978546318E+04 0.  0.
        2    1    3    3  502    0  0.49362715199E+02  0.23576330146E+03  0.40818743865E+03  0.47395991080E+03  0.25500000920E-02 0.  1.
       -2    1    3    3    0  502 -0.49362715199E+02 -0.23576330146E+03 -0.72660961910E+03  0.76549497095E+03  0.25500000920E-02 0. -1.
</event>
<event>
 5   0  0.2204090E-04  0.1203763E+04  0.7818609E-02  0.9109569E-01
       -1   -1    0    0    0  501  0.00000000000E+00  0.00000000000E+00  0.54142630118E+03  0.54142630120E+03  0.50400001928E-02 0.  1.
        1   -1    0    0  501    0  0.00000000000E+00  0.00000000000E+00 -0.66908753925E+03  0.66908753927E+03  0.50400001928E-02 0. -1.
    10030    2    1    2    0    0  0.00000000000E+00  0.00000000000E+00 -0.12766123807E+03  0.12105138405E+04  0.12037634179E+04 0.  0.
        2    1    3    3  502    0  0.35550409333E+02  0.42311489162E+03  0.36514278147E+03  0.56001722650E+03  0.25500000920E-02 0.  1.
       -2    1    3    3    0  502 -0.35550409333E+02 -0.42311489162E+03 -0.49280401953E+03  0.65049661397E+03  0.25500000920E-02 0. -1.
</event>
<event>
 5   0  0.3993723E-04  0.1199517E+04  0.7818609E-02  0.9113279E-01
        2   -1    0    0  501    0  0.00000000000E+00  0.00000000000E+00  0.51552339026E+03  0.51552339026E+03  0.25500000920E-02 0.  1.
       -2   -1    0    0    0  501  0.00000000000E+00  0.00000000000E+00 -0.69775730166E+03  0.69775730166E+03  0.25500000920E-02 0. -1.
    10030    2    1    2    0    0  0.00000000000E+00  0.00000000000E+00 -0.18223391140E+03  0.12132806919E+04  0.11995169190E+04 0.  0.
        3    1    3    3  502    0 -0.12982361591E+03 -0.42211572896E+03  0.31934023995E+03  0.54498996224E+03  0.10100000352E+00 0.  1.
       -3    1    3    3    0  502  0.12982361591E+03  0.42211572896E+03 -0.50157415135E+03  0.66829072969E+03  0.10100000352E+00 0. -1.
</event>
<event>
 5   0  0.2315038E-04  0.1200030E+04  0.7818609E-02  0.9112830E-01
       -1   -1    0    0    0  501  0.00000000000E+00  0.00000000000E+00  0.30100357896E+03  0.30100357901E+03  0.50400001928E-02 0.  1.
        1   -1    0    0  501    0  0.00000000000E+00  0.00000000000E+00 -0.11960597279E+04  0.11960597279E+04  0.50400001928E-02 0. -1.
    10030    2    1    2    0    0  0.00000000000E+00  0.00000000000E+00 -0.89505614890E+03  0.14970633069E+04  0.12000304309E+04 0.  0.
        1    1    3    3  502    0  0.96944918148E+02 -0.14176376506E+03 -0.11647420346E+04  0.11773356740E+04  0.50400001928E-02 0. -1.
       -1    1    3    3    0  502 -0.96944918148E+02  0.14176376506E+03  0.26968588568E+03  0.31972763284E+03  0.50400001928E-02 0.  1.
</event>
<event>
 5   0  0.3993723E-04  0.1201521E+04  0.7818609E-02  0.9111526E-01
       -2   -1    0    0    0  501  0.00000000000E+00  0.00000000000E+00  0.35769421799E+03  0.35769421800E+03  0.25500000920E-02 0. -1.
        2   -1    0    0  501    0  0.00000000000E+00  0.00000000000E+00 -0.10089991426E+04  0.10089991426E+04  0.25500000920E-02 0.  1.
    10030    2    1    2    0    0  0.00000000000E+00  0.00000000000E+00 -0.65130492461E+03  0.13666933606E+04  0.12015209682E+04 0.  0.
        3    1    3    3  502    0 -0.35459972220E+03 -0.32501387291E+03 -0.73504375983E+03  0.87844426097E+03  0.10100000352E+00 0.  1.
       -3    1    3    3    0  502  0.35459972220E+03  0.32501387291E+03  0.83738835221E+02  0.48824909963E+03  0.10100000352E+00 0. -1.
</event>
<event>
 5   0  0.2340731E-04  0.1196074E+04  0.7818609E-02  0.9116299E-01
        1   -1    0    0  501    0  0.00000000000E+00  0.00000000000E+00  0.89531876263E+03  0.89531876264E+03  0.50400001928E-02 0.  1.
       -1   -1    0    0    0  501  0.00000000000E+00  0.00000000000E+00 -0.39946503745E+03  0.39946503748E+03  0.50400001928E-02 0. -1.
    10030    2    1    2    0    0  0.00000000000E+00  0.00000000000E+00  0.49585372518E+03  0.12947838001E+04  0.11960744844E+04 0.  0.
        3    1    3    3  502    0  0.16936233819E+03  0.20241823635E+03 -0.33301019937E+03  0.42491475273E+03  0.10100000352E+00 0. -1.
       -3    1    3    3    0  502 -0.16936233819E+03 -0.20241823635E+03  0.82886392454E+03  0.86986904740E+03  0.10100000352E+00 0.  1.
</event>
<event>
 5   0  0.2244308E-04  0.1200058E+04  0.7818609E-02  0.9112806E-01
       -1   -1    0    0    0  501  0.00000000000E+00  0.00000000000E+00  0.27204024786E+03  0.27204024790E+03  0.50400001928E-02 0.  1.
        1   -1    0    0  501    0  0.00000000000E+00  0.00000000000E+00 -0.13234617132E+04  0.13234617132E+04  0.50400001928E-02 0. -1.
    10030    2    1    2    0    0  0.00000000000E+00  0.00000000000E+00 -0.10514214654E+04  0.15955019611E+04  0.12000580862E+04 0.  0.
        5    1    3    3  502    0  0.14477317842E+03  0.11271945301E+03 -0.12852241124E+04  0.12982634777E+04  0.46999998093E+01 0. -1.
       -5    1    3    3    0  502 -0.14477317842E+03 -0.11271945301E+03  0.23380264707E+03  0.29723848346E+03  0.46999998093E+01 0.  1.
</event>
<event>
 5   0  0.2340731E-04  0.1202236E+04  0.7818609E-02  0.9110901E-01
       -1   -1    0    0    0  501  0.00000000000E+00  0.00000000000E+00  0.35974900502E+03  0.35974900506E+03  0.50400001928E-02 0.  1.
        1   -1    0    0  501    0  0.00000000000E+00  0.00000000000E+00 -0.10044309865E+04  0.10044309865E+04  0.50400001928E-02 0. -1.
    10030    2    1    2    0    0  0.00000000000E+00  0.00000000000E+00 -0.64468198148E+03  0.13641799916E+04  0.12022363296E+04 0.  0.
        3    1    3    3  502    0  0.34547197092E+03  0.21573016876E+02  0.23531253940E+03  0.41855498940E+03  0.10100000352E+00 0.  1.
       -3    1    3    3    0  502 -0.34547197092E+03 -0.21573016876E+02 -0.87999452088E+03  0.94562500217E+03  0.10100000352E+00 0. -1.
</event>
<event>
 5   0  0.4122956E-04  0.1225658E+04  0.7818609E-02  0.9090690E-01
        2   -1    0    0  501    0  0.00000000000E+00  0.00000000000E+00  0.82914363972E+03  0.82914363972E+03  0.25500000920E-02 0.  1.
       -2   -1    0    0    0  501  0.00000000000E+00  0.00000000000E+00 -0.45294867444E+03  0.45294867445E+03  0.25500000920E-02 0. -1.
    10030    2    1    2    0    0  0.00000000000E+00  0.00000000000E+00  0.37619496528E+03  0.12820923142E+04  0.12256582110E+04 0.  0.
        5    1    3    3  502    0  0.45043934967E+03 -0.20742073497E+03 -0.18850513600E+03  0.53054240671E+03  0.46999998093E+01 0. -1.
       -5    1    3    3    0  502 -0.45043934967E+03  0.20742073497E+03  0.56470010128E+03  0.75154990746E+03  0.46999998093E+01 0.  1.
</event>
<event>
 5   0  0.4024486E-04  0.1212531E+04  0.7818609E-02  0.9101959E-01
       -2   -1    0    0    0  501  0.00000000000E+00  0.00000000000E+00  0.49599880636E+03  0.49599880636E+03  0.25500000920E-02 0.  1.
        2   -1    0    0  501    0  0.00000000000E+00  0.00000000000E+00 -0.74104545006E+03  0.74104545007E+03  0.25500000920E-02 0. -1.
    10030    2    1    2    0    0  0.00000000000E+00  0.00000000000E+00 -0.24504664370E+03  0.12370442564E+04  0.12125306737E+04 0.  0.
        1    1    3    3  502    0 -0.14280937901E+03 -0.31948771698E+03 -0.62759841621E+03  0.71857267697E+03  0.50400001928E-02 0. -1.
       -1    1    3    3    0  502  0.14280937901E+03  0.31948771698E+03  0.38255177251E+03  0.51847157946E+03  0.50400001928E-02 0.  1.
</event>
<event>
 5   0  0.4024486E-04  0.1199516E+04  0.7818609E-02  0.9113280E-01
        2   -1    0    0  501    0  0.00000000000E+00  0.00000000000E+00  0.13586038092E+04  0.13586038092E+04  0.25500000920E-02 0.  1.
       -2   -1    0    0    0  501  0.00000000000E+00  0.00000000000E+00 -0.26476413608E+03  0.26476413609E+03  0.25500000920E-02 0. -1.
    10030    2    1    2    0    0  0.00000000000E+00  0.00000000000E+00  0.10938396731E+04  0.16233679453E+04  0.11995158421E+04 0.  0.
        1    1    3    3  502    0 -0.41788782039E+03 -0.20365221147E+03  0.10597764088E+04  0.11572512650E+04  0.50400001928E-02 0.  1.
       -1    1    3    3    0  502  0.41788782039E+03  0.20365221147E+03  0.34063264348E+02  0.46611668032E+03  0.50400001928E-02 0. -1.
</event>
<event>
 5   0  0.2204090E-04  0.1202267E+04  0.7818609E-02  0.9110874E-01
       -1   -1    0    0    0  501  0.00000000000E+00  0.00000000000E+00  0.18577249528E+03  0.18577249535E+03  0.50400001928E-02 0.  1.
        1   -1    0    0  501    0  0.00000000000E+00  0.00000000000E+00 -0.19451843644E+04  0.19451843644E+04  0.50400001928E-02 0. -1.
    10030    2    1    2    0    0  0.00000000000E+00  0.00000000000E+00 -0.17594118691E+04  0.21309568597E+04  0.12022674465E+04 0.  0.
        2    1    3    3  502    0 -0.56997875666E+03  0.59664695859E+02 -0.55808546750E+03  0.79993440232E+03  0.25500000920E-02 0.  1.
       -2    1    3    3    0  502  0.56997875666E+03 -0.59664695859E+02 -0.12013264016E+04  0.13310224574E+04  0.25500000920E-02 0. -1.
</event>
<event>
 5   0  0.4122956E-04  0.1199901E+04  0.7818609E-02  0.9112943E-01
        2   -1    0    0  501    0  0.00000000000E+00  0.00000000000E+00  0.13110303848E+04  0.13110303848E+04  0.25500000920E-02 0.  1.
       -2   -1    0    0    0  501  0.00000000000E+00  0.00000000000E+00 -0.27454773453E+03  0.27454773454E+03  0.25500000920E-02 0. -1.
    10030    2    1    2    0    0  0.00000000000E+00  0.00000000000E+00  0.10364826503E+04  0.15855781194E+04  0.11999006993E+04 0.  0.
        5    1    3    3  502    0 -0.21076384366E+03  0.19936508975E+03  0.12121470781E+04  0.12463909763E+04  0.46999998093E+01 0.  1.
       -5    1    3    3    0  502  0.21076384366E+03 -0.19936508975E+03 -0.17566442785E+03  0.33918714305E+03  0.46999998093E+01 0. -1.
</event>
<event>
 5   0  0.3883890E-04  0.1198034E+04  0.7818609E-02  0.9114579E-01
        2   -1    0    0  501    0  0.00000000000E+00  0.00000000000E+00  0.12997974817E+04  0.12997974817E+04  0.25500000920E-02 0. -1.
       -2   -1    0    0    0  501  0.00000000000E+00  0.00000000000E+00 -0.27605954900E+03  0.27605954901E+03  0.25500000920E-02 0.  1.
    10030    2    1    2    0    0  0.00000000000E+00  0.00000000000E+00  0.10237379327E+04  0.15758570307E+04  0.11980342342E+04 0.  0.
        2    1    3    3  502    0  0.22888706912E+03  0.34577932545E+02  0.12385868984E+04  0.12600327094E+04  0.25500000920E-02 0. -1.
       -2    1    3    3    0  502 -0.22888706912E+03 -0.34577932545E+02 -0.21484896574E+03  0.31582432129E+03  0.25500000920E-02 0.  1.
</event>
<event>
 5   0  0.2244308E-04  0.1200832E+04  0.7818609E-02  0.9112128E-01
        1   -1    0    0  501    0  0.00000000000E+00  0.00000000000E+00  0.15256159795E+04  0.15256159796E+04  0.50400001928E-02 0. -1.
       -1   -1    0    0    0  501  0.00000000000E+00  0.00000000000E+00 -0.23629773599E+03  0.23629773604E+03  0.50400001928E-02 0.  1.
    10030    2    1    2    0    0  0.00000000000E+00  0.00000000000E+00  0.12893182436E+04  0.17619137156E+04  0.12008323813E+04 0.  0.
        5    1    3    3  502    0  0.22669829557E+03 -0.13527899450E+03 -0.14654444643E+03  0.30197663542E+03  0.46999998093E+01 0.  1.
       -5    1    3    3    0  502 -0.22669829557E+03  0.13527899450E+03  0.14358626900E+04  0.14599370802E+04  0.46999998093E+01 0. -1.
</event>
<event>
 5   0  0.2304842E-04  0.1193750E+04  0.7818609E-02  0.9118345E-01
       -1   -1    0    0    0  501  0.00000000000E+00  0.00000000000E+00  0.19606672222E+03  0.19606672228E+03  0.50400001928E-02 0.  1.
        1   -1    0    0  501    0  0.00000000000E+00  0.00000000000E+00 -0.18170335559E+04  0.18170335559E+04  0.50400001928E-02 0. -1.
    10030    2    1    2    0    0  0.00000000000E+00  0.00000000000E+00 -0.16209668337E+04  0.20131002782E+04  0.11937500803E+04 0.  0.
        4    1    3    3  502    0  0.47826552978E+03  0.35437240051E+03 -0.88476945327E+03  0.10663659379E+04  0.12699999809E+01 0. -1.
       -4    1    3    3    0  502 -0.47826552978E+03 -0.35437240051E+03 -0.73619738042E+03  0.94673434027E+03  0.12699999809E+01 0.  1.
</event>
<event>
 5   0  0.2340731E-04  0.1199159E+04  0.7818609E-02  0.9113593E-01
        1   -1    0    0  501    0  0.00000000000E+00  0.00000000000E+00  0.36276502959E+03  0.36276502963E+03  0.50400001928E-02 0.  1.
       -1   -1    0    0    0  501  0.00000000000E+00  0.00000000000E+00 -0.99098748663E+03  0.99098748664E+03  0.50400001928E-02 0. -1.
    10030    2    1    2    0    0  0.00000000000E+00  0.00000000000E+00 -0.62822245704E+03  0.13537525163E+04  0.11991590469E+04 0.  0.
        3    1    3    3  502    0 -0.53729309415E+03 -0.25019766954E+03 -0.21180325470E+03  0.62939921495E+03  0.10100000352E+00 0.  1.
       -3    1    3    3    0  502  0.53729309415E+03  0.25019766954E+03 -0.41641920233E+03  0.72435330133E+03  0.10100000352E+00 0. -1.
</event>
<event>
 5   0  0.2340731E-04  0.1199834E+04  0.7818609E-02  0.9113002E-01
       -1   -1    0    0    0  501  0.00000000000E+00  0.00000000000E+00  0.29297685643E+03  0.29297685647E+03  0.50400001928E-02 0.  1.
        1   -1    0    0  501    0  0.00000000000E+00  0.00000000000E+00 -0.12284255527E+04  0.12284255528E+04  0.50400001928E-02 0. -1.
    10030    2    1    2    0    0  0.00000000000E+00  0.00000000000E+00 -0.93544869632E+03  0.15214024092E+04  0.11998337499E+04 0.  0.
        3    1    3    3  502    0  0.20711894956E+03 -0.36579251288E+02  0.24469468901E+03  0.32266360490E+03  0.10100000352E+00 0.  1.
       -3    1    3    3    0  502 -0.20711894956E+03  0.36579251288E+02 -0.11801433853E+04  0.11987388043E+04  0.10100000352E+00 0. -1.
</event>
<event>
 5   0  0.3883890E-04  0.1198888E+04  0.7818609E-02  0.9113830E-01
       -2   -1    0    0    0  501  0.00000000000E+00  0.00000000000E+00  0.27125844304E+03  0.27125844306E+03  0.25500000920E-02 0. -1.
        2   -1    0    0  501    0  0.00000000000E+00  0.00000000000E+00 -0.13246900920E+04  0.13246900920E+04  0.25500000920E-02 0.  1.
    10030    2    1    2    0    0  0.00000000000E+00  0.00000000000E+00 -0.10534316490E+04  0.15959485351E+04  0.11988884383E+04 0.  0.
        2    1    3    3  502    0 -0.46561292243E+03  0.24679181156E+03 -0.90705384682E+03  0.10490225321E+04  0.25500000920E-02 0.  1.
       -2    1    3    3    0  502  0.46561292243E+03 -0.24679181156E+03 -0.14637780217E+03  0.54692600300E+03  0.25500000920E-02 0. -1.
</event>
<event>
 5   0  0.3883890E-04  0.1199562E+04  0.7818609E-02  0.9113240E-01
       -2   -1    0    0    0  501  0.00000000000E+00  0.00000000000E+00  0.35016215957E+03  0.35016215958E+03  0.25500000920E-02 0. -1.
        2   -1    0    0  501    0  0.00000000000E+00  0.00000000000E+00 -0.10273445154E+04  0.10273445154E+04  0.25500000920E-02 0.  1.
    10030    2    1    2    0    0  0.00000000000E+00  0.00000000000E+00 -0.67718235580E+03  0.13775066750E+04  0.11995618769E+04 0.  0.
        2    1    3    3  502    0  0.42850177630E+03 -0.41951311307E+03 -0.35179210115E+03  0.69524291206E+03  0.25500000920E-02 0.  1.
       -2    1    3    3    0  502 -0.42850177630E+03  0.41951311307E+03 -0.32539025465E+03  0.68226376289E+03  0.25500000920E-02 0. -1.
</event>
<event>
 5   0  0.2304842E-04  0.1200033E+04  0.7818609E-02  0.9112828E-01
       -1   -1    0    0    0  501  0.00000000000E+00  0.00000000000E+00  0.42665038879E+03  0.42665038882E+03  0.50400001928E-02 0. -1.
        1   -1    0    0  501    0  0.00000000000E+00  0.00000000000E+00 -0.84382856732E+03  0.84382856733E+03  0.50400001928E-02 0.  1.
    10030    2    1    2    0    0  0.00000000000E+00  0.00000000000E+00 -0.41717817852E+03  0.12704789562E+04  0.12000329768E+04 0.  0.
        4    1    3    3  502    0 -0.38251660375E+03 -0.12682776077E+03  0.26204467846E+03  0.48070080035E+03  0.12699999809E+01 0. -1.
       -4    1    3    3    0  502  0.38251660375E+03  0.12682776077E+03 -0.67922285698E+03  0.78977815581E+03  0.12699999809E+01 0.  1.
</event>
<event>
 5   0  0.2315038E-04  0.1193382E+04  0.7818609E-02  0.9118669E-01
       -1   -1    0    0    0  501  0.00000000000E+00  0.00000000000E+00  0.27253512558E+03  0.27253512562E+03  0.50400001928E-02 0.  1.
        1   -1    0    0  501    0  0.00000000000E+00  0.00000000000E+00 -0.13064001979E+04  0.13064001979E+04  0.50400001928E-02 0. -1.
    10030    2    1    2    0    0  0.00000000000E+00  0.00000000000E+00 -0.10338650723E+04  0.15789353235E+04  0.11933816523E+04 0.  0.
        1    1    3    3  502    0 -0.28786150187E+03 -0.36318864957E+03 -0.19642795429E+02  0.46384919842E+03  0.50400001928E-02 0.  1.
       -1    1    3    3    0  502  0.28786150187E+03  0.36318864957E+03 -0.10142222769E+04  0.11150861251E+04  0.50400001928E-02 0. -1.
</event>
<event>
 5   0  0.2304842E-04  0.1199357E+04  0.7818609E-02  0.9113420E-01
       -1   -1    0    0    0  501  0.00000000000E+00  0.00000000000E+00  0.39665141252E+03  0.39665141256E+03  0.50400001928E-02 0.  1.
        1   -1    0    0  501    0  0.00000000000E+00  0.00000000000E+00 -0.90662507195E+03  0.90662507197E+03  0.50400001928E-02 0. -1.
    10030    2    1    2    0    0  0.00000000000E+00  0.00000000000E+00 -0.50997365943E+03  0.13032764845E+04  0.11993566866E+04 0.  0.
        4    1    3    3  502    0  0.36594494295E+03  0.45569905684E+03 -0.40091808867E+03  0.70874131980E+03  0.12699999809E+01 0.  1.
       -4    1    3    3    0  502 -0.36594494295E+03 -0.45569905684E+03 -0.10905557076E+03  0.59453516472E+03  0.12699999809E+01 0. -1.
</event>
<event>
 5   0  0.1541375E-04  0.1189276E+04  0.7818609E-02  0.9122295E-01
        3   -1    0    0  501    0  0.00000000000E+00  0.00000000000E+00  0.39066508760E+03  0.39066510066E+03  0.10100000352E+00 0.  1.
       -3   -1    0    0    0  501  0.00000000000E+00  0.00000000000E+00 -0.90510840312E+03  0.90510840875E+03  0.10100000352E+00 0. -1.
    10030    2    1    2    0    0  0.00000000000E+00  0.00000000000E+00 -0.51444331552E+03  0.12957735094E+04  0.11892758565E+04 0.  0.
        4    1    3    3  502    0  0.18187512442E+03 -0.55281703136E+03 -0.12419221739E+03  0.59507188709E+03  0.12699999809E+01 0.  1.
       -4    1    3    3    0  502 -0.18187512442E+03  0.55281703136E+03 -0.39025109813E+03  0.70070162233E+03  0.12699999809E+01 0. -1.
</event>
<event>
 5   0  0.2244308E-04  0.1202144E+04  0.7818609E-02  0.9110982E-01
        1   -1    0    0  501    0  0.00000000000E+00  0.00000000000E+00  0.68079184490E+03  0.68079184492E+03  0.50400001928E-02 0. -1.
       -1   -1    0    0    0  501  0.00000000000E+00  0.00000000000E+00 -0.53068699944E+03  0.53068699946E+03  0.50400001928E-02 0.  1.
    10030    2    1    2    0    0  0.00000000000E+00  0.00000000000E+00  0.15010484546E+03  0.12114788444E+04  0.12021437209E+04 0.  0.
        5    1    3    3  502    0  0.78158649256E+02  0.86311630087E+02 -0.51919327546E+03  0.53211109669E+03  0.46999998093E+01 0.  1.
       -5    1    3    3    0  502 -0.78158649256E+02 -0.86311630087E+02  0.66929812092E+03  0.67936774770E+03  0.46999998093E+01 0. -1.
</event>
<event>
 5   0  0.3832662E-04  0.1198203E+04  0.7818609E-02  0.9114431E-01
       -2   -1    0    0    0  501  0.00000000000E+00  0.00000000000E+00  0.11590383744E+04  0.11590383744E+04  0.25500000920E-02 0. -1.
        2   -1    0    0  501    0  0.00000000000E+00  0.00000000000E+00 -0.30967262976E+03  0.30967262977E+03  0.25500000920E-02 0.  1.
    10030    2    1    2    0    0  0.00000000000E+00  0.00000000000E+00  0.84936574466E+03  0.14687110042E+04  0.11982027565E+04 0.  0.
        4    1    3    3  502    0  0.26480869791E+03  0.62353423566E+02 -0.22959059860E+03  0.35598462296E+03  0.12699999809E+01 0.  1.
       -4    1    3    3    0  502 -0.26480869791E+03 -0.62353423566E+02  0.10789563433E+04  0.11127263812E+04  0.12699999809E+01 0. -1.
</event>
<event>
 5   0  0.3993723E-04  0.1201221E+04  0.7818609E-02  0.9111788E-01
       -2   -1    0    0    0  501  0.00000000000E+00  0.00000000000E+00  0.61391154261E+03  0.61391154262E+03  0.25500000920E-02 0.  1.
        2   -1    0    0  501    0  0.00000000000E+00  0.00000000000E+00 -0.58759802463E+03  0.58759802464E+03  0.25500000920E-02 0. -1.
    10030    2    1    2    0    0  0.00000000000E+00  0.00000000000E+00  0.26313517983E+02  0.12015095673E+04  0.12012213947E+04 0.  0.
        3    1    3    3  502    0 -0.18073621437E+03  0.13634108127E+03 -0.54328482412E+03  0.58856850063E+03  0.10100000352E+00 0. -1.
       -3    1    3    3    0  502  0.18073621437E+03 -0.13634108127E+03  0.56959834210E+03  0.61294106662E+03  0.10100000352E+00 0.  1.
</event>
<event>
 5   0  0.4024486E-04  0.1208357E+04  0.7818609E-02  0.9105573E-01
        2   -1    0    0  501    0  0.00000000000E+00  0.00000000000E+00  0.88275463206E+03  0.88275463207E+03  0.25500000920E-02 0. -1.
       -2   -1    0    0    0  501  0.00000000000E+00  0.00000000000E+00 -0.41351429656E+03  0.41351429657E+03  0.25500000920E-02 0.  1.
    10030    2    1    2    0    0  0.00000000000E+00  0.00000000000E+00  0.46924033550E+03  0.12962689286E+04  0.12083570014E+04 0.  0.
        1    1    3    3  502    0 -0.29281778906E+03 -0.39159915841E+03  0.61531837758E+03  0.78594456819E+03  0.50400001928E-02 0. -1.
       -1    1    3    3    0  502  0.29281778906E+03  0.39159915841E+03 -0.14607804207E+03  0.51032436044E+03  0.50400001928E-02 0.  1.
</event>
<event>
 5   0  0.3993723E-04  0.1200696E+04  0.7818609E-02  0.9112247E-01
       -2   -1    0    0    0  501  0.00000000000E+00  0.00000000000E+00  0.28815336710E+03  0.28815336711E+03  0.25500000920E-02 0.  1.
        2   -1    0    0  501    0  0.00000000000E+00  0.00000000000E+00 -0.12507849585E+04  0.12507849585E+04  0.25500000920E-02 0. -1.
    10030    2    1    2    0    0  0.00000000000E+00  0.00000000000E+00 -0.96263159138E+03  0.15389383256E+04  0.12006962935E+04 0.  0.
        3    1    3    3  502    0  0.13336180114E+03  0.40959138370E+03 -0.10172882758E+04  0.11047288889E+04  0.10100000352E+00 0. -1.
       -3    1    3    3    0  502 -0.13336180114E+03 -0.40959138370E+03  0.54656684406E+02  0.43420943674E+03  0.10100000352E+00 0.  1.
</event>
<event>
 5   0  0.4122956E-04  0.1200769E+04  0.7818609E-02  0.9112184E-01
        2   -1    0    0  501    0  0.00000000000E+00  0.00000000000E+00  0.43432794790E+03  0.43432794791E+03  0.25500000920E-02 0. -1.
       -2   -1    0    0    0  501  0.00000000000E+00  0.00000000000E+00 -0.82992930091E+03  0.82992930091E+03  0.25500000920E-02 0.  1.
    10030    2    1    2    0    0  0.00000000000E+00  0.00000000000E+00 -0.39560135301E+03  0.12642572488E+04  0.12007689040E+04 0.  0.
        5    1    3    3  502    0 -0.46607857205E+02  0.28743389640E+03 -0.75058296893E+03  0.80510087591E+03  0.46999998093E+01 0.  1.
       -5    1    3    3    0  502  0.46607857205E+02 -0.28743389640E+03  0.35498161592E+03  0.45915637292E+03  0.46999998093E+01 0. -1.
</event>
<event>
 5   0  0.4122956E-04  0.1199980E+04  0.7818609E-02  0.9112874E-01
        2   -1    0    0  501    0  0.00000000000E+00  0.00000000000E+00  0.55795269091E+03  0.55795269092E+03  0.25500000920E-02 0. -1.
       -2   -1    0    0    0  501  0.00000000000E+00  0.00000000000E+00 -0.64519396906E+03  0.64519396907E+03  0.25500000920E-02 0.  1.
    10030    2    1    2    0    0  0.00000000000E+00  0.00000000000E+00 -0.87241278149E+02  0.12031466600E+04  0.11999795185E+04 0.  0.
        5    1    3    3  502    0  0.47917356091E+03  0.22654104704E+02  0.31767068919E+03  0.57537576131E+03  0.46999998093E+01 0. -1.
       -5    1    3    3    0  502 -0.47917356091E+03 -0.22654104704E+02 -0.40491196734E+03  0.62777089867E+03  0.46999998093E+01 0.  1.
</event>
<event>
 5   0  0.2315038E-04  0.1201107E+04  0.7818609E-02  0.9111888E-01
        1   -1    0    0  501    0  0.00000000000E+00  0.00000000000E+00  0.64831252298E+03  0.64831252300E+03  0.50400001928E-02 0. -1.
       -1   -1    0    0    0  501  0.00000000000E+00  0.00000000000E+00 -0.55631233843E+03  0.55631233845E+03  0.50400001928E-02 0.  1.
    10030    2    1    2    0    0  0.00000000000E+00  0.00000000000E+00  0.92000184553E+02  0.12046248615E+04  0.12011065826E+04 0.  0.
        1    1    3    3  502    0 -0.40012558423E+03 -0.44115594711E+03 -0.31330905563E+02  0.59640647087E+03  0.50400001928E-02 0.  1.
       -1    1    3    3    0  502  0.40012558423E+03  0.44115594711E+03  0.12333109012E+03  0.60821839058E+03  0.50400001928E-02 0. -1.
</event>
<event>
 5   0  0.3832662E-04  0.1200044E+04  0.7818609E-02  0.9112818E-01
       -2   -1    0    0    0  501  0.00000000000E+00  0.00000000000E+00  0.31607329908E+03  0.31607329909E+03  0.25500000920E-02 0. -1.
        2   -1    0    0  501    0  0.00000000000E+00  0.00000000000E+00 -0.11390600532E+04  0.11390600532E+04  0.25500000920E-02 0.  1.
    10030    2    1    2    0    0  0.00000000000E+00  0.00000000000E+00 -0.82298675412E+03  0.14551333523E+04  0.12000441140E+04 0.  0.
        4    1    3    3  502    0 -0.36206765639E+03 -0.40399369344E+03 -0.10063859990E+03  0.55175504786E+03  0.12699999809E+01 0. -1.
       -4    1    3    3    0  502  0.36206765639E+03  0.40399369344E+03 -0.72234815421E+03  0.90337830444E+03  0.12699999809E+01 0.  1.
</event>
<event>
 5   0  0.2340731E-04  0.1201392E+04  0.7818609E-02  0.9111639E-01
       -1   -1    0    0    0  501  0.00000000000E+00  0.00000000000E+00  0.67210307436E+03  0.67210307438E+03  0.50400001928E-02 0. -1.
        1   -1    0    0  501    0  0.00000000000E+00  0.00000000000E+00 -0.53687577721E+03  0.53687577724E+03  0.50400001928E-02 0.  1.
    10030    2    1    2    0    0  0.00000000000E+00  0.00000000000E+00  0.13522729715E+03  0.12089788516E+04  0.12013922930E+04 0.  0.
        3    1    3    3  502    0 -0.31885628606E+03  0.50726694687E+03  0.11085900952E+03  0.60932652719E+03  0.10100000352E+00 0.  1.
       -3    1    3    3    0  502  0.31885628606E+03 -0.50726694687E+03  0.24368287635E+02  0.59965232443E+03  0.10100000352E+00 0. -1.
</event>
<event>
 5   0  0.2204090E-04  0.1199659E+04  0.7818609E-02  0.9113155E-01
       -1   -1    0    0    0  501  0.00000000000E+00  0.00000000000E+00  0.11055760004E+04  0.11055760004E+04  0.50400001928E-02 0.  1.
        1   -1    0    0  501    0  0.00000000000E+00  0.00000000000E+00 -0.32543700902E+03  0.32543700906E+03  0.50400001928E-02 0. -1.
    10030    2    1    2    0    0  0.00000000000E+00  0.00000000000E+00  0.78013899139E+03  0.14310130095E+04  0.11996588629E+04 0.  0.
        2    1    3    3  502    0  0.59582161089E+03 -0.40281778242E+02  0.45722316761E+03  0.75211637309E+03  0.25500000920E-02 0.  1.
       -2    1    3    3    0  502 -0.59582161089E+03  0.40281778242E+02  0.32291582378E+03  0.67889663640E+03  0.25500000920E-02 0. -1.
</event>
<event>
 5   0  0.2304842E-04  0.1200882E+04  0.7818609E-02  0.9112085E-01
        1   -1    0    0  501    0  0.00000000000E+00  0.00000000000E+00  0.44413455499E+03  0.44413455502E+03  0.50400001928E-02 0. -1.
       -1   -1    0    0    0  501  0.00000000000E+00  0.00000000000E+00 -0.81175678265E+03  0.81175678266E+03  0.50400001928E-02 0.  1.
    10030    2    1    2    0    0  0.00000000000E+00  0.00000000000E+00 -0.36762222766E+03  0.12558913377E+04  0.12008817385E+04 0.  0.
        4    1    3    3  502    0  0.13104053879E+03 -0.53846327987E+03  0.57888814327E+02  0.55719570557E+03  0.12699999809E+01 0. -1.
       -4    1    3    3    0  502 -0.13104053879E+03  0.53846327987E+03 -0.42551104199E+03  0.69869563211E+03  0.12699999809E+01 0.  1.
</event>
<event>
 5   0  0.3832662E-04  0.1199497E+04  0.7818609E-02  0.9113297E-01
        2   -1    0    0  501    0  0.00000000000E+00  0.00000000000E+00  0.78848503583E+03  0.78848503584E+03  0.25500000920E-02 0. -1.
       -2   -1    0    0    0  501  0.00000000000E+00  0.00000000000E+00 -0.45618923574E+03  0.45618923575E+03  0.25500000920E-02 0.  1.
    10030    2    1    2    0    0  0.00000000000E+00  0.00000000000E+00  0.33229580009E+03  0.12446742716E+04  0.11994972045E+04 0.  0.
        4    1    3    3  502    0  0.25730375352E+03 -0.54041129520E+03  0.12667325210E+03  0.61179842698E+03  0.12699999809E+01 0. -1.
       -4    1    3    3    0  502 -0.25730375352E+03  0.54041129520E+03  0.20562254798E+03  0.63287584461E+03  0.12699999809E+01 0.  1.
</event>
<event>
 5   0  0.2244308E-04  0.1200818E+04  0.7818609E-02  0.9112141E-01
        1   -1    0    0  501    0  0.00000000000E+00  0.00000000000E+00  0.16276911100E+04  0.16276911100E+04  0.50400001928E-02 0. -1.
       -1   -1    0    0    0  501  0.00000000000E+00  0.00000000000E+00 -0.22147391387E+03  0.22147391392E+03  0.50400001928E-02 0.  1.
    10030    2    1    2    0    0  0.00000000000E+00  0.00000000000E+00  0.14062171962E+04  0.18491650240E+04  0.12008182556E+04 0.  0.
        5    1    3    3  502    0 -0.17133526752E+03  0.49862433004E+03  0.11453824192E+04  0.12609143399E+04  0.46999998093E+01 0. -1.
       -5    1    3    3    0  502  0.17133526752E+03 -0.49862433004E+03  0.26083477696E+03  0.58825068404E+03  0.46999998093E+01 0.  1.
</event>
<event>
 5   0  0.2340731E-04  0.1201809E+04  0.7818609E-02  0.9111274E-01
        1   -1    0    0  501    0  0.00000000000E+00  0.00000000000E+00  0.60600339926E+03  0.60600339928E+03  0.50400001928E-02 0. -1.
       -1   -1    0    0    0  501  0.00000000000E+00  0.00000000000E+00 -0.59584882110E+03  0.59584882112E+03  0.50400001928E-02 0.  1.
    10030    2    1    2    0    0  0.00000000000E+00  0.00000000000E+00  0.10154578163E+02  0.12018522204E+04  0.12018093211E+04 0.  0.
        3    1    3    3  502    0  0.52052469181E+02  0.55467386171E+03  0.23028268206E+03  0.60282889469E+03  0.10100000352E+00 0. -1.
       -3    1    3    3    0  502 -0.52052469181E+02 -0.55467386171E+03 -0.22012810389E+03  0.59902332571E+03  0.10100000352E+00 0.  1.
</event>
<event>
 5   0  0.2244308E-04  0.1200070E+04  0.7818609E-02  0.9112796E-01
       -1   -1    0    0    0  501  0.00000000000E+00  0.00000000000E+00  0.29768060433E+03  0.29768060437E+03  0.50400001928E-02 0. -1.
        1   -1    0    0  501    0  0.00000000000E+00  0.00000000000E+00 -0.12094900374E+04  0.12094900375E+04  0.50400001928E-02 0.  1.
    10030    2    1    2    0    0  0.00000000000E+00  0.00000000000E+00 -0.91180943311E+03  0.15071706418E+04  0.12000695402E+04 0.  0.
        5    1    3    3  502    0  0.44624269214E+02  0.33944562123E+03 -0.10747538801E+04  0.11279772374E+04  0.46999998093E+01 0.  1.
       -5    1    3    3    0  502 -0.44624269214E+02 -0.33944562123E+03  0.16294444701E+03  0.37919340446E+03  0.46999998093E+01 0. -1.
</event>
<event>
 5   0  0.4122956E-04  0.1215147E+04  0.7818609E-02  0.9099701E-01
        2   -1    0    0  501    0  0.00000000000E+00  0.00000000000E+00  0.12884280061E+04  0.12884280061E+04  0.25500000920E-02 0. -1.
       -2   -1    0    0    0  501  0.00000000000E+00  0.00000000000E+00 -0.28650851069E+03  0.28650851071E+03  0.25500000920E-02 0.  1.
    10030    2    1    2    0    0  0.00000000000E+00  0.00000000000E+00  0.10019194954E+04  0.15749365168E+04  0.12151470515E+04 0.  0.
        5    1    3    3  502    0  0.18232462171E+03  0.33658041900E+03  0.11124531484E+04  0.11764789601E+04  0.46999998093E+01 0. -1.
       -5    1    3    3    0  502 -0.18232462171E+03 -0.33658041900E+03 -0.11053365293E+03  0.39845755679E+03  0.46999998093E+01 0.  1.
</event>
<event>
 5   0  0.4024486E-04  0.1167873E+04  0.7818609E-02  0.9141452E-01
       -2   -1    0    0    0  501  0.00000000000E+00  0.00000000000E+00  0.14133123125E+03  0.14133123128E+03  0.25500000920E-02 0. -1.
        2   -1    0    0  501    0  0.00000000000E+00  0.00000000000E+00 -0.24126411891E+04  0.24126411891E+04  0.25500000920E-02 0.  1.
    10030    2    1    2    0    0  0.00000000000E+00  0.00000000000E+00 -0.22713099578E+04  0.25539724203E+04  0.11678725099E+04 0.  0.
        1    1    3    3  502    0 -0.52174165396E+03  0.37758619112E+02 -0.56815989265E+03  0.77229899031E+03  0.50400001928E-02 0. -1.
       -1    1    3    3    0  502  0.52174165396E+03 -0.37758619112E+02 -0.17031500652E+04  0.17816734300E+04  0.50400001928E-02 0.  1.
</event>
<event>
 5   0  0.2204090E-04  0.1197808E+04  0.7818609E-02  0.9114777E-01
       -1   -1    0    0    0  501  0.00000000000E+00  0.00000000000E+00  0.63308646381E+03  0.63308646383E+03  0.50400001928E-02 0. -1.
        1   -1    0    0  501    0  0.00000000000E+00  0.00000000000E+00 -0.56656761910E+03  0.56656761912E+03  0.50400001928E-02 0.  1.
    10030    2    1    2    0    0  0.00000000000E+00  0.00000000000E+00  0.66518844713E+02  0.11996540829E+04  0.11978084830E+04 0.  0.
        2    1    3    3  502    0  0.48583215964E+03 -0.21010881564E+02 -0.31686748018E+03  0.58041308091E+03  0.25500000920E-02 0.  1.
       -2    1    3    3    0  502 -0.48583215964E+03  0.21010881564E+02  0.38338632490E+03  0.61924100204E+03  0.25500000920E-02 0. -1.
</event>
<event>
 5   0  0.4122956E-04  0.1200844E+04  0.7818609E-02  0.9112118E-01
       -2   -1    0    0    0  501  0.00000000000E+00  0.00000000000E+00  0.19705819383E+03  0.19705819385E+03  0.25500000920E-02 0. -1.
        2   -1    0    0  501    0  0.00000000000E+00  0.00000000000E+00 -0.18294426295E+04  0.18294426295E+04  0.25500000920E-02 0.  1.
    10030    2    1    2    0    0  0.00000000000E+00  0.00000000000E+00 -0.16323844357E+04  0.20265008234E+04  0.12008441369E+04 0.  0.
        5    1    3    3  502    0 -0.52114748311E+03  0.28160300169E+03 -0.98144959482E+03  0.11463683295E+04  0.46999998093E+01 0. -1.
       -5    1    3    3    0  502  0.52114748311E+03 -0.28160300169E+03 -0.65093484087E+03  0.88013249387E+03  0.46999998093E+01 0.  1.
</event>
<event>
 5   0  0.4024486E-04  0.1201400E+04  0.7818609E-02  0.9111632E-01
       -2   -1    0    0    0  501  0.00000000000E+00  0.00000000000E+00  0.26031992796E+03  0.26031992798E+03  0.25500000920E-02 0. -1.
        2   -1    0    0  501    0  0.00000000000E+00  0.00000000000E+00 -0.13861421321E+04  0.13861421321E+04  0.25500000920E-02 0.  1.
    10030    2    1    2    0    0  0.00000000000E+00  0.00000000000E+00 -0.11258222041E+04  0.16464620601E+04  0.12013998834E+04 0.  0.
        1    1    3    3  502    0 -0.31235796766E+02  0.59306956508E+03 -0.43931754613E+03  0.73871989982E+03  0.50400001928E-02 0. -1.
       -1    1    3    3    0  502  0.31235796766E+02 -0.59306956508E+03 -0.68650465802E+03  0.90774216027E+03  0.50400001928E-02 0.  1.
</event>
<event>
 5   0  0.1541375E-04  0.1200168E+04  0.7818609E-02  0.9112710E-01
       -3   -1    0    0    0  501  0.00000000000E+00  0.00000000000E+00  0.14556677696E+04  0.14556677731E+04  0.10100000352E+00 0.  1.
        3   -1    0    0  501    0  0.00000000000E+00  0.00000000000E+00 -0.24737824554E+03  0.24737826616E+03  0.10100000352E+00 0. -1.
    10030    2    1    2    0    0  0.00000000000E+00  0.00000000000E+00  0.12082895241E+04  0.17030460393E+04  0.12001675874E+04 0.  0.
        4    1    3    3  502    0  0.29700875788E+03  0.42799768284E+03  0.18152190400E+03  0.55167747218E+03  0.12699999809E+01 0. -1.
       -4    1    3    3    0  502 -0.29700875788E+03 -0.42799768284E+03  0.10267676201E+04  0.11513685671E+04  0.12699999809E+01 0.  1.
</event>
<event>
 5   0  0.4024486E-04  0.1203303E+04  0.7818609E-02  0.9109970E-01
        2   -1    0    0  501    0  0.00000000000E+00  0.00000000000E+00  0.16316249377E+04  0.16316249377E+04  0.25500000920E-02 0.  1.
       -2   -1    0    0    0  501  0.00000000000E+00  0.00000000000E+00 -0.22185516442E+03  0.22185516443E+03  0.25500000920E-02 0. -1.
    10030    2    1    2    0    0  0.00000000000E+00  0.00000000000E+00  0.14097697733E+04  0.18534801022E+04  0.12033028195E+04 0.  0.
        1    1    3    3  502    0 -0.38666017450E+02  0.27435386017E+02 -0.21897336318E+03  0.22404708237E+03  0.50400001928E-02 0. -1.
       -1    1    3    3    0  502  0.38666017450E+02 -0.27435386017E+02  0.16287431365E+04  0.16294330198E+04  0.50400001928E-02 0.  1.
</event>
<event>
 5   0  0.3993723E-04  0.1207366E+04  0.7818609E-02  0.9106434E-01
        2   -1    0    0  501    0  0.00000000000E+00  0.00000000000E+00  0.39018134375E+03  0.39018134376E+03  0.25500000920E-02 0. -1.
       -2   -1    0    0    0  501  0.00000000000E+00  0.00000000000E+00 -0.93400908622E+03  0.93400908623E+03  0.25500000920E-02 0.  1.
    10030    2    1    2    0    0  0.00000000000E+00  0.00000000000E+00 -0.54382774248E+03  0.13241904300E+04  0.12073655956E+04 0.  0.
        3    1    3    3  502    0  0.55694610223E+03 -0.17920168517E+03 -0.10875553168E+03  0.59508821248E+03  0.10100000352E+00 0.  1.
       -3    1    3    3    0  502 -0.55694610223E+03  0.17920168517E+03 -0.43507221079E+03  0.72910221750E+03  0.10100000352E+00 0. -1.
</event>
<event>
 5   0  0.2304842E-04  0.1195879E+04  0.7818609E-02  0.9116471E-01
        1   -1    0    0  501    0  0.00000000000E+00  0.00000000000E+00  0.63727552834E+03  0.63727552836E+03  0.50400001928E-02 0.  1.
       -1   -1    0    0    0  501  0.00000000000E+00  0.00000000000E+00 -0.56103177281E+03  0.56103177283E+03  0.50400001928E-02 0. -1.
    10030    2    1    2    0    0  0.00000000000E+00  0.00000000000E+00  0.76243755538E+02  0.11983073012E+04  0.11958792907E+04 0.  0.
        4    1    3    3  502    0  0.10607616459E+03  0.53906039074E+03  0.27459243168E+03  0.61419937642E+03  0.12699999809E+01 0. -1.
       -4    1    3    3    0  502 -0.10607616459E+03 -0.53906039074E+03 -0.19834867614E+03  0.58410792477E+03  0.12699999809E+01 0.  1.
</event>
<event>
 5   0  0.2304842E-04  0.1196150E+04  0.7818609E-02  0.9116233E-01
       -1   -1    0    0    0  501  0.00000000000E+00  0.00000000000E+00  0.49321582384E+03  0.49321582387E+03  0.50400001928E-02 0. -1.
        1   -1    0    0  501    0  0.00000000000E+00  0.00000000000E+00 -0.72522783490E+03  0.72522783491E+03  0.50400001928E-02 0.  1.
    10030    2    1    2    0    0  0.00000000000E+00  0.00000000000E+00 -0.23201201105E+03  0.12184436588E+04  0.11961502315E+04 0.  0.
        4    1    3    3  502    0  0.98786592245E+02  0.51905567426E+03 -0.40143301400E+03  0.66357189619E+03  0.12699999809E+01 0.  1.
       -4    1    3    3    0  502 -0.98786592245E+02 -0.51905567426E+03  0.16942100294E+03  0.55487176259E+03  0.12699999809E+01 0. -1.
</event>
<event>
 5   0  0.2315038E-04  0.1200397E+04  0.7818609E-02  0.9112509E-01
       -1   -1    0    0    0  501  0.00000000000E+00  0.00000000000E+00  0.31011822417E+03  0.31011822421E+03  0.50400001928E-02 0. -1.
        1   -1    0    0  501    0  0.00000000000E+00  0.00000000000E+00 -0.11616153854E+04  0.11616153854E+04  0.50400001928E-02 0.  1.
    10030    2    1    2    0    0  0.00000000000E+00  0.00000000000E+00 -0.85149716126E+03  0.14717336096E+04  0.12003967686E+04 0.  0.
        1    1    3    3  502    0  0.36027570102E+03 -0.31561663805E+03  0.17707744080E+02  0.47929740995E+03  0.50400001928E-02 0. -1.
       -1    1    3    3    0  502 -0.36027570102E+03  0.31561663805E+03 -0.86920490534E+03  0.99243619969E+03  0.50400001928E-02 0.  1.
</event>
<event>
 5   0  0.4122956E-04  0.1202721E+04  0.7818609E-02  0.9110478E-01
        2   -1    0    0  501    0  0.00000000000E+00  0.00000000000E+00  0.19119382937E+04  0.19119382937E+04  0.25500000920E-02 0. -1.
       -2   -1    0    0    0  501  0.00000000000E+00  0.00000000000E+00 -0.18914560341E+03  0.18914560342E+03  0.25500000920E-02 0.  1.
    10030    2    1    2    0    0  0.00000000000E+00  0.00000000000E+00  0.17227926903E+04  0.21010838971E+04  0.12027214511E+04 0.  0.
        5    1    3    3  502    0 -0.56958533807E+03 -0.76021730110E+02  0.11709840909E+04  0.13043897393E+04  0.46999998093E+01 0. -1.
       -5    1    3    3    0  502  0.56958533807E+03  0.76021730110E+02  0.55180859940E+03  0.79669415785E+03  0.46999998093E+01 0.  1.
</event>
<event>
 5   0  0.2315038E-04  0.1197647E+04  0.7818609E-02  0.9114919E-01
       -1   -1    0    0    0  501  0.00000000000E+00  0.00000000000E+00  0.42974424698E+03  0.42974424701E+03  0.50400001928E-02 0.  1.
        1   -1    0    0  501    0  0.00000000000E+00  0.00000000000E+00 -0.83442525366E+03  0.83442525367E+03  0.50400001928E-02 0. -1.
    10030    2    1    2    0    0  0.00000000000E+00  0.00000000000E+00 -0.40468100668E+03  0.12641695007E+04  0.11976467799E+04 0.  0.
        1    1    3    3  502    0 -0.23496051512E+03  0.46647389537E+03  0.10681894417E+03  0.53311783461E+03  0.50400001928E-02 0.  1.
       -1    1    3    3    0  502  0.23496051512E+03 -0.46647389537E+03 -0.51149995085E+03  0.73105166607E+03  0.50400001928E-02 0. -1.
</event>
<event>
 5   0  0.1541375E-04  0.1199912E+04  0.7818609E-02  0.9112934E-01
        3   -1    0    0  501    0  0.00000000000E+00  0.00000000000E+00  0.83199911476E+03  0.83199912089E+03  0.10100000352E+00 0.  1.
       -3   -1    0    0    0  501  0.00000000000E+00  0.00000000000E+00 -0.43262917186E+03  0.43262918365E+03  0.10100000352E+00 0. -1.
    10030    2    1    2    0    0  0.00000000000E+00  0.00000000000E+00  0.39936994289E+03  0.12646283045E+04  0.11999118290E+04 0.  0.
        4    1    3    3  502    0  0.36950844849E+03 -0.44420436861E+03  0.36992545825E+03  0.68607614166E+03  0.12699999809E+01 0.  1.
       -4    1    3    3    0  502 -0.36950844849E+03  0.44420436861E+03  0.29444484647E+02  0.57855216288E+03  0.12699999809E+01 0. -1.
</event>
<event>
 5   0  0.4122956E-04  0.1200413E+04  0.7818609E-02  0.9112495E-01
        2   -1    0    0  501    0  0.00000000000E+00  0.00000000000E+00  0.74246040836E+03  0.74246040837E+03  0.25500000920E-02 0.  1.
       -2   -1    0    0    0  501  0.00000000000E+00  0.00000000000E+00 -0.48520803639E+03  0.48520803640E+03  0.25500000920E-02 0. -1.
    10030    2    1    2    0    0  0.00000000000E+00  0.00000000000E+00  0.25725237197E+03  0.12276684448E+04  0.12004128571E+04 0.  0.
        5    1    3    3  502    0 -0.98685604759E+02  0.99076447798E+02 -0.46829615132E+03  0.48875184545E+03  0.46999998093E+01 0. -1.
       -5    1    3    3    0  502  0.98685604759E+02 -0.99076447798E+02  0.72554852329E+03  0.73891659931E+03  0.46999998093E+01 0.  1.
</event>
<event>
 5   0  0.4024486E-04  0.1212002E+04  0.7818609E-02  0.9102415E-01
       -2   -1    0    0    0  501  0.00000000000E+00  0.00000000000E+00  0.10509672954E+04  0.10509672955E+04  0.25500000920E-02 0.  1.
        2   -1    0    0  501    0  0.00000000000E+00  0.00000000000E+00 -0.34942808684E+03  0.34942808685E+03  0.25500000920E-02 0. -1.
    10030    2    1    2    0    0  0.00000000000E+00  0.00000000000E+00  0.70153920860E+03  0.14003953823E+04  0.12120024610E+04 0.  0.
        1    1    3    3  502    0 -0.29391658654E+02  0.35747345494E+03 -0.21360825205E+03  0.41746811370E+03  0.50400001928E-02 0. -1.
       -1    1    3    3    0  502  0.29391658654E+02 -0.35747345494E+03  0.91514746066E+03  0.98292726860E+03  0.50400001928E-02 0.  1.
</event>
<event>
 5   0  0.3832662E-04  0.1201351E+04  0.7818609E-02  0.9111675E-01
        2   -1    0    0  501    0  0.00000000000E+00  0.00000000000E+00  0.13445193437E+04  0.13445193437E+04  0.25500000920E-02 0. -1.
       -2   -1    0    0    0  501  0.00000000000E+00  0.00000000000E+00 -0.26835700204E+03  0.26835700205E+03  0.25500000920E-02 0.  1.
    10030    2    1    2    0    0  0.00000000000E+00  0.00000000000E+00  0.10761623417E+04  0.16128763458E+04  0.12013512064E+04 0.  0.
        4    1    3    3  502    0 -0.33556959362E+03 -0.73384342607E+02  0.11996437695E+04  0.12478537577E+04  0.12699999809E+01 0. -1.
       -4    1    3    3    0  502  0.33556959362E+03  0.73384342607E+02 -0.12348142784E+03  0.36502258810E+03  0.12699999809E+01 0.  1.
</event>
<event>
 5   0  0.4122956E-04  0.1197020E+04  0.7818609E-02  0.9115469E-01
       -2   -1    0    0    0  501  0.00000000000E+00  0.00000000000E+00  0.12488653688E+04  0.12488653688E+04  0.25500000920E-02 0.  1.
        2   -1    0    0  501    0  0.00000000000E+00  0.00000000000E+00 -0.28683187088E+03  0.28683187090E+03  0.25500000920E-02 0. -1.
    10030    2    1    2    0    0  0.00000000000E+00  0.00000000000E+00  0.96203349787E+03  0.15356972397E+04  0.11970202842E+04 0.  0.
        5    1    3    3  502    0  0.57440935491E+03 -0.14839445988E+03  0.37979275918E+03  0.70443711760E+03  0.46999998093E+01 0. -1.
       -5    1    3    3    0  502 -0.57440935491E+03  0.14839445988E+03  0.58224073870E+03  0.83126012206E+03  0.46999998093E+01 0.  1.
</event>
<event>
 5   0  0.2304842E-04  0.1199103E+04  0.7818609E-02  0.9113642E-01
        1   -1    0    0  501    0  0.00000000000E+00  0.00000000000E+00  0.14427313886E+04  0.14427313886E+04  0.50400001928E-02 0. -1.
       -1   -1    0    0    0  501  0.00000000000E+00  0.00000000000E+00 -0.24915359522E+03  0.24915359528E+03  0.50400001928E-02 0.  1.
    10030    2    1    2    0    0  0.00000000000E+00  0.00000000000E+00  0.11935777934E+04  0.16918849839E+04  0.11991025185E+04 0.  0.
        4    1    3    3  502    0  0.14689786632E+03 -0.15018739149E+03 -0.19551835200E+03  0.28699176741E+03  0.12699999809E+01 0.  1.
       -4    1    3    3    0  502 -0.14689786632E+03  0.15018739149E+03  0.13890961454E+04  0.14048932165E+04  0.12699999809E+01 0. -1.
</event>
<event>
 5   0  0.4024486E-04  0.1208296E+04  0.7818609E-02  0.9105626E-01
       -2   -1    0    0    0  501  0.00000000000E+00  0.00000000000E+00  0.51355491276E+03  0.51355491277E+03  0.25500000920E-02 0. -1.
        2   -1    0    0  501    0  0.00000000000E+00  0.00000000000E+00 -0.71072251675E+03  0.71072251675E+03  0.25500000920E-02 0.  1.
    10030    2    1    2    0    0  0.00000000000E+00  0.00000000000E+00 -0.19716760398E+03  0.12242774295E+04  0.12082963876E+04 0.  0.
        1    1    3    3  502    0  0.40616520455E+03 -0.44675525085E+03 -0.11970689362E+03  0.61554054940E+03  0.50400001928E-02 0.  1.
       -1    1    3    3    0  502 -0.40616520455E+03  0.44675525085E+03 -0.77460710365E+02  0.60873688012E+03  0.50400001928E-02 0. -1.
</event>
<event>
 5   0  0.2304842E-04  0.1200943E+04  0.7818609E-02  0.9112031E-01
       -1   -1    0    0    0  501  0.00000000000E+00  0.00000000000E+00  0.38677317964E+03  0.38677317967E+03  0.50400001928E-02 0. -1.
        1   -1    0    0  501    0  0.00000000000E+00  0.00000000000E+00 -0.93224190959E+03  0.93224190960E+03  0.50400001928E-02 0.  1.
    10030    2    1    2    0    0  0.00000000000E+00  0.00000000000E+00 -0.54546872995E+03  0.13190150893E+04  0.12009432419E+04 0.  0.
        4    1    3    3  502    0  0.33825041662E+03  0.42771217085E+03 -0.54887621589E+03  0.77370392186E+03  0.12699999809E+01 0. -1.
       -4    1    3    3    0  502 -0.33825041662E+03 -0.42771217085E+03  0.34074859375E+01  0.54531116741E+03  0.12699999809E+01 0.  1.
</event>
<event>
 5   0  0.2204090E-04  0.1200006E+04  0.7818609E-02  0.9112851E-01
       -1   -1    0    0    0  501  0.00000000000E+00  0.00000000000E+00  0.35240512342E+03  0.35240512345E+03  0.50400001928E-02 0. -1.
        1   -1    0    0  501    0  0.00000000000E+00  0.00000000000E+00 -0.10215622847E+04  0.10215622847E+04  0.50400001928E-02 0.  1.
    10030    2    1    2    0    0  0.00000000000E+00  0.00000000000E+00 -0.66915716127E+03  0.13739674082E+04  0.12000063051E+04 0.  0.
        2    1    3    3  502    0  0.45288901139E+03  0.39350615220E+03 -0.34253050402E+03  0.69085649353E+03  0.25500000920E-02 0.  1.
       -2    1    3    3    0  502 -0.45288901139E+03 -0.39350615220E+03 -0.32662665725E+03  0.68311091463E+03  0.25500000920E-02 0. -1.
</event>
<event>
 5   0  0.1541375E-04  0.1186040E+04  0.7818609E-02  0.9125164E-01
        4   -1    0    0  501    0  0.00000000000E+00  0.00000000000E+00  0.10548335125E+04  0.10548342771E+04  0.12699999809E+01 0.  1.
       -4   -1    0    0    0  501  0.00000000000E+00  0.00000000000E+00 -0.33338976979E+03  0.33339218872E+03  0.12699999809E+01 0. -1.
    10030    2    1    2    0    0  0.00000000000E+00  0.00000000000E+00  0.72144374276E+03  0.13882264658E+04  0.11860403224E+04 0.  0.
        4    1    3    3  502    0 -0.45888421292E+03 -0.12142447090E+03  0.77677911457E+03  0.91033292192E+03  0.12699999809E+01 0.  1.
       -4    1    3    3    0  502  0.45888421292E+03  0.12142447090E+03 -0.55335371816E+02  0.47789354387E+03  0.12699999809E+01 0. -1.
</event>
<event>
 5   0  0.2315038E-04  0.1200056E+04  0.7818609E-02  0.9112808E-01
        1   -1    0    0  501    0  0.00000000000E+00  0.00000000000E+00  0.16911169998E+04  0.16911169998E+04  0.50400001928E-02 0. -1.
       -1   -1    0    0    0  501  0.00000000000E+00  0.00000000000E+00 -0.21289681299E+03  0.21289681305E+03  0.50400001928E-02 0.  1.
    10030    2    1    2    0    0  0.00000000000E+00  0.00000000000E+00  0.14782201868E+04  0.19040138129E+04  0.12000556983E+04 0.  0.
        1    1    3    3  502    0  0.58290882668E+03 -0.57315171406E+01  0.51351150262E+03  0.77685881205E+03  0.50400001928E-02 0.  1.
       -1    1    3    3    0  502 -0.58290882668E+03  0.57315171406E+01  0.96470868421E+03  0.11271550008E+04  0.50400001928E-02 0. -1.
</event>
<event>
 5   0  0.2304842E-04  0.1191358E+04  0.7818609E-02  0.9120455E-01
        1   -1    0    0  501    0  0.00000000000E+00  0.00000000000E+00  0.67920430765E+03  0.67920430767E+03  0.50400001928E-02 0.  1.
       -1   -1    0    0    0  501  0.00000000000E+00  0.00000000000E+00 -0.52242510457E+03  0.52242510460E+03  0.50400001928E-02 0. -1.
    10030    2    1    2    0    0  0.00000000000E+00  0.00000000000E+00  0.15677920307E+03  0.12016294123E+04  0.11913578496E+04 0.  0.
        4    1    3    3  502    0  0.56238978837E+03  0.14709441261E+03 -0.52780590745E+02  0.58370064584E+03  0.12699999809E+01 0. -1.
       -4    1    3    3    0  502 -0.56238978837E+03 -0.14709441261E+03  0.20955979382E+03  0.61792876643E+03  0.12699999809E+01 0.  1.
</event>
<event>
 5   0  0.3832662E-04  0.1199557E+04  0.7818609E-02  0.9113244E-01
       -2   -1    0    0    0  501  0.00000000000E+00  0.00000000000E+00  0.59912280766E+03  0.59912280766E+03  0.25500000920E-02 0.  1.
        2   -1    0    0  501    0  0.00000000000E+00  0.00000000000E+00 -0.60043508507E+03  0.60043508508E+03  0.25500000920E-02 0. -1.
    10030    2    1    2    0    0  0.00000000000E+00  0.00000000000E+00 -0.13122774176E+01  0.11995578927E+04  0.11995571749E+04 0.  0.
        4    1    3    3  502    0  0.27306872828E+02 -0.28290906589E+02 -0.59914350621E+03  0.60043367213E+03  0.12699999809E+01 0. -1.
       -4    1    3    3    0  502 -0.27306872828E+02  0.28290906589E+02  0.59783122879E+03  0.59912422061E+03  0.12699999809E+01 0.  1.
</event>
<event>
 5   0  0.3883890E-04  0.1201973E+04  0.7818609E-02  0.9111132E-01
       -2   -1    0    0    0  501  0.00000000000E+00  0.00000000000E+00  0.16088005893E+03  0.16088005895E+03  0.25500000920E-02 0. -1.
        2   -1    0    0  501    0  0.00000000000E+00  0.00000000000E+00 -0.22450554432E+04  0.22450554432E+04  0.25500000920E-02 0.  1.
    10030    2    1    2    0    0  0.00000000000E+00  0.00000000000E+00 -0.20841753843E+04  0.24059355022E+04  0.12019727984E+04 0.  0.
        2    1    3    3  502    0 -0.32519141329E+03 -0.30497092174E+03 -0.18488018911E+04  0.19017952442E+04  0.25500000920E-02 0.  1.
       -2    1    3    3    0  502  0.32519141329E+03  0.30497092174E+03 -0.23537349318E+03  0.50414025794E+03  0.25500000920E-02 0. -1.
</event>
<event>
 5   0  0.2340731E-04  0.1201999E+04  0.7818609E-02  0.9111109E-01
        1   -1    0    0  501    0  0.00000000000E+00  0.00000000000E+00  0.61441984328E+03  0.61441984330E+03  0.50400001928E-02 0.  1.
       -1   -1    0    0    0  501  0.00000000000E+00  0.00000000000E+00 -0.58787180867E+03  0.58787180869E+03  0.50400001928E-02 0. -1.
    10030    2    1    2    0    0  0.00000000000E+00  0.00000000000E+00  0.26548034609E+02  0.12022916520E+04  0.12019985101E+04 0.  0.
        3    1    3    3  502    0  0.16278560136E+03 -0.20625198076E+03  0.55392509140E+03  0.61308404698E+03  0.10100000352E+00 0.  1.
       -3    1    3    3    0  502 -0.16278560136E+03  0.20625198076E+03 -0.52737705679E+03  0.58920760502E+03  0.10100000352E+00 0. -1.
</event>
<event>
 5   0  0.3883890E-04  0.1204166E+04  0.7818609E-02  0.9109217E-01
       -2   -1    0    0    0  501  0.00000000000E+00  0.00000000000E+00  0.29092900398E+03  0.29092900399E+03  0.25500000920E-02 0. -1.
        2   -1    0    0  501    0  0.00000000000E+00  0.00000000000E+00 -0.12460228806E+04  0.12460228806E+04  0.25500000920E-02 0.  1.
    10030    2    1    2    0    0  0.00000000000E+00  0.00000000000E+00 -0.95509387667E+03  0.15369518846E+04  0.12041664264E+04 0.  0.
        2    1    3    3  502    0 -0.54829205777E+03 -0.29514517744E+02 -0.16228584012E+03  0.57256613703E+03  0.25500000920E-02 0. -1.
       -2    1    3    3    0  502  0.54829205777E+03  0.29514517744E+02 -0.79280803654E+03  0.96438574760E+03  0.25500000920E-02 0.  1.
</event>
<event>
 5   0  0.2244308E-04  0.1201118E+04  0.7818609E-02  0.9111878E-01
        1   -1    0    0  501    0  0.00000000000E+00  0.00000000000E+00  0.13613068195E+04  0.13613068195E+04  0.50400001928E-02 0. -1.
       -1   -1    0    0    0  501  0.00000000000E+00  0.00000000000E+00 -0.26494481332E+03  0.26494481336E+03  0.50400001928E-02 0.  1.
    10030    2    1    2    0    0  0.00000000000E+00  0.00000000000E+00  0.10963620062E+04  0.16262516329E+04  0.12011181144E+04 0.  0.
        5    1    3    3  502    0  0.40088453707E+02 -0.49587256766E+03  0.10036238872E+04  0.11201694892E+04  0.46999998093E+01 0.  1.
       -5    1    3    3    0  502 -0.40088453707E+02  0.49587256766E+03  0.92738118978E+02  0.50608214372E+03  0.46999998093E+01 0. -1.
</event>
<event>
 5   0  0.4024486E-04  0.1200412E+04  0.7818609E-02  0.9112496E-01
        2   -1    0    0  501    0  0.00000000000E+00  0.00000000000E+00  0.10272494028E+04  0.10272494028E+04  0.25500000920E-02 0.  1.
       -2   -1    0    0    0  501  0.00000000000E+00  0.00000000000E+00 -0.35069136140E+03  0.35069136141E+03  0.25500000920E-02 0. -1.
    10030    2    1    2    0    0  0.00000000000E+00  0.00000000000E+00  0.67655804138E+03  0.13779407642E+04  0.12004124151E+04 0.  0.
        1    1    3    3  502    0  0.58859708885E+03 -0.13540872206E+02  0.20432664838E+03  0.62320082436E+03  0.50400001928E-02 0. -1.
       -1    1    3    3    0  502 -0.58859708885E+03  0.13540872206E+02  0.47223139300E+03  0.75473993983E+03  0.50400001928E-02 0.  1.
</event>
<event>
 5   0  0.3832662E-04  0.1200497E+04  0.7818609E-02  0.9112422E-01
       -2   -1    0    0    0  501  0.00000000000E+00  0.00000000000E+00  0.18474374289E+03  0.18474374290E+03  0.25500000920E-02 0.  1.
        2   -1    0    0  501    0  0.00000000000E+00  0.00000000000E+00 -0.19502581200E+04  0.19502581200E+04  0.25500000920E-02 0. -1.
    10030    2    1    2    0    0  0.00000000000E+00  0.00000000000E+00 -0.17655143771E+04  0.21350018629E+04  0.12004965385E+04 0.  0.
        4    1    3    3  502    0  0.45744661875E+03 -0.24764929127E+03 -0.35009134538E+03  0.62701925288E+03  0.12699999809E+01 0.  1.
       -4    1    3    3    0  502 -0.45744661875E+03  0.24764929127E+03 -0.14154230318E+04  0.15079826101E+04  0.12699999809E+01 0. -1.
</event>
<event>
 5   0  0.2340731E-04  0.1223048E+04  0.7818609E-02  0.9092918E-01
        1   -1    0    0  501    0  0.00000000000E+00  0.00000000000E+00  0.78448380158E+03  0.78448380160E+03  0.50400001928E-02 0.  1.
       -1   -1    0    0    0  501  0.00000000000E+00  0.00000000000E+00 -0.47669801867E+03  0.47669801869E+03  0.50400001928E-02 0. -1.
    10030    2    1    2    0    0  0.00000000000E+00  0.00000000000E+00  0.30778578291E+03  0.12611818203E+04  0.12230484437E+04 0.  0.
        3    1    3    3  502    0 -0.23369705399E+02 -0.61074895071E+03  0.13323222853E+03  0.62554876776E+03  0.10100000352E+00 0.  1.
       -3    1    3    3    0  502  0.23369705399E+02  0.61074895071E+03  0.17455355438E+03  0.63563305253E+03  0.10100000352E+00 0. -1.
</event>
<event>
 5   0  0.3832662E-04  0.1200972E+04  0.7818609E-02  0.9112006E-01
       -2   -1    0    0    0  501  0.00000000000E+00  0.00000000000E+00  0.32694274806E+03  0.32694274807E+03  0.25500000920E-02 0.  1.
        2   -1    0    0  501    0  0.00000000000E+00  0.00000000000E+00 -0.11028951962E+04  0.11028951962E+04  0.25500000920E-02 0. -1.
    10030    2    1    2    0    0  0.00000000000E+00  0.00000000000E+00 -0.77595244817E+03  0.14298379443E+04  0.12009722500E+04 0.  0.
        4    1    3    3  502    0  0.12993705410E+03 -0.41401673483E+03 -0.88215258100E+03  0.98310135989E+03  0.12699999809E+01 0. -1.
       -4    1    3    3    0  502 -0.12993705410E+03  0.41401673483E+03  0.10620013283E+03  0.44673658443E+03  0.12699999809E+01 0.  1.
</event>
<event>
 5   0  0.4122956E-04  0.1199776E+04  0.7818609E-02  0.9113053E-01
        2   -1    0    0  501    0  0.00000000000E+00  0.00000000000E+00  0.11192368280E+04  0.11192368280E+04  0.25500000920E-02 0.  1.
       -2   -1    0    0    0  501  0.00000000000E+00  0.00000000000E+00 -0.32152742647E+03  0.32152742648E+03  0.25500000920E-02 0. -1.
    10030    2    1    2    0    0  0.00000000000E+00  0.00000000000E+00  0.79770940148E+03  0.14407642544E+04  0.11997755405E+04 0.  0.
        5    1    3    3  502    0  0.36861993303E+03  0.40926335376E+03  0.68421057314E+03  0.87837540160E+03  0.46999998093E+01 0.  1.
       -5    1    3    3    0  502 -0.36861993303E+03 -0.40926335376E+03  0.11349882834E+03  0.56238885283E+03  0.46999998093E+01 0. -1.
</event>
<event>
 5   0  0.4024486E-04  0.1198613E+04  0.7818609E-02  0.9114071E-01
        2   -1    0    0  501    0  0.00000000000E+00  0.00000000000E+00  0.17174065840E+04  0.17174065840E+04  0.25500000920E-02 0.  1.
       -2   -1    0    0    0  501  0.00000000000E+00  0.00000000000E+00 -0.20913417280E+03  0.20913417281E+03  0.25500000920E-02 0. -1.
    10030    2    1    2    0    0  0.00000000000E+00  0.00000000000E+00  0.15082724112E+04  0.19265407569E+04  0.11986132075E+04 0.  0.
        1    1    3    3  502    0 -0.11511241288E+03 -0.53227413806E+03  0.11562902883E+04  0.12781133974E+04  0.50400001928E-02 0. -1.
       -1    1    3    3    0  502  0.11511241288E+03  0.53227413806E+03  0.35198212293E+03  0.64842735949E+03  0.50400001928E-02 0.  1.
</event>
<event>
 5   0  0.2304842E-04  0.1201343E+04  0.7818609E-02  0.9111682E-01
        1   -1    0    0  501    0  0.00000000000E+00  0.00000000000E+00  0.95100814104E+03  0.95100814105E+03  0.50400001928E-02 0. -1.
       -1   -1    0    0    0  501  0.00000000000E+00  0.00000000000E+00 -0.37939353003E+03  0.37939353007E+03  0.50400001928E-02 0.  1.
    10030    2    1    2    0    0  0.00000000000E+00  0.00000000000E+00  0.57161461101E+03  0.13304016711E+04  0.12013431412E+04 0.  0.
        4    1    3    3  502    0  0.26232993515E+03  0.11002884797E+03 -0.30006465343E+03  0.41347763107E+03  0.12699999809E+01 0.  1.
       -4    1    3    3    0  502 -0.26232993515E+03 -0.11002884797E+03  0.87167926444E+03  0.91692404004E+03  0.12699999809E+01 0. -1.
</event>
<event>
 5   0  0.4024486E-04  0.1200776E+04  0.7818609E-02  0.9112178E-01
       -2   -1    0    0    0  501  0.00000000000E+00  0.00000000000E+00  0.31294293597E+03  0.31294293598E+03  0.25500000920E-02 0. -1.
        2   -1    0    0  501    0  0.00000000000E+00  0.00000000000E+00 -0.11518575273E+04  0.11518575273E+04  0.25500000920E-02 0.  1.
    10030    2    1    2    0    0  0.00000000000E+00  0.00000000000E+00 -0.83891459132E+03  0.14648004633E+04  0.12007758765E+04 0.  0.
        1    1    3    3  502    0 -0.47144444737E+03 -0.36771263646E+03 -0.48619731068E+03  0.77062330285E+03  0.50400001928E-02 0.  1.
       -1    1    3    3    0  502  0.47144444737E+03  0.36771263646E+03 -0.35271728065E+03  0.69417716043E+03  0.50400001928E-02 0. -1.
</event>
<event>
 5   0  0.2204090E-04  0.1197367E+04  0.7818609E-02  0.9115165E-01
       -1   -1    0    0    0  501  0.00000000000E+00  0.00000000000E+00  0.75764975603E+03  0.75764975604E+03  0.50400001928E-02 0.  1.
        1   -1    0    0  501    0  0.00000000000E+00  0.00000000000E+00 -0.47307047141E+03  0.47307047144E+03  0.50400001928E-02 0. -1.
    10030    2    1    2    0    0  0.00000000000E+00  0.00000000000E+00  0.28457928462E+03  0.12307202275E+04  0.11973666561E+04 0.  0.
        2    1    3    3  502    0 -0.21019907073E+03  0.55671102620E+03  0.74803171243E+02  0.59975522546E+03  0.25500000920E-02 0. -1.
       -2    1    3    3    0  502  0.21019907073E+03 -0.55671102620E+03  0.20977611338E+03  0.63096500202E+03  0.25500000920E-02 0.  1.
</event>
<event>
 5   0  0.3993723E-04  0.1201100E+04  0.7818609E-02  0.9111894E-01
       -2   -1    0    0    0  501  0.00000000000E+00  0.00000000000E+00  0.10599901524E+04  0.10599901524E+04  0.25500000920E-02 0. -1.
        2   -1    0    0  501    0  0.00000000000E+00  0.00000000000E+00 -0.34024868075E+03  0.34024868076E+03  0.25500000920E-02 0.  1.
    10030    2    1    2    0    0  0.00000000000E+00  0.00000000000E+00  0.71974147163E+03  0.14002388331E+04  0.12010999142E+04 0.  0.
        3    1    3    3  502    0  0.37827061283E+03 -0.42008040498E+03  0.59622596976E+03  0.82160916523E+03  0.10100000352E+00 0. -1.
       -3    1    3    3    0  502 -0.37827061283E+03  0.42008040498E+03  0.12351550187E+03  0.57862966791E+03  0.10100000352E+00 0.  1.
</event>
<event>
 5   0  0.2304842E-04  0.1206003E+04  0.7818609E-02  0.9107618E-01
       -1   -1    0    0    0  501  0.00000000000E+00  0.00000000000E+00  0.33767142596E+03  0.33767142599E+03  0.50400001928E-02 0.  1.
        1   -1    0    0  501    0  0.00000000000E+00  0.00000000000E+00 -0.10768181013E+04  0.10768181013E+04  0.50400001928E-02 0. -1.
    10030    2    1    2    0    0  0.00000000000E+00  0.00000000000E+00 -0.73914667537E+03  0.14144895273E+04  0.12060028255E+04 0.  0.
        4    1    3    3  502    0  0.22833279421E+03 -0.55807716208E+03 -0.36393534287E+03  0.70429860886E+03  0.12699999809E+01 0.  1.
       -4    1    3    3    0  502 -0.22833279421E+03  0.55807716208E+03 -0.37521133250E+03  0.71019091848E+03  0.12699999809E+01 0. -1.
</event>
<event>
 5   0  0.2304842E-04  0.1200195E+04  0.7818609E-02  0.9112686E-01
       -1   -1    0    0    0  501  0.00000000000E+00  0.00000000000E+00  0.60030712846E+03  0.60030712848E+03  0.50400001928E-02 0.  1.
        1   -1    0    0  501    0  0.00000000000E+00  0.00000000000E+00 -0.59988764725E+03  0.59988764727E+03  0.50400001928E-02 0. -1.
    10030    2    1    2    0    0  0.00000000000E+00  0.00000000000E+00  0.41948120500E+00  0.12001947758E+04  0.12001947024E+04 0.  0.
        4    1    3    3  502    0  0.38608534671E+03 -0.30084944618E+03 -0.34698321521E+03  0.59997604014E+03  0.12699999809E+01 0. -1.
       -4    1    3    3    0  502 -0.38608534671E+03  0.30084944618E+03  0.34740269641E+03  0.60021873561E+03  0.12699999809E+01 0.  1.
</event>
<event>
 5   0  0.4024486E-04  0.1197556E+04  0.7818609E-02  0.9114998E-01
       -2   -1    0    0    0  501  0.00000000000E+00  0.00000000000E+00  0.21551413201E+03  0.21551413203E+03  0.25500000920E-02 0.  1.
        2   -1    0    0  501    0  0.00000000000E+00  0.00000000000E+00 -0.16636273891E+04  0.16636273891E+04  0.25500000920E-02 0. -1.
    10030    2    1    2    0    0  0.00000000000E+00  0.00000000000E+00 -0.14481132571E+04  0.18791415211E+04  0.11975561995E+04 0.  0.
        1    1    3    3  502    0 -0.37409060949E+03  0.46748026453E+03 -0.71256527661E+03  0.93071523856E+03  0.50400001928E-02 0.  1.
       -1    1    3    3    0  502  0.37409060949E+03 -0.46748026453E+03 -0.73554798047E+03  0.94842628255E+03  0.50400001928E-02 0. -1.
</event>
<event>
 5   0  0.3832662E-04  0.1200883E+04  0.7818609E-02  0.9112084E-01
       -2   -1    0    0    0  501  0.00000000000E+00  0.00000000000E+00  0.28810023457E+03  0.28810023458E+03  0.25500000920E-02 0. -1.
        2   -1    0    0  501    0  0.00000000000E+00  0.00000000000E+00 -0.12514057507E+04  0.12514057507E+04  0.25500000920E-02 0.  1.
    10030    2    1    2    0    0  0.00000000000E+00  0.00000000000E+00 -0.96330551614E+03  0.15395059853E+04  0.12008834920E+04 0.  0.
        4    1    3    3  502    0 -0.12004300104E+02  0.18954591823E+03 -0.12118816749E+04  0.12266745963E+04  0.12699999809E+01 0.  1.
       -4    1    3    3    0  502  0.12004300104E+02 -0.18954591823E+03  0.24857615876E+03  0.31283138900E+03  0.12699999809E+01 0. -1.
</event>
<event>
 5   0  0.2244308E-04  0.1199764E+04  0.7818609E-02  0.9113063E-01
       -1   -1    0    0    0  501  0.00000000000E+00  0.00000000000E+00  0.63893140570E+03  0.63893140572E+03  0.50400001928E-02 0.  1.
        1   -1    0    0  501    0  0.00000000000E+00  0.00000000000E+00 -0.56321919742E+03  0.56321919744E+03  0.50400001928E-02 0. -1.
    10030    2    1    2    0    0  0.00000000000E+00  0.00000000000E+00  0.75712208282E+02  0.12021506032E+04  0.11997640327E+04 0.  0.
        5    1    3    3  502    0 -0.55628170032E+03  0.20260571377E+03 -0.58969125969E+02  0.59497718711E+03  0.46999998093E+01 0. -1.
       -5    1    3    3    0  502  0.55628170032E+03 -0.20260571377E+03  0.13468133425E+03  0.60717341605E+03  0.46999998093E+01 0.  1.
</event>
<event>
 5   0  0.4024486E-04  0.1186791E+04  0.7818609E-02  0.9124498E-01
        2   -1    0    0  501    0  0.00000000000E+00  0.00000000000E+00  0.38622185718E+03  0.38622185719E+03  0.25500000920E-02 0. -1.
       -2   -1    0    0    0  501  0.00000000000E+00  0.00000000000E+00 -0.91169931822E+03  0.91169931822E+03  0.25500000920E-02 0.  1.
    10030    2    1    2    0    0  0.00000000000E+00  0.00000000000E+00 -0.52547746104E+03  0.12979211754E+04  0.11867909738E+04 0.  0.
        1    1    3    3  502    0  0.49670724815E+03 -0.18018664815E+03 -0.55808791832E+03  0.76853590882E+03  0.50400001928E-02 0.  1.
       -1    1    3    3    0  502 -0.49670724815E+03  0.18018664815E+03  0.32610457282E+02  0.52938526659E+03  0.50400001928E-02 0. -1.
</event>
<event>
 5   0  0.3993723E-04  0.1207125E+04  0.7818609E-02  0.9106643E-01
       -2   -1    0    0    0  501  0.00000000000E+00  0.00000000000E+00  0.47843955296E+03  0.47843955296E+03  0.25500000920E-02 0.  1.
        2   -1    0    0  501    0  0.00000000000E+00  0.00000000000E+00 -0.76140806067E+03  0.76140806067E+03  0.25500000920E-02 0. -1.
    10030    2    1    2    0    0  0.00000000000E+00  0.00000000000E+00 -0.28296850771E+03  0.12398476136E+04  0.12071250675E+04 0.  0.
        3    1    3    3  502    0 -0.55265754016E+03  0.14083952052E+03  0.61409439957E+02  0.57361769215E+03  0.10100000352E+00 0.  1.
       -3    1    3    3    0  502  0.55265754016E+03 -0.14083952052E+03 -0.34437794767E+03  0.66622992148E+03  0.10100000352E+00 0. -1.
</event>
<event>
 5   0  0.2315038E-04  0.1199555E+04  0.7818609E-02  0.9113246E-01
        1   -1    0    0  501    0  0.00000000000E+00  0.00000000000E+00  0.15486123244E+04  0.15486123244E+04  0.50400001928E-02 0.  1.
       -1   -1    0    0    0  501  0.00000000000E+00  0.00000000000E+00 -0.23229369051E+03  0.23229369056E+03  0.50400001928E-02 0. -1.
    10030    2    1    2    0    0  0.00000000000E+00  0.00000000000E+00  0.13163186339E+04  0.17809060150E+04  0.11995547042E+04 0.  0.
        1    1    3    3  502    0 -0.27161875649E+03  0.79563277604E+02 -0.12691282816E+03  0.31018370363E+03  0.50400001928E-02 0. -1.
       -1    1    3    3    0  502  0.27161875649E+03 -0.79563277604E+02  0.14432314621E+04  0.14707223114E+04  0.50400001928E-02 0.  1.
</event>
<event>
 5   0  0.2304842E-04  0.1198908E+04  0.7818609E-02  0.9113812E-01
       -1   -1    0    0    0  501  0.00000000000E+00  0.00000000000E+00  0.65709452535E+03  0.65709452537E+03  0.50400001928E-02 0. -1.
        1   -1    0    0  501    0  0.00000000000E+00  0.00000000000E+00 -0.54687016324E+03  0.54687016327E+03  0.50400001928E-02 0.  1.
    10030    2    1    2    0    0  0.00000000000E+00  0.00000000000E+00  0.11022436210E+03  0.12039646886E+04  0.11989084875E+04 0.  0.
        4    1    3    3  502    0  0.27463571396E+03  0.35229598345E+03 -0.34633183811E+03  0.56522967927E+03  0.12699999809E+01 0.  1.
       -4    1    3    3    0  502 -0.27463571396E+03 -0.35229598345E+03  0.45655620021E+03  0.63873500936E+03  0.12699999809E+01 0. -1.
</event>
<event>
 5   0  0.2340731E-04  0.1202131E+04  0.7818609E-02  0.9110993E-01
       -1   -1    0    0    0  501  0.00000000000E+00  0.00000000000E+00  0.42491719429E+03  0.42491719432E+03  0.50400001928E-02 0. -1.
        1   -1    0    0  501    0  0.00000000000E+00  0.00000000000E+00 -0.85023554251E+03  0.85023554253E+03  0.50400001928E-02 0.  1.
    10030    2    1    2    0    0  0.00000000000E+00  0.00000000000E+00 -0.42531834822E+03  0.12751527369E+04  0.12021309434E+04 0.  0.
        3    1    3    3  502    0 -0.15208293637E+03 -0.39005670492E+03  0.24482301044E+03  0.48498635984E+03  0.10100000352E+00 0. -1.
       -3    1    3    3    0  502  0.15208293637E+03  0.39005670492E+03 -0.67014135866E+03  0.79016637702E+03  0.10100000352E+00 0.  1.
</event>
<event>
 5   0  0.2244308E-04  0.1198007E+04  0.7818609E-02  0.9114603E-01
        1   -1    0    0  501    0  0.00000000000E+00  0.00000000000E+00  0.10752422618E+04  0.10752422619E+04  0.50400001928E-02 0. -1.
       -1   -1    0    0    0  501  0.00000000000E+00  0.00000000000E+00 -0.33369702648E+03  0.33369702652E+03  0.50400001928E-02 0.  1.
    10030    2    1    2    0    0  0.00000000000E+00  0.00000000000E+00  0.74154523536E+03  0.14089392884E+04  0.11980069208E+04 0.  0.
        5    1    3    3  502    0  0.13358097272E+02 -0.30048004594E+03 -0.23842266053E+03  0.38384131073E+03  0.46999998093E+01 0.  1.
       -5    1    3    3    0  502 -0.13358097272E+02  0.30048004594E+03  0.97996789590E+03  0.10250979776E+04  0.46999998093E+01 0. -1.
</event>
<event>
 5   0  0.1541375E-04  0.1200890E+04  0.7818609E-02  0.9112078E-01
        3   -1    0    0  501    0  0.00000000000E+00  0.00000000000E+00  0.10599971913E+04  0.10599971961E+04  0.10100000352E+00 0. -1.
       -3   -1    0    0    0  501  0.00000000000E+00  0.00000000000E+00 -0.34012768524E+03  0.34012770024E+03  0.10100000352E+00 0.  1.
    10030    2    1    2    0    0  0.00000000000E+00  0.00000000000E+00  0.71986950606E+03  0.14001248963E+04  0.12008903445E+04 0.  0.
        3    1    3    3  502    0 -0.59929551124E+03  0.17572956084E+01  0.31668300140E+03  0.67782470555E+03  0.10100000352E+00 0. -1.
       -3    1    3    3    0  502  0.59929551124E+03 -0.17572956084E+01  0.40318650466E+03  0.72230019079E+03  0.10100000352E+00 0.  1.
</event>
<event>
 5   0  0.2340731E-04  0.1203306E+04  0.7818609E-02  0.9109968E-01
        1   -1    0    0  501    0  0.00000000000E+00  0.00000000000E+00  0.52175066637E+03  0.52175066639E+03  0.50400001928E-02 0. -1.
       -1   -1    0    0    0  501  0.00000000000E+00  0.00000000000E+00 -0.69379155664E+03  0.69379155666E+03  0.50400001928E-02 0.  1.
    10030    2    1    2    0    0  0.00000000000E+00  0.00000000000E+00 -0.17204089027E+03  0.12155422231E+04  0.12033057916E+04 0.  0.
        3    1    3    3  502    0 -0.23151529920E+03  0.37618330713E+02 -0.64570487975E+03  0.68698564359E+03  0.10100000352E+00 0.  1.
       -3    1    3    3    0  502  0.23151529920E+03 -0.37618330713E+02  0.47366398947E+03  0.52855657946E+03  0.10100000352E+00 0. -1.
</event>
<event>
 5   0  0.3832662E-04  0.1193361E+04  0.7818609E-02  0.9118688E-01
        2   -1    0    0  501    0  0.00000000000E+00  0.00000000000E+00  0.91263677418E+03  0.91263677419E+03  0.25500000920E-02 0. -1.
       -2   -1    0    0    0  501  0.00000000000E+00  0.00000000000E+00 -0.39010854989E+03  0.39010854989E+03  0.25500000920E-02 0.  1.
    10030    2    1    2    0    0  0.00000000000E+00  0.00000000000E+00  0.52252822430E+03  0.13027453241E+04  0.11933606472E+04 0.  0.
        4    1    3    3  502    0  0.19377809287E+02 -0.48320377272E+03  0.64282175929E+03  0.80441457756E+03  0.12699999809E+01 0. -1.
       -4    1    3    3    0  502 -0.19377809287E+02  0.48320377272E+03 -0.12029353500E+03  0.49833074652E+03  0.12699999809E+01 0.  1.
</event>
<event>
 5   0  0.4024486E-04  0.1201438E+04  0.7818609E-02  0.9111599E-01
        2   -1    0    0  501    0  0.00000000000E+00  0.00000000000E+00  0.60784014448E+03  0.60784014449E+03  0.25500000920E-02 0. -1.
       -2   -1    0    0    0  501  0.00000000000E+00  0.00000000000E+00 -0.59368105253E+03  0.59368105253E+03  0.25500000920E-02 0.  1.
    10030    2    1    2    0    0  0.00000000000E+00  0.00000000000E+00  0.14159091954E+02  0.12015211970E+04  0.12014377666E+04 0.  0.
        1    1    3    3  502    0 -0.23629148227E+00  0.21414028071E+03 -0.55421432725E+03  0.59414614045E+03  0.50400001928E-02 0.  1.
       -1    1    3    3    0  502  0.23629148227E+00 -0.21414028071E+03  0.56837341921E+03  0.60737505657E+03  0.50400001928E-02 0. -1.
</event>
<event>
 5   0  0.2204090E-04  0.1217215E+04  0.7818609E-02  0.9097920E-01
        1   -1    0    0  501    0  0.00000000000E+00  0.00000000000E+00  0.31219044184E+03  0.31219044188E+03  0.50400001928E-02 0.  1.
       -1   -1    0    0    0  501  0.00000000000E+00  0.00000000000E+00 -0.11864658451E+04  0.11864658451E+04  0.50400001928E-02 0. -1.
    10030    2    1    2    0    0  0.00000000000E+00  0.00000000000E+00 -0.87427540321E+03  0.14986562869E+04  0.12172153407E+04 0.  0.
        2    1    3    3  502    0  0.41854042405E+03  0.11351178849E+03  0.88611131714E+02  0.44262054331E+03  0.25500000920E-02 0.  1.
       -2    1    3    3    0  502 -0.41854042405E+03 -0.11351178849E+03 -0.96288653492E+03  0.10560357436E+04  0.25500000920E-02 0. -1.
</event>
<event>
 5   0  0.4122956E-04  0.1195349E+04  0.7818609E-02  0.9116937E-01
       -2   -1    0    0    0  501  0.00000000000E+00  0.00000000000E+00  0.38000385830E+03  0.38000385830E+03  0.25500000920E-02 0. -1.
        2   -1    0    0  501    0  0.00000000000E+00  0.00000000000E+00 -0.94002968617E+03  0.94002968617E+03  0.25500000920E-02 0.  1.
    10030    2    1    2    0    0  0.00000000000E+00  0.00000000000E+00 -0.56002582787E+03  0.13200335445E+04  0.11953491668E+04 0.  0.
        5    1    3    3  502    0 -0.33186003294E+01 -0.23948787172E+03 -0.88469321074E+03  0.91655311954E+03  0.46999998093E+01 0.  1.
       -5    1    3    3    0  502  0.33186003294E+01  0.23948787172E+03  0.32466738287E+03  0.40348042494E+03  0.46999998093E+01 0. -1.
</event>
<event>
 5   0  0.2204090E-04  0.1199379E+04  0.7818609E-02  0.9113400E-01
       -1   -1    0    0    0  501  0.00000000000E+00  0.00000000000E+00  0.67772961151E+03  0.67772961153E+03  0.50400001928E-02 0.  1.
        1   -1    0    0  501    0  0.00000000000E+00  0.00000000000E+00 -0.53063594980E+03  0.53063594982E+03  0.50400001928E-02 0. -1.
    10030    2    1    2    0    0  0.00000000000E+00  0.00000000000E+00  0.14709366171E+03  0.12083655613E+04  0.11993793330E+04 0.  0.
        2    1    3    3  502    0  0.25403149070E+03 -0.19025346193E+03  0.58618062369E+03  0.66658540461E+03  0.25500000920E-02 0.  1.
       -2    1    3    3    0  502 -0.25403149070E+03  0.19025346193E+03 -0.43908696198E+03  0.54178015674E+03  0.25500000920E-02 0. -1.
</event>
<event>
 5   0  0.3883890E-04  0.1201680E+04  0.7818609E-02  0.9111387E-01
        2   -1    0    0  501    0  0.00000000000E+00  0.00000000000E+00  0.24075687755E+04  0.24075687755E+04  0.25500000920E-02 0. -1.
       -2   -1    0    0    0  501  0.00000000000E+00  0.00000000000E+00 -0.14994740661E+03  0.14994740663E+03  0.25500000920E-02 0.  1.
    10030    2    1    2    0    0  0.00000000000E+00  0.00000000000E+00  0.22576213689E+04  0.25575161822E+04  0.12016799809E+04 0.  0.
        2    1    3    3  502    0  0.27387532748E+02 -0.30840920798E+03  0.22247061685E+04  0.22461486711E+04  0.25500000920E-02 0. -1.
       -2    1    3    3    0  502 -0.27387532748E+02  0.30840920798E+03  0.32915200424E+02  0.31136751106E+03  0.25500000920E-02 0.  1.
</event>
<event>
 5   0  0.3993723E-04  0.1201750E+04  0.7818609E-02  0.9111326E-01
        2   -1    0    0  501    0  0.00000000000E+00  0.00000000000E+00  0.24928962927E+04  0.24928962927E+04  0.25500000920E-02 0. -1.
       -2   -1    0    0    0  501  0.00000000000E+00  0.00000000000E+00 -0.14483187268E+03  0.14483187270E+03  0.25500000920E-02 0.  1.
    10030    2    1    2    0    0  0.00000000000E+00  0.00000000000E+00  0.23480644200E+04  0.26377281654E+04  0.12017501213E+04 0.  0.
        3    1    3    3  502    0 -0.20483900446E+02  0.55049259351E+03  0.64730449728E+03  0.84997929862E+03  0.10100000352E+00 0.  1.
       -3    1    3    3    0  502  0.20483900446E+02 -0.55049259351E+03  0.17007599227E+04  0.17877488668E+04  0.10100000352E+00 0. -1.
</event>
<event>
 5   0  0.1541375E-04  0.1194547E+04  0.7818609E-02  0.9117643E-01
        3   -1    0    0  501    0  0.00000000000E+00  0.00000000000E+00  0.21822660244E+03  0.21822662582E+03  0.10100000352E+00 0. -1.
       -3   -1    0    0    0  501  0.00000000000E+00  0.00000000000E+00 -0.16347031618E+04  0.16347031650E+04  0.10100000352E+00 0.  1.
    10030    2    1    2    0    0  0.00000000000E+00  0.00000000000E+00 -0.14164765594E+04  0.18529297908E+04  0.11945471804E+04 0.  0.
        4    1    3    3  502    0 -0.73066205543E+02  0.15437869950E+03  0.17953661826E+03  0.24780327570E+03  0.12699999809E+01 0. -1.
       -4    1    3    3    0  502  0.73066205543E+02 -0.15437869950E+03 -0.15960131777E+04  0.16051265151E+04  0.12699999809E+01 0.  1.
</event>
<event>
 5   0  0.4024486E-04  0.1201825E+04  0.7818609E-02  0.9111261E-01
        2   -1    0    0  501    0  0.00000000000E+00  0.00000000000E+00  0.70758622995E+03  0.70758622996E+03  0.25500000920E-02 0. -1.
       -2   -1    0    0    0  501  0.00000000000E+00  0.00000000000E+00 -0.51032032120E+03  0.51032032120E+03  0.25500000920E-02 0.  1.
    10030    2    1    2    0    0  0.00000000000E+00  0.00000000000E+00  0.19726590876E+03  0.12179065512E+04  0.12018246663E+04 0.  0.
        1    1    3    3  502    0 -0.42168370797E+03 -0.33086703248E+03 -0.17667400216E+03  0.56436144962E+03  0.50400001928E-02 0.  1.
       -1    1    3    3    0  502  0.42168370797E+03  0.33086703248E+03  0.37393991092E+03  0.65354510154E+03  0.50400001928E-02 0. -1.
</event>
<event>
 5   0  0.3832662E-04  0.1196744E+04  0.7818609E-02  0.9115711E-01
       -2   -1    0    0    0  501  0.00000000000E+00  0.00000000000E+00  0.23457824511E+03  0.23457824513E+03  0.25500000920E-02 0. -1.
        2   -1    0    0  501    0  0.00000000000E+00  0.00000000000E+00 -0.15263535384E+04  0.15263535384E+04  0.25500000920E-02 0.  1.
    10030    2    1    2    0    0  0.00000000000E+00  0.00000000000E+00 -0.12917752933E+04  0.17609317835E+04  0.11967444748E+04 0.  0.
        4    1    3    3  502    0  0.47418024894E+03 -0.35456134739E+03 -0.51856757493E+03  0.78706708750E+03  0.12699999809E+01 0. -1.
       -4    1    3    3    0  502 -0.47418024894E+03  0.35456134739E+03 -0.77320771835E+03  0.97386469602E+03  0.12699999809E+01 0.  1.
</event>
<event>
 5   0  0.2244308E-04  0.1188010E+04  0.7818609E-02  0.9123416E-01
       -1   -1    0    0    0  501  0.00000000000E+00  0.00000000000E+00  0.86854466523E+03  0.86854466525E+03  0.50400001928E-02 0. -1.
        1   -1    0    0  501    0  0.00000000000E+00  0.00000000000E+00 -0.40624512582E+03  0.40624512585E+03  0.50400001928E-02 0.  1.
    10030    2    1    2    0    0  0.00000000000E+00  0.00000000000E+00  0.46229953942E+03  0.12747897911E+04  0.11880101630E+04 0.  0.
        5    1    3    3  502    0  0.56995454834E+03 -0.63798405684E+02  0.65255567085E+02  0.57723375055E+03  0.46999998093E+01 0.  1.
       -5    1    3    3    0  502 -0.56995454834E+03  0.63798405684E+02  0.39704397233E+03  0.69755604055E+03  0.46999998093E+01 0. -1.
</event>
<event>
 5   0  0.2204090E-04  0.1203638E+04  0.7818609E-02  0.9109678E-01
       -1   -1    0    0    0  501  0.00000000000E+00  0.00000000000E+00  0.16395688152E+03  0.16395688159E+03  0.50400001928E-02 0. -1.
        1   -1    0    0  501    0  0.00000000000E+00  0.00000000000E+00 -0.22090318457E+04  0.22090318458E+04  0.50400001928E-02 0.  1.
    10030    2    1    2    0    0  0.00000000000E+00  0.00000000000E+00 -0.20450749642E+04  0.23729887273E+04  0.12036377739E+04 0.  0.
        2    1    3    3  502    0 -0.48062172765E+03 -0.54675883396E+02 -0.31663834414E+03  0.57814058697E+03  0.25500000920E-02 0. -1.
       -2    1    3    3    0  502  0.48062172765E+03  0.54675883396E+02 -0.17284366201E+04  0.17948481404E+04  0.25500000920E-02 0.  1.
</event>
<event>
 5   0  0.2244308E-04  0.1203319E+04  0.7818609E-02  0.9109957E-01
        1   -1    0    0  501    0  0.00000000000E+00  0.00000000000E+00  0.93610474988E+03  0.93610474990E+03  0.50400001928E-02 0. -1.
       -1   -1    0    0    0  501  0.00000000000E+00  0.00000000000E+00 -0.38670239667E+03  0.38670239670E+03  0.50400001928E-02 0.  1.
    10030    2    1    2    0    0  0.00000000000E+00  0.00000000000E+00  0.54940235321E+03  0.13228071466E+04  0.12033186616E+04 0.  0.
        5    1    3    3  502    0 -0.10769282956E+03 -0.50401405271E+03 -0.66513814478E+02  0.51968652896E+03  0.46999998093E+01 0.  1.
       -5    1    3    3    0  502  0.10769282956E+03  0.50401405271E+03  0.61591616769E+03  0.80312061764E+03  0.46999998093E+01 0. -1.
</event>
<event>
 5   0  0.3993723E-04  0.1199594E+04  0.7818609E-02  0.9113212E-01
        2   -1    0    0  501    0  0.00000000000E+00  0.00000000000E+00  0.30371490764E+03  0.30371490765E+03  0.25500000920E-02 0. -1.
       -2   -1    0    0    0  501  0.00000000000E+00  0.00000000000E+00 -0.11845204541E+04  0.11845204541E+04  0.25500000920E-02 0.  1.
    10030    2    1    2    0    0  0.00000000000E+00  0.00000000000E+00 -0.88080554650E+03  0.14882353618E+04  0.11995941319E+04 0.  0.
        3    1    3    3  502    0  0.29212800868E+03  0.24897922448E+03  0.13139469632E+03  0.40570186603E+03  0.10100000352E+00 0. -1.
       -3    1    3    3    0  502 -0.29212800868E+03 -0.24897922448E+03 -0.10122002428E+04  0.10825334958E+04  0.10100000352E+00 0.  1.
</event>
<event>
 5   0  0.3883890E-04  0.1202705E+04  0.7818609E-02  0.9110492E-01
        2   -1    0    0  501    0  0.00000000000E+00  0.00000000000E+00  0.11957474784E+04  0.11957474784E+04  0.25500000920E-02 0. -1.
       -2   -1    0    0    0  501  0.00000000000E+00  0.00000000000E+00 -0.30242582588E+03  0.30242582589E+03  0.25500000920E-02 0.  1.
    10030    2    1    2    0    0  0.00000000000E+00  0.00000000000E+00  0.89332165253E+03  0.14981733043E+04  0.12027051488E+04 0.  0.
        2    1    3    3  502    0  0.59826434173E+03  0.13661664684E+02  0.37277617988E+03  0.70503116524E+03  0.25500000920E-02 0. -1.
       -2    1    3    3    0  502 -0.59826434173E+03 -0.13661664684E+02  0.52054547265E+03  0.79314213907E+03  0.25500000920E-02 0.  1.
</event>
<event>
 5   0  0.4122956E-04  0.1203476E+04  0.7818609E-02  0.9109819E-01
        2   -1    0    0  501    0  0.00000000000E+00  0.00000000000E+00  0.19122907766E+04  0.19122907766E+04  0.25500000920E-02 0.  1.
       -2   -1    0    0    0  501  0.00000000000E+00  0.00000000000E+00 -0.18934824047E+03  0.18934824049E+03  0.25500000920E-02 0. -1.
    10030    2    1    2    0    0  0.00000000000E+00  0.00000000000E+00  0.17229425361E+04  0.21016390171E+04  0.12034764540E+04 0.  0.
        5    1    3    3  502    0 -0.51425881685E+02 -0.12926953989E+03  0.18837866780E+04  0.18889228606E+04  0.46999998093E+01 0.  1.
       -5    1    3    3    0  502  0.51425881685E+02  0.12926953989E+03 -0.16084414186E+03  0.21271615646E+03  0.46999998093E+01 0. -1.
</event>
<event>
 5   0  0.2304842E-04  0.1198766E+04  0.7818609E-02  0.9113937E-01
        1   -1    0    0  501    0  0.00000000000E+00  0.00000000000E+00  0.40926676524E+03  0.40926676527E+03  0.50400001928E-02 0. -1.
       -1   -1    0    0    0  501  0.00000000000E+00  0.00000000000E+00 -0.87781398231E+03  0.87781398232E+03  0.50400001928E-02 0.  1.
    10030    2    1    2    0    0  0.00000000000E+00  0.00000000000E+00 -0.46854721707E+03  0.12870807476E+04  0.11987661808E+04 0.  0.
        4    1    3    3  502    0 -0.30072145936E+02 -0.58959527695E+03 -0.12304856851E+03  0.60305015353E+03  0.12699999809E+01 0. -1.
       -4    1    3    3    0  502  0.30072145936E+02  0.58959527695E+03 -0.34549864855E+03  0.68403059406E+03  0.12699999809E+01 0.  1.
</event>
<event>
 5   0  0.2315038E-04  0.1200028E+04  0.7818609E-02  0.9112832E-01
        1   -1    0    0  501    0  0.00000000000E+00  0.00000000000E+00  0.99833203803E+03  0.99833203804E+03  0.50400001928E-02 0.  1.
       -1   -1    0    0    0  501  0.00000000000E+00  0.00000000000E+00 -0.36061839647E+03  0.36061839651E+03  0.50400001928E-02 0. -1.
    10030    2    1    2    0    0  0.00000000000E+00  0.00000000000E+00  0.63771364156E+03  0.13589504346E+04  0.12000281642E+04 0.  0.
        1    1    3    3  502    0  0.24004943420E+02  0.13940919096E+03 -0.34146447182E+03  0.36960674423E+03  0.50400001928E-02 0. -1.
       -1    1    3    3    0  502 -0.24004943420E+02 -0.13940919096E+03  0.97917811338E+03  0.98934369033E+03  0.50400001928E-02 0.  1.
</event>
<event>
 5   0  0.3883890E-04  0.1216493E+04  0.7818609E-02  0.9098541E-01
       -2   -1    0    0    0  501  0.00000000000E+00  0.00000000000E+00  0.20256638689E+03  0.20256638690E+03  0.25500000920E-02 0.  1.
        2   -1    0    0  501    0  0.00000000000E+00  0.00000000000E+00 -0.18263836199E+04  0.18263836199E+04  0.25500000920E-02 0. -1.
    10030    2    1    2    0    0  0.00000000000E+00  0.00000000000E+00 -0.16238172330E+04  0.20289500068E+04  0.12164932075E+04 0.  0.
        2    1    3    3  502    0  0.13480676867E+03 -0.55993451229E+03 -0.48565212812E+03  0.75336413008E+03  0.25500000920E-02 0.  1.
       -2    1    3    3    0  502 -0.13480676867E+03  0.55993451229E+03 -0.11381651049E+04  0.12755858768E+04  0.25500000920E-02 0. -1.
</event>
<event>
 5   0  0.1541375E-04  0.1198586E+04  0.7818609E-02  0.9114095E-01
       -3   -1    0    0    0  501  0.00000000000E+00  0.00000000000E+00  0.48173223359E+03  0.48173224418E+03  0.10100000352E+00 0.  1.
        3   -1    0    0  501    0  0.00000000000E+00  0.00000000000E+00 -0.74554276318E+03  0.74554277002E+03  0.10100000352E+00 0. -1.
    10030    2    1    2    0    0  0.00000000000E+00  0.00000000000E+00 -0.26381052959E+03  0.12272750142E+04  0.11985858188E+04 0.  0.
        2    1    3    3  502    0  0.48875765418E+03  0.34383320691E+03 -0.17822829267E+03  0.62359493504E+03  0.25500000920E-02 0. -1.
       -2    1    3    3    0  502 -0.48875765418E+03 -0.34383320691E+03 -0.85582236921E+02  0.60368007916E+03  0.25500000920E-02 0.  1.
</event>
<event>
 5   0  0.2304842E-04  0.1199943E+04  0.7818609E-02  0.9112906E-01
        1   -1    0    0  501    0  0.00000000000E+00  0.00000000000E+00  0.18587484839E+04  0.18587484839E+04  0.50400001928E-02 0.  1.
       -1   -1    0    0    0  501  0.00000000000E+00  0.00000000000E+00 -0.19366034229E+03  0.19366034235E+03  0.50400001928E-02 0. -1.
    10030    2    1    2    0    0  0.00000000000E+00  0.00000000000E+00  0.16650881417E+04  0.20524088263E+04  0.11999431115E+04 0.  0.
        4    1    3    3  502    0 -0.59035439183E+03 -0.10698287442E+03  0.83120662343E+03  0.10251193624E+04  0.12699999809E+01 0.  1.
       -4    1    3    3    0  502  0.59035439183E+03  0.10698287442E+03  0.83388151822E+03  0.10272894639E+04  0.12699999809E+01 0. -1.
</event>
<event>
 5   0  0.3832662E-04  0.1201172E+04  0.7818609E-02  0.9111832E-01
       -2   -1    0    0    0  501  0.00000000000E+00  0.00000000000E+00  0.94479547077E+03  0.94479547077E+03  0.25500000920E-02 0. -1.
        2   -1    0    0  501    0  0.00000000000E+00  0.00000000000E+00 -0.38177929349E+03  0.38177929350E+03  0.25500000920E-02 0.  1.
    10030    2    1    2    0    0  0.00000000000E+00  0.00000000000E+00  0.56301617728E+03  0.13265747643E+04  0.12011716735E+04 0.  0.
        4    1    3    3  502    0  0.57749026770E+03  0.16493822079E+03  0.28311173893E+03  0.66396799290E+03  0.12699999809E+01 0.  1.
       -4    1    3    3    0  502 -0.57749026770E+03 -0.16493822079E+03  0.27990443834E+03  0.66260677138E+03  0.12699999809E+01 0. -1.
</event>
<event>
 5   0  0.2244308E-04  0.1199283E+04  0.7818609E-02  0.9113484E-01
       -1   -1    0    0    0  501  0.00000000000E+00  0.00000000000E+00  0.17439956499E+03  0.17439956507E+03  0.50400001928E-02 0.  1.
        1   -1    0    0  501    0  0.00000000000E+00  0.00000000000E+00 -0.20617596251E+04  0.20617596251E+04  0.50400001928E-02 0. -1.
    10030    2    1    2    0    0  0.00000000000E+00  0.00000000000E+00 -0.18873600601E+04  0.22361591902E+04  0.11992830889E+04 0.  0.
        5    1    3    3  502    0  0.59713678736E+03  0.54436123788E+02 -0.95020804297E+03  0.11235893597E+04  0.46999998093E+01 0.  1.
       -5    1    3    3    0  502 -0.59713678736E+03 -0.54436123788E+02 -0.93715201718E+03  0.11125698305E+04  0.46999998093E+01 0. -1.
</event>
<event>
 5   0  0.3993723E-04  0.1204438E+04  0.7818609E-02  0.9108980E-01
        2   -1    0    0  501    0  0.00000000000E+00  0.00000000000E+00  0.12477978545E+04  0.12477978545E+04  0.25500000920E-02 0. -1.
       -2   -1    0    0    0  501  0.00000000000E+00  0.00000000000E+00 -0.29064643672E+03  0.29064643673E+03  0.25500000920E-02 0.  1.
    10030    2    1    2    0    0  0.00000000000E+00  0.00000000000E+00  0.95715141774E+03  0.15384442912E+04  0.12044384586E+04 0.  0.
        3    1    3    3  502    0 -0.55942428884E+03 -0.59598536239E+02  0.20414527718E+03  0.59848377160E+03  0.10100000352E+00 0. -1.
       -3    1    3    3    0  502  0.55942428884E+03  0.59598536239E+02  0.75300614056E+03  0.93996051960E+03  0.10100000352E+00 0.  1.
</event>
<event>
 5   0  0.4024486E-04  0.1198949E+04  0.7818609E-02  0.9113777E-01
        2   -1    0    0  501    0  0.00000000000E+00  0.00000000000E+00  0.80841298781E+03  0.80841298781E+03  0.25500000920E-02 0.  1.
       -2   -1    0    0    0  501  0.00000000000E+00  0.00000000000E+00 -0.44453708188E+03  0.44453708189E+03  0.25500000920E-02 0. -1.
    10030    2    1    2    0    0  0.00000000000E+00  0.00000000000E+00  0.36387590593E+03  0.12529500697E+04  0.11989487905E+04 0.  0.
        1    1    3    3  502    0  0.20943642051E+03  0.11695637928E+03 -0.39219473797E+03  0.45973810088E+03  0.50400001928E-02 0. -1.
       -1    1    3    3    0  502 -0.20943642051E+03 -0.11695637928E+03  0.75607064389E+03  0.79321196882E+03  0.50400001928E-02 0.  1.
</event>
<event>
 5   0  0.2315038E-04  0.1197043E+04  0.7818609E-02  0.9115449E-01
       -1   -1    0    0    0  501  0.00000000000E+00  0.00000000000E+00  0.12082029789E+04  0.12082029790E+04  0.50400001928E-02 0. -1.
        1   -1    0    0  501    0  0.00000000000E+00  0.00000000000E+00 -0.29649654421E+03  0.29649654425E+03  0.50400001928E-02 0.  1.
    10030    2    1    2    0    0  0.00000000000E+00  0.00000000000E+00  0.91170643474E+03  0.15046995232E+04  0.11970430368E+04 0.  0.
        1    1    3    3  502    0  0.71330473513E+02 -0.55665552247E+03  0.19436233297E+03  0.59391087181E+03  0.50400001928E-02 0.  1.
       -1    1    3    3    0  502 -0.71330473513E+02  0.55665552247E+03  0.71734410177E+03  0.91078865140E+03  0.50400001928E-02 0. -1.
</event>
<event>
 5   0  0.1541375E-04  0.1199478E+04  0.7818609E-02  0.9113314E-01
        3   -1    0    0  501    0  0.00000000000E+00  0.00000000000E+00  0.67524741915E+03  0.67524742671E+03  0.10100000352E+00 0.  1.
       -3   -1    0    0    0  501  0.00000000000E+00  0.00000000000E+00 -0.53267421439E+03  0.53267422397E+03  0.10100000352E+00 0. -1.
    10030    2    1    2    0    0  0.00000000000E+00  0.00000000000E+00  0.14257320476E+03  0.12079216507E+04  0.11994780513E+04 0.  0.
        3    1    3    3  502    0  0.11946925380E+03 -0.58344158827E+03  0.14256549622E+03  0.61237400373E+03  0.10100000352E+00 0.  1.
       -3    1    3    3    0  502 -0.11946925380E+03  0.58344158827E+03  0.77085409633E-02  0.59554764695E+03  0.10100000352E+00 0. -1.
</event>
<event>
 5   0  0.2204090E-04  0.1200410E+04  0.7818609E-02  0.9112498E-01
        1   -1    0    0  501    0  0.00000000000E+00  0.00000000000E+00  0.13838269829E+04  0.13838269829E+04  0.50400001928E-02 0.  1.
       -1   -1    0    0    0  501  0.00000000000E+00  0.00000000000E+00 -0.26032579676E+03  0.26032579680E+03  0.50400001928E-02 0. -1.
    10030    2    1    2    0    0  0.00000000000E+00  0.00000000000E+00  0.11235011862E+04  0.16441527797E+04  0.12004097000E+04 0.  0.
        2    1    3    3  502    0  0.17521586975E+03 -0.55355237372E+03  0.77003359666E+03  0.96440270191E+03  0.25500000920E-02 0. -1.
       -2    1    3    3    0  502 -0.17521586975E+03  0.55355237372E+03  0.35346758950E+03  0.67975007782E+03  0.25500000920E-02 0.  1.
</event>
<event>
 5   0  0.2304842E-04  0.1200938E+04  0.7818609E-02  0.9112036E-01
        1   -1    0    0  501    0  0.00000000000E+00  0.00000000000E+00  0.19013544416E+04  0.19013544416E+04  0.50400001928E-02 0.  1.
       -1   -1    0    0    0  501  0.00000000000E+00  0.00000000000E+00 -0.18963490133E+03  0.18963490140E+03  0.50400001928E-02 0. -1.
    10030    2    1    2    0    0  0.00000000000E+00  0.00000000000E+00  0.17117195403E+04  0.20909893430E+04  0.12009382366E+04 0.  0.
        4    1    3    3  502    0 -0.15585658540E+03 -0.52292166781E+03  0.41945329565E+03  0.68824488811E+03  0.12699999809E+01 0. -1.
       -4    1    3    3    0  502  0.15585658540E+03  0.52292166781E+03  0.12922662447E+04  0.14027444549E+04  0.12699999809E+01 0.  1.
</event>
<event>
 5   0  0.2304842E-04  0.1201156E+04  0.7818609E-02  0.9111845E-01
       -1   -1    0    0    0  501  0.00000000000E+00  0.00000000000E+00  0.13784485765E+03  0.13784485774E+03  0.50400001928E-02 0.  1.
        1   -1    0    0  501    0  0.00000000000E+00  0.00000000000E+00 -0.26166671498E+04  0.26166671498E+04  0.50400001928E-02 0. -1.
    10030    2    1    2    0    0  0.00000000000E+00  0.00000000000E+00 -0.24788222921E+04  0.27545120075E+04  0.12011562944E+04 0.  0.
        4    1    3    3  502    0 -0.18044161427E+03 -0.50213142843E+03 -0.18715964184E+04  0.19461680076E+04  0.12699999809E+01 0. -1.
       -4    1    3    3    0  502  0.18044161427E+03  0.50213142843E+03 -0.60722587371E+03  0.80834399990E+03  0.12699999809E+01 0.  1.
</event>
<event>
 5   0  0.2315038E-04  0.1199594E+04  0.7818609E-02  0.9113212E-01
       -1   -1    0    0    0  501  0.00000000000E+00  0.00000000000E+00  0.13414786358E+03  0.13414786367E+03  0.50400001928E-02 0. -1.
        1   -1    0    0  501    0  0.00000000000E+00  0.00000000000E+00 -0.26817914866E+04  0.26817914866E+04  0.50400001928E-02 0.  1.
    10030    2    1    2    0    0  0.00000000000E+00  0.00000000000E+00 -0.25476436230E+04  0.28159393503E+04  0.11995942625E+04 0.  0.
        1    1    3    3  502    0 -0.45817876644E+03  0.33997900157E+03 -0.17082074144E+04  0.18009680936E+04  0.50400001928E-02 0.  1.
       -1    1    3    3    0  502  0.45817876644E+03 -0.33997900157E+03 -0.83943620862E+03  0.10149712567E+04  0.50400001928E-02 0. -1.
</event>
<event>
 5   0  0.4122956E-04  0.1201688E+04  0.7818609E-02  0.9111381E-01
        2   -1    0    0  501    0  0.00000000000E+00  0.00000000000E+00  0.16250690902E+04  0.16250690902E+04  0.25500000920E-02 0.  1.
       -2   -1    0    0    0  501  0.00000000000E+00  0.00000000000E+00 -0.22215259329E+03  0.22215259330E+03  0.25500000920E-02 0. -1.
    10030    2    1    2    0    0  0.00000000000E+00  0.00000000000E+00  0.14029164969E+04  0.18472216835E+04  0.12016876677E+04 0.  0.
        5    1    3    3  502    0  0.35865125246E+03 -0.60133716136E+02  0.14366534859E+04  0.14819723726E+04  0.46999998093E+01 0.  1.
       -5    1    3    3    0  502 -0.35865125246E+03  0.60133716136E+02 -0.33736988928E+02  0.36524931092E+03  0.46999998093E+01 0. -1.
</event>
<event>
 5   0  0.3883890E-04  0.1199821E+04  0.7818609E-02  0.9113013E-01
       -2   -1    0    0    0  501  0.00000000000E+00  0.00000000000E+00  0.96301729862E+03  0.96301729862E+03  0.25500000920E-02 0. -1.
        2   -1    0    0  501    0  0.00000000000E+00  0.00000000000E+00 -0.37371366902E+03  0.37371366902E+03  0.25500000920E-02 0.  1.
    10030    2    1    2    0    0  0.00000000000E+00  0.00000000000E+00  0.58930362960E+03  0.13367309676E+04  0.11998212000E+04 0.  0.
        2    1    3    3  502    0 -0.97783669766E+02 -0.32855735641E+03  0.84315214679E+03  0.91017422792E+03  0.25500000920E-02 0. -1.
       -2    1    3    3    0  502  0.97783669766E+02  0.32855735641E+03 -0.25384851719E+03  0.42655673973E+03  0.25500000920E-02 0.  1.
</event>
<event>
 5   0  0.2204090E-04  0.1199629E+04  0.7818609E-02  0.9113181E-01
       -1   -1    0    0    0  501  0.00000000000E+00  0.00000000000E+00  0.34763496870E+03  0.34763496874E+03  0.50400001928E-02 0.  1.
        1   -1    0    0  501    0  0.00000000000E+00  0.00000000000E+00 -0.10349291127E+04  0.10349291127E+04  0.50400001928E-02 0. -1.
    10030    2    1    2    0    0  0.00000000000E+00  0.00000000000E+00 -0.68729414400E+03  0.13825640815E+04  0.11996291923E+04 0.  0.
        2    1    3    3  502    0 -0.32190395768E+03  0.22634698438E+03 -0.86536168059E+03  0.95063450051E+03  0.25500000920E-02 0.  1.
       -2    1    3    3    0  502  0.32190395768E+03 -0.22634698438E+03  0.17806753659E+03  0.43192958095E+03  0.25500000920E-02 0. -1.
</event>
<event>
 5   0  0.2304842E-04  0.1200414E+04  0.7818609E-02  0.9112494E-01
        1   -1    0    0  501    0  0.00000000000E+00  0.00000000000E+00  0.28573404846E+03  0.28573404850E+03  0.50400001928E-02 0. -1.
       -1   -1    0    0    0  501  0.00000000000E+00  0.00000000000E+00 -0.12607825518E+04  0.12607825518E+04  0.50400001928E-02 0.  1.
    10030    2    1    2    0    0  0.00000000000E+00  0.00000000000E+00 -0.97504850333E+03  0.15465166003E+04  0.12004140999E+04 0.  0.
        4    1    3    3  502    0  0.53056334151E+02 -0.57377348724E+03 -0.70393082921E+03  0.90969841952E+03  0.12699999809E+01 0.  1.
       -4    1    3    3    0  502 -0.53056334151E+02  0.57377348724E+03 -0.27111767412E+03  0.63681818079E+03  0.12699999809E+01 0. -1.
</event>
<event>
 5   0  0.2340731E-04  0.1199659E+04  0.7818609E-02  0.9113155E-01
        1   -1    0    0  501    0  0.00000000000E+00  0.00000000000E+00  0.81790313709E+03  0.81790313710E+03  0.50400001928E-02 0.  1.
       -1   -1    0    0    0  501  0.00000000000E+00  0.00000000000E+00 -0.43989983652E+03  0.43989983655E+03  0.50400001928E-02 0. -1.
    10030    2    1    2    0    0  0.00000000000E+00  0.00000000000E+00  0.37800330057E+03  0.12578029736E+04  0.11996590454E+04 0.  0.
        3    1    3    3  502    0  0.14199758312E+03  0.56364080052E+03  0.33696885854E+02  0.58222826790E+03  0.10100000352E+00 0. -1.
       -3    1    3    3    0  502 -0.14199758312E+03 -0.56364080052E+03  0.34430641472E+03  0.67557470574E+03  0.10100000352E+00 0.  1.
</event>
<event>
 5   0  0.2315038E-04  0.1212221E+04  0.7818609E-02  0.9102226E-01
       -1   -1    0    0    0  501  0.00000000000E+00  0.00000000000E+00  0.28791632417E+03  0.28791632421E+03  0.50400001928E-02 0. -1.
        1   -1    0    0  501    0  0.00000000000E+00  0.00000000000E+00 -0.12759609974E+04  0.12759609974E+04  0.50400001928E-02 0.  1.
    10030    2    1    2    0    0  0.00000000000E+00  0.00000000000E+00 -0.98804467326E+03  0.15638773217E+04  0.12122211023E+04 0.  0.
        1    1    3    3  502    0 -0.43144929561E+03 -0.19315207594E+03 -0.98343142921E+03  0.10911432514E+04  0.50400001928E-02 0.  1.
       -1    1    3    3    0  502  0.43144929561E+03  0.19315207594E+03 -0.46132440496E+01  0.47273407024E+03  0.50400001928E-02 0. -1.
</event>
<event>
 5   0  0.2204090E-04  0.1204408E+04  0.7818609E-02  0.9109007E-01
       -1   -1    0    0    0  501  0.00000000000E+00  0.00000000000E+00  0.80752978184E+03  0.80752978185E+03  0.50400001928E-02 0.  1.
        1   -1    0    0  501    0  0.00000000000E+00  0.00000000000E+00 -0.44908549086E+03  0.44908549089E+03  0.50400001928E-02 0. -1.
    10030    2    1    2    0    0  0.00000000000E+00  0.00000000000E+00  0.35844429098E+03  0.12566152727E+04  0.12044084166E+04 0.  0.
        2    1    3    3  502    0  0.20252374044E+03  0.28012994329E+03 -0.33526643859E+03  0.48155190314E+03  0.25500000920E-02 0. -1.
       -2    1    3    3    0  502 -0.20252374044E+03 -0.28012994329E+03  0.69371072957E+03  0.77506336960E+03  0.25500000920E-02 0.  1.
</event>
<event>
 5   0  0.2304842E-04  0.1176084E+04  0.7818609E-02  0.9134052E-01
        1   -1    0    0  501    0  0.00000000000E+00  0.00000000000E+00  0.19223853213E+04  0.19223853214E+04  0.50400001928E-02 0. -1.
       -1   -1    0    0    0  501  0.00000000000E+00  0.00000000000E+00 -0.17987723521E+03  0.17987723528E+03  0.50400001928E-02 0.  1.
    10030    2    1    2    0    0  0.00000000000E+00  0.00000000000E+00  0.17425080861E+04  0.21022625566E+04  0.11760839370E+04 0.  0.
        4    1    3    3  502    0  0.18516861878E+03 -0.97294298409E+00 -0.12640011812E+03  0.22420295885E+03  0.12699999809E+01 0.  1.
       -4    1    3    3    0  502 -0.18516861878E+03  0.97294298409E+00  0.18689082042E+04  0.18780595978E+04  0.12699999809E+01 0. -1.
</event>
<event>
 5   0  0.2340731E-04  0.1200354E+04  0.7818609E-02  0.9112547E-01
        1   -1    0    0  501    0  0.00000000000E+00  0.00000000000E+00  0.26029064263E+04  0.26029064263E+04  0.50400001928E-02 0.  1.
       -1   -1    0    0    0  501  0.00000000000E+00  0.00000000000E+00 -0.13838854425E+03  0.13838854434E+03  0.50400001928E-02 0. -1.
    10030    2    1    2    0    0  0.00000000000E+00  0.00000000000E+00  0.24645178821E+04  0.27412949707E+04  0.12003539999E+04 0.  0.
        3    1    3    3  502    0 -0.33887640312E+03 -0.18479419226E+03  0.18266713293E+03  0.42702857251E+03  0.10100000352E+00 0. -1.
       -3    1    3    3    0  502  0.33887640312E+03  0.18479419226E+03  0.22818507492E+04  0.23142663982E+04  0.10100000352E+00 0.  1.
</event>
<event>
 5   0  0.3883890E-04  0.1198984E+04  0.7818609E-02  0.9113746E-01
       -2   -1    0    0    0  501  0.00000000000E+00  0.00000000000E+00  0.57627220087E+03  0.57627220088E+03  0.25500000920E-02 0. -1.
        2   -1    0    0  501    0  0.00000000000E+00  0.00000000000E+00 -0.62364765717E+03  0.62364765718E+03  0.25500000920E-02 0.  1.
    10030    2    1    2    0    0  0.00000000000E+00  0.00000000000E+00 -0.47375456299E+02  0.11999198581E+04  0.11989842501E+04 0.  0.
        2    1    3    3  502    0 -0.21751922452E+03 -0.46273964957E+03  0.28952328044E+03  0.58759367444E+03  0.25500000920E-02 0. -1.
       -2    1    3    3    0  502  0.21751922452E+03  0.46273964957E+03 -0.33689873673E+03  0.61232618362E+03  0.25500000920E-02 0.  1.
</event>
<event>
 5   0  0.2244308E-04  0.1200929E+04  0.7818609E-02  0.9112044E-01
        1   -1    0    0  501    0  0.00000000000E+00  0.00000000000E+00  0.40943441794E+03  0.40943441797E+03  0.50400001928E-02 0.  1.
       -1   -1    0    0    0  501  0.00000000000E+00  0.00000000000E+00 -0.88062326048E+03  0.88062326049E+03  0.50400001928E-02 0. -1.
    10030    2    1    2    0    0  0.00000000000E+00  0.00000000000E+00 -0.47118884254E+03  0.12900576785E+04  0.12009287608E+04 0.  0.
        5    1    3    3  502    0 -0.33848661267E+03  0.25925862593E+03  0.21856827282E+03  0.47914757847E+03  0.46999998093E+01 0.  1.
       -5    1    3    3    0  502  0.33848661267E+03 -0.25925862593E+03 -0.68975711536E+03  0.81091009999E+03  0.46999998093E+01 0. -1.
</event>
<event>
 5   0  0.4024486E-04  0.1197847E+04  0.7818609E-02  0.9114744E-01
       -2   -1    0    0    0  501  0.00000000000E+00  0.00000000000E+00  0.23936161419E+03  0.23936161421E+03  0.25500000920E-02 0.  1.
        2   -1    0    0  501    0  0.00000000000E+00  0.00000000000E+00 -0.14986073164E+04  0.14986073164E+04  0.25500000920E-02 0. -1.
    10030    2    1    2    0    0  0.00000000000E+00  0.00000000000E+00 -0.12592457022E+04  0.17379689306E+04  0.11978465115E+04 0.  0.
        1    1    3    3  502    0 -0.37061187629E+03 -0.14709591394E+03 -0.12780335861E+04  0.13387905803E+04  0.50400001928E-02 0. -1.
       -1    1    3    3    0  502  0.37061187629E+03  0.14709591394E+03  0.18787883874E+02  0.39917835030E+03  0.50400001928E-02 0.  1.
</event>
<event>
 5   0  0.2340731E-04  0.1197390E+04  0.7818609E-02  0.9115144E-01
       -1   -1    0    0    0  501  0.00000000000E+00  0.00000000000E+00  0.96391073258E+03  0.96391073259E+03  0.50400001928E-02 0.  1.
        1   -1    0    0  501    0  0.00000000000E+00  0.00000000000E+00 -0.37185591239E+03  0.37185591243E+03  0.50400001928E-02 0. -1.
    10030    2    1    2    0    0  0.00000000000E+00  0.00000000000E+00  0.59205482019E+03  0.13357666450E+04  0.11973903373E+04 0.  0.
        3    1    3    3  502    0 -0.12570247147E+03 -0.25589084955E+03  0.88332191229E+03  0.92819117058E+03  0.10100000352E+00 0.  1.
       -3    1    3    3    0  502  0.12570247147E+03  0.25589084955E+03 -0.29126709211E+03  0.40757547443E+03  0.10100000352E+00 0. -1.
</event>
<event>
 5   0  0.4024486E-04  0.1200613E+04  0.7818609E-02  0.9112320E-01
       -2   -1    0    0    0  501  0.00000000000E+00  0.00000000000E+00  0.44198561306E+03  0.44198561307E+03  0.25500000920E-02 0. -1.
        2   -1    0    0  501    0  0.00000000000E+00  0.00000000000E+00 -0.81533901090E+03  0.81533901090E+03  0.25500000920E-02 0.  1.
    10030    2    1    2    0    0  0.00000000000E+00  0.00000000000E+00 -0.37335339783E+03  0.12573246240E+04  0.12006133642E+04 0.  0.
        1    1    3    3  502    0 -0.51794114667E+03  0.25611929600E+03 -0.35717993465E+03  0.67929200713E+03  0.50400001928E-02 0. -1.
       -1    1    3    3    0  502  0.51794114667E+03 -0.25611929600E+03 -0.16173463178E+02  0.57803261685E+03  0.50400001928E-02 0.  1.
</event>
<event>
 5   0  0.2315038E-04  0.1203809E+04  0.7818609E-02  0.9109529E-01
       -1   -1    0    0    0  501  0.00000000000E+00  0.00000000000E+00  0.70961426185E+03  0.70961426187E+03  0.50400001928E-02 0. -1.
        1   -1    0    0  501    0  0.00000000000E+00  0.00000000000E+00 -0.51054398110E+03  0.51054398112E+03  0.50400001928E-02 0.  1.
    10030    2    1    2    0    0  0.00000000000E+00  0.00000000000E+00  0.19907028075E+03  0.12201582430E+04  0.12038094373E+04 0.  0.
        1    1    3    3  502    0 -0.29880458036E+03 -0.52206440128E+03  0.12112879010E+03  0.61360215135E+03  0.50400001928E-02 0. -1.
       -1    1    3    3    0  502  0.29880458036E+03  0.52206440128E+03  0.77941490654E+02  0.60655609165E+03  0.50400001928E-02 0.  1.
</event>
<event>
 5   0  0.4122956E-04  0.1196033E+04  0.7818609E-02  0.9116336E-01
       -2   -1    0    0    0  501  0.00000000000E+00  0.00000000000E+00  0.24683123247E+03  0.24683123249E+03  0.25500000920E-02 0.  1.
        2   -1    0    0  501    0  0.00000000000E+00  0.00000000000E+00 -0.14488584774E+04  0.14488584774E+04  0.25500000920E-02 0. -1.
    10030    2    1    2    0    0  0.00000000000E+00  0.00000000000E+00 -0.12020272449E+04  0.16956897099E+04  0.11960326478E+04 0.  0.
        5    1    3    3  502    0  0.35553714552E+03  0.13351487292E+03 -0.12559039159E+04  0.13120783586E+04  0.46999998093E+01 0. -1.
       -5    1    3    3    0  502 -0.35553714552E+03 -0.13351487292E+03  0.53876671010E+02  0.38361135125E+03  0.46999998093E+01 0.  1.
</event>
<event>
 5   0  0.2204090E-04  0.1201425E+04  0.7818609E-02  0.9111610E-01
        1   -1    0    0  501    0  0.00000000000E+00  0.00000000000E+00  0.95026002360E+03  0.95026002362E+03  0.50400001928E-02 0. -1.
       -1   -1    0    0    0  501  0.00000000000E+00  0.00000000000E+00 -0.37974395994E+03  0.37974395998E+03  0.50400001928E-02 0.  1.
    10030    2    1    2    0    0  0.00000000000E+00  0.00000000000E+00  0.57051606366E+03  0.13300039836E+04  0.12014249945E+04 0.  0.
        2    1    3    3  502    0  0.61261376402E+02 -0.43610135866E+03  0.73753874085E+03  0.85901149325E+03  0.25500000920E-02 0. -1.
       -2    1    3    3    0  502 -0.61261376402E+02  0.43610135866E+03 -0.16702267719E+03  0.47099249035E+03  0.25500000920E-02 0.  1.
</event>
<event>
 5   0  0.3993723E-04  0.1200365E+04  0.7818609E-02  0.9112537E-01
        2   -1    0    0  501    0  0.00000000000E+00  0.00000000000E+00  0.28288887867E+03  0.28288887868E+03  0.25500000920E-02 0.  1.
       -2   -1    0    0    0  501  0.00000000000E+00  0.00000000000E+00 -0.12733589905E+04  0.12733589905E+04  0.25500000920E-02 0. -1.
    10030    2    1    2    0    0  0.00000000000E+00  0.00000000000E+00 -0.99047011179E+03  0.15562478691E+04  0.12003651061E+04 0.  0.
        3    1    3    3  502    0  0.49008544478E+03 -0.25450012743E+03 -0.19045214850E+03  0.58414560609E+03  0.10100000352E+00 0.  1.
       -3    1    3    3    0  502 -0.49008544478E+03  0.25450012743E+03 -0.80001796329E+03  0.97210226305E+03  0.10100000352E+00 0. -1.
</event>
<event>
 5   0  0.3883890E-04  0.1203843E+04  0.7818609E-02  0.9109499E-01
       -2   -1    0    0    0  501  0.00000000000E+00  0.00000000000E+00  0.33455030394E+03  0.33455030394E+03  0.25500000920E-02 0. -1.
        2   -1    0    0  501    0  0.00000000000E+00  0.00000000000E+00 -0.10829747547E+04  0.10829747547E+04  0.25500000920E-02 0.  1.
    10030    2    1    2    0    0  0.00000000000E+00  0.00000000000E+00 -0.74842445074E+03  0.14175250586E+04  0.12038430684E+04 0.  0.
        2    1    3    3  502    0 -0.22105191355E+03  0.14107860059E+03  0.26375196015E+03  0.37193039203E+03  0.25500000920E-02 0. -1.
       -2    1    3    3    0  502  0.22105191355E+03 -0.14107860059E+03 -0.10121764109E+04  0.10455946666E+04  0.25500000920E-02 0.  1.
</event>
<event>
 5   0  0.1541375E-04  0.1200957E+04  0.7818609E-02  0.9112019E-01
        4   -1    0    0  501    0  0.00000000000E+00  0.00000000000E+00  0.54194370155E+03  0.54194518961E+03  0.12699999809E+01 0. -1.
       -4   -1    0    0    0  501  0.00000000000E+00  0.00000000000E+00 -0.66533278651E+03  0.66533399861E+03  0.12699999809E+01 0.  1.
    10030    2    1    2    0    0  0.00000000000E+00  0.00000000000E+00 -0.12338908496E+03  0.12072791882E+04  0.12009571899E+04 0.  0.
        1    1    3    3  502    0  0.49881241506E+03 -0.33430629720E+03 -0.61826434321E+02  0.60365307402E+03  0.50400001928E-02 0. -1.
       -1    1    3    3    0  502 -0.49881241506E+03  0.33430629720E+03 -0.61562650644E+02  0.60362611420E+03  0.50400001928E-02 0.  1.
</event>
<event>
 5   0  0.4122956E-04  0.1199208E+04  0.7818609E-02  0.9113550E-01
        2   -1    0    0  501    0  0.00000000000E+00  0.00000000000E+00  0.24035901209E+03  0.24035901210E+03  0.25500000920E-02 0. -1.
       -2   -1    0    0    0  501  0.00000000000E+00  0.00000000000E+00 -0.14957834535E+04  0.14957834535E+04  0.25500000920E-02 0.  1.
    10030    2    1    2    0    0  0.00000000000E+00  0.00000000000E+00 -0.12554244414E+04  0.17361424656E+04  0.11992081274E+04 0.  0.
        5    1    3    3  502    0  0.13260789953E+03  0.33549308263E+03  0.65636924331E+02  0.36670254886E+03  0.46999998093E+01 0. -1.
       -5    1    3    3    0  502 -0.13260789953E+03 -0.33549308263E+03 -0.13210613658E+04  0.13694399168E+04  0.46999998093E+01 0.  1.
</event>
<event>
 5   0  0.4122956E-04  0.1199650E+04  0.7818609E-02  0.9113163E-01
       -2   -1    0    0    0  501  0.00000000000E+00  0.00000000000E+00  0.29041491406E+03  0.29041491408E+03  0.25500000920E-02 0. -1.
        2   -1    0    0  501    0  0.00000000000E+00  0.00000000000E+00 -0.12388817715E+04  0.12388817715E+04  0.25500000920E-02 0.  1.
    10030    2    1    2    0    0  0.00000000000E+00  0.00000000000E+00 -0.94846685744E+03  0.15292966856E+04  0.11996495208E+04 0.  0.
        5    1    3    3  502    0 -0.29778099141E+03  0.55854981075E+02 -0.11341423201E+04  0.11739225656E+04  0.46999998093E+01 0.  1.
       -5    1    3    3    0  502  0.29778099141E+03 -0.55854981075E+02  0.18567546264E+03  0.35537412002E+03  0.46999998093E+01 0. -1.
</event>
<event>
 5   0  0.3993723E-04  0.1199407E+04  0.7818609E-02  0.9113376E-01
        2   -1    0    0  501    0  0.00000000000E+00  0.00000000000E+00  0.42080439304E+03  0.42080439304E+03  0.25500000920E-02 0.  1.
       -2   -1    0    0    0  501  0.00000000000E+00  0.00000000000E+00 -0.85465836952E+03  0.85465836953E+03  0.25500000920E-02 0. -1.
    10030    2    1    2    0    0  0.00000000000E+00  0.00000000000E+00 -0.43385397649E+03  0.12754627626E+04  0.11994065140E+04 0.  0.
        3    1    3    3  502    0  0.21783957060E+03 -0.20872416397E+03  0.33422819054E+03  0.45025364929E+03  0.10100000352E+00 0.  1.
       -3    1    3    3    0  502 -0.21783957060E+03  0.20872416397E+03 -0.76808216703E+03  0.82520911329E+03  0.10100000352E+00 0. -1.
</event>
<event>
 5   0  0.4024486E-04  0.1207879E+04  0.7818609E-02  0.9105988E-01
       -2   -1    0    0    0  501  0.00000000000E+00  0.00000000000E+00  0.14825931562E+04  0.14825931562E+04  0.25500000920E-02 0. -1.
        2   -1    0    0  501    0  0.00000000000E+00  0.00000000000E+00 -0.24601704476E+03  0.24601704478E+03  0.25500000920E-02 0.  1.
    10030    2    1    2    0    0  0.00000000000E+00  0.00000000000E+00  0.12365761114E+04  0.17286102009E+04  0.12078794425E+04 0.  0.
        1    1    3    3  502    0 -0.27595330797E+03 -0.33889387227E+03  0.21763580762E+02  0.43757620857E+03  0.50400001928E-02 0.  1.
       -1    1    3    3    0  502  0.27595330797E+03  0.33889387227E+03  0.12148125306E+04  0.12910339924E+04  0.50400001928E-02 0. -1.
</event>
<event>
 5   0  0.2244308E-04  0.1202506E+04  0.7818609E-02  0.9110666E-01
        1   -1    0    0  501    0  0.00000000000E+00  0.00000000000E+00  0.70363803031E+03  0.70363803033E+03  0.50400001928E-02 0. -1.
       -1   -1    0    0    0  501  0.00000000000E+00  0.00000000000E+00 -0.51376587337E+03  0.51376587340E+03  0.50400001928E-02 0.  1.
    10030    2    1    2    0    0  0.00000000000E+00  0.00000000000E+00  0.18987215694E+03  0.12174039037E+04  0.12025060619E+04 0.  0.
        5    1    3    3  502    0 -0.12764712636E+03  0.71943976875E+02  0.68526685763E+03  0.70077277405E+03  0.46999998093E+01 0. -1.
       -5    1    3    3    0  502  0.12764712636E+03 -0.71943976875E+02 -0.49539470070E+03  0.51663112968E+03  0.46999998093E+01 0.  1.
</event>
<event>
 5   0  0.2315038E-04  0.1198960E+04  0.7818609E-02  0.9113768E-01
       -1   -1    0    0    0  501  0.00000000000E+00  0.00000000000E+00  0.61942483258E+03  0.61942483260E+03  0.50400001928E-02 0.  1.
        1   -1    0    0  501    0  0.00000000000E+00  0.00000000000E+00 -0.58017701534E+03  0.58017701537E+03  0.50400001928E-02 0. -1.
    10030    2    1    2    0    0  0.00000000000E+00  0.00000000000E+00  0.39247817231E+02  0.11996018480E+04  0.11989596334E+04 0.  0.
        1    1    3    3  502    0 -0.12370994821E+03  0.56306647774E+03  0.18411404049E+03  0.60518260845E+03  0.50400001928E-02 0. -1.
       -1    1    3    3    0  502  0.12370994821E+03 -0.56306647774E+03 -0.14486622326E+03  0.59441923951E+03  0.50400001928E-02 0.  1.
</event>
<event>
 5   0  0.1541375E-04  0.1200292E+04  0.7818609E-02  0.9112601E-01
       -3   -1    0    0    0  501  0.00000000000E+00  0.00000000000E+00  0.56514701656E+03  0.56514702558E+03  0.10100000352E+00 0.  1.
        3   -1    0    0  501    0  0.00000000000E+00  0.00000000000E+00 -0.63731277851E+03  0.63731278652E+03  0.10100000352E+00 0. -1.
    10030    2    1    2    0    0  0.00000000000E+00  0.00000000000E+00 -0.72165761954E+02  0.12024598121E+04  0.12002923404E+04 0.  0.
        1    1    3    3  502    0  0.36037167073E+02  0.33437639268E+02  0.56312652366E+03  0.56526828569E+03  0.50400001928E-02 0.  1.
       -1    1    3    3    0  502 -0.36037167073E+02 -0.33437639268E+02 -0.63529228562E+03  0.63719152641E+03  0.50400001928E-02 0. -1.
</event>
<event>
 5   0  0.3883890E-04  0.1202676E+04  0.7818609E-02  0.9110517E-01
        2   -1    0    0  501    0  0.00000000000E+00  0.00000000000E+00  0.92997810833E+03  0.92997810833E+03  0.25500000920E-02 0. -1.
       -2   -1    0    0    0  501  0.00000000000E+00  0.00000000000E+00 -0.38883454235E+03  0.38883454236E+03  0.25500000920E-02 0.  1.
    10030    2    1    2    0    0  0.00000000000E+00  0.00000000000E+00  0.54114356598E+03  0.13188126507E+04  0.12026763690E+04 0.  0.
        2    1    3    3  502    0  0.77729598259E+02  0.93909521746E+02  0.91628623948E+03  0.92435997392E+03  0.25500000920E-02 0. -1.
       -2    1    3    3    0  502 -0.77729598259E+02 -0.93909521746E+02 -0.37514267350E+03  0.39445267677E+03  0.25500000920E-02 0.  1.
</event>
<event>
 5   0  0.2204090E-04  0.1198130E+04  0.7818609E-02  0.9114495E-01
       -1   -1    0    0    0  501  0.00000000000E+00  0.00000000000E+00  0.48899225468E+03  0.48899225470E+03  0.50400001928E-02 0.  1.
        1   -1    0    0  501    0  0.00000000000E+00  0.00000000000E+00 -0.73391551301E+03  0.73391551303E+03  0.50400001928E-02 0. -1.
    10030    2    1    2    0    0  0.00000000000E+00  0.00000000000E+00 -0.24492325833E+03  0.12229077677E+04  0.11981302124E+04 0.  0.
        2    1    3    3  502    0  0.60757345998E+02  0.53568293344E+03 -0.38907482336E+03  0.66485101974E+03  0.25500000920E-02 0. -1.
       -2    1    3    3    0  502 -0.60757345998E+02 -0.53568293344E+03  0.14415156503E+03  0.55805674799E+03  0.25500000920E-02 0.  1.
</event>
<event>
 5   0  0.4024486E-04  0.1200069E+04  0.7818609E-02  0.9112796E-01
       -2   -1    0    0    0  501  0.00000000000E+00  0.00000000000E+00  0.41564681693E+03  0.41564681694E+03  0.25500000920E-02 0.  1.
        2   -1    0    0  501    0  0.00000000000E+00  0.00000000000E+00 -0.86621943249E+03  0.86621943249E+03  0.25500000920E-02 0. -1.
    10030    2    1    2    0    0  0.00000000000E+00  0.00000000000E+00 -0.45057261556E+03  0.12818662494E+04  0.12000689145E+04 0.  0.
        1    1    3    3  502    0 -0.19449372330E+03  0.18499426556E+03  0.34793949432E+03  0.43944576278E+03  0.50400001928E-02 0.  1.
       -1    1    3    3    0  502  0.19449372330E+03 -0.18499426556E+03 -0.79851210987E+03  0.84242048665E+03  0.50400001928E-02 0. -1.
</event>
<event>
 5   0  0.4122956E-04  0.1200718E+04  0.7818609E-02  0.9112228E-01
       -2   -1    0    0    0  501  0.00000000000E+00  0.00000000000E+00  0.67271399835E+03  0.67271399836E+03  0.25500000920E-02 0. -1.
        2   -1    0    0  501    0  0.00000000000E+00  0.00000000000E+00 -0.53578667893E+03  0.53578667894E+03  0.25500000920E-02 0.  1.
    10030    2    1    2    0    0  0.00000000000E+00  0.00000000000E+00  0.13692731942E+03  0.12085006773E+04  0.12007184500E+04 0.  0.
        5    1    3    3  502    0  0.37471562173E+03  0.15829562736E+02  0.54027343156E+03  0.65770802266E+03  0.46999998093E+01 0. -1.
       -5    1    3    3    0  502 -0.37471562173E+03 -0.15829562736E+02 -0.40334611214E+03  0.55079265463E+03  0.46999998093E+01 0.  1.
</event>
<event>
 5   0  0.1541375E-04  0.1200776E+04  0.7818609E-02  0.9112177E-01
        3   -1    0    0  501    0  0.00000000000E+00  0.00000000000E+00  0.90243879657E+03  0.90243880222E+03  0.10100000352E+00 0. -1.
       -3   -1    0    0    0  501  0.00000000000E+00  0.00000000000E+00 -0.39943518832E+03  0.39943520109E+03  0.10100000352E+00 0.  1.
    10030    2    1    2    0    0  0.00000000000E+00  0.00000000000E+00  0.50300360825E+03  0.13018740033E+04  0.12007761201E+04 0.  0.
        1    1    3    3  502    0 -0.42748393157E+03  0.12857681936E+03 -0.18378723147E+03  0.48275486192E+03  0.50400001928E-02 0.  1.
       -1    1    3    3    0  502  0.42748393157E+03 -0.12857681936E+03  0.68679083972E+03  0.81911914138E+03  0.50400001928E-02 0. -1.
</event>
<event>
 5   0  0.2340731E-04  0.1199427E+04  0.7818609E-02  0.9113358E-01
        1   -1    0    0  501    0  0.00000000000E+00  0.00000000000E+00  0.67014048367E+03  0.67014048368E+03  0.50400001928E-02 0. -1.
       -1   -1    0    0    0  501  0.00000000000E+00  0.00000000000E+00 -0.53668823205E+03  0.53668823207E+03  0.50400001928E-02 0.  1.
    10030    2    1    2    0    0  0.00000000000E+00  0.00000000000E+00  0.13345225162E+03  0.12068287158E+04  0.11994273824E+04 0.  0.
        3    1    3    3  502    0  0.52958231610E+02 -0.18483912787E+03  0.63828638298E+03  0.66661802735E+03  0.10100000352E+00 0. -1.
       -3    1    3    3    0  502 -0.52958231610E+02  0.18483912787E+03 -0.50483413136E+03  0.54021068841E+03  0.10100000352E+00 0.  1.
</event>
<event>
 5   0  0.2244308E-04  0.1202871E+04  0.7818609E-02  0.9110347E-01
       -1   -1    0    0    0  501  0.00000000000E+00  0.00000000000E+00  0.71427766904E+03  0.71427766906E+03  0.50400001928E-02 0. -1.
        1   -1    0    0  501    0  0.00000000000E+00  0.00000000000E+00 -0.50642017517E+03  0.50642017519E+03  0.50400001928E-02 0.  1.
    10030    2    1    2    0    0  0.00000000000E+00  0.00000000000E+00  0.20785749388E+03  0.12206978443E+04  0.12028709362E+04 0.  0.
        5    1    3    3  502    0 -0.25425451427E+03 -0.49678622170E+03 -0.12358261226E+03  0.57160883491E+03  0.46999998093E+01 0.  1.
       -5    1    3    3    0  502  0.25425451427E+03  0.49678622170E+03  0.33144010614E+03  0.64908900934E+03  0.46999998093E+01 0. -1.
</event>
<event>
 5   0  0.4024486E-04  0.1199799E+04  0.7818609E-02  0.9113033E-01
        2   -1    0    0  501    0  0.00000000000E+00  0.00000000000E+00  0.13335954035E+04  0.13335954035E+04  0.25500000920E-02 0.  1.
       -2   -1    0    0    0  501  0.00000000000E+00  0.00000000000E+00 -0.26985629225E+03  0.26985629226E+03  0.25500000920E-02 0. -1.
    10030    2    1    2    0    0  0.00000000000E+00  0.00000000000E+00  0.10637391113E+04  0.16034516958E+04  0.11997985014E+04 0.  0.
        1    1    3    3  502    0 -0.10089047728E+02  0.73164594549E+02 -0.26375703514E+03  0.27390257464E+03  0.50400001928E-02 0. -1.
       -1    1    3    3    0  502  0.10089047728E+02 -0.73164594549E+02  0.13274961464E+04  0.13295491211E+04  0.50400001928E-02 0.  1.
</event>
<event>
 5   0  0.3832662E-04  0.1200481E+04  0.7818609E-02  0.9112435E-01
        2   -1    0    0  501    0  0.00000000000E+00  0.00000000000E+00  0.12052215697E+04  0.12052215697E+04  0.25500000920E-02 0. -1.
       -2   -1    0    0    0  501  0.00000000000E+00  0.00000000000E+00 -0.29893986200E+03  0.29893986201E+03  0.25500000920E-02 0.  1.
    10030    2    1    2    0    0  0.00000000000E+00  0.00000000000E+00  0.90628170770E+03  0.15041614317E+04  0.12004811864E+04 0.  0.
        4    1    3    3  502    0 -0.59548519040E+02  0.58844726951E+03  0.58135382413E+03  0.82933111412E+03  0.12699999809E+01 0. -1.
       -4    1    3    3    0  502  0.59548519040E+02 -0.58844726951E+03  0.32492788357E+03  0.67483031759E+03  0.12699999809E+01 0.  1.
</event>
<event>
 5   0  0.1541375E-04  0.1200182E+04  0.7818609E-02  0.9112698E-01
       -4   -1    0    0    0  501  0.00000000000E+00  0.00000000000E+00  0.57202594653E+03  0.57202735634E+03  0.12699999809E+01 0.  1.
        4   -1    0    0  501    0  0.00000000000E+00  0.00000000000E+00 -0.62952968123E+03  0.62953096226E+03  0.12699999809E+01 0. -1.
    10030    2    1    2    0    0  0.00000000000E+00  0.00000000000E+00 -0.57503734701E+02  0.12015583186E+04  0.12001815336E+04 0.  0.
        4    1    3    3  502    0 -0.41554339295E+03 -0.43244724270E+03 -0.82250222232E+01  0.59979679312E+03  0.12699999809E+01 0.  1.
       -4    1    3    3    0  502  0.41554339295E+03  0.43244724270E+03 -0.49278712478E+02  0.60176152548E+03  0.12699999809E+01 0. -1.
</event>
<event>
 5   0  0.2204090E-04  0.1200338E+04  0.7818609E-02  0.9112560E-01
        1   -1    0    0  501    0  0.00000000000E+00  0.00000000000E+00  0.60023009729E+03  0.60023009731E+03  0.50400001928E-02 0.  1.
       -1   -1    0    0    0  501  0.00000000000E+00  0.00000000000E+00 -0.60010839436E+03  0.60010839438E+03  0.50400001928E-02 0. -1.
    10030    2    1    2    0    0  0.00000000000E+00  0.00000000000E+00  0.12170292814E+00  0.12003384917E+04  0.12003384855E+04 0.  0.
        2    1    3    3  502    0  0.37901215916E+03  0.39316562115E+03  0.24900602242E+03  0.60019448652E+03  0.25500000920E-02 0.  1.
       -2    1    3    3    0  502 -0.37901215916E+03 -0.39316562115E+03 -0.24888431949E+03  0.60014400517E+03  0.25500000920E-02 0. -1.
</event>
<event>
 5   0  0.3993723E-04  0.1200301E+04  0.7818609E-02  0.9112593E-01
       -2   -1    0    0    0  501  0.00000000000E+00  0.00000000000E+00  0.33653830545E+03  0.33653830546E+03  0.25500000920E-02 0. -1.
        2   -1    0    0  501    0  0.00000000000E+00  0.00000000000E+00 -0.10702513985E+04  0.10702513985E+04  0.25500000920E-02 0.  1.
    10030    2    1    2    0    0  0.00000000000E+00  0.00000000000E+00 -0.73371309304E+03  0.14067897040E+04  0.12003009490E+04 0.  0.
        3    1    3    3  502    0  0.26061626104E+03 -0.28336287461E+03  0.17274270996E+03  0.42196612218E+03  0.10100000352E+00 0. -1.
       -3    1    3    3    0  502 -0.26061626104E+03  0.28336287461E+03 -0.90645580300E+03  0.98482358177E+03  0.10100000352E+00 0.  1.
</event>
<event>
 5   0  0.2304842E-04  0.1199651E+04  0.7818609E-02  0.9113162E-01
        1   -1    0    0  501    0  0.00000000000E+00  0.00000000000E+00  0.28311534508E+03  0.28311534512E+03  0.50400001928E-02 0.  1.
       -1   -1    0    0    0  501  0.00000000000E+00  0.00000000000E+00 -0.12708266949E+04  0.12708266949E+04  0.50400001928E-02 0. -1.
    10030    2    1    2    0    0  0.00000000000E+00  0.00000000000E+00 -0.98771134984E+03  0.15539420400E+04  0.11996508464E+04 0.  0.
        4    1    3    3  502    0 -0.25163387371E+03  0.30596040255E+03 -0.10772679205E+04  0.11477975256E+04  0.12699999809E+01 0. -1.
       -4    1    3    3    0  502  0.25163387371E+03 -0.30596040255E+03  0.89556570705E+02  0.40614451441E+03  0.12699999809E+01 0.  1.
</event>
<event>
 5   0  0.3993723E-04  0.1199406E+04  0.7818609E-02  0.9113377E-01
        2   -1    0    0  501    0  0.00000000000E+00  0.00000000000E+00  0.14064699485E+04  0.14064699485E+04  0.25500000920E-02 0.  1.
       -2   -1    0    0    0  501  0.00000000000E+00  0.00000000000E+00 -0.25570665708E+03  0.25570665709E+03  0.25500000920E-02 0. -1.
    10030    2    1    2    0    0  0.00000000000E+00  0.00000000000E+00  0.11507632914E+04  0.16621766055E+04  0.11994060677E+04 0.  0.
        3    1    3    3  502    0  0.20880060194E+03 -0.91409613419E+01 -0.20360259923E+03  0.29177950092E+03  0.10100000352E+00 0. -1.
       -3    1    3    3    0  502 -0.20880060194E+03  0.91409613419E+01  0.13543658906E+04  0.13703971046E+04  0.10100000352E+00 0.  1.
</event>
<event>
 5   0  0.2204090E-04  0.1199315E+04  0.7818609E-02  0.9113456E-01
        1   -1    0    0  501    0  0.00000000000E+00  0.00000000000E+00  0.13319010957E+04  0.13319010957E+04  0.50400001928E-02 0. -1.
       -1   -1    0    0    0  501  0.00000000000E+00  0.00000000000E+00 -0.26998203973E+03  0.26998203978E+03  0.50400001928E-02 0.  1.
    10030    2    1    2    0    0  0.00000000000E+00  0.00000000000E+00  0.10619190559E+04  0.16018831355E+04  0.11993154290E+04 0.  0.
        2    1    3    3  502    0 -0.26619038344E+03 -0.20796224318E+03  0.11927321428E+04  0.12396433274E+04  0.25500000920E-02 0. -1.
       -2    1    3    3    0  502  0.26619038344E+03  0.20796224318E+03 -0.13081308684E+03  0.36223980803E+03  0.25500000920E-02 0.  1.
</event>
<event>
 5   0  0.4024486E-04  0.1200130E+04  0.7818609E-02  0.9112743E-01
       -2   -1    0    0    0  501  0.00000000000E+00  0.00000000000E+00  0.26143185857E+03  0.26143185858E+03  0.25500000920E-02 0. -1.
        2   -1    0    0  501    0  0.00000000000E+00  0.00000000000E+00 -0.13773307038E+04  0.13773307038E+04  0.25500000920E-02 0.  1.
    10030    2    1    2    0    0  0.00000000000E+00  0.00000000000E+00 -0.11158988452E+04  0.16387625623E+04  0.12001302025E+04 0.  0.
        1    1    3    3  502    0 -0.28333062236E+02  0.74064210246E+02 -0.13701445072E+04  0.13724373357E+04  0.50400001928E-02 0.  1.
       -1    1    3    3    0  502  0.28333062236E+02 -0.74064210246E+02  0.25424566205E+03  0.26632522665E+03  0.50400001928E-02 0. -1.
</event>
<event>
 5   0  0.3883890E-04  0.1199997E+04  0.7818609E-02  0.9112859E-01
       -2   -1    0    0    0  501  0.00000000000E+00  0.00000000000E+00  0.57807834844E+03  0.57807834845E+03  0.25500000920E-02 0.  1.
        2   -1    0    0  501    0  0.00000000000E+00  0.00000000000E+00 -0.62275029376E+03  0.62275029376E+03  0.25500000920E-02 0. -1.
    10030    2    1    2    0    0  0.00000000000E+00  0.00000000000E+00 -0.44671945313E+02  0.12008286422E+04  0.11999974355E+04 0.  0.
        2    1    3    3  502    0  0.24197945165E+03  0.19554666133E+03  0.49105536682E+03  0.58131568452E+03  0.25500000920E-02 0.  1.
       -2    1    3    3    0  502 -0.24197945165E+03 -0.19554666133E+03 -0.53572731213E+03  0.61951295769E+03  0.25500000920E-02 0. -1.
</event>
<event>
 5   0  0.2244308E-04  0.1192970E+04  0.7818609E-02  0.9119032E-01
        1   -1    0    0  501    0  0.00000000000E+00  0.00000000000E+00  0.61860432195E+03  0.61860432198E+03  0.50400001928E-02 0. -1.
       -1   -1    0    0    0  501  0.00000000000E+00  0.00000000000E+00 -0.57515662322E+03  0.57515662324E+03  0.50400001928E-02 0.  1.
    10030    2    1    2    0    0  0.00000000000E+00  0.00000000000E+00  0.43447698732E+02  0.11937609452E+04  0.11929700297E+04 0.  0.
        5    1    3    3  502    0  0.92162861181E+02 -0.11321508586E+03 -0.55698528558E+03  0.57581798079E+03  0.46999998093E+01 0.  1.
       -5    1    3    3    0  502 -0.92162861181E+02  0.11321508586E+03  0.60043298431E+03  0.61794296443E+03  0.46999998093E+01 0. -1.
</event>
<event>
 5   0  0.2304842E-04  0.1201102E+04  0.7818609E-02  0.9111892E-01
        1   -1    0    0  501    0  0.00000000000E+00  0.00000000000E+00  0.90024739597E+03  0.90024739598E+03  0.50400001928E-02 0. -1.
       -1   -1    0    0    0  501  0.00000000000E+00  0.00000000000E+00 -0.40062515498E+03  0.40062515501E+03  0.50400001928E-02 0.  1.
    10030    2    1    2    0    0  0.00000000000E+00  0.00000000000E+00  0.49962224099E+03  0.13008725510E+04  0.12011024145E+04 0.  0.
        4    1    3    3  502    0  0.44332452915E+03 -0.36067269100E+03  0.44963218387E+03  0.72718095537E+03  0.12699999809E+01 0. -1.
       -4    1    3    3    0  502 -0.44332452915E+03  0.36067269100E+03  0.49990057119E+02  0.57369159562E+03  0.12699999809E+01 0.  1.
</event>
<event>
 5   0  0.1541375E-04  0.1202693E+04  0.7818609E-02  0.9110502E-01
       -3   -1    0    0    0  501  0.00000000000E+00  0.00000000000E+00  0.39078791091E+03  0.39078792397E+03  0.10100000352E+00 0. -1.
        3   -1    0    0  501    0  0.00000000000E+00  0.00000000000E+00 -0.92535536915E+03  0.92535537466E+03  0.10100000352E+00 0.  1.
    10030    2    1    2    0    0  0.00000000000E+00  0.00000000000E+00 -0.53456745823E+03  0.13161432986E+04  0.12026931509E+04 0.  0.
        4    1    3    3  502    0  0.46972575934E+03 -0.13396361530E+03  0.11655565144E+03  0.50217066023E+03  0.12699999809E+01 0. -1.
       -4    1    3    3    0  502 -0.46972575934E+03  0.13396361530E+03 -0.65112310967E+03  0.81397263840E+03  0.12699999809E+01 0.  1.
</event>
<event>
 5   0  0.3832662E-04  0.1162916E+04  0.7818609E-02  0.9145950E-01
       -2   -1    0    0    0  501  0.00000000000E+00  0.00000000000E+00  0.22946240906E+03  0.22946240907E+03  0.25500000920E-02 0.  1.
        2   -1    0    0  501    0  0.00000000000E+00  0.00000000000E+00 -0.14734153247E+04  0.14734153247E+04  0.25500000920E-02 0. -1.
    10030    2    1    2    0    0  0.00000000000E+00  0.00000000000E+00 -0.12439529156E+04  0.17028777338E+04  0.11629160416E+04 0.  0.
        4    1    3    3  502    0  0.85719390809E+02 -0.24060197693E+03  0.14291677471E+03  0.29268403212E+03  0.12699999809E+01 0.  1.
       -4    1    3    3    0  502 -0.85719390809E+02  0.24060197693E+03 -0.13868696903E+04  0.14101937016E+04  0.12699999809E+01 0. -1.
</event>
<event>
 5   0  0.4122956E-04  0.1199518E+04  0.7818609E-02  0.9113278E-01
       -2   -1    0    0    0  501  0.00000000000E+00  0.00000000000E+00  0.35272698756E+03  0.35272698757E+03  0.25500000920E-02 0. -1.
        2   -1    0    0  501    0  0.00000000000E+00  0.00000000000E+00 -0.10198003877E+04  0.10198003877E+04  0.25500000920E-02 0.  1.
    10030    2    1    2    0    0  0.00000000000E+00  0.00000000000E+00 -0.66707340014E+03  0.13725273753E+04  0.11995184345E+04 0.  0.
        5    1    3    3  502    0  0.24257987975E+03  0.34432554116E+03  0.15499000233E+03  0.44883077789E+03  0.46999998093E+01 0. -1.
       -5    1    3    3    0  502 -0.24257987975E+03 -0.34432554116E+03 -0.82206340247E+03  0.92369659739E+03  0.46999998093E+01 0.  1.
</event>
<event>
 5   0  0.2304842E-04  0.1200829E+04  0.7818609E-02  0.9112132E-01
       -1   -1    0    0    0  501  0.00000000000E+00  0.00000000000E+00  0.56962155743E+03  0.56962155745E+03  0.50400001928E-02 0. -1.
        1   -1    0    0  501    0  0.00000000000E+00  0.00000000000E+00 -0.63287164451E+03  0.63287164453E+03  0.50400001928E-02 0.  1.
    10030    2    1    2    0    0  0.00000000000E+00  0.00000000000E+00 -0.63250087082E+02  0.12024932020E+04  0.12008286003E+04 0.  0.
        4    1    3    3  502    0 -0.74539156670E+02  0.48954519359E+03  0.30838227555E+03  0.58336251441E+03  0.12699999809E+01 0. -1.
       -4    1    3    3    0  502  0.74539156670E+02 -0.48954519359E+03 -0.37163236263E+03  0.61913068758E+03  0.12699999809E+01 0.  1.
</event>
<event>
 5   0  0.3832662E-04  0.1208468E+04  0.7818609E-02  0.9105476E-01
        2   -1    0    0  501    0  0.00000000000E+00  0.00000000000E+00  0.29443176289E+03  0.29443176290E+03  0.25500000920E-02 0.  1.
       -2   -1    0    0    0  501  0.00000000000E+00  0.00000000000E+00 -0.12400119021E+04  0.12400119021E+04  0.25500000920E-02 0. -1.
    10030    2    1    2    0    0  0.00000000000E+00  0.00000000000E+00 -0.94558013920E+03  0.15344436650E+04  0.12084682707E+04 0.  0.
        4    1    3    3  502    0 -0.34187445728E+03 -0.34723574664E+03 -0.92643921754E+03  0.10467769796E+04  0.12699999809E+01 0. -1.
       -4    1    3    3    0  502  0.34187445728E+03  0.34723574664E+03 -0.19140921658E+02  0.48766668541E+03  0.12699999809E+01 0.  1.
</event>
<event>
 5   0  0.1541375E-04  0.1204565E+04  0.7818609E-02  0.9108870E-01
       -3   -1    0    0    0  501  0.00000000000E+00  0.00000000000E+00  0.48780757516E+03  0.48780758562E+03  0.10100000352E+00 0.  1.
        3   -1    0    0  501    0  0.00000000000E+00  0.00000000000E+00 -0.74362204333E+03  0.74362205019E+03  0.10100000352E+00 0. -1.
    10030    2    1    2    0    0  0.00000000000E+00  0.00000000000E+00 -0.25581446817E+03  0.12314296358E+04  0.12045654427E+04 0.  0.
        4    1    3    3  502    0 -0.37108158450E+03  0.44132378576E+03 -0.30578377530E+03  0.65266649705E+03  0.12699999809E+01 0. -1.
       -4    1    3    3    0  502  0.37108158450E+03 -0.44132378576E+03  0.49969307132E+02  0.57876313876E+03  0.12699999809E+01 0.  1.
</event>
<event>
 5   0  0.2340731E-04  0.1193515E+04  0.7818609E-02  0.9118552E-01
       -1   -1    0    0    0  501  0.00000000000E+00  0.00000000000E+00  0.45918873887E+03  0.45918873890E+03  0.50400001928E-02 0.  1.
        1   -1    0    0  501    0  0.00000000000E+00  0.00000000000E+00 -0.77553996100E+03  0.77553996101E+03  0.50400001928E-02 0. -1.
    10030    2    1    2    0    0  0.00000000000E+00  0.00000000000E+00 -0.31635122213E+03  0.12347286999E+04  0.11935145021E+04 0.  0.
        3    1    3    3  502    0  0.38494536503E+03  0.43145223647E+03 -0.31087068176E+03  0.65648652492E+03  0.10100000352E+00 0. -1.
       -3    1    3    3    0  502 -0.38494536503E+03 -0.43145223647E+03 -0.54805403668E+01  0.57824217499E+03  0.10100000352E+00 0.  1.
</event>
<event>
 5   0  0.2204090E-04  0.1192131E+04  0.7818609E-02  0.9119772E-01
        1   -1    0    0  501    0  0.00000000000E+00  0.00000000000E+00  0.24240588251E+03  0.24240588256E+03  0.50400001928E-02 0.  1.
       -1   -1    0    0    0  501  0.00000000000E+00  0.00000000000E+00 -0.14657001477E+04  0.14657001477E+04  0.50400001928E-02 0. -1.
    10030    2    1    2    0    0  0.00000000000E+00  0.00000000000E+00 -0.12232942652E+04  0.17081060303E+04  0.11921314321E+04 0.  0.
        2    1    3    3  502    0  0.48827899023E+03  0.23367434156E+03 -0.25409036583E+03  0.59798159187E+03  0.25500000920E-02 0.  1.
       -2    1    3    3    0  502 -0.48827899023E+03 -0.23367434156E+03 -0.96920389938E+03  0.11101244384E+04  0.25500000920E-02 0. -1.
</event>
<event>
 5   0  0.2204090E-04  0.1197771E+04  0.7818609E-02  0.9114810E-01
       -1   -1    0    0    0  501  0.00000000000E+00  0.00000000000E+00  0.37181856883E+03  0.37181856886E+03  0.50400001928E-02 0. -1.
        1   -1    0    0  501    0  0.00000000000E+00  0.00000000000E+00 -0.96462002473E+03  0.96462002474E+03  0.50400001928E-02 0.  1.
    10030    2    1    2    0    0  0.00000000000E+00  0.00000000000E+00 -0.59280145590E+03  0.13364385936E+04  0.11977706577E+04 0.  0.
        2    1    3    3  502    0 -0.24237561001E+03  0.49145549273E+02  0.31218335174E+03  0.39827084560E+03  0.25500000920E-02 0. -1.
       -2    1    3    3    0  502  0.24237561001E+03 -0.49145549273E+02 -0.90498480764E+03  0.93816774801E+03  0.25500000920E-02 0.  1.
</event>
<event>
 5   0  0.2315038E-04  0.1201671E+04  0.7818609E-02  0.9111395E-01
        1   -1    0    0  501    0  0.00000000000E+00  0.00000000000E+00  0.47339892557E+03  0.47339892560E+03  0.50400001928E-02 0. -1.
       -1   -1    0    0    0  501  0.00000000000E+00  0.00000000000E+00 -0.76257768034E+03  0.76257768036E+03  0.50400001928E-02 0.  1.
    10030    2    1    2    0    0  0.00000000000E+00  0.00000000000E+00 -0.28917875477E+03  0.12359766060E+04  0.12016712605E+04 0.  0.
        1    1    3    3  502    0 -0.20256399175E+03  0.23647322920E+03  0.38393990831E+03  0.49432945704E+03  0.50400001928E-02 0. -1.
       -1    1    3    3    0  502  0.20256399175E+03 -0.23647322920E+03 -0.67311866308E+03  0.74164714892E+03  0.50400001928E-02 0.  1.
</event>
<event>
 5   0  0.2244308E-04  0.1200989E+04  0.7818609E-02  0.9111992E-01
        1   -1    0    0  501    0  0.00000000000E+00  0.00000000000E+00  0.72885838047E+03  0.72885838049E+03  0.50400001928E-02 0. -1.
       -1   -1    0    0    0  501  0.00000000000E+00  0.00000000000E+00 -0.49473725908E+03  0.49473725911E+03  0.50400001928E-02 0.  1.
    10030    2    1    2    0    0  0.00000000000E+00  0.00000000000E+00  0.23412112139E+03  0.12235956396E+04  0.12009885885E+04 0.  0.
        5    1    3    3  502    0 -0.35306370601E+02  0.26388377565E+03  0.66542070503E+03  0.71672030216E+03  0.46999998093E+01 0. -1.
       -5    1    3    3    0  502  0.35306370601E+02 -0.26388377565E+03 -0.43129958364E+03  0.50687533744E+03  0.46999998093E+01 0.  1.
</event>
<event>
 5   0  0.2204090E-04  0.1201155E+04  0.7818609E-02  0.9111846E-01
        1   -1    0    0  501    0  0.00000000000E+00  0.00000000000E+00  0.10789738026E+04  0.10789738027E+04  0.50400001928E-02 0.  1.
       -1   -1    0    0    0  501  0.00000000000E+00  0.00000000000E+00 -0.33429301732E+03  0.33429301736E+03  0.50400001928E-02 0. -1.
    10030    2    1    2    0    0  0.00000000000E+00  0.00000000000E+00  0.74468078532E+03  0.14132668200E+04  0.12011551243E+04 0.  0.
        2    1    3    3  502    0 -0.36637595649E+03 -0.41909035790E+03  0.10708439975E+03  0.56686430321E+03  0.25500000920E-02 0. -1.
       -2    1    3    3    0  502  0.36637595649E+03  0.41909035790E+03  0.63759638557E+03  0.84640251682E+03  0.25500000920E-02 0.  1.
</event>
<event>
 5   0  0.3832662E-04  0.1191985E+04  0.7818609E-02  0.9119901E-01
        2   -1    0    0  501    0  0.00000000000E+00  0.00000000000E+00  0.71620507481E+03  0.71620507481E+03  0.25500000920E-02 0. -1.
       -2   -1    0    0    0  501  0.00000000000E+00  0.00000000000E+00 -0.49595685428E+03  0.49595685429E+03  0.25500000920E-02 0.  1.
    10030    2    1    2    0    0  0.00000000000E+00  0.00000000000E+00  0.22024822053E+03  0.12121619291E+04  0.11919845904E+04 0.  0.
        4    1    3    3  502    0 -0.15652090037E+03  0.21471138249E+03 -0.43239069170E+03  0.50750674202E+03  0.12699999809E+01 0.  1.
       -4    1    3    3    0  502  0.15652090037E+03 -0.21471138249E+03  0.65263891223E+03  0.70465518708E+03  0.12699999809E+01 0. -1.
</event>
<event>
 5   0  0.3832662E-04  0.1200971E+04  0.7818609E-02  0.9112007E-01
       -2   -1    0    0    0  501  0.00000000000E+00  0.00000000000E+00  0.26511448014E+03  0.26511448015E+03  0.25500000920E-02 0. -1.
        2   -1    0    0  501    0  0.00000000000E+00  0.00000000000E+00 -0.13601019572E+04  0.13601019572E+04  0.25500000920E-02 0.  1.
    10030    2    1    2    0    0  0.00000000000E+00  0.00000000000E+00 -0.10949874770E+04  0.16252164373E+04  0.12009708128E+04 0.  0.
        4    1    3    3  502    0 -0.41216336463E+03 -0.24509445891E+03 -0.58388658054E+02  0.48307430197E+03  0.12699999809E+01 0. -1.
       -4    1    3    3    0  502  0.41216336463E+03  0.24509445891E+03 -0.10365988190E+04  0.11421421353E+04  0.12699999809E+01 0.  1.
</event>
<event>
 5   0  0.3832662E-04  0.1232091E+04  0.7818609E-02  0.9085222E-01
       -2   -1    0    0    0  501  0.00000000000E+00  0.00000000000E+00  0.19899804454E+03  0.19899804456E+03  0.25500000920E-02 0.  1.
        2   -1    0    0  501    0  0.00000000000E+00  0.00000000000E+00 -0.19071154719E+04  0.19071154719E+04  0.25500000920E-02 0. -1.
    10030    2    1    2    0    0  0.00000000000E+00  0.00000000000E+00 -0.17081174273E+04  0.21061135164E+04  0.12320913110E+04 0.  0.
        4    1    3    3  502    0  0.41919472260E+03  0.26423548486E+03 -0.22840183461E+03  0.54563139378E+03  0.12699999809E+01 0. -1.
       -4    1    3    3    0  502 -0.41919472260E+03 -0.26423548486E+03 -0.14797155927E+04  0.15604821227E+04  0.12699999809E+01 0.  1.
</event>
<event>
 5   0  0.2304842E-04  0.1200439E+04  0.7818609E-02  0.9112472E-01
        1   -1    0    0  501    0  0.00000000000E+00  0.00000000000E+00  0.46008420019E+03  0.46008420022E+03  0.50400001928E-02 0. -1.
       -1   -1    0    0    0  501  0.00000000000E+00  0.00000000000E+00 -0.78303810764E+03  0.78303810765E+03  0.50400001928E-02 0.  1.
    10030    2    1    2    0    0  0.00000000000E+00  0.00000000000E+00 -0.32295390744E+03  0.12431223079E+04  0.12004390222E+04 0.  0.
        4    1    3    3  502    0 -0.45668498820E+03 -0.21979984757E+03 -0.49445092578E+03  0.70806530938E+03  0.12699999809E+01 0.  1.
       -4    1    3    3    0  502  0.45668498820E+03  0.21979984757E+03  0.17149701834E+03  0.53505699850E+03  0.12699999809E+01 0. -1.
</event>
<event>
 5   0  0.2304842E-04  0.1198503E+04  0.7818609E-02  0.9114168E-01
       -1   -1    0    0    0  501  0.00000000000E+00  0.00000000000E+00  0.33484650895E+03  0.33484650899E+03  0.50400001928E-02 0.  1.
        1   -1    0    0  501    0  0.00000000000E+00  0.00000000000E+00 -0.10724384168E+04  0.10724384168E+04  0.50400001928E-02 0. -1.
    10030    2    1    2    0    0  0.00000000000E+00  0.00000000000E+00 -0.73759190783E+03  0.14072849258E+04  0.11985028326E+04 0.  0.
        4    1    3    3  502    0 -0.30430812364E+03  0.40948962290E+03 -0.73790562382E+03  0.89710172664E+03  0.12699999809E+01 0. -1.
       -4    1    3    3    0  502  0.30430812364E+03 -0.40948962290E+03  0.31371598485E+00  0.51018319915E+03  0.12699999809E+01 0.  1.
</event>
<event>
 5   0  0.4122956E-04  0.1202024E+04  0.7818609E-02  0.9111087E-01
        2   -1    0    0  501    0  0.00000000000E+00  0.00000000000E+00  0.70154625800E+03  0.70154625800E+03  0.25500000920E-02 0. -1.
       -2   -1    0    0    0  501  0.00000000000E+00  0.00000000000E+00 -0.51488465261E+03  0.51488465262E+03  0.25500000920E-02 0.  1.
    10030    2    1    2    0    0  0.00000000000E+00  0.00000000000E+00  0.18666160539E+03  0.12164309106E+04  0.12020239621E+04 0.  0.
        5    1    3    3  502    0 -0.31646629838E+03 -0.51168758732E+02  0.60777807824E+03  0.68715750907E+03  0.46999998093E+01 0. -1.
       -5    1    3    3    0  502  0.31646629838E+03  0.51168758732E+02 -0.42111647286E+03  0.52927340155E+03  0.46999998093E+01 0.  1.
</event>
<event>
 5   0  0.2244308E-04  0.1199088E+04  0.7818609E-02  0.9113655E-01
       -1   -1    0    0    0  501  0.00000000000E+00  0.00000000000E+00  0.60752068742E+03  0.60752068745E+03  0.50400001928E-02 0. -1.
        1   -1    0    0  501    0  0.00000000000E+00  0.00000000000E+00 -0.59167175036E+03  0.59167175038E+03  0.50400001928E-02 0.  1.
    10030    2    1    2    0    0  0.00000000000E+00  0.00000000000E+00  0.15848937065E+02  0.11991924378E+04  0.11990877008E+04 0.  0.
        5    1    3    3  502    0 -0.33591735080E+03  0.31556707328E+03 -0.37552484598E+03  0.59452842173E+03  0.46999998093E+01 0.  1.
       -5    1    3    3    0  502  0.33591735080E+03 -0.31556707328E+03  0.39137378304E+03  0.60466401609E+03  0.46999998093E+01 0. -1.
</event>
<event>
 5   0  0.2244308E-04  0.1200833E+04  0.7818609E-02  0.9112128E-01
       -1   -1    0    0    0  501  0.00000000000E+00  0.00000000000E+00  0.32758581197E+03  0.32758581201E+03  0.50400001928E-02 0. -1.
        1   -1    0    0  501    0  0.00000000000E+00  0.00000000000E+00 -0.11004745070E+04  0.11004745070E+04  0.50400001928E-02 0.  1.
    10030    2    1    2    0    0  0.00000000000E+00  0.00000000000E+00 -0.77288869505E+03  0.14280603190E+04  0.12008327693E+04 0.  0.
        5    1    3    3  502    0 -0.92734014982E+02  0.11291572680E+02 -0.10917566740E+04  0.10957562788E+04  0.46999998093E+01 0.  1.
       -5    1    3    3    0  502  0.92734014982E+02 -0.11291572680E+02  0.31886797900E+03  0.33230404026E+03  0.46999998093E+01 0. -1.
</event>
<event>
 5   0  0.3883890E-04  0.1199056E+04  0.7818609E-02  0.9113683E-01
        2   -1    0    0  501    0  0.00000000000E+00  0.00000000000E+00  0.57782676342E+03  0.57782676342E+03  0.25500000920E-02 0.  1.
       -2   -1    0    0    0  501  0.00000000000E+00  0.00000000000E+00 -0.62204449159E+03  0.62204449159E+03  0.25500000920E-02 0. -1.
    10030    2    1    2    0    0  0.00000000000E+00  0.00000000000E+00 -0.44217728169E+02  0.11998712550E+04  0.11990562210E+04 0.  0.
        2    1    3    3  502    0  0.23052226759E+03  0.22339492659E+03  0.48458316652E+03  0.58126298211E+03  0.25500000920E-02 0.  1.
       -2    1    3    3    0  502 -0.23052226759E+03 -0.22339492659E+03 -0.52880089469E+03  0.61860827291E+03  0.25500000920E-02 0. -1.
</event>
<event>
 5   0  0.2340731E-04  0.1197771E+04  0.7818609E-02  0.9114810E-01
        1   -1    0    0  501    0  0.00000000000E+00  0.00000000000E+00  0.85054208888E+03  0.85054208889E+03  0.50400001928E-02 0.  1.
       -1   -1    0    0    0  501  0.00000000000E+00  0.00000000000E+00 -0.42168871322E+03  0.42168871325E+03  0.50400001928E-02 0. -1.
    10030    2    1    2    0    0  0.00000000000E+00  0.00000000000E+00  0.42885337566E+03  0.12722308021E+04  0.11977712620E+04 0.  0.
        3    1    3    3  502    0  0.45040820277E+03 -0.25276467285E+03 -0.10758010708E+03  0.52757086595E+03  0.10100000352E+00 0. -1.
       -3    1    3    3    0  502 -0.45040820277E+03  0.25276467285E+03  0.53643348274E+03  0.74465993619E+03  0.10100000352E+00 0.  1.
</event>
<event>
 5   0  0.3993723E-04  0.1200251E+04  0.7818609E-02  0.9112637E-01
        2   -1    0    0  501    0  0.00000000000E+00  0.00000000000E+00  0.18231995340E+04  0.18231995340E+04  0.25500000920E-02 0. -1.
       -2   -1    0    0    0  501  0.00000000000E+00  0.00000000000E+00 -0.19753773566E+03  0.19753773568E+03  0.25500000920E-02 0.  1.
    10030    2    1    2    0    0  0.00000000000E+00  0.00000000000E+00  0.16256617983E+04  0.20207372697E+04  0.12002511531E+04 0.  0.
        3    1    3    3  502    0 -0.33674836712E+03 -0.28386202291E+03  0.14991383541E+04  0.15624957362E+04  0.10100000352E+00 0. -1.
       -3    1    3    3    0  502  0.33674836712E+03  0.28386202291E+03  0.12652344419E+03  0.45824153341E+03  0.10100000352E+00 0.  1.
</event>
<event>
 5   0  0.1541375E-04  0.1200334E+04  0.7818609E-02  0.9112564E-01
       -3   -1    0    0    0  501  0.00000000000E+00  0.00000000000E+00  0.63615307382E+03  0.63615308184E+03  0.10100000352E+00 0. -1.
        3   -1    0    0  501    0  0.00000000000E+00  0.00000000000E+00 -0.56621697303E+03  0.56621698204E+03  0.10100000352E+00 0.  1.
    10030    2    1    2    0    0  0.00000000000E+00  0.00000000000E+00  0.69936100794E+02  0.12023700639E+04  0.12003344169E+04 0.  0.
        4    1    3    3  502    0  0.28374725546E+03  0.45340868029E+02  0.56276842208E+03  0.63188464856E+03  0.12699999809E+01 0. -1.
       -4    1    3    3    0  502 -0.28374725546E+03 -0.45340868029E+02 -0.49283232128E+03  0.57048541532E+03  0.12699999809E+01 0.  1.
</event>
<event>
 5   0  0.3832662E-04  0.1200700E+04  0.7818609E-02  0.9112244E-01
       -2   -1    0    0    0  501  0.00000000000E+00  0.00000000000E+00  0.44515858902E+03  0.44515858903E+03  0.25500000920E-02 0. -1.
        2   -1    0    0  501    0  0.00000000000E+00  0.00000000000E+00 -0.80964375146E+03  0.80964375147E+03  0.25500000920E-02 0.  1.
    10030    2    1    2    0    0  0.00000000000E+00  0.00000000000E+00 -0.36448516244E+03  0.12548023405E+04  0.12006995794E+04 0.  0.
        4    1    3    3  502    0 -0.14714425343E+03  0.13488451606E+03 -0.77394647559E+03  0.79927468618E+03  0.12699999809E+01 0.  1.
       -4    1    3    3    0  502  0.14714425343E+03 -0.13488451606E+03  0.40946131315E+03  0.45552765432E+03  0.12699999809E+01 0. -1.
</event>
<event>
 5   0  0.3832662E-04  0.1205279E+04  0.7818609E-02  0.9108248E-01
       -2   -1    0    0    0  501  0.00000000000E+00  0.00000000000E+00  0.72510487571E+03  0.72510487571E+03  0.25500000920E-02 0. -1.
        2   -1    0    0  501    0  0.00000000000E+00  0.00000000000E+00 -0.50085797298E+03  0.50085797298E+03  0.25500000920E-02 0.  1.
    10030    2    1    2    0    0  0.00000000000E+00  0.00000000000E+00  0.22424690273E+03  0.12259628487E+04  0.12052793174E+04 0.  0.
        4    1    3    3  502    0 -0.19336769157E+02 -0.36436748035E+03 -0.37572723253E+03  0.52374625301E+03  0.12699999809E+01 0.  1.
       -4    1    3    3    0  502  0.19336769157E+02  0.36436748035E+03  0.59997413526E+03  0.70221659569E+03  0.12699999809E+01 0. -1.
</event>
<event>
 5   0  0.2204090E-04  0.1201312E+04  0.7818609E-02  0.9111708E-01
        1   -1    0    0  501    0  0.00000000000E+00  0.00000000000E+00  0.64012740553E+03  0.64012740555E+03  0.50400001928E-02 0.  1.
       -1   -1    0    0    0  501  0.00000000000E+00  0.00000000000E+00 -0.56361893686E+03  0.56361893689E+03  0.50400001928E-02 0. -1.
    10030    2    1    2    0    0  0.00000000000E+00  0.00000000000E+00  0.76508468663E+02  0.12037463424E+04  0.12013124952E+04 0.  0.
        2    1    3    3  502    0 -0.48974044375E+03  0.15608063712E+03  0.34965879631E+03  0.62166561862E+03  0.25500000920E-02 0.  1.
       -2    1    3    3    0  502  0.48974044375E+03 -0.15608063712E+03 -0.27315032765E+03  0.58208072381E+03  0.25500000920E-02 0. -1.
</event>
<event>
 5   0  0.4024486E-04  0.1201467E+04  0.7818609E-02  0.9111574E-01
        2   -1    0    0  501    0  0.00000000000E+00  0.00000000000E+00  0.26709637937E+04  0.26709637937E+04  0.25500000920E-02 0.  1.
       -2   -1    0    0    0  501  0.00000000000E+00  0.00000000000E+00 -0.13511247476E+03  0.13511247479E+03  0.25500000920E-02 0. -1.
    10030    2    1    2    0    0  0.00000000000E+00  0.00000000000E+00  0.25358513190E+04  0.28060762685E+04  0.12014666507E+04 0.  0.
        1    1    3    3  502    0  0.51706389093E+03 -0.26476005698E+03  0.91044594590E+03  0.10799836922E+04  0.50400001928E-02 0.  1.
       -1    1    3    3    0  502 -0.51706389093E+03  0.26476005698E+03  0.16254053731E+04  0.17260925763E+04  0.50400001928E-02 0. -1.
</event>
<event>
 5   0  0.2315038E-04  0.1208236E+04  0.7818609E-02  0.9105678E-01
       -1   -1    0    0    0  501  0.00000000000E+00  0.00000000000E+00  0.66331905008E+03  0.66331905010E+03  0.50400001928E-02 0.  1.
        1   -1    0    0  501    0  0.00000000000E+00  0.00000000000E+00 -0.55020056503E+03  0.55020056505E+03  0.50400001928E-02 0. -1.
    10030    2    1    2    0    0  0.00000000000E+00  0.00000000000E+00  0.11311848505E+03  0.12135196152E+04  0.12082359309E+04 0.  0.
        1    1    3    3  502    0  0.41351884783E+03 -0.40899243107E+03  0.22063172025E+03  0.62205385794E+03  0.50400001928E-02 0.  1.
       -1    1    3    3    0  502 -0.41351884783E+03  0.40899243107E+03 -0.10751323520E+03  0.59146575721E+03  0.50400001928E-02 0. -1.
</event>
<event>
 5   0  0.2244308E-04  0.1196621E+04  0.7818609E-02  0.9115819E-01
       -1   -1    0    0    0  501  0.00000000000E+00  0.00000000000E+00  0.17430167523E+04  0.17430167523E+04  0.50400001928E-02 0. -1.
        1   -1    0    0  501    0  0.00000000000E+00  0.00000000000E+00 -0.20537687371E+03  0.20537687377E+03  0.50400001928E-02 0.  1.
    10030    2    1    2    0    0  0.00000000000E+00  0.00000000000E+00  0.15376398786E+04  0.19483936261E+04  0.11966207945E+04 0.  0.
        5    1    3    3  502    0  0.34938997681E+03 -0.16126911339E+03  0.22890806277E+02  0.38552193431E+03  0.46999998093E+01 0.  1.
       -5    1    3    3    0  502 -0.34938997681E+03  0.16126911339E+03  0.15147490723E+04  0.15628716918E+04  0.46999998093E+01 0. -1.
</event>
<event>
 5   0  0.4024486E-04  0.1200508E+04  0.7818609E-02  0.9112412E-01
        2   -1    0    0  501    0  0.00000000000E+00  0.00000000000E+00  0.63007478552E+03  0.63007478552E+03  0.25500000920E-02 0.  1.
       -2   -1    0    0    0  501  0.00000000000E+00  0.00000000000E+00 -0.57184465298E+03  0.57184465299E+03  0.25500000920E-02 0. -1.
    10030    2    1    2    0    0  0.00000000000E+00  0.00000000000E+00  0.58230132536E+02  0.12019194385E+04  0.12005080543E+04 0.  0.
        1    1    3    3  502    0  0.24789947763E+02  0.27647233683E+03 -0.50372619624E+03  0.57514482988E+03  0.50400001928E-02 0. -1.
       -1    1    3    3    0  502 -0.24789947763E+02 -0.27647233683E+03  0.56195632877E+03  0.62677460862E+03  0.50400001928E-02 0.  1.
</event>
<event>
 5   0  0.2244308E-04  0.1199357E+04  0.7818609E-02  0.9113419E-01
        1   -1    0    0  501    0  0.00000000000E+00  0.00000000000E+00  0.18100111594E+04  0.18100111594E+04  0.50400001928E-02 0. -1.
       -1   -1    0    0    0  501  0.00000000000E+00  0.00000000000E+00 -0.19868080792E+03  0.19868080799E+03  0.50400001928E-02 0.  1.
    10030    2    1    2    0    0  0.00000000000E+00  0.00000000000E+00  0.16113303515E+04  0.20086919674E+04  0.11993572939E+04 0.  0.
        5    1    3    3  502    0 -0.38384896109E+03 -0.30151913950E+03  0.22226815884E+03  0.53635719520E+03  0.46999998093E+01 0.  1.
       -5    1    3    3    0  502  0.38384896109E+03  0.30151913950E+03  0.13890621927E+04  0.14723347722E+04  0.46999998093E+01 0. -1.
</event>
<event>
 5   0  0.2340731E-04  0.1198810E+04  0.7818609E-02  0.9113899E-01
        1   -1    0    0  501    0  0.00000000000E+00  0.00000000000E+00  0.75033556423E+03  0.75033556425E+03  0.50400001928E-02 0.  1.
       -1   -1    0    0    0  501  0.00000000000E+00  0.00000000000E+00 -0.47883412630E+03  0.47883412633E+03  0.50400001928E-02 0. -1.
    10030    2    1    2    0    0  0.00000000000E+00  0.00000000000E+00  0.27150143793E+03  0.12291696906E+04  0.11988098671E+04 0.  0.
        3    1    3    3  502    0  0.26461269730E+03  0.18762553672E+03  0.65256235255E+03  0.72873922343E+03  0.10100000352E+00 0.  1.
       -3    1    3    3    0  502 -0.26461269730E+03 -0.18762553672E+03 -0.38106091462E+03  0.50043046715E+03  0.10100000352E+00 0. -1.
</event>
<event>
 5   0  0.2304842E-04  0.1207101E+04  0.7818609E-02  0.9106663E-01
       -1   -1    0    0    0  501  0.00000000000E+00  0.00000000000E+00  0.15342808111E+03  0.15342808120E+03  0.50400001928E-02 0. -1.
        1   -1    0    0  501    0  0.00000000000E+00  0.00000000000E+00 -0.23742296596E+04  0.23742296597E+04  0.50400001928E-02 0.  1.
    10030    2    1    2    0    0  0.00000000000E+00  0.00000000000E+00 -0.22208015785E+04  0.25276577408E+04  0.12071014885E+04 0.  0.
        4    1    3    3  502    0  0.22404942971E+03  0.20758264356E+03 -0.22004488720E+04  0.22215457574E+04  0.12699999809E+01 0.  1.
       -4    1    3    3    0  502 -0.22404942971E+03 -0.20758264356E+03 -0.20352706513E+02  0.30611198347E+03  0.12699999809E+01 0. -1.
</event>
<event>
 5   0  0.4122956E-04  0.1202058E+04  0.7818609E-02  0.9111057E-01
        2   -1    0    0  501    0  0.00000000000E+00  0.00000000000E+00  0.95004291912E+03  0.95004291912E+03  0.25500000920E-02 0. -1.
       -2   -1    0    0    0  501  0.00000000000E+00  0.00000000000E+00 -0.38023105468E+03  0.38023105469E+03  0.25500000920E-02 0.  1.
    10030    2    1    2    0    0  0.00000000000E+00  0.00000000000E+00  0.56981186444E+03  0.13302739738E+04  0.12020579373E+04 0.  0.
        5    1    3    3  502    0 -0.21751359956E+03  0.25755895646E+03 -0.26572457823E+03  0.42927895770E+03  0.46999998093E+01 0.  1.
       -5    1    3    3    0  502  0.21751359956E+03 -0.25755895646E+03  0.83553644267E+03  0.90099501612E+03  0.46999998093E+01 0. -1.
</event>
<event>
 5   0  0.4024486E-04  0.1199383E+04  0.7818609E-02  0.9113396E-01
        2   -1    0    0  501    0  0.00000000000E+00  0.00000000000E+00  0.80034271669E+03  0.80034271669E+03  0.25500000920E-02 0. -1.
       -2   -1    0    0    0  501  0.00000000000E+00  0.00000000000E+00 -0.44934519517E+03  0.44934519518E+03  0.25500000920E-02 0.  1.
    10030    2    1    2    0    0  0.00000000000E+00  0.00000000000E+00  0.35099752151E+03  0.12496879119E+04  0.11993834320E+04 0.  0.
        1    1    3    3  502    0 -0.11168333621E+03 -0.19681686351E+03 -0.40314978594E+03  0.46232001393E+03  0.50400001928E-02 0.  1.
       -1    1    3    3    0  502  0.11168333621E+03  0.19681686351E+03  0.75414730745E+03  0.78736789794E+03  0.50400001928E-02 0. -1.
</event>
<event>
 5   0  0.2204090E-04  0.1194072E+04  0.7818609E-02  0.9118061E-01
        1   -1    0    0  501    0  0.00000000000E+00  0.00000000000E+00  0.67194141973E+03  0.67194141975E+03  0.50400001928E-02 0. -1.
       -1   -1    0    0    0  501  0.00000000000E+00  0.00000000000E+00 -0.53048101168E+03  0.53048101171E+03  0.50400001928E-02 0.  1.
    10030    2    1    2    0    0  0.00000000000E+00  0.00000000000E+00  0.14146040805E+03  0.12024224315E+04  0.11940722996E+04 0.  0.
        2    1    3    3  502    0  0.57764281320E+03 -0.14780213506E+03  0.10152959748E+03  0.60483464677E+03  0.25500000920E-02 0.  1.
       -2    1    3    3    0  502 -0.57764281320E+03  0.14780213506E+03  0.39930810572E+02  0.59758778469E+03  0.25500000920E-02 0. -1.
</event>
<event>
 5   0  0.2244308E-04  0.1208854E+04  0.7818609E-02  0.9105141E-01
       -1   -1    0    0    0  501  0.00000000000E+00  0.00000000000E+00  0.37887474967E+03  0.37887474971E+03  0.50400001928E-02 0. -1.
        1   -1    0    0  501    0  0.00000000000E+00  0.00000000000E+00 -0.96425582481E+03  0.96425582482E+03  0.50400001928E-02 0.  1.
    10030    2    1    2    0    0  0.00000000000E+00  0.00000000000E+00 -0.58538107513E+03  0.13431305745E+04  0.12088543076E+04 0.  0.
        5    1    3    3  502    0  0.43787060087E+03 -0.11091903096E+03 -0.73889065771E+03  0.86603417287E+03  0.46999998093E+01 0.  1.
       -5    1    3    3    0  502 -0.43787060087E+03  0.11091903096E+03  0.15350958258E+03  0.47709640166E+03  0.46999998093E+01 0. -1.
</event>
<event>
 5   0  0.3993723E-04  0.1200608E+04  0.7818609E-02  0.9112325E-01
       -2   -1    0    0    0  501  0.00000000000E+00  0.00000000000E+00  0.19278501575E+03  0.19278501577E+03  0.25500000920E-02 0.  1.
        2   -1    0    0  501    0  0.00000000000E+00  0.00000000000E+00 -0.18692564975E+04  0.18692564975E+04  0.25500000920E-02 0. -1.
    10030    2    1    2    0    0  0.00000000000E+00  0.00000000000E+00 -0.16764714817E+04  0.20620415132E+04  0.12006075851E+04 0.  0.
        3    1    3    3  502    0 -0.42903560585E+03  0.36290911865E+03 -0.12009088195E+04  0.13258795505E+04  0.10100000352E+00 0. -1.
       -3    1    3    3    0  502  0.42903560585E+03 -0.36290911865E+03 -0.47556266222E+03  0.73616196274E+03  0.10100000352E+00 0.  1.
</event>
<event>
 5   0  0.4024486E-04  0.1198200E+04  0.7818609E-02  0.9114434E-01
       -2   -1    0    0    0  501  0.00000000000E+00  0.00000000000E+00  0.56314775052E+03  0.56314775052E+03  0.25500000920E-02 0.  1.
        2   -1    0    0  501    0  0.00000000000E+00  0.00000000000E+00 -0.63734706753E+03  0.63734706753E+03  0.25500000920E-02 0. -1.
    10030    2    1    2    0    0  0.00000000000E+00  0.00000000000E+00 -0.74199317010E+02  0.12004948181E+04  0.11981995950E+04 0.  0.
        1    1    3    3  502    0  0.22232774482E+03 -0.69644994240E+02 -0.59009943078E+03  0.63442681971E+03  0.50400001928E-02 0. -1.
       -1    1    3    3    0  502 -0.22232774482E+03  0.69644994240E+02  0.51590011377E+03  0.56606799834E+03  0.50400001928E-02 0.  1.
</event>
<event>
 5   0  0.1541375E-04  0.1203271E+04  0.7818609E-02  0.9109998E-01
        3   -1    0    0  501    0  0.00000000000E+00  0.00000000000E+00  0.19078045099E+04  0.19078045125E+04  0.10100000352E+00 0.  1.
       -3   -1    0    0    0  501  0.00000000000E+00  0.00000000000E+00 -0.18972870995E+03  0.18972873683E+03  0.10100000352E+00 0. -1.
    10030    2    1    2    0    0  0.00000000000E+00  0.00000000000E+00  0.17180757999E+04  0.20975332494E+04  0.12032710742E+04 0.  0.
        3    1    3    3  502    0  0.37640594324E+03 -0.42172107018E+03  0.49994354644E+03  0.75463478251E+03  0.10100000352E+00 0. -1.
       -3    1    3    3    0  502 -0.37640594324E+03  0.42172107018E+03  0.12181322535E+04  0.13428984669E+04  0.10100000352E+00 0.  1.
</event>
<event>
 5   0  0.2244308E-04  0.1199828E+04  0.7818609E-02  0.9113007E-01
       -1   -1    0    0    0  501  0.00000000000E+00  0.00000000000E+00  0.32526365558E+03  0.32526365562E+03  0.50400001928E-02 0. -1.
        1   -1    0    0  501    0  0.00000000000E+00  0.00000000000E+00 -0.11064764376E+04  0.11064764376E+04  0.50400001928E-02 0.  1.
    10030    2    1    2    0    0  0.00000000000E+00  0.00000000000E+00 -0.78121278203E+03  0.14317400932E+04  0.11998276059E+04 0.  0.
        5    1    3    3  502    0  0.18281385522E+03 -0.44258327828E+03 -0.82180073361E+03  0.95114636079E+03  0.46999998093E+01 0.  1.
       -5    1    3    3    0  502 -0.18281385522E+03  0.44258327828E+03  0.40587951583E+02  0.48059373246E+03  0.46999998093E+01 0. -1.
</event>
<event>
 5   0  0.2204090E-04  0.1200474E+04  0.7818609E-02  0.9112442E-01
       -1   -1    0    0    0  501  0.00000000000E+00  0.00000000000E+00  0.41040417477E+03  0.41040417480E+03  0.50400001928E-02 0.  1.
        1   -1    0    0  501    0  0.00000000000E+00  0.00000000000E+00 -0.87787676881E+03  0.87787676882E+03  0.50400001928E-02 0. -1.
    10030    2    1    2    0    0  0.00000000000E+00  0.00000000000E+00 -0.46747259403E+03  0.12882809436E+04  0.12004737246E+04 0.  0.
        2    1    3    3  502    0 -0.23657688855E+03  0.40636647303E+03 -0.63409510918E+03  0.78941683671E+03  0.25500000920E-02 0. -1.
       -2    1    3    3    0  502  0.23657688855E+03 -0.40636647303E+03  0.16662251514E+03  0.49886410691E+03  0.25500000920E-02 0.  1.
</event>
<event>
 5   0  0.2244308E-04  0.1165978E+04  0.7818609E-02  0.9143169E-01
       -1   -1    0    0    0  501  0.00000000000E+00  0.00000000000E+00  0.67468575928E+03  0.67468575930E+03  0.50400001928E-02 0.  1.
        1   -1    0    0  501    0  0.00000000000E+00  0.00000000000E+00 -0.50375452982E+03  0.50375452985E+03  0.50400001928E-02 0. -1.
    10030    2    1    2    0    0  0.00000000000E+00  0.00000000000E+00  0.17093122946E+03  0.11784402892E+04  0.11659777141E+04 0.  0.
        5    1    3    3  502    0  0.22708382507E+03 -0.47100184837E+03  0.34598832371E+03  0.62700862428E+03  0.46999998093E+01 0.  1.
       -5    1    3    3    0  502 -0.22708382507E+03  0.47100184837E+03 -0.17505709425E+03  0.55143166487E+03  0.46999998093E+01 0. -1.
</event>
<event>
 5   0  0.2204090E-04  0.1199739E+04  0.7818609E-02  0.9113085E-01
        1   -1    0    0  501    0  0.00000000000E+00  0.00000000000E+00  0.56602057449E+03  0.56602057451E+03  0.50400001928E-02 0.  1.
       -1   -1    0    0    0  501  0.00000000000E+00  0.00000000000E+00 -0.63574299369E+03  0.63574299371E+03  0.50400001928E-02 0. -1.
    10030    2    1    2    0    0  0.00000000000E+00  0.00000000000E+00 -0.69722419197E+02  0.12017635682E+04  0.11997393293E+04 0.  0.
        2    1    3    3  502    0 -0.21281466367E+03 -0.49967891825E+03  0.22027329130E+03  0.58607970898E+03  0.25500000920E-02 0.  1.
       -2    1    3    3    0  502  0.21281466367E+03  0.49967891825E+03 -0.28999571050E+03  0.61568385924E+03  0.25500000920E-02 0. -1.
</event>
<event>
 5   0  0.2244308E-04  0.1198245E+04  0.7818609E-02  0.9114394E-01
       -1   -1    0    0    0  501  0.00000000000E+00  0.00000000000E+00  0.44169475934E+03  0.44169475937E+03  0.50400001928E-02 0. -1.
        1   -1    0    0  501    0  0.00000000000E+00  0.00000000000E+00 -0.81266044859E+03  0.81266044861E+03  0.50400001928E-02 0.  1.
    10030    2    1    2    0    0  0.00000000000E+00  0.00000000000E+00 -0.37096568925E+03  0.12543552080E+04  0.11982451524E+04 0.  0.
        5    1    3    3  502    0  0.28304638963E+03 -0.23912128745E+03  0.30733976212E+03  0.48142919331E+03  0.46999998093E+01 0. -1.
       -5    1    3    3    0  502 -0.28304638963E+03  0.23912128745E+03 -0.67830545138E+03  0.77292601467E+03  0.46999998093E+01 0.  1.
</event>
<event>
 5   0  0.1541375E-04  0.1200088E+04  0.7818609E-02  0.9112780E-01
       -4   -1    0    0    0  501  0.00000000000E+00  0.00000000000E+00  0.54650815524E+03  0.54650963088E+03  0.12699999809E+01 0.  1.
        4   -1    0    0  501    0  0.00000000000E+00  0.00000000000E+00 -0.65882082584E+03  0.65882204992E+03  0.12699999809E+01 0. -1.
    10030    2    1    2    0    0  0.00000000000E+00  0.00000000000E+00 -0.11231267060E+03  0.12053316808E+04  0.12000876321E+04 0.  0.
        1    1    3    3  502    0  0.34320397374E+03  0.39157377268E+03  0.24336415202E+03  0.57475655504E+03  0.50400001928E-02 0.  1.
       -1    1    3    3    0  502 -0.34320397374E+03 -0.39157377268E+03 -0.35567682262E+03  0.63057512575E+03  0.50400001928E-02 0. -1.
</event>
<event>
 5   0  0.3993723E-04  0.1202068E+04  0.7818609E-02  0.9111049E-01
        2   -1    0    0  501    0  0.00000000000E+00  0.00000000000E+00  0.15245813396E+04  0.15245813396E+04  0.25500000920E-02 0.  1.
       -2   -1    0    0    0  501  0.00000000000E+00  0.00000000000E+00 -0.23694479060E+03  0.23694479061E+03  0.25500000920E-02 0. -1.
    10030    2    1    2    0    0  0.00000000000E+00  0.00000000000E+00  0.12876365490E+04  0.17615261302E+04  0.12020675626E+04 0.  0.
        3    1    3    3  502    0  0.23660543589E+03  0.52022165307E+03  0.91651475406E+03  0.10800981461E+04  0.10100000352E+00 0.  1.
       -3    1    3    3    0  502 -0.23660543589E+03 -0.52022165307E+03  0.37112179490E+03  0.68142798407E+03  0.10100000352E+00 0. -1.
</event>
<event>
 5   0  0.3883890E-04  0.1200318E+04  0.7818609E-02  0.9112578E-01
        2   -1    0    0  501    0  0.00000000000E+00  0.00000000000E+00  0.17369280519E+04  0.17369280519E+04  0.25500000920E-02 0. -1.
       -2   -1    0    0    0  501  0.00000000000E+00  0.00000000000E+00 -0.20737238541E+03  0.20737238542E+03  0.25500000920E-02 0.  1.
    10030    2    1    2    0    0  0.00000000000E+00  0.00000000000E+00  0.15295556665E+04  0.19443004373E+04  0.12003181469E+04 0.  0.
        2    1    3    3  502    0  0.21449660730E+03  0.20999220871E+03 -0.77038889635E+02  0.30990403802E+03  0.25500000920E-02 0.  1.
       -2    1    3    3    0  502 -0.21449660730E+03 -0.20999220871E+03  0.16065945561E+04  0.16343963993E+04  0.25500000920E-02 0. -1.
</event>
<event>
 5   0  0.4024486E-04  0.1199254E+04  0.7818609E-02  0.9113510E-01
        2   -1    0    0  501    0  0.00000000000E+00  0.00000000000E+00  0.14713207065E+04  0.14713207065E+04  0.25500000920E-02 0.  1.
       -2   -1    0    0    0  501  0.00000000000E+00  0.00000000000E+00 -0.24437405064E+03  0.24437405065E+03  0.25500000920E-02 0. -1.
    10030    2    1    2    0    0  0.00000000000E+00  0.00000000000E+00  0.12269466559E+04  0.17156947572E+04  0.11992541029E+04 0.  0.
        1    1    3    3  502    0  0.29929090388E+03 -0.41493449443E+03  0.16605517057E+03  0.53788474556E+03  0.50400001928E-02 0. -1.
       -1    1    3    3    0  502 -0.29929090388E+03  0.41493449443E+03  0.10608914853E+04  0.11778100116E+04  0.50400001928E-02 0.  1.
</event>
<event>
 5   0  0.2204090E-04  0.1202210E+04  0.7818609E-02  0.9110924E-01
        1   -1    0    0  501    0  0.00000000000E+00  0.00000000000E+00  0.63269400509E+03  0.63269400511E+03  0.50400001928E-02 0. -1.
       -1   -1    0    0    0  501  0.00000000000E+00  0.00000000000E+00 -0.57109310846E+03  0.57109310848E+03  0.50400001928E-02 0.  1.
    10030    2    1    2    0    0  0.00000000000E+00  0.00000000000E+00  0.61600896636E+02  0.12037871136E+04  0.12022099419E+04 0.  0.
        2    1    3    3  502    0  0.15714526364E+03  0.34798193362E+03 -0.43407268615E+03  0.57810479749E+03  0.25500000920E-02 0.  1.
       -2    1    3    3    0  502 -0.15714526364E+03 -0.34798193362E+03  0.49567358279E+03  0.62568231611E+03  0.25500000920E-02 0. -1.
</event>
<event>
 5   0  0.3832662E-04  0.1201068E+04  0.7818609E-02  0.9111922E-01
        2   -1    0    0  501    0  0.00000000000E+00  0.00000000000E+00  0.82093426122E+03  0.82093426123E+03  0.25500000920E-02 0. -1.
       -2   -1    0    0    0  501  0.00000000000E+00  0.00000000000E+00 -0.43930546099E+03  0.43930546100E+03  0.25500000920E-02 0.  1.
    10030    2    1    2    0    0  0.00000000000E+00  0.00000000000E+00  0.38162880023E+03  0.12602397222E+04  0.12010676985E+04 0.  0.
        4    1    3    3  502    0 -0.56751263237E+03  0.88487532980E+02  0.68523922232E+01  0.57441204686E+03  0.12699999809E+01 0.  1.
       -4    1    3    3    0  502  0.56751263237E+03 -0.88487532980E+02  0.37477640801E+03  0.68582767537E+03  0.12699999809E+01 0. -1.
</event>
<event>
 5   0  0.2304842E-04  0.1200435E+04  0.7818609E-02  0.9112476E-01
        1   -1    0    0  501    0  0.00000000000E+00  0.00000000000E+00  0.10672573897E+04  0.10672573897E+04  0.50400001928E-02 0.  1.
       -1   -1    0    0    0  501  0.00000000000E+00  0.00000000000E+00 -0.33755795919E+03  0.33755795922E+03  0.50400001928E-02 0. -1.
    10030    2    1    2    0    0  0.00000000000E+00  0.00000000000E+00  0.72969943047E+03  0.14048153489E+04  0.12004352984E+04 0.  0.
        4    1    3    3  502    0  0.10692038127E+03  0.52101824511E+02 -0.32362733941E+03  0.34479390331E+03  0.12699999809E+01 0. -1.
       -4    1    3    3    0  502 -0.10692038127E+03 -0.52101824511E+02  0.10533267699E+04  0.10600214456E+04  0.12699999809E+01 0.  1.
</event>
<event>
 5   0  0.2204090E-04  0.1200359E+04  0.7818609E-02  0.9112542E-01
        1   -1    0    0  501    0  0.00000000000E+00  0.00000000000E+00  0.55204756261E+03  0.55204756264E+03  0.50400001928E-02 0. -1.
       -1   -1    0    0    0  501  0.00000000000E+00  0.00000000000E+00 -0.65250796879E+03  0.65250796881E+03  0.50400001928E-02 0.  1.
    10030    2    1    2    0    0  0.00000000000E+00  0.00000000000E+00 -0.10046040618E+03  0.12045555314E+04  0.12003590026E+04 0.  0.
        2    1    3    3  502    0 -0.21659622587E+03  0.51025385680E+03 -0.28112701545E+03  0.62153465090E+03  0.25500000920E-02 0.  1.
       -2    1    3    3    0  502  0.21659622587E+03 -0.51025385680E+03  0.18066660927E+03  0.58302088055E+03  0.25500000920E-02 0. -1.
</event>
<event>
 5   0  0.3993723E-04  0.1200363E+04  0.7818609E-02  0.9112539E-01
       -2   -1    0    0    0  501  0.00000000000E+00  0.00000000000E+00  0.70803100457E+03  0.70803100458E+03  0.25500000920E-02 0. -1.
        2   -1    0    0  501    0  0.00000000000E+00  0.00000000000E+00 -0.50875983397E+03  0.50875983398E+03  0.25500000920E-02 0.  1.
    10030    2    1    2    0    0  0.00000000000E+00  0.00000000000E+00  0.19927117060E+03  0.12167908386E+04  0.12003628390E+04 0.  0.
        3    1    3    3  502    0 -0.43723609757E+03  0.11315995503E+03 -0.30104245155E+03  0.54277725475E+03  0.10100000352E+00 0.  1.
       -3    1    3    3    0  502  0.43723609757E+03 -0.11315995503E+03  0.50031362215E+03  0.67401358380E+03  0.10100000352E+00 0. -1.
</event>
<event>
 5   0  0.2244308E-04  0.1200059E+04  0.7818609E-02  0.9112804E-01
        1   -1    0    0  501    0  0.00000000000E+00  0.00000000000E+00  0.99028147093E+03  0.99028147094E+03  0.50400001928E-02 0.  1.
       -1   -1    0    0    0  501  0.00000000000E+00  0.00000000000E+00 -0.36356903387E+03  0.36356903391E+03  0.50400001928E-02 0. -1.
    10030    2    1    2    0    0  0.00000000000E+00  0.00000000000E+00  0.62671243706E+03  0.13538505048E+04  0.12000594613E+04 0.  0.
        5    1    3    3  502    0 -0.42226297696E+02  0.59844942297E+03  0.30272427634E+03  0.67200360829E+03  0.46999998093E+01 0. -1.
       -5    1    3    3    0  502  0.42226297696E+02 -0.59844942297E+03  0.32398816072E+03  0.68184689656E+03  0.46999998093E+01 0.  1.
</event>
<event>
 5   0  0.3993723E-04  0.1202061E+04  0.7818609E-02  0.9111054E-01
        2   -1    0    0  501    0  0.00000000000E+00  0.00000000000E+00  0.71388467146E+03  0.71388467147E+03  0.25500000920E-02 0. -1.
       -2   -1    0    0    0  501  0.00000000000E+00  0.00000000000E+00 -0.50601720161E+03  0.50601720162E+03  0.25500000920E-02 0.  1.
    10030    2    1    2    0    0  0.00000000000E+00  0.00000000000E+00  0.20786746985E+03  0.12199018731E+04  0.12020614356E+04 0.  0.
        3    1    3    3  502    0  0.23978898281E+03  0.53155095205E+03  0.25167159896E+03  0.63512500724E+03  0.10100000352E+00 0. -1.
       -3    1    3    3    0  502 -0.23978898281E+03 -0.53155095205E+03 -0.43804129117E+02  0.58477686584E+03  0.10100000352E+00 0.  1.
</event>
<event>
 5   0  0.1541375E-04  0.1197399E+04  0.7818609E-02  0.9115136E-01
       -3   -1    0    0    0  501  0.00000000000E+00  0.00000000000E+00  0.46221914409E+03  0.46221915513E+03  0.10100000352E+00 0. -1.
        3   -1    0    0  501    0  0.00000000000E+00  0.00000000000E+00 -0.77547923975E+03  0.77547924633E+03  0.10100000352E+00 0.  1.
    10030    2    1    2    0    0  0.00000000000E+00  0.00000000000E+00 -0.31326009566E+03  0.12376984015E+04  0.11973994511E+04 0.  0.
        5    1    3    3  502    0 -0.25141776532E+03 -0.31066916442E+03 -0.61738192399E+03  0.73546499067E+03  0.46999998093E+01 0.  1.
       -5    1    3    3    0  502  0.25141776532E+03  0.31066916442E+03  0.30412182833E+03  0.50223341078E+03  0.46999998093E+01 0. -1.
</event>
<event>
 5   0  0.2304842E-04  0.1195823E+04  0.7818609E-02  0.9116521E-01
        1   -1    0    0  501    0  0.00000000000E+00  0.00000000000E+00  0.52844397086E+03  0.52844397089E+03  0.50400001928E-02 0.  1.
       -1   -1    0    0    0  501  0.00000000000E+00  0.00000000000E+00 -0.67651067838E+03  0.67651067840E+03  0.50400001928E-02 0. -1.
    10030    2    1    2    0    0  0.00000000000E+00  0.00000000000E+00 -0.14806670751E+03  0.12049546493E+04  0.11958227113E+04 0.  0.
        4    1    3    3  502    0 -0.31373392338E+03 -0.32946710812E+02  0.43776458943E+03  0.53958679477E+03  0.12699999809E+01 0.  1.
       -4    1    3    3    0  502  0.31373392338E+03  0.32946710812E+02 -0.58583129694E+03  0.66536785451E+03  0.12699999809E+01 0. -1.
</event>
<event>
 5   0  0.2244308E-04  0.1199001E+04  0.7818609E-02  0.9113732E-01
       -1   -1    0    0    0  501  0.00000000000E+00  0.00000000000E+00  0.33236894593E+03  0.33236894596E+03  0.50400001928E-02 0. -1.
        1   -1    0    0  501    0  0.00000000000E+00  0.00000000000E+00 -0.10813306976E+04  0.10813306977E+04  0.50400001928E-02 0.  1.
    10030    2    1    2    0    0  0.00000000000E+00  0.00000000000E+00 -0.74896175172E+03  0.14136996436E+04  0.11990008244E+04 0.  0.
        5    1    3    3  502    0  0.30091782125E+03  0.31916385112E+03  0.10729595171E+03  0.45161002010E+03  0.46999998093E+01 0. -1.
       -5    1    3    3    0  502 -0.30091782125E+03 -0.31916385112E+03 -0.85625770342E+03  0.96208962352E+03  0.46999998093E+01 0.  1.
</event>
<event>
 5   0  0.3993723E-04  0.1201136E+04  0.7818609E-02  0.9111862E-01
        2   -1    0    0  501    0  0.00000000000E+00  0.00000000000E+00  0.28009690996E+03  0.28009690997E+03  0.25500000920E-02 0.  1.
       -2   -1    0    0    0  501  0.00000000000E+00  0.00000000000E+00 -0.12877048685E+04  0.12877048685E+04  0.25500000920E-02 0. -1.
    10030    2    1    2    0    0  0.00000000000E+00  0.00000000000E+00 -0.10076079585E+04  0.15678017784E+04  0.12011363863E+04 0.  0.
        3    1    3    3  502    0 -0.20074046035E+03  0.56185203819E+03 -0.41424622795E+03  0.72634316463E+03  0.10100000352E+00 0. -1.
       -3    1    3    3    0  502  0.20074046035E+03 -0.56185203819E+03 -0.59336173056E+03  0.84145861380E+03  0.10100000352E+00 0.  1.
</event>
<event>
 5   0  0.2315038E-04  0.1194648E+04  0.7818609E-02  0.9117554E-01
        1   -1    0    0  501    0  0.00000000000E+00  0.00000000000E+00  0.12635216726E+04  0.12635216726E+04  0.50400001928E-02 0.  1.
       -1   -1    0    0    0  501  0.00000000000E+00  0.00000000000E+00 -0.28238193725E+03  0.28238193729E+03  0.50400001928E-02 0. -1.
    10030    2    1    2    0    0  0.00000000000E+00  0.00000000000E+00  0.98113973532E+03  0.15459036099E+04  0.11946475592E+04 0.  0.
        1    1    3    3  502    0 -0.35485308928E+03  0.75823524591E+02  0.11045512784E+04  0.11626278203E+04  0.50400001928E-02 0.  1.
       -1    1    3    3    0  502  0.35485308928E+03 -0.75823524591E+02 -0.12341154312E+03  0.38327578955E+03  0.50400001928E-02 0. -1.
</event>
<event>
 5   0  0.4122956E-04  0.1199374E+04  0.7818609E-02  0.9113405E-01
       -2   -1    0    0    0  501  0.00000000000E+00  0.00000000000E+00  0.32497328952E+03  0.32497328953E+03  0.25500000920E-02 0.  1.
        2   -1    0    0  501    0  0.00000000000E+00  0.00000000000E+00 -0.11066281053E+04  0.11066281053E+04  0.25500000920E-02 0. -1.
    10030    2    1    2    0    0  0.00000000000E+00  0.00000000000E+00 -0.78165481581E+03  0.14316013949E+04  0.11993741296E+04 0.  0.
        5    1    3    3  502    0 -0.78446421826E+02 -0.25105973476E+02  0.31816732500E+03  0.32868934832E+03  0.46999998093E+01 0.  1.
       -5    1    3    3    0  502  0.78446421826E+02  0.25105973476E+02 -0.10998221408E+04  0.11029120465E+04  0.46999998093E+01 0. -1.
</event>
<event>
 5   0  0.2204090E-04  0.1197305E+04  0.7818609E-02  0.9115218E-01
       -1   -1    0    0    0  501  0.00000000000E+00  0.00000000000E+00  0.33903659414E+03  0.33903659418E+03  0.50400001928E-02 0.  1.
        1   -1    0    0  501    0  0.00000000000E+00  0.00000000000E+00 -0.10570689096E+04  0.10570689096E+04  0.50400001928E-02 0. -1.
    10030    2    1    2    0    0  0.00000000000E+00  0.00000000000E+00 -0.71803231549E+03  0.13961055038E+04  0.11973053795E+04 0.  0.
        2    1    3    3  502    0  0.45040836665E+03 -0.16167344797E+03 -0.77843242579E+03  0.91376312142E+03  0.25500000920E-02 0. -1.
       -2    1    3    3    0  502 -0.45040836665E+03  0.16167344797E+03  0.60400110302E+02  0.48234238240E+03  0.25500000920E-02 0.  1.
</event>
<event>
 5   0  0.2340731E-04  0.1199472E+04  0.7818609E-02  0.9113319E-01
       -1   -1    0    0    0  501  0.00000000000E+00  0.00000000000E+00  0.82091292252E+03  0.82091292254E+03  0.50400001928E-02 0.  1.
        1   -1    0    0  501    0  0.00000000000E+00  0.00000000000E+00 -0.43815005144E+03  0.43815005147E+03  0.50400001928E-02 0. -1.
    10030    2    1    2    0    0  0.00000000000E+00  0.00000000000E+00  0.38276287108E+03  0.12590629740E+04  0.11994716158E+04 0.  0.
        3    1    3    3  502    0  0.39374222971E+03  0.45230581542E+03  0.18262839362E+03  0.62687050854E+03  0.10100000352E+00 0.  1.
       -3    1    3    3    0  502 -0.39374222971E+03 -0.45230581542E+03  0.20013447747E+03  0.63219246547E+03  0.10100000352E+00 0. -1.
</event>
<event>
 5   0  0.1541375E-04  0.1197786E+04  0.7818609E-02  0.9114796E-01
       -3   -1    0    0    0  501  0.00000000000E+00  0.00000000000E+00  0.82956498188E+03  0.82956498803E+03  0.10100000352E+00 0.  1.
        3   -1    0    0  501    0  0.00000000000E+00  0.00000000000E+00 -0.43236266277E+03  0.43236267456E+03  0.10100000352E+00 0. -1.
    10030    2    1    2    0    0  0.00000000000E+00  0.00000000000E+00  0.39720231912E+03  0.12619276626E+04  0.11977861843E+04 0.  0.
        3    1    3    3  502    0 -0.55428137506E+03 -0.22375360928E+03  0.23773037083E+03  0.64328007883E+03  0.10100000352E+00 0.  1.
       -3    1    3    3    0  502  0.55428137506E+03  0.22375360928E+03  0.15947194828E+03  0.61864758376E+03  0.10100000352E+00 0. -1.
</event>
<event>
 5   0  0.2244308E-04  0.1201402E+04  0.7818609E-02  0.9111631E-01
       -1   -1    0    0    0  501  0.00000000000E+00  0.00000000000E+00  0.23250420024E+03  0.23250420029E+03  0.50400001928E-02 0. -1.
        1   -1    0    0  501    0  0.00000000000E+00  0.00000000000E+00 -0.15519784168E+04  0.15519784169E+04  0.50400001928E-02 0.  1.
    10030    2    1    2    0    0  0.00000000000E+00  0.00000000000E+00 -0.13194742166E+04  0.17844826171E+04  0.12014016825E+04 0.  0.
        5    1    3    3  502    0 -0.30094327055E+03  0.40964217482E+02  0.11002489007E+03  0.32306730821E+03  0.46999998093E+01 0. -1.
       -5    1    3    3    0  502  0.30094327055E+03 -0.40964217482E+02 -0.14294991067E+04  0.14614153089E+04  0.46999998093E+01 0.  1.
</event>
<event>
 5   0  0.3883890E-04  0.1192990E+04  0.7818609E-02  0.9119015E-01
       -2   -1    0    0    0  501  0.00000000000E+00  0.00000000000E+00  0.20986494848E+03  0.20986494849E+03  0.25500000920E-02 0.  1.
        2   -1    0    0  501    0  0.00000000000E+00  0.00000000000E+00 -0.16954052106E+04  0.16954052106E+04  0.25500000920E-02 0. -1.
    10030    2    1    2    0    0  0.00000000000E+00  0.00000000000E+00 -0.14855402621E+04  0.19052701591E+04  0.11929897354E+04 0.  0.
        2    1    3    3  502    0 -0.10309947870E+03 -0.54236156763E+03 -0.11035085904E+04  0.12339030682E+04  0.25500000920E-02 0. -1.
       -2    1    3    3    0  502  0.10309947870E+03  0.54236156763E+03 -0.38203167169E+03  0.67136709090E+03  0.25500000920E-02 0.  1.
</event>
<event>
 5   0  0.4024486E-04  0.1199846E+04  0.7818609E-02  0.9112992E-01
        2   -1    0    0  501    0  0.00000000000E+00  0.00000000000E+00  0.12319704033E+04  0.12319704033E+04  0.25500000920E-02 0.  1.
       -2   -1    0    0    0  501  0.00000000000E+00  0.00000000000E+00 -0.29213967963E+03  0.29213967964E+03  0.25500000920E-02 0. -1.
    10030    2    1    2    0    0  0.00000000000E+00  0.00000000000E+00  0.93983072371E+03  0.15241100830E+04  0.11998457217E+04 0.  0.
        1    1    3    3  502    0 -0.42356254926E+03 -0.10493348169E+03 -0.53039816831E+02  0.43957876531E+03  0.50400001928E-02 0. -1.
       -1    1    3    3    0  502  0.42356254926E+03  0.10493348169E+03  0.99287054055E+03  0.10845313177E+04  0.50400001928E-02 0.  1.
</event>
<event>
 5   0  0.2304842E-04  0.1197643E+04  0.7818609E-02  0.9114922E-01
       -1   -1    0    0    0  501  0.00000000000E+00  0.00000000000E+00  0.47313587708E+03  0.47313587711E+03  0.50400001928E-02 0.  1.
        1   -1    0    0  501    0  0.00000000000E+00  0.00000000000E+00 -0.75789472902E+03  0.75789472904E+03  0.50400001928E-02 0. -1.
    10030    2    1    2    0    0  0.00000000000E+00  0.00000000000E+00 -0.28475885194E+03  0.12310306061E+04  0.11976429975E+04 0.  0.
        4    1    3    3  502    0 -0.38005716356E+03 -0.31755881996E+03  0.20360264564E+03  0.53548361498E+03  0.12699999809E+01 0.  1.
       -4    1    3    3    0  502  0.38005716356E+03  0.31755881996E+03 -0.48836149758E+03  0.69554699117E+03  0.12699999809E+01 0. -1.
</event>
<event>
 5   0  0.2340731E-04  0.1202233E+04  0.7818609E-02  0.9110904E-01
       -1   -1    0    0    0  501  0.00000000000E+00  0.00000000000E+00  0.38776880113E+03  0.38776880117E+03  0.50400001928E-02 0. -1.
        1   -1    0    0  501    0  0.00000000000E+00  0.00000000000E+00 -0.93184680022E+03  0.93184680023E+03  0.50400001928E-02 0.  1.
    10030    2    1    2    0    0  0.00000000000E+00  0.00000000000E+00 -0.54407799908E+03  0.13196156014E+04  0.12022331165E+04 0.  0.
        3    1    3    3  502    0 -0.67809095264E+02 -0.58751303155E+03 -0.15396533680E+03  0.61112598601E+03  0.10100000352E+00 0.  1.
       -3    1    3    3    0  502  0.67809095264E+02  0.58751303155E+03 -0.39011266228E+03  0.70848961539E+03  0.10100000352E+00 0. -1.
</event>
<event>
 5   0  0.2340731E-04  0.1199202E+04  0.7818609E-02  0.9113555E-01
       -1   -1    0    0    0  501  0.00000000000E+00  0.00000000000E+00  0.50828362873E+03  0.50828362876E+03  0.50400001928E-02 0. -1.
        1   -1    0    0  501    0  0.00000000000E+00  0.00000000000E+00 -0.70732419095E+03  0.70732419097E+03  0.50400001928E-02 0.  1.
    10030    2    1    2    0    0  0.00000000000E+00  0.00000000000E+00 -0.19904056222E+03  0.12156078197E+04  0.11992019121E+04 0.  0.
        3    1    3    3  502    0  0.34596837335E+03  0.40707923193E+03  0.17644240366E+03  0.56261847502E+03  0.10100000352E+00 0. -1.
       -3    1    3    3    0  502 -0.34596837335E+03 -0.40707923193E+03 -0.37548296587E+03  0.65298934470E+03  0.10100000352E+00 0.  1.
</event>
<event>
 5   0  0.2204090E-04  0.1197365E+04  0.7818609E-02  0.9115166E-01
       -1   -1    0    0    0  501  0.00000000000E+00  0.00000000000E+00  0.33347343108E+03  0.33347343112E+03  0.50400001928E-02 0.  1.
        1   -1    0    0  501    0  0.00000000000E+00  0.00000000000E+00 -0.10748096993E+04  0.10748096993E+04  0.50400001928E-02 0. -1.
    10030    2    1    2    0    0  0.00000000000E+00  0.00000000000E+00 -0.74133626821E+03  0.14082831304E+04  0.11973645697E+04 0.  0.
        2    1    3    3  502    0 -0.55244075938E+03  0.39363112980E+02 -0.10329005643E+03  0.56339070196E+03  0.25500000920E-02 0.  1.
       -2    1    3    3    0  502  0.55244075938E+03 -0.39363112980E+02 -0.63804621178E+03  0.84489242846E+03  0.25500000920E-02 0. -1.
</event>
<event>
 5   0  0.4024486E-04  0.1199064E+04  0.7818609E-02  0.9113677E-01
        2   -1    0    0  501    0  0.00000000000E+00  0.00000000000E+00  0.40118041447E+03  0.40118041448E+03  0.25500000920E-02 0. -1.
       -2   -1    0    0    0  501  0.00000000000E+00  0.00000000000E+00 -0.89595182257E+03  0.89595182257E+03  0.25500000920E-02 0.  1.
    10030    2    1    2    0    0  0.00000000000E+00  0.00000000000E+00 -0.49477140809E+03  0.12971322371E+04  0.11990635071E+04 0.  0.
        1    1    3    3  502    0  0.38740906227E+03 -0.11678162651E+03  0.23119333398E+03  0.46601940681E+03  0.50400001928E-02 0. -1.
       -1    1    3    3    0  502 -0.38740906227E+03  0.11678162651E+03 -0.72596474208E+03  0.83111283024E+03  0.50400001928E-02 0.  1.
</event>
<event>
 5   0  0.3993723E-04  0.1200750E+04  0.7818609E-02  0.9112200E-01
       -2   -1    0    0    0  501  0.00000000000E+00  0.00000000000E+00  0.28723317954E+03  0.28723317955E+03  0.25500000920E-02 0.  1.
        2   -1    0    0  501    0  0.00000000000E+00  0.00000000000E+00 -0.12549050351E+04  0.12549050351E+04  0.25500000920E-02 0. -1.
    10030    2    1    2    0    0  0.00000000000E+00  0.00000000000E+00 -0.96767185559E+03  0.15421382147E+04  0.12007503708E+04 0.  0.
        3    1    3    3  502    0 -0.58348190807E+03  0.65739579537E+02 -0.32302731602E+03  0.67016377585E+03  0.10100000352E+00 0.  1.
       -3    1    3    3    0  502  0.58348190807E+03 -0.65739579537E+02 -0.64464453958E+03  0.87197443883E+03  0.10100000352E+00 0. -1.
</event>
<event>
 5   0  0.2340731E-04  0.1202276E+04  0.7818609E-02  0.9110866E-01
       -1   -1    0    0    0  501  0.00000000000E+00  0.00000000000E+00  0.36879851574E+03  0.36879851577E+03  0.50400001928E-02 0.  1.
        1   -1    0    0  501    0  0.00000000000E+00  0.00000000000E+00 -0.97984947884E+03  0.97984947885E+03  0.50400001928E-02 0. -1.
    10030    2    1    2    0    0  0.00000000000E+00  0.00000000000E+00 -0.61105096310E+03  0.13486479946E+04  0.12022762303E+04 0.  0.
        3    1    3    3  502    0 -0.22909372607E+01 -0.49369456636E+03 -0.69024896040E+03  0.84863608854E+03  0.10100000352E+00 0.  1.
       -3    1    3    3    0  502  0.22909372607E+01  0.49369456636E+03  0.79197997296E+02  0.50001190608E+03  0.10100000352E+00 0. -1.
</event>
<event>
 5   0  0.3832662E-04  0.1200914E+04  0.7818609E-02  0.9112057E-01
       -2   -1    0    0    0  501  0.00000000000E+00  0.00000000000E+00  0.28801825286E+03  0.28801825287E+03  0.25500000920E-02 0. -1.
        2   -1    0    0  501    0  0.00000000000E+00  0.00000000000E+00 -0.12518261152E+04  0.12518261152E+04  0.25500000920E-02 0.  1.
    10030    2    1    2    0    0  0.00000000000E+00  0.00000000000E+00 -0.96380786233E+03  0.15398443681E+04  0.12009142694E+04 0.  0.
        4    1    3    3  502    0 -0.73080834190E+02  0.45100180183E+03  0.17677211218E+02  0.45722809436E+03  0.12699999809E+01 0. -1.
       -4    1    3    3    0  502  0.73080834190E+02 -0.45100180183E+03 -0.98148507355E+03  0.10826162737E+04  0.12699999809E+01 0.  1.
</event>
<event>
 5   0  0.2340731E-04  0.1200299E+04  0.7818609E-02  0.9112595E-01
        1   -1    0    0  501    0  0.00000000000E+00  0.00000000000E+00  0.13100498297E+04  0.13100498297E+04  0.50400001928E-02 0. -1.
       -1   -1    0    0    0  501  0.00000000000E+00  0.00000000000E+00 -0.27493552622E+03  0.27493552627E+03  0.50400001928E-02 0.  1.
    10030    2    1    2    0    0  0.00000000000E+00  0.00000000000E+00  0.10351143035E+04  0.15849853560E+04  0.12002986951E+04 0.  0.
        3    1    3    3  502    0  0.37765679597E+03 -0.32210367609E+03  0.96302287583E+03  0.10834152035E+04  0.10100000352E+00 0. -1.
       -3    1    3    3    0  502 -0.37765679597E+03  0.32210367609E+03  0.72091427674E+02  0.50157015246E+03  0.10100000352E+00 0.  1.
</event>
<event>
 5   0  0.2340731E-04  0.1199935E+04  0.7818609E-02  0.9112913E-01
        1   -1    0    0  501    0  0.00000000000E+00  0.00000000000E+00  0.92535208063E+03  0.92535208064E+03  0.50400001928E-02 0. -1.
       -1   -1    0    0    0  501  0.00000000000E+00  0.00000000000E+00 -0.38899924530E+03  0.38899924533E+03  0.50400001928E-02 0.  1.
    10030    2    1    2    0    0  0.00000000000E+00  0.00000000000E+00  0.53635283533E+03  0.13143513260E+04  0.11999354333E+04 0.  0.
        3    1    3    3  502    0  0.34868763955E+03  0.22072797102E+03 -0.20884559606E+03  0.46251529744E+03  0.10100000352E+00 0.  1.
       -3    1    3    3    0  502 -0.34868763955E+03 -0.22072797102E+03  0.74519843139E+03  0.85183602854E+03  0.10100000352E+00 0. -1.
</event>
<event>
 5   0  0.3993723E-04  0.1197648E+04  0.7818609E-02  0.9114918E-01
        2   -1    0    0  501    0  0.00000000000E+00  0.00000000000E+00  0.12658897924E+04  0.12658897924E+04  0.25500000920E-02 0.  1.
       -2   -1    0    0    0  501  0.00000000000E+00  0.00000000000E+00 -0.28327131216E+03  0.28327131217E+03  0.25500000920E-02 0. -1.
    10030    2    1    2    0    0  0.00000000000E+00  0.00000000000E+00  0.98261848027E+03  0.15491611046E+04  0.11976481329E+04 0.  0.
        3    1    3    3  502    0 -0.54087574423E+03 -0.25558898631E+03  0.52596815590E+03  0.79656438022E+03  0.10100000352E+00 0.  1.
       -3    1    3    3    0  502  0.54087574423E+03  0.25558898631E+03  0.45665032438E+03  0.75259672440E+03  0.10100000352E+00 0. -1.
</event>
<event>
 5   0  0.2304842E-04  0.1199296E+04  0.7818609E-02  0.9113473E-01
       -1   -1    0    0    0  501  0.00000000000E+00  0.00000000000E+00  0.27882659863E+03  0.27882659867E+03  0.50400001928E-02 0. -1.
        1   -1    0    0  501    0  0.00000000000E+00  0.00000000000E+00 -0.12896096010E+04  0.12896096010E+04  0.50400001928E-02 0.  1.
    10030    2    1    2    0    0  0.00000000000E+00  0.00000000000E+00 -0.10107830024E+04  0.15684361997E+04  0.11992955576E+04 0.  0.
        4    1    3    3  502    0 -0.41411428086E+03  0.25136964228E+03 -0.96758013693E+03  0.10820768314E+04  0.12699999809E+01 0.  1.
       -4    1    3    3    0  502  0.41411428086E+03 -0.25136964228E+03 -0.43202865433E+02  0.48635936832E+03  0.12699999809E+01 0. -1.
</event>
<event>
 5   0  0.2340731E-04  0.1201320E+04  0.7818609E-02  0.9111702E-01
        1   -1    0    0  501    0  0.00000000000E+00  0.00000000000E+00  0.84147164199E+03  0.84147164200E+03  0.50400001928E-02 0.  1.
       -1   -1    0    0    0  501  0.00000000000E+00  0.00000000000E+00 -0.42876346512E+03  0.42876346515E+03  0.50400001928E-02 0. -1.
    10030    2    1    2    0    0  0.00000000000E+00  0.00000000000E+00  0.41270817687E+03  0.12702351071E+04  0.12013197693E+04 0.  0.
        3    1    3    3  502    0 -0.55292782704E+02  0.16017388734E+03 -0.40296727301E+03  0.43714482648E+03  0.10100000352E+00 0. -1.
       -3    1    3    3    0  502  0.55292782704E+02 -0.16017388734E+03  0.81567544988E+03  0.83309028066E+03  0.10100000352E+00 0.  1.
</event>
<event>
 5   0  0.3883890E-04  0.1199709E+04  0.7818609E-02  0.9113111E-01
       -2   -1    0    0    0  501  0.00000000000E+00  0.00000000000E+00  0.28775108779E+03  0.28775108781E+03  0.25500000920E-02 0. -1.
        2   -1    0    0  501    0  0.00000000000E+00  0.00000000000E+00 -0.12504742012E+04  0.12504742012E+04  0.25500000920E-02 0.  1.
    10030    2    1    2    0    0  0.00000000000E+00  0.00000000000E+00 -0.96272311345E+03  0.15382252891E+04  0.11997088175E+04 0.  0.
        2    1    3    3  502    0 -0.37013619302E+03 -0.46836686933E+03 -0.40597517369E+03  0.72193086049E+03  0.25500000920E-02 0.  1.
       -2    1    3    3    0  502  0.37013619302E+03  0.46836686933E+03 -0.55674793976E+03  0.81629442856E+03  0.25500000920E-02 0. -1.
</event>
<event>
 5   0  0.2304842E-04  0.1202288E+04  0.7818609E-02  0.9110856E-01
       -1   -1    0    0    0  501  0.00000000000E+00  0.00000000000E+00  0.37506883252E+03  0.37506883256E+03  0.50400001928E-02 0. -1.
        1   -1    0    0  501    0  0.00000000000E+00  0.00000000000E+00 -0.96348709833E+03  0.96348709834E+03  0.50400001928E-02 0.  1.
    10030    2    1    2    0    0  0.00000000000E+00  0.00000000000E+00 -0.58841826580E+03  0.13385559309E+04  0.12022877878E+04 0.  0.
        4    1    3    3  502    0 -0.20192376948E+03  0.24867985477E+03  0.27212736548E+03  0.42032106156E+03  0.12699999809E+01 0. -1.
       -4    1    3    3    0  502  0.20192376948E+03 -0.24867985477E+03 -0.86054563128E+03  0.91823486934E+03  0.12699999809E+01 0.  1.
</event>
<event>
 5   0  0.4024486E-04  0.1202873E+04  0.7818609E-02  0.9110345E-01
        2   -1    0    0  501    0  0.00000000000E+00  0.00000000000E+00  0.85226785485E+03  0.85226785486E+03  0.25500000920E-02 0. -1.
       -2   -1    0    0    0  501  0.00000000000E+00  0.00000000000E+00 -0.42442766028E+03  0.42442766029E+03  0.25500000920E-02 0.  1.
    10030    2    1    2    0    0  0.00000000000E+00  0.00000000000E+00  0.42784019457E+03  0.12766955151E+04  0.12028733127E+04 0.  0.
        1    1    3    3  502    0  0.30882049420E+02  0.54141958329E+02 -0.42099037719E+03  0.42557954643E+03  0.50400001928E-02 0.  1.
       -1    1    3    3    0  502 -0.30882049420E+02 -0.54141958329E+02  0.84883057176E+03  0.85111596872E+03  0.50400001928E-02 0. -1.
</event>
<event>
 5   0  0.1541375E-04  0.1199015E+04  0.7818609E-02  0.9113719E-01
       -4   -1    0    0    0  501  0.00000000000E+00  0.00000000000E+00  0.62729396727E+03  0.62729525287E+03  0.12699999809E+01 0.  1.
        4   -1    0    0  501    0  0.00000000000E+00  0.00000000000E+00 -0.57294954792E+03  0.57295095546E+03  0.12699999809E+01 0. -1.
    10030    2    1    2    0    0  0.00000000000E+00  0.00000000000E+00  0.54344419350E+02  0.12002462083E+04  0.11990152813E+04 0.  0.
        1    1    3    3  502    0 -0.37523809164E+03 -0.45632936848E+03  0.12910647611E+03  0.60473845599E+03  0.50400001928E-02 0.  1.
       -1    1    3    3    0  502  0.37523809164E+03  0.45632936848E+03 -0.74762056760E+02  0.59550775235E+03  0.50400001928E-02 0. -1.
</event>
<event>
 5   0  0.2304842E-04  0.1200075E+04  0.7818609E-02  0.9112791E-01
        1   -1    0    0  501    0  0.00000000000E+00  0.00000000000E+00  0.10313653303E+04  0.10313653303E+04  0.50400001928E-02 0.  1.
       -1   -1    0    0    0  501  0.00000000000E+00  0.00000000000E+00 -0.34909549726E+03  0.34909549730E+03  0.50400001928E-02 0. -1.
    10030    2    1    2    0    0  0.00000000000E+00  0.00000000000E+00  0.68226983305E+03  0.13804608276E+04  0.12000749858E+04 0.  0.
        4    1    3    3  502    0 -0.50525391215E+03 -0.16523442048E+03  0.66128447702E+03  0.84845901604E+03  0.12699999809E+01 0.  1.
       -4    1    3    3    0  502  0.50525391215E+03  0.16523442048E+03  0.20985356031E+02  0.53200181158E+03  0.12699999809E+01 0. -1.
</event>
<event>
 5   0  0.3993723E-04  0.1200899E+04  0.7818609E-02  0.9112070E-01
        2   -1    0    0  501    0  0.00000000000E+00  0.00000000000E+00  0.76902508537E+03  0.76902508537E+03  0.25500000920E-02 0.  1.
       -2   -1    0    0    0  501  0.00000000000E+00  0.00000000000E+00 -0.46882700959E+03  0.46882700960E+03  0.25500000920E-02 0. -1.
    10030    2    1    2    0    0  0.00000000000E+00  0.00000000000E+00  0.30019807577E+03  0.12378520950E+04  0.12008992149E+04 0.  0.
        3    1    3    3  502    0 -0.19583163621E+03  0.34862355488E+03  0.61182382829E+03  0.73090137489E+03  0.10100000352E+00 0.  1.
       -3    1    3    3    0  502  0.19583163621E+03 -0.34862355488E+03 -0.31162575252E+03  0.50695072008E+03  0.10100000352E+00 0. -1.
</event>
<event>
 5   0  0.2340731E-04  0.1199072E+04  0.7818609E-02  0.9113669E-01
        1   -1    0    0  501    0  0.00000000000E+00  0.00000000000E+00  0.69702489398E+03  0.69702489400E+03  0.50400001928E-02 0. -1.
       -1   -1    0    0    0  501  0.00000000000E+00  0.00000000000E+00 -0.51568265282E+03  0.51568265285E+03  0.50400001928E-02 0.  1.
    10030    2    1    2    0    0  0.00000000000E+00  0.00000000000E+00  0.18134224116E+03  0.12127075468E+04  0.11990723855E+04 0.  0.
        3    1    3    3  502    0  0.25139523562E+03  0.15897068409E+03 -0.43579836279E+03  0.52762815135E+03  0.10100000352E+00 0.  1.
       -3    1    3    3    0  502 -0.25139523562E+03 -0.15897068409E+03  0.61714060395E+03  0.68507939550E+03  0.10100000352E+00 0. -1.
</event>
<event>
 5   0  0.3883890E-04  0.1200128E+04  0.7818609E-02  0.9112744E-01
       -2   -1    0    0    0  501  0.00000000000E+00  0.00000000000E+00  0.48641079697E+03  0.48641079697E+03  0.25500000920E-02 0.  1.
        2   -1    0    0  501    0  0.00000000000E+00  0.00000000000E+00 -0.74027310054E+03  0.74027310055E+03  0.25500000920E-02 0. -1.
    10030    2    1    2    0    0  0.00000000000E+00  0.00000000000E+00 -0.25386230358E+03  0.12266838975E+04  0.12001280412E+04 0.  0.
        2    1    3    3  502    0  0.44867471424E+03 -0.30035684312E+03  0.14068985664E+03  0.55795776558E+03  0.25500000920E-02 0.  1.
       -2    1    3    3    0  502 -0.44867471424E+03  0.30035684312E+03 -0.39455216021E+03  0.66872613194E+03  0.25500000920E-02 0. -1.
</event>
<event>
 5   0  0.3993723E-04  0.1210603E+04  0.7818609E-02  0.9103626E-01
       -2   -1    0    0    0  501  0.00000000000E+00  0.00000000000E+00  0.10307268932E+04  0.10307268932E+04  0.25500000920E-02 0.  1.
        2   -1    0    0  501    0  0.00000000000E+00  0.00000000000E+00 -0.35546723512E+03  0.35546723513E+03  0.25500000920E-02 0. -1.
    10030    2    1    2    0    0  0.00000000000E+00  0.00000000000E+00  0.67525965811E+03  0.13861941284E+04  0.12106025589E+04 0.  0.
        3    1    3    3  502    0  0.33913382854E+03  0.77493968242E+02  0.90482883924E+03  0.96939790969E+03  0.10100000352E+00 0.  1.
       -3    1    3    3    0  502 -0.33913382854E+03 -0.77493968242E+02 -0.22956918114E+03  0.41679621868E+03  0.10100000352E+00 0. -1.
</event>
<event>
 5   0  0.3883890E-04  0.1199003E+04  0.7818609E-02  0.9113729E-01
        2   -1    0    0  501    0  0.00000000000E+00  0.00000000000E+00  0.18610611323E+04  0.18610611323E+04  0.25500000920E-02 0.  1.
       -2   -1    0    0    0  501  0.00000000000E+00  0.00000000000E+00 -0.19311687577E+03  0.19311687578E+03  0.25500000920E-02 0. -1.
    10030    2    1    2    0    0  0.00000000000E+00  0.00000000000E+00  0.16679442565E+04  0.20541780080E+04  0.11990034387E+04 0.  0.
        2    1    3    3  502    0 -0.40963314693E+03  0.23646423420E+03  0.20288717294E+03  0.51466285476E+03  0.25500000920E-02 0. -1.
       -2    1    3    3    0  502  0.40963314693E+03 -0.23646423420E+03  0.14650570835E+04  0.15395151533E+04  0.25500000920E-02 0.  1.
</event>
<event>
 5   0  0.3883890E-04  0.1197745E+04  0.7818609E-02  0.9114833E-01
        2   -1    0    0  501    0  0.00000000000E+00  0.00000000000E+00  0.92959012503E+03  0.92959012504E+03  0.25500000920E-02 0. -1.
       -2   -1    0    0    0  501  0.00000000000E+00  0.00000000000E+00 -0.38581311939E+03  0.38581311940E+03  0.25500000920E-02 0.  1.
    10030    2    1    2    0    0  0.00000000000E+00  0.00000000000E+00  0.54377700564E+03  0.13154032444E+04  0.11977446571E+04 0.  0.
        2    1    3    3  502    0 -0.40918397120E+03  0.20814476606E+03  0.69423359121E+03  0.83229564765E+03  0.25500000920E-02 0. -1.
       -2    1    3    3    0  502  0.40918397120E+03 -0.20814476606E+03 -0.15045658557E+03  0.48310759679E+03  0.25500000920E-02 0.  1.
</event>
<event>
 5   0  0.2244308E-04  0.1197153E+04  0.7818609E-02  0.9115352E-01
        1   -1    0    0  501    0  0.00000000000E+00  0.00000000000E+00  0.48458878729E+03  0.48458878731E+03  0.50400001928E-02 0.  1.
       -1   -1    0    0    0  501  0.00000000000E+00  0.00000000000E+00 -0.73937735698E+03  0.73937735699E+03  0.50400001928E-02 0. -1.
    10030    2    1    2    0    0  0.00000000000E+00  0.00000000000E+00 -0.25478856969E+03  0.12239661443E+04  0.11971532513E+04 0.  0.
        5    1    3    3  502    0 -0.39505029563E+03  0.30316193176E+03 -0.46694715036E+03  0.68266655416E+03  0.46999998093E+01 0. -1.
       -5    1    3    3    0  502  0.39505029563E+03 -0.30316193176E+03  0.21215858067E+03  0.54129959015E+03  0.46999998093E+01 0.  1.
</event>
<event>
 5   0  0.2304842E-04  0.1201699E+04  0.7818609E-02  0.9111371E-01
        1   -1    0    0  501    0  0.00000000000E+00  0.00000000000E+00  0.11402444244E+04  0.11402444245E+04  0.50400001928E-02 0.  1.
       -1   -1    0    0    0  501  0.00000000000E+00  0.00000000000E+00 -0.31661630838E+03  0.31661630842E+03  0.50400001928E-02 0. -1.
    10030    2    1    2    0    0  0.00000000000E+00  0.00000000000E+00  0.82362811607E+03  0.14568607329E+04  0.12016987648E+04 0.  0.
        4    1    3    3  502    0  0.40097361965E+03  0.19925057583E+03 -0.73933900877E+02  0.45381545833E+03  0.12699999809E+01 0. -1.
       -4    1    3    3    0  502 -0.40097361965E+03 -0.19925057583E+03  0.89756201694E+03  0.10030452745E+04  0.12699999809E+01 0.  1.
</event>
<event>
 5   0  0.3883890E-04  0.1197003E+04  0.7818609E-02  0.9115483E-01
       -2   -1    0    0    0  501  0.00000000000E+00  0.00000000000E+00  0.29518519213E+03  0.29518519214E+03  0.25500000920E-02 0. -1.
        2   -1    0    0  501    0  0.00000000000E+00  0.00000000000E+00 -0.12134900436E+04  0.12134900436E+04  0.25500000920E-02 0.  1.
    10030    2    1    2    0    0  0.00000000000E+00  0.00000000000E+00 -0.91830485142E+03  0.15086752357E+04  0.11970034113E+04 0.  0.
        2    1    3    3  502    0  0.54227199943E+03 -0.24559809557E+03 -0.38118260670E+03  0.70687872055E+03  0.25500000920E-02 0.  1.
       -2    1    3    3    0  502 -0.54227199943E+03  0.24559809557E+03 -0.53712224472E+03  0.80179651514E+03  0.25500000920E-02 0. -1.
</event>
<event>
 5   0  0.3883890E-04  0.1199838E+04  0.7818609E-02  0.9112998E-01
        2   -1    0    0  501    0  0.00000000000E+00  0.00000000000E+00  0.17366110811E+04  0.17366110811E+04  0.25500000920E-02 0.  1.
       -2   -1    0    0    0  501  0.00000000000E+00  0.00000000000E+00 -0.20724428803E+03  0.20724428804E+03  0.25500000920E-02 0. -1.
    10030    2    1    2    0    0  0.00000000000E+00  0.00000000000E+00  0.15293667930E+04  0.19438553691E+04  0.11998378675E+04 0.  0.
        2    1    3    3  502    0 -0.43651026428E+02  0.45718657868E+03  0.13900030600E+04  0.14639103411E+04  0.25500000920E-02 0.  1.
       -2    1    3    3    0  502  0.43651026428E+02 -0.45718657868E+03  0.13936373300E+03  0.47994502802E+03  0.25500000920E-02 0. -1.
</event>
<event>
 5   0  0.1541375E-04  0.1198120E+04  0.7818609E-02  0.9114503E-01
       -3   -1    0    0    0  501  0.00000000000E+00  0.00000000000E+00  0.65971555212E+03  0.65971555985E+03  0.10100000352E+00 0.  1.
        3   -1    0    0  501    0  0.00000000000E+00  0.00000000000E+00 -0.54398149215E+03  0.54398150152E+03  0.10100000352E+00 0. -1.
    10030    2    1    2    0    0  0.00000000000E+00  0.00000000000E+00  0.11573405997E+03  0.12036970614E+04  0.11981202957E+04 0.  0.
        2    1    3    3  502    0 -0.11614075388E+03  0.14717557894E+03 -0.51374853559E+03  0.54688836482E+03  0.25500000920E-02 0. -1.
       -2    1    3    3    0  502  0.11614075388E+03 -0.14717557894E+03  0.62948259556E+03  0.65680869655E+03  0.25500000920E-02 0.  1.
</event>
<event>
 5   0  0.3993723E-04  0.1186872E+04  0.7818609E-02  0.9124425E-01
        2   -1    0    0  501    0  0.00000000000E+00  0.00000000000E+00  0.29613602723E+03  0.29613602724E+03  0.25500000920E-02 0. -1.
       -2   -1    0    0    0  501  0.00000000000E+00  0.00000000000E+00 -0.11892049922E+04  0.11892049922E+04  0.25500000920E-02 0.  1.
    10030    2    1    2    0    0  0.00000000000E+00  0.00000000000E+00 -0.89306896500E+03  0.14853410195E+04  0.11868722627E+04 0.  0.
        3    1    3    3  502    0 -0.20806207167E+03  0.26565341843E+03  0.16439157714E+03  0.37534805878E+03  0.10100000352E+00 0. -1.
       -3    1    3    3    0  502  0.20806207167E+03 -0.26565341843E+03 -0.10574605421E+04  0.11099929607E+04  0.10100000352E+00 0.  1.
</event>
<event>
 5   0  0.1541375E-04  0.1198484E+04  0.7818609E-02  0.9114184E-01
        4   -1    0    0  501    0  0.00000000000E+00  0.00000000000E+00  0.42666101991E+03  0.42666291005E+03  0.12699999809E+01 0. -1.
       -4   -1    0    0    0  501  0.00000000000E+00  0.00000000000E+00 -0.84162703288E+03  0.84162799109E+03  0.12699999809E+01 0.  1.
    10030    2    1    2    0    0  0.00000000000E+00  0.00000000000E+00 -0.41496601297E+03  0.12682909011E+04  0.11984844671E+04 0.  0.
        4    1    3    3  502    0  0.38426364014E+02  0.49052396136E+02 -0.83818931523E+03  0.84050322075E+03  0.12699999809E+01 0.  1.
       -4    1    3    3    0  502 -0.38426364014E+02 -0.49052396136E+02  0.42322330226E+03  0.42778768039E+03  0.12699999809E+01 0. -1.
</event>
<event>
 5   0  0.2304842E-04  0.1205527E+04  0.7818609E-02  0.9108033E-01
        1   -1    0    0  501    0  0.00000000000E+00  0.00000000000E+00  0.64832207334E+03  0.64832207336E+03  0.50400001928E-02 0. -1.
       -1   -1    0    0    0  501  0.00000000000E+00  0.00000000000E+00 -0.56040608292E+03  0.56040608294E+03  0.50400001928E-02 0.  1.
    10030    2    1    2    0    0  0.00000000000E+00  0.00000000000E+00  0.87915990415E+02  0.12087281563E+04  0.12055266627E+04 0.  0.
        4    1    3    3  502    0  0.38271190472E+03  0.28186795669E+03  0.41562295910E+03  0.63139686731E+03  0.12699999809E+01 0. -1.
       -4    1    3    3    0  502 -0.38271190472E+03 -0.28186795669E+03 -0.32770696868E+03  0.57733128899E+03  0.12699999809E+01 0.  1.
</event>
<event>
 5   0  0.3883890E-04  0.1199277E+04  0.7818609E-02  0.9113490E-01
        2   -1    0    0  501    0  0.00000000000E+00  0.00000000000E+00  0.12484552546E+04  0.12484552546E+04  0.25500000920E-02 0. -1.
       -2   -1    0    0    0  501  0.00000000000E+00  0.00000000000E+00 -0.28800903848E+03  0.28800903849E+03  0.25500000920E-02 0.  1.
    10030    2    1    2    0    0  0.00000000000E+00  0.00000000000E+00  0.96044621610E+03  0.15364642931E+04  0.11992771114E+04 0.  0.
        2    1    3    3  502    0  0.57388922390E+02 -0.17010746159E+03  0.12132164866E+04  0.12264274460E+04  0.25500000920E-02 0. -1.
       -2    1    3    3    0  502 -0.57388922390E+02  0.17010746159E+03 -0.25277027050E+03  0.31003684710E+03  0.25500000920E-02 0.  1.
</event>
<event>
 5   0  0.3993723E-04  0.1199463E+04  0.7818609E-02  0.9113327E-01
        2   -1    0    0  501    0  0.00000000000E+00  0.00000000000E+00  0.18119221307E+04  0.18119221307E+04  0.25500000920E-02 0.  1.
       -2   -1    0    0    0  501  0.00000000000E+00  0.00000000000E+00 -0.19850621172E+03  0.19850621174E+03  0.25500000920E-02 0. -1.
    10030    2    1    2    0    0  0.00000000000E+00  0.00000000000E+00  0.16134159190E+04  0.20104283425E+04  0.11994628767E+04 0.  0.
        3    1    3    3  502    0 -0.39319569623E+03 -0.26342427523E+02  0.15644511747E+04  0.16133208817E+04  0.10100000352E+00 0.  1.
       -3    1    3    3    0  502  0.39319569623E+03  0.26342427523E+02  0.48964744279E+02  0.39710746078E+03  0.10100000352E+00 0. -1.
</event>
<event>
 5   0  0.1541375E-04  0.1199387E+04  0.7818609E-02  0.9113393E-01
        4   -1    0    0  501    0  0.00000000000E+00  0.00000000000E+00  0.10289602086E+04  0.10289609923E+04  0.12699999809E+01 0. -1.
       -4   -1    0    0    0  501  0.00000000000E+00  0.00000000000E+00 -0.34950834291E+03  0.34951065029E+03  0.12699999809E+01 0.  1.
    10030    2    1    2    0    0  0.00000000000E+00  0.00000000000E+00  0.67945186565E+03  0.13784716426E+04  0.11993870233E+04 0.  0.
        2    1    3    3  502    0 -0.40551366201E+03 -0.20624669557E+03  0.78877268391E+03  0.91057200506E+03  0.25500000920E-02 0. -1.
       -2    1    3    3    0  502  0.40551366201E+03  0.20624669557E+03 -0.10932081825E+03  0.46789963755E+03  0.25500000920E-02 0.  1.
</event>
<event>
 5   0  0.2244308E-04  0.1201216E+04  0.7818609E-02  0.9111793E-01
        1   -1    0    0  501    0  0.00000000000E+00  0.00000000000E+00  0.51841858936E+03  0.51841858938E+03  0.50400001928E-02 0. -1.
       -1   -1    0    0    0  501  0.00000000000E+00  0.00000000000E+00 -0.69582737933E+03  0.69582737935E+03  0.50400001928E-02 0.  1.
    10030    2    1    2    0    0  0.00000000000E+00  0.00000000000E+00 -0.17740878997E+03  0.12142459687E+04  0.12012157982E+04 0.  0.
        5    1    3    3  502    0  0.89429497889E+02 -0.58609588125E+03  0.82618651159E+01  0.59295561851E+03  0.46999998093E+01 0. -1.
       -5    1    3    3    0  502 -0.89429497889E+02  0.58609588125E+03 -0.18567065509E+03  0.62129035022E+03  0.46999998093E+01 0.  1.
</event>
<event>
 5   0  0.3832662E-04  0.1201947E+04  0.7818609E-02  0.9111154E-01
        2   -1    0    0  501    0  0.00000000000E+00  0.00000000000E+00  0.14348908836E+04  0.14348908836E+04  0.25500000920E-02 0.  1.
       -2   -1    0    0    0  501  0.00000000000E+00  0.00000000000E+00 -0.25170499769E+03  0.25170499770E+03  0.25500000920E-02 0. -1.
    10030    2    1    2    0    0  0.00000000000E+00  0.00000000000E+00  0.11831858859E+04  0.16865958813E+04  0.12019470979E+04 0.  0.
        4    1    3    3  502    0  0.10382117960E+03 -0.38940076092E+03 -0.33990998135E+02  0.40443638659E+03  0.12699999809E+01 0. -1.
       -4    1    3    3    0  502 -0.10382117960E+03  0.38940076092E+03  0.12171768841E+04  0.12821594947E+04  0.12699999809E+01 0.  1.
</event>
<event>
 5   0  0.2340731E-04  0.1200154E+04  0.7818609E-02  0.9112722E-01
        1   -1    0    0  501    0  0.00000000000E+00  0.00000000000E+00  0.15208947482E+04  0.15208947482E+04  0.50400001928E-02 0. -1.
       -1   -1    0    0    0  501  0.00000000000E+00  0.00000000000E+00 -0.23676358242E+03  0.23676358247E+03  0.50400001928E-02 0.  1.
    10030    2    1    2    0    0  0.00000000000E+00  0.00000000000E+00  0.12841311657E+04  0.17576583306E+04  0.12001541386E+04 0.  0.
        3    1    3    3  502    0 -0.18915566161E+03  0.37990820366E+03  0.20749758844E+02  0.42490077691E+03  0.10100000352E+00 0.  1.
       -3    1    3    3    0  502  0.18915566161E+03 -0.37990820366E+03  0.12633814069E+04  0.13327575537E+04  0.10100000352E+00 0. -1.
</event>
<event>
 5   0  0.2204090E-04  0.1198638E+04  0.7818609E-02  0.9114049E-01
        1   -1    0    0  501    0  0.00000000000E+00  0.00000000000E+00  0.32166033577E+03  0.32166033581E+03  0.50400001928E-02 0.  1.
       -1   -1    0    0    0  501  0.00000000000E+00  0.00000000000E+00 -0.11166539390E+04  0.11166539391E+04  0.50400001928E-02 0. -1.
    10030    2    1    2    0    0  0.00000000000E+00  0.00000000000E+00 -0.79499360327E+03  0.14383142749E+04  0.11986380288E+04 0.  0.
        2    1    3    3  502    0  0.39841791240E+03  0.27854990274E+03 -0.81809231020E+03  0.95163118341E+03  0.25500000920E-02 0. -1.
       -2    1    3    3    0  502 -0.39841791240E+03 -0.27854990274E+03  0.23098706925E+02  0.48668309145E+03  0.25500000920E-02 0.  1.
</event>
<event>
 5   0  0.3883890E-04  0.1196636E+04  0.7818609E-02  0.9115807E-01
       -2   -1    0    0    0  501  0.00000000000E+00  0.00000000000E+00  0.23518174621E+03  0.23518174622E+03  0.25500000920E-02 0. -1.
        2   -1    0    0  501    0  0.00000000000E+00  0.00000000000E+00 -0.15221596264E+04  0.15221596265E+04  0.25500000920E-02 0.  1.
    10030    2    1    2    0    0  0.00000000000E+00  0.00000000000E+00 -0.12869778802E+04  0.17573413727E+04  0.11966355485E+04 0.  0.
        2    1    3    3  502    0  0.28369481888E+03 -0.10133166671E+03  0.11568190688E+03  0.32269670052E+03  0.25500000920E-02 0. -1.
       -2    1    3    3    0  502 -0.28369481888E+03  0.10133166671E+03 -0.14026597871E+04  0.14346446722E+04  0.25500000920E-02 0.  1.
</event>
<event>
 5   0  0.3993723E-04  0.1199378E+04  0.7818609E-02  0.9113401E-01
        2   -1    0    0  501    0  0.00000000000E+00  0.00000000000E+00  0.16150531521E+04  0.16150531521E+04  0.25500000920E-02 0.  1.
       -2   -1    0    0    0  501  0.00000000000E+00  0.00000000000E+00 -0.22267203135E+03  0.22267203136E+03  0.25500000920E-02 0. -1.
    10030    2    1    2    0    0  0.00000000000E+00  0.00000000000E+00  0.13923811208E+04  0.18377251835E+04  0.11993784492E+04 0.  0.
        3    1    3    3  502    0  0.59621670092E+03 -0.62234359116E+02  0.67056580632E+03  0.89944759754E+03  0.10100000352E+00 0. -1.
       -3    1    3    3    0  502 -0.59621670092E+03  0.62234359116E+02  0.72181531444E+03  0.93827758593E+03  0.10100000352E+00 0.  1.
</event>
<event>
 5   0  0.2304842E-04  0.1200628E+04  0.7818609E-02  0.9112307E-01
       -1   -1    0    0    0  501  0.00000000000E+00  0.00000000000E+00  0.53201069196E+03  0.53201069199E+03  0.50400001928E-02 0.  1.
        1   -1    0    0  501    0  0.00000000000E+00  0.00000000000E+00 -0.67738674940E+03  0.67738674941E+03  0.50400001928E-02 0. -1.
    10030    2    1    2    0    0  0.00000000000E+00  0.00000000000E+00 -0.14537605743E+03  0.12093974414E+04  0.12006281578E+04 0.  0.
        4    1    3    3  502    0 -0.19064232920E+03 -0.18975091493E+03 -0.61328794025E+03  0.66968172885E+03  0.12699999809E+01 0. -1.
       -4    1    3    3    0  502  0.19064232920E+03  0.18975091493E+03  0.46791188282E+03  0.53971571256E+03  0.12699999809E+01 0.  1.
</event>
<event>
 5   0  0.3993723E-04  0.1200627E+04  0.7818609E-02  0.9112308E-01
        2   -1    0    0  501    0  0.00000000000E+00  0.00000000000E+00  0.48746146809E+03  0.48746146810E+03  0.25500000920E-02 0. -1.
       -2   -1    0    0    0  501  0.00000000000E+00  0.00000000000E+00 -0.73929215970E+03  0.73929215970E+03  0.25500000920E-02 0.  1.
    10030    2    1    2    0    0  0.00000000000E+00  0.00000000000E+00 -0.25183069161E+03  0.12267536278E+04  0.12006272386E+04 0.  0.
        3    1    3    3  502    0  0.39045780426E+03 -0.39651307609E+03 -0.35597380753E+03  0.66060372256E+03  0.10100000352E+00 0.  1.
       -3    1    3    3    0  502 -0.39045780426E+03  0.39651307609E+03  0.10414311593E+03  0.56614990524E+03  0.10100000352E+00 0. -1.
</event>
<event>
 5   0  0.1541375E-04  0.1198807E+04  0.7818609E-02  0.9113902E-01
       -3   -1    0    0    0  501  0.00000000000E+00  0.00000000000E+00  0.65457600914E+03  0.65457601693E+03  0.10100000352E+00 0.  1.
        3   -1    0    0  501    0  0.00000000000E+00  0.00000000000E+00 -0.54888107436E+03  0.54888108365E+03  0.10100000352E+00 0. -1.
    10030    2    1    2    0    0  0.00000000000E+00  0.00000000000E+00  0.10569493478E+03  0.12034571006E+04  0.11988067291E+04 0.  0.
        5    1    3    3  502    0 -0.95696357839E+02  0.77816077763E+02  0.64167986642E+03  0.65344339910E+03  0.46999998093E+01 0.  1.
       -5    1    3    3    0  502  0.95696357839E+02 -0.77816077763E+02 -0.53598493164E+03  0.55001370147E+03  0.46999998093E+01 0. -1.
</event>
<event>
 5   0  0.2340731E-04  0.1199473E+04  0.7818609E-02  0.9113318E-01
        1   -1    0    0  501    0  0.00000000000E+00  0.00000000000E+00  0.47275719567E+03  0.47275719570E+03  0.50400001928E-02 0. -1.
       -1   -1    0    0    0  501  0.00000000000E+00  0.00000000000E+00 -0.76082104503E+03  0.76082104504E+03  0.50400001928E-02 0.  1.
    10030    2    1    2    0    0  0.00000000000E+00  0.00000000000E+00 -0.28806384936E+03  0.12335782407E+04  0.11994725902E+04 0.  0.
        3    1    3    3  502    0 -0.16840223930E+03 -0.24387976502E+03  0.39218264729E+03  0.49157287662E+03  0.10100000352E+00 0. -1.
       -3    1    3    3    0  502  0.16840223930E+03  0.24387976502E+03 -0.68024649665E+03  0.74200536412E+03  0.10100000352E+00 0.  1.
</event>
<event>
 5   0  0.3883890E-04  0.1199773E+04  0.7818609E-02  0.9113056E-01
        2   -1    0    0  501    0  0.00000000000E+00  0.00000000000E+00  0.24184759774E+04  0.24184759774E+04  0.25500000920E-02 0. -1.
       -2   -1    0    0    0  501  0.00000000000E+00  0.00000000000E+00 -0.14879766422E+03  0.14879766425E+03  0.25500000920E-02 0.  1.
    10030    2    1    2    0    0  0.00000000000E+00  0.00000000000E+00  0.22696783131E+04  0.25672736416E+04  0.11997726059E+04 0.  0.
        2    1    3    3  502    0  0.56474993618E+03 -0.89521930242E+02  0.74667380017E+03  0.94046713408E+03  0.25500000920E-02 0.  1.
       -2    1    3    3    0  502 -0.56474993618E+03  0.89521930242E+02  0.15230045130E+04  0.16268065075E+04  0.25500000920E-02 0. -1.
</event>
<event>
 5   0  0.3993723E-04  0.1199560E+04  0.7818609E-02  0.9113242E-01
        2   -1    0    0  501    0  0.00000000000E+00  0.00000000000E+00  0.69946115140E+03  0.69946115140E+03  0.25500000920E-02 0.  1.
       -2   -1    0    0    0  501  0.00000000000E+00  0.00000000000E+00 -0.51430413925E+03  0.51430413925E+03  0.25500000920E-02 0. -1.
    10030    2    1    2    0    0  0.00000000000E+00  0.00000000000E+00  0.18515701215E+03  0.12137652907E+04  0.11995595282E+04 0.  0.
        3    1    3    3  502    0 -0.19083169806E+03 -0.22810177812E+03 -0.43444341431E+03  0.52648670316E+03  0.10100000352E+00 0. -1.
       -3    1    3    3    0  502  0.19083169806E+03  0.22810177812E+03  0.61960042646E+03  0.68727858750E+03  0.10100000352E+00 0.  1.
</event>
<event>
 5   0  0.4024486E-04  0.1198943E+04  0.7818609E-02  0.9113782E-01
       -2   -1    0    0    0  501  0.00000000000E+00  0.00000000000E+00  0.33016314253E+03  0.33016314254E+03  0.25500000920E-02 0. -1.
        2   -1    0    0  501    0  0.00000000000E+00  0.00000000000E+00 -0.10884498260E+04  0.10884498260E+04  0.25500000920E-02 0.  1.
    10030    2    1    2    0    0  0.00000000000E+00  0.00000000000E+00 -0.75828668345E+03  0.14186129685E+04  0.11989428928E+04 0.  0.
        1    1    3    3  502    0  0.26126555682E+03  0.39774773012E+03  0.52209764508E+02  0.47873667869E+03  0.50400001928E-02 0. -1.
       -1    1    3    3    0  502 -0.26126555682E+03 -0.39774773012E+03 -0.81049644795E+03  0.93987628982E+03  0.50400001928E-02 0.  1.
</event>
<event>
 5   0  0.2304842E-04  0.1193140E+04  0.7818609E-02  0.9118882E-01
        1   -1    0    0  501    0  0.00000000000E+00  0.00000000000E+00  0.49049917198E+03  0.49049917201E+03  0.50400001928E-02 0.  1.
       -1   -1    0    0    0  501  0.00000000000E+00  0.00000000000E+00 -0.72557914700E+03  0.72557914702E+03  0.50400001928E-02 0. -1.
    10030    2    1    2    0    0  0.00000000000E+00  0.00000000000E+00 -0.23507997502E+03  0.12160783190E+04  0.11931403452E+04 0.  0.
        4    1    3    3  502    0  0.13969821244E+03  0.47058244574E+03 -0.46307214605E+03  0.67483394561E+03  0.12699999809E+01 0. -1.
       -4    1    3    3    0  502 -0.13969821244E+03 -0.47058244574E+03  0.22799217103E+03  0.54124437342E+03  0.12699999809E+01 0.  1.
</event>
<event>
 5   0  0.3993723E-04  0.1198115E+04  0.7818609E-02  0.9114508E-01
        2   -1    0    0  501    0  0.00000000000E+00  0.00000000000E+00  0.10632947163E+04  0.10632947163E+04  0.25500000920E-02 0.  1.
       -2   -1    0    0    0  501  0.00000000000E+00  0.00000000000E+00 -0.33750733708E+03  0.33750733709E+03  0.25500000920E-02 0. -1.
    10030    2    1    2    0    0  0.00000000000E+00  0.00000000000E+00  0.72578737918E+03  0.14008020533E+04  0.11981147995E+04 0.  0.
        3    1    3    3  502    0 -0.49983007156E+03  0.93375568968E+02  0.73321058666E+03  0.89227062705E+03  0.10100000352E+00 0.  1.
       -3    1    3    3    0  502  0.49983007156E+03 -0.93375568968E+02 -0.74232074773E+01  0.50853142629E+03  0.10100000352E+00 0. -1.
</event>
<event>
 5   0  0.2304842E-04  0.1200696E+04  0.7818609E-02  0.9112248E-01
        1   -1    0    0  501    0  0.00000000000E+00  0.00000000000E+00  0.30009175298E+04  0.30009175298E+04  0.50400001928E-02 0.  1.
       -1   -1    0    0    0  501  0.00000000000E+00  0.00000000000E+00 -0.12010247582E+03  0.12010247592E+03  0.50400001928E-02 0. -1.
    10030    2    1    2    0    0  0.00000000000E+00  0.00000000000E+00  0.28808150540E+04  0.31210200057E+04  0.12006958403E+04 0.  0.
        4    1    3    3  502    0  0.23087068721E+03  0.19974576922E+03  0.27840851139E+04  0.28007733184E+04  0.12699999809E+01 0.  1.
       -4    1    3    3    0  502 -0.23087068721E+03 -0.19974576922E+03  0.96729940028E+02  0.32024668731E+03  0.12699999809E+01 0. -1.
</event>
<event>
 5   0  0.4122956E-04  0.1200819E+04  0.7818609E-02  0.9112140E-01
        2   -1    0    0  501    0  0.00000000000E+00  0.00000000000E+00  0.15935581092E+04  0.15935581092E+04  0.25500000920E-02 0. -1.
       -2   -1    0    0    0  501  0.00000000000E+00  0.00000000000E+00 -0.22621789001E+03  0.22621789003E+03  0.25500000920E-02 0.  1.
    10030    2    1    2    0    0  0.00000000000E+00  0.00000000000E+00  0.13673402192E+04  0.18197759992E+04  0.12008186426E+04 0.  0.
        5    1    3    3  502    0  0.98304892773E+02  0.23807076399E+03  0.15055502591E+04  0.15274309193E+04  0.46999998093E+01 0. -1.
       -5    1    3    3    0  502 -0.98304892773E+02 -0.23807076399E+03 -0.13821003992E+03  0.29234507990E+03  0.46999998093E+01 0.  1.
</event>
<event>
 5   0  0.2304842E-04  0.1198699E+04  0.7818609E-02  0.9113996E-01
        1   -1    0    0  501    0  0.00000000000E+00  0.00000000000E+00  0.22606828961E+03  0.22606828967E+03  0.50400001928E-02 0. -1.
       -1   -1    0    0    0  501  0.00000000000E+00  0.00000000000E+00 -0.15889888316E+04  0.15889888316E+04  0.50400001928E-02 0.  1.
    10030    2    1    2    0    0  0.00000000000E+00  0.00000000000E+00 -0.13629205420E+04  0.18150571213E+04  0.11986992741E+04 0.  0.
        4    1    3    3  502    0 -0.24851479512E+02  0.57567248152E+03 -0.93119575478E+03  0.10950541305E+04  0.12699999809E+01 0.  1.
       -4    1    3    3    0  502  0.24851479512E+02 -0.57567248152E+03 -0.43172478722E+03  0.72000299083E+03  0.12699999809E+01 0. -1.
</event>
<event>
 5   0  0.2340731E-04  0.1201494E+04  0.7818609E-02  0.9111550E-01
       -1   -1    0    0    0  501  0.00000000000E+00  0.00000000000E+00  0.33920423666E+03  0.33920423670E+03  0.50400001928E-02 0.  1.
        1   -1    0    0  501    0  0.00000000000E+00  0.00000000000E+00 -0.10639521920E+04  0.10639521920E+04  0.50400001928E-02 0. -1.
    10030    2    1    2    0    0  0.00000000000E+00  0.00000000000E+00 -0.72474795531E+03  0.14031564287E+04  0.12014942216E+04 0.  0.
        3    1    3    3  502    0 -0.56303012801E+02  0.73723478452E+02  0.33078959757E+03  0.34355050369E+03  0.10100000352E+00 0.  1.
       -3    1    3    3    0  502  0.56303012801E+02 -0.73723478452E+02 -0.10555375529E+04  0.10596059250E+04  0.10100000352E+00 0. -1.
</event>
<event>
 5   0  0.4024486E-04  0.1199217E+04  0.7818609E-02  0.9113542E-01
        2   -1    0    0  501    0  0.00000000000E+00  0.00000000000E+00  0.15539543418E+04  0.15539543418E+04  0.25500000920E-02 0. -1.
       -2   -1    0    0    0  501  0.00000000000E+00  0.00000000000E+00 -0.23136487881E+03  0.23136487882E+03  0.25500000920E-02 0.  1.
    10030    2    1    2    0    0  0.00000000000E+00  0.00000000000E+00  0.13225894629E+04  0.17853192206E+04  0.11992171746E+04 0.  0.
        1    1    3    3  502    0  0.26807572638E+03  0.54562662920E+01 -0.13714057078E+03  0.30116756481E+03  0.50400001928E-02 0.  1.
       -1    1    3    3    0  502 -0.26807572638E+03 -0.54562662920E+01  0.14597300337E+04  0.14841516558E+04  0.50400001928E-02 0. -1.
</event>
<event>
 5   0  0.3832662E-04  0.1199650E+04  0.7818609E-02  0.9113163E-01
       -2   -1    0    0    0  501  0.00000000000E+00  0.00000000000E+00  0.55834337132E+03  0.55834337132E+03  0.25500000920E-02 0. -1.
        2   -1    0    0  501    0  0.00000000000E+00  0.00000000000E+00 -0.64438878086E+03  0.64438878086E+03  0.25500000920E-02 0.  1.
    10030    2    1    2    0    0  0.00000000000E+00  0.00000000000E+00 -0.86045409539E+02  0.12027321522E+04  0.11996502896E+04 0.  0.
        4    1    3    3  502    0  0.28076695569E+01 -0.56451865689E+03  0.16022795752E+03  0.58682519395E+03  0.12699999809E+01 0. -1.
       -4    1    3    3    0  502 -0.28076695569E+01  0.56451865689E+03 -0.24627336706E+03  0.61590695824E+03  0.12699999809E+01 0.  1.
</event>
<event>
 5   0  0.3993723E-04  0.1203724E+04  0.7818609E-02  0.9109603E-01
        2   -1    0    0  501    0  0.00000000000E+00  0.00000000000E+00  0.82293193847E+03  0.82293193847E+03  0.25500000920E-02 0.  1.
       -2   -1    0    0    0  501  0.00000000000E+00  0.00000000000E+00 -0.44017943721E+03  0.44017943722E+03  0.25500000920E-02 0. -1.
    10030    2    1    2    0    0  0.00000000000E+00  0.00000000000E+00  0.38275250126E+03  0.12631113757E+04  0.12037237516E+04 0.  0.
        3    1    3    3  502    0 -0.53703755036E+03 -0.95075151495E+01 -0.93568359404E+02  0.54521075872E+03  0.10100000352E+00 0. -1.
       -3    1    3    3    0  502  0.53703755036E+03  0.95075151495E+01  0.47632086066E+03  0.71790061697E+03  0.10100000352E+00 0.  1.
</event>
<event>
 5   0  0.2204090E-04  0.1199383E+04  0.7818609E-02  0.9113397E-01
        1   -1    0    0  501    0  0.00000000000E+00  0.00000000000E+00  0.11688167832E+04  0.11688167832E+04  0.50400001928E-02 0. -1.
       -1   -1    0    0    0  501  0.00000000000E+00  0.00000000000E+00 -0.30768696294E+03  0.30768696298E+03  0.50400001928E-02 0.  1.
    10030    2    1    2    0    0  0.00000000000E+00  0.00000000000E+00  0.86112982028E+03  0.14765037462E+04  0.11993826517E+04 0.  0.
        2    1    3    3  502    0  0.23112867130E+03  0.12149521138E+03 -0.23403064503E+03  0.35064496561E+03  0.25500000920E-02 0. -1.
       -2    1    3    3    0  502 -0.23112867130E+03 -0.12149521138E+03  0.10951604653E+04  0.11258587806E+04  0.25500000920E-02 0.  1.
</event>
<event>
 5   0  0.2204090E-04  0.1199213E+04  0.7818609E-02  0.9113546E-01
        1   -1    0    0  501    0  0.00000000000E+00  0.00000000000E+00  0.31039930784E+03  0.31039930788E+03  0.50400001928E-02 0. -1.
       -1   -1    0    0    0  501  0.00000000000E+00  0.00000000000E+00 -0.11582747998E+04  0.11582747998E+04  0.50400001928E-02 0.  1.
    10030    2    1    2    0    0  0.00000000000E+00  0.00000000000E+00 -0.84787549196E+03  0.14686741077E+04  0.11992125686E+04 0.  0.
        2    1    3    3  502    0 -0.25758181939E+03  0.15301319926E+03 -0.10600343618E+04  0.11015599308E+04  0.25500000920E-02 0.  1.
       -2    1    3    3    0  502  0.25758181939E+03 -0.15301319926E+03  0.21215886987E+03  0.36711417692E+03  0.25500000920E-02 0. -1.
</event>
<event>
 5   0  0.4122956E-04  0.1200883E+04  0.7818609E-02  0.9112084E-01
        2   -1    0    0  501    0  0.00000000000E+00  0.00000000000E+00  0.54442870415E+03  0.54442870416E+03  0.25500000920E-02 0.  1.
       -2   -1    0    0    0  501  0.00000000000E+00  0.00000000000E+00 -0.66221720914E+03  0.66221720914E+03  0.25500000920E-02 0. -1.
    10030    2    1    2    0    0  0.00000000000E+00  0.00000000000E+00 -0.11778850499E+03  0.12066459133E+04  0.12008831035E+04 0.  0.
        5    1    3    3  502    0 -0.30684316786E+03  0.17211158310E+03  0.42999260947E+03  0.55559955085E+03  0.46999998093E+01 0.  1.
       -5    1    3    3    0  502  0.30684316786E+03 -0.17211158310E+03 -0.54778111446E+03  0.65104636245E+03  0.46999998093E+01 0. -1.
</event>
<event>
 5   0  0.2315038E-04  0.1199809E+04  0.7818609E-02  0.9113024E-01
       -1   -1    0    0    0  501  0.00000000000E+00  0.00000000000E+00  0.18761040831E+03  0.18761040837E+03  0.50400001928E-02 0. -1.
        1   -1    0    0  501    0  0.00000000000E+00  0.00000000000E+00 -0.19182579350E+04  0.19182579350E+04  0.50400001928E-02 0.  1.
    10030    2    1    2    0    0  0.00000000000E+00  0.00000000000E+00 -0.17306475267E+04  0.21058683434E+04  0.11998085756E+04 0.  0.
        1    1    3    3  502    0  0.14804080971E+03 -0.39973641702E+02  0.15263138799E+03  0.21635691344E+03  0.50400001928E-02 0. -1.
       -1    1    3    3    0  502 -0.14804080971E+03  0.39973641702E+02 -0.18832789147E+04  0.18895114299E+04  0.50400001928E-02 0.  1.
</event>
<event>
 5   0  0.4024486E-04  0.1199175E+04  0.7818609E-02  0.9113579E-01
        2   -1    0    0  501    0  0.00000000000E+00  0.00000000000E+00  0.11732799791E+04  0.11732799791E+04  0.25500000920E-02 0.  1.
       -2   -1    0    0    0  501  0.00000000000E+00  0.00000000000E+00 -0.30641028864E+03  0.30641028865E+03  0.25500000920E-02 0. -1.
    10030    2    1    2    0    0  0.00000000000E+00  0.00000000000E+00  0.86686969046E+03  0.14796902678E+04  0.11991748114E+04 0.  0.
        1    1    3    3  502    0  0.51720171055E+02 -0.18943393687E+03  0.11324772722E+04  0.11493759023E+04  0.50400001928E-02 0.  1.
       -1    1    3    3    0  502 -0.51720171055E+02  0.18943393687E+03 -0.26560758177E+03  0.33031436550E+03  0.50400001928E-02 0. -1.
</event>
<event>
 5   0  0.1541375E-04  0.1198085E+04  0.7818609E-02  0.9114535E-01
        4   -1    0    0  501    0  0.00000000000E+00  0.00000000000E+00  0.43322419836E+03  0.43322605986E+03  0.12699999809E+01 0. -1.
       -4   -1    0    0    0  501  0.00000000000E+00  0.00000000000E+00 -0.82832378700E+03  0.82832476059E+03  0.12699999809E+01 0.  1.
    10030    2    1    2    0    0  0.00000000000E+00  0.00000000000E+00 -0.39509958864E+03  0.12615508205E+04  0.11980846329E+04 0.  0.
        3    1    3    3  502    0 -0.36917289269E+03 -0.22512766965E+03  0.23899687191E+03  0.49405526748E+03  0.10100000352E+00 0. -1.
       -3    1    3    3    0  502  0.36917289269E+03  0.22512766965E+03 -0.63409646055E+03  0.76749555297E+03  0.10100000352E+00 0.  1.
</event>
<event>
 5   0  0.2304842E-04  0.1199076E+04  0.7818609E-02  0.9113666E-01
       -1   -1    0    0    0  501  0.00000000000E+00  0.00000000000E+00  0.31782739202E+03  0.31782739206E+03  0.50400001928E-02 0.  1.
        1   -1    0    0  501    0  0.00000000000E+00  0.00000000000E+00 -0.11309466939E+04  0.11309466939E+04  0.50400001928E-02 0. -1.
    10030    2    1    2    0    0  0.00000000000E+00  0.00000000000E+00 -0.81311930187E+03  0.14487740860E+04  0.11990760414E+04 0.  0.
        4    1    3    3  502    0 -0.15613969829E+03  0.51300892694E+03 -0.73050928608E+03  0.90620262329E+03  0.12699999809E+01 0. -1.
       -4    1    3    3    0  502  0.15613969829E+03 -0.51300892694E+03 -0.82610015792E+02  0.54257146268E+03  0.12699999809E+01 0.  1.
</event>
<event>
 5   0  0.2244308E-04  0.1206033E+04  0.7818609E-02  0.9107592E-01
       -1   -1    0    0    0  501  0.00000000000E+00  0.00000000000E+00  0.41356056708E+03  0.41356056711E+03  0.50400001928E-02 0.  1.
        1   -1    0    0  501    0  0.00000000000E+00  0.00000000000E+00 -0.87926421040E+03  0.87926421042E+03  0.50400001928E-02 0. -1.
    10030    2    1    2    0    0  0.00000000000E+00  0.00000000000E+00 -0.46570364332E+03  0.12928247775E+04  0.12060331762E+04 0.  0.
        5    1    3    3  502    0  0.46273522546E+03  0.33481775072E+03 -0.44010473500E+03  0.72106940223E+03  0.46999998093E+01 0. -1.
       -5    1    3    3    0  502 -0.46273522546E+03 -0.33481775072E+03 -0.25598908325E+02  0.57175537529E+03  0.46999998093E+01 0.  1.
</event>
<event>
 5   0  0.3832662E-04  0.1201263E+04  0.7818609E-02  0.9111752E-01
        2   -1    0    0  501    0  0.00000000000E+00  0.00000000000E+00  0.88192115567E+03  0.88192115567E+03  0.25500000920E-02 0.  1.
       -2   -1    0    0    0  501  0.00000000000E+00  0.00000000000E+00 -0.40905914605E+03  0.40905914605E+03  0.25500000920E-02 0. -1.
    10030    2    1    2    0    0  0.00000000000E+00  0.00000000000E+00  0.47286200962E+03  0.12909803017E+04  0.12012625272E+04 0.  0.
        4    1    3    3  502    0  0.15283386476E+03  0.57867613054E+03  0.18235337820E+03  0.62568252470E+03  0.12699999809E+01 0. -1.
       -4    1    3    3    0  502 -0.15283386476E+03 -0.57867613054E+03  0.29050863142E+03  0.66529777702E+03  0.12699999809E+01 0.  1.
</event>
<event>
 5   0  0.2244308E-04  0.1199823E+04  0.7818609E-02  0.9113011E-01
        1   -1    0    0  501    0  0.00000000000E+00  0.00000000000E+00  0.18202188836E+04  0.18202188836E+04  0.50400001928E-02 0. -1.
       -1   -1    0    0    0  501  0.00000000000E+00  0.00000000000E+00 -0.19772013125E+03  0.19772013132E+03  0.50400001928E-02 0.  1.
    10030    2    1    2    0    0  0.00000000000E+00  0.00000000000E+00  0.16224987523E+04  0.20179390149E+04  0.11998231814E+04 0.  0.
        5    1    3    3  502    0  0.26255327685E+03  0.64549956465E+02 -0.89405351809E+02  0.28480928179E+03  0.46999998093E+01 0.  1.
       -5    1    3    3    0  502 -0.26255327685E+03 -0.64549956465E+02  0.17119041042E+04  0.17331297331E+04  0.46999998093E+01 0. -1.
</event>
<event>
 5   0  0.3883890E-04  0.1182360E+04  0.7818609E-02  0.9128438E-01
        2   -1    0    0  501    0  0.00000000000E+00  0.00000000000E+00  0.11861617183E+04  0.11861617183E+04  0.25500000920E-02 0.  1.
       -2   -1    0    0    0  501  0.00000000000E+00  0.00000000000E+00 -0.29464285816E+03  0.29464285817E+03  0.25500000920E-02 0. -1.
    10030    2    1    2    0    0  0.00000000000E+00  0.00000000000E+00  0.89151886017E+03  0.14808045765E+04  0.11823604847E+04 0.  0.
        2    1    3    3  502    0 -0.16108390060E+03 -0.32055977243E+03 -0.14272512674E+03  0.38610497606E+03  0.25500000920E-02 0. -1.
       -2    1    3    3    0  502  0.16108390060E+03  0.32055977243E+03  0.10342439869E+04  0.10946996004E+04  0.25500000920E-02 0.  1.
</event>
<event>
 5   0  0.2204090E-04  0.1199566E+04  0.7818609E-02  0.9113236E-01
       -1   -1    0    0    0  501  0.00000000000E+00  0.00000000000E+00  0.46702267386E+03  0.46702267389E+03  0.50400001928E-02 0. -1.
        1   -1    0    0  501    0  0.00000000000E+00  0.00000000000E+00 -0.77028354131E+03  0.77028354132E+03  0.50400001928E-02 0.  1.
    10030    2    1    2    0    0  0.00000000000E+00  0.00000000000E+00 -0.30326086745E+03  0.12373062152E+04  0.11995663869E+04 0.  0.
        2    1    3    3  502    0  0.23378211390E+03  0.55000360034E+03 -0.99220002564E+02  0.60580743317E+03  0.25500000920E-02 0. -1.
       -2    1    3    3    0  502 -0.23378211390E+03 -0.55000360034E+03 -0.20404086488E+03  0.63149878204E+03  0.25500000920E-02 0.  1.
</event>
<event>
 5   0  0.2304842E-04  0.1195759E+04  0.7818609E-02  0.9116577E-01
       -1   -1    0    0    0  501  0.00000000000E+00  0.00000000000E+00  0.43405448395E+03  0.43405448398E+03  0.50400001928E-02 0. -1.
        1   -1    0    0  501    0  0.00000000000E+00  0.00000000000E+00 -0.82353723882E+03  0.82353723883E+03  0.50400001928E-02 0.  1.
    10030    2    1    2    0    0  0.00000000000E+00  0.00000000000E+00 -0.38948275487E+03  0.12575917228E+04  0.11957592253E+04 0.  0.
        4    1    3    3  502    0  0.37751533742E+03 -0.30061221256E+03 -0.56594114286E+03  0.74375837636E+03  0.12699999809E+01 0.  1.
       -4    1    3    3    0  502 -0.37751533742E+03  0.30061221256E+03  0.17645838799E+03  0.51383334645E+03  0.12699999809E+01 0. -1.
</event>
<event>
 5   0  0.3883890E-04  0.1201134E+04  0.7818609E-02  0.9111864E-01
       -2   -1    0    0    0  501  0.00000000000E+00  0.00000000000E+00  0.75055485450E+03  0.75055485451E+03  0.25500000920E-02 0.  1.
        2   -1    0    0  501    0  0.00000000000E+00  0.00000000000E+00 -0.48055241336E+03  0.48055241336E+03  0.25500000920E-02 0. -1.
    10030    2    1    2    0    0  0.00000000000E+00  0.00000000000E+00  0.27000244115E+03  0.12311072679E+04  0.12011343750E+04 0.  0.
        2    1    3    3  502    0 -0.13874217471E+03 -0.46320135460E+03  0.50008634868E+03  0.69562291660E+03  0.25500000920E-02 0.  1.
       -2    1    3    3    0  502  0.13874217471E+03  0.46320135460E+03 -0.23008390754E+03  0.53548435127E+03  0.25500000920E-02 0. -1.
</event>
<event>
 5   0  0.3832662E-04  0.1198858E+04  0.7818609E-02  0.9113857E-01
       -2   -1    0    0    0  501  0.00000000000E+00  0.00000000000E+00  0.28423563238E+03  0.28423563239E+03  0.25500000920E-02 0.  1.
        2   -1    0    0  501    0  0.00000000000E+00  0.00000000000E+00 -0.12641444008E+04  0.12641444008E+04  0.25500000920E-02 0. -1.
    10030    2    1    2    0    0  0.00000000000E+00  0.00000000000E+00 -0.97990876844E+03  0.15483800332E+04  0.11988575949E+04 0.  0.
        4    1    3    3  502    0  0.11879057066E+03  0.52070113959E+03 -0.84146476373E+03  0.99664709800E+03  0.12699999809E+01 0. -1.
       -4    1    3    3    0  502 -0.11879057066E+03 -0.52070113959E+03 -0.13844400471E+03  0.55173293521E+03  0.12699999809E+01 0.  1.
</event>
<event>
 5   0  0.2204090E-04  0.1191953E+04  0.7818609E-02  0.9119929E-01
        1   -1    0    0  501    0  0.00000000000E+00  0.00000000000E+00  0.33471185854E+03  0.33471185858E+03  0.50400001928E-02 0. -1.
       -1   -1    0    0    0  501  0.00000000000E+00  0.00000000000E+00 -0.10611753438E+04  0.10611753438E+04  0.50400001928E-02 0.  1.
    10030    2    1    2    0    0  0.00000000000E+00  0.00000000000E+00 -0.72646348525E+03  0.13958872024E+04  0.11919529716E+04 0.  0.
        2    1    3    3  502    0  0.47655650615E+03  0.34614731099E+03 -0.46969111926E+03  0.75334840014E+03  0.25500000920E-02 0.  1.
       -2    1    3    3    0  502 -0.47655650615E+03 -0.34614731099E+03 -0.25677236599E+03  0.64253880226E+03  0.25500000920E-02 0. -1.
</event>
<event>
 5   0  0.2315038E-04  0.1198025E+04  0.7818609E-02  0.9114587E-01
        1   -1    0    0  501    0  0.00000000000E+00  0.00000000000E+00  0.65593760443E+03  0.65593760445E+03  0.50400001928E-02 0. -1.
       -1   -1    0    0    0  501  0.00000000000E+00  0.00000000000E+00 -0.54702738777E+03  0.54702738779E+03  0.50400001928E-02 0.  1.
    10030    2    1    2    0    0  0.00000000000E+00  0.00000000000E+00  0.10891021667E+03  0.12029649922E+04  0.11980247649E+04 0.  0.
        1    1    3    3  502    0  0.57566299472E+03  0.15475083444E+03 -0.47807832418E+01  0.59611958546E+03  0.50400001928E-02 0. -1.
       -1    1    3    3    0  502 -0.57566299472E+03 -0.15475083444E+03  0.11369099991E+03  0.60684540679E+03  0.50400001928E-02 0.  1.
</event>
<event>
 5   0  0.2304842E-04  0.1200887E+04  0.7818609E-02  0.9112081E-01
        1   -1    0    0  501    0  0.00000000000E+00  0.00000000000E+00  0.98636418411E+03  0.98636418412E+03  0.50400001928E-02 0.  1.
       -1   -1    0    0    0  501  0.00000000000E+00  0.00000000000E+00 -0.36551626857E+03  0.36551626861E+03  0.50400001928E-02 0. -1.
    10030    2    1    2    0    0  0.00000000000E+00  0.00000000000E+00  0.62084791554E+03  0.13518804527E+04  0.12008865992E+04 0.  0.
        4    1    3    3  502    0 -0.19996554215E+03  0.19478790605E+03 -0.28802057399E+03  0.40110598391E+03  0.12699999809E+01 0. -1.
       -4    1    3    3    0  502  0.19996554215E+03 -0.19478790605E+03  0.90886848953E+03  0.95077446882E+03  0.12699999809E+01 0.  1.
</event>
<event>
 5   0  0.3832662E-04  0.1198551E+04  0.7818609E-02  0.9114125E-01
        2   -1    0    0  501    0  0.00000000000E+00  0.00000000000E+00  0.15134316246E+04  0.15134316246E+04  0.25500000920E-02 0. -1.
       -2   -1    0    0    0  501  0.00000000000E+00  0.00000000000E+00 -0.23729604456E+03  0.23729604457E+03  0.25500000920E-02 0.  1.
    10030    2    1    2    0    0  0.00000000000E+00  0.00000000000E+00  0.12761355800E+04  0.17507276692E+04  0.11985513560E+04 0.  0.
        4    1    3    3  502    0  0.68794208910E+02  0.58172470385E+03  0.45333965687E+03  0.74071231368E+03  0.12699999809E+01 0.  1.
       -4    1    3    3    0  502 -0.68794208910E+02 -0.58172470385E+03  0.82279592318E+03  0.10100153555E+04  0.12699999809E+01 0. -1.
</event>
<event>
 5   0  0.2340731E-04  0.1200610E+04  0.7818609E-02  0.9112323E-01
       -1   -1    0    0    0  501  0.00000000000E+00  0.00000000000E+00  0.20223824211E+03  0.20223824217E+03  0.50400001928E-02 0. -1.
        1   -1    0    0  501    0  0.00000000000E+00  0.00000000000E+00 -0.17818886033E+04  0.17818886033E+04  0.50400001928E-02 0.  1.
    10030    2    1    2    0    0  0.00000000000E+00  0.00000000000E+00 -0.15796503612E+04  0.19841268454E+04  0.12006098764E+04 0.  0.
        3    1    3    3  502    0 -0.25067027036E+03  0.15426806238E+03  0.74804499757E+02  0.30369383085E+03  0.10100000352E+00 0. -1.
       -3    1    3    3    0  502  0.25067027036E+03 -0.15426806238E+03 -0.16544548609E+04  0.16804330146E+04  0.10100000352E+00 0.  1.
</event>
<event>
 5   0  0.2315038E-04  0.1204533E+04  0.7818609E-02  0.9108898E-01
        1   -1    0    0  501    0  0.00000000000E+00  0.00000000000E+00  0.79933084613E+03  0.79933084615E+03  0.50400001928E-02 0. -1.
       -1   -1    0    0    0  501  0.00000000000E+00  0.00000000000E+00 -0.45378594426E+03  0.45378594429E+03  0.50400001928E-02 0.  1.
    10030    2    1    2    0    0  0.00000000000E+00  0.00000000000E+00  0.34554490187E+03  0.12531167904E+04  0.12045332753E+04 0.  0.
        1    1    3    3  502    0  0.36219557397E+03 -0.95126710222E+01  0.67326818596E+03  0.76456927414E+03  0.50400001928E-02 0. -1.
       -1    1    3    3    0  502 -0.36219557397E+03  0.95126710222E+01 -0.32772328409E+03  0.48854751629E+03  0.50400001928E-02 0.  1.
</event>
<event>
 5   0  0.2315038E-04  0.1200943E+04  0.7818609E-02  0.9112031E-01
        1   -1    0    0  501    0  0.00000000000E+00  0.00000000000E+00  0.10544334446E+04  0.10544334446E+04  0.50400001928E-02 0.  1.
       -1   -1    0    0    0  501  0.00000000000E+00  0.00000000000E+00 -0.34195249615E+03  0.34195249619E+03  0.50400001928E-02 0. -1.
    10030    2    1    2    0    0  0.00000000000E+00  0.00000000000E+00  0.71248094849E+03  0.13963859408E+04  0.12009432101E+04 0.  0.
        1    1    3    3  502    0 -0.35038643500E+02  0.17643576074E+03  0.10223691805E+04  0.10380732274E+04  0.50400001928E-02 0.  1.
       -1    1    3    3    0  502  0.35038643500E+02 -0.17643576074E+03 -0.30988823203E+03  0.35831271340E+03  0.50400001928E-02 0. -1.
</event>
<event>
 5   0  0.3832662E-04  0.1206589E+04  0.7818609E-02  0.9107109E-01
        2   -1    0    0  501    0  0.00000000000E+00  0.00000000000E+00  0.18936540622E+04  0.18936540622E+04  0.25500000920E-02 0. -1.
       -2   -1    0    0    0  501  0.00000000000E+00  0.00000000000E+00 -0.19220198743E+03  0.19220198744E+03  0.25500000920E-02 0.  1.
    10030    2    1    2    0    0  0.00000000000E+00  0.00000000000E+00  0.17014520748E+04  0.20858560497E+04  0.12065887026E+04 0.  0.
        4    1    3    3  502    0  0.36170149300E+03 -0.42160849766E+03  0.12575481569E+04  0.13747765910E+04  0.12699999809E+01 0. -1.
       -4    1    3    3    0  502 -0.36170149300E+03  0.42160849766E+03  0.44390391794E+03  0.71107945871E+03  0.12699999809E+01 0.  1.
</event>
<event>
 5   0  0.3993723E-04  0.1186115E+04  0.7818609E-02  0.9125097E-01
        2   -1    0    0  501    0  0.00000000000E+00  0.00000000000E+00  0.11878752596E+04  0.11878752596E+04  0.25500000920E-02 0.  1.
       -2   -1    0    0    0  501  0.00000000000E+00  0.00000000000E+00 -0.29608941461E+03  0.29608941463E+03  0.25500000920E-02 0. -1.
    10030    2    1    2    0    0  0.00000000000E+00  0.00000000000E+00  0.89178584498E+03  0.14839646742E+04  0.11861151550E+04 0.  0.
        3    1    3    3  502    0 -0.21154735374E+03  0.21843045936E+03 -0.19113535841E+03  0.35916136190E+03  0.10100000352E+00 0. -1.
       -3    1    3    3    0  502  0.21154735374E+03 -0.21843045936E+03  0.10829212034E+04  0.11248033123E+04  0.10100000352E+00 0.  1.
</event>
<event>
 5   0  0.4122956E-04  0.1192962E+04  0.7818609E-02  0.9119039E-01
       -2   -1    0    0    0  501  0.00000000000E+00  0.00000000000E+00  0.95280869419E+03  0.95280869420E+03  0.25500000920E-02 0.  1.
        2   -1    0    0  501    0  0.00000000000E+00  0.00000000000E+00 -0.37341128438E+03  0.37341128439E+03  0.25500000920E-02 0. -1.
    10030    2    1    2    0    0  0.00000000000E+00  0.00000000000E+00  0.57939740982E+03  0.13262199786E+04  0.11929618909E+04 0.  0.
        5    1    3    3  502    0  0.24220292230E+03 -0.33073130758E+03  0.77136532772E+03  0.87353993165E+03  0.46999998093E+01 0.  1.
       -5    1    3    3    0  502 -0.24220292230E+03  0.33073130758E+03 -0.19196791790E+03  0.45268004693E+03  0.46999998093E+01 0. -1.
</event>
<event>
 5   0  0.3993723E-04  0.1201238E+04  0.7818609E-02  0.9111774E-01
       -2   -1    0    0    0  501  0.00000000000E+00  0.00000000000E+00  0.26737268456E+03  0.26737268458E+03  0.25500000920E-02 0.  1.
        2   -1    0    0  501    0  0.00000000000E+00  0.00000000000E+00 -0.13492147373E+04  0.13492147374E+04  0.25500000920E-02 0. -1.
    10030    2    1    2    0    0  0.00000000000E+00  0.00000000000E+00 -0.10818420528E+04  0.16165874219E+04  0.12012379721E+04 0.  0.
        3    1    3    3  502    0  0.16181509980E+03 -0.14222458913E+03 -0.12954290903E+04  0.13132206587E+04  0.10100000352E+00 0. -1.
       -3    1    3    3    0  502 -0.16181509980E+03  0.14222458913E+03  0.21358703747E+03  0.30336676326E+03  0.10100000352E+00 0.  1.
</event>
<event>
 5   0  0.2340731E-04  0.1211175E+04  0.7818609E-02  0.9103131E-01
        1   -1    0    0  501    0  0.00000000000E+00  0.00000000000E+00  0.75870463302E+03  0.75870463304E+03  0.50400001928E-02 0.  1.
       -1   -1    0    0    0  501  0.00000000000E+00  0.00000000000E+00 -0.48337184538E+03  0.48337184540E+03  0.50400001928E-02 0. -1.
    10030    2    1    2    0    0  0.00000000000E+00  0.00000000000E+00  0.27533278765E+03  0.12420764784E+04  0.12111753937E+04 0.  0.
        3    1    3    3  502    0 -0.27438416239E+03  0.12076027568E+03  0.67727229253E+03  0.74065341502E+03  0.10100000352E+00 0.  1.
       -3    1    3    3    0  502  0.27438416239E+03 -0.12076027568E+03 -0.40193950488E+03  0.50142306343E+03  0.10100000352E+00 0. -1.
</event>
<event>
 5   0  0.4122956E-04  0.1198706E+04  0.7818609E-02  0.9113990E-01
       -2   -1    0    0    0  501  0.00000000000E+00  0.00000000000E+00  0.21322410317E+03  0.21322410319E+03  0.25500000920E-02 0.  1.
        2   -1    0    0  501    0  0.00000000000E+00  0.00000000000E+00 -0.16847247969E+04  0.16847247969E+04  0.25500000920E-02 0. -1.
    10030    2    1    2    0    0  0.00000000000E+00  0.00000000000E+00 -0.14715006937E+04  0.18979489001E+04  0.11987058587E+04 0.  0.
        5    1    3    3  502    0  0.20371762795E+03 -0.95284055011E+02 -0.16153504516E+04  0.16309381027E+04  0.46999998093E+01 0. -1.
       -5    1    3    3    0  502 -0.20371762795E+03  0.95284055011E+02  0.14384975793E+03  0.26701079741E+03  0.46999998093E+01 0.  1.
</event>
<event>
 5   0  0.3883890E-04  0.1202524E+04  0.7818609E-02  0.9110651E-01
        2   -1    0    0  501    0  0.00000000000E+00  0.00000000000E+00  0.58472891516E+03  0.58472891516E+03  0.25500000920E-02 0.  1.
       -2   -1    0    0    0  501  0.00000000000E+00  0.00000000000E+00 -0.61826205612E+03  0.61826205612E+03  0.25500000920E-02 0. -1.
    10030    2    1    2    0    0  0.00000000000E+00  0.00000000000E+00 -0.33533140956E+02  0.12029909713E+04  0.12025235156E+04 0.  0.
        2    1    3    3  502    0 -0.34014982057E+03 -0.49558678714E+03 -0.23548144696E+01  0.60109376073E+03  0.25500000920E-02 0. -1.
       -2    1    3    3    0  502  0.34014982057E+03  0.49558678714E+03 -0.31178326486E+02  0.60189721056E+03  0.25500000920E-02 0.  1.
</event>
<event>
 5   0  0.4122956E-04  0.1199995E+04  0.7818609E-02  0.9112861E-01
       -2   -1    0    0    0  501  0.00000000000E+00  0.00000000000E+00  0.71400670262E+03  0.71400670263E+03  0.25500000920E-02 0.  1.
        2   -1    0    0  501    0  0.00000000000E+00  0.00000000000E+00 -0.50419276919E+03  0.50419276920E+03  0.25500000920E-02 0. -1.
    10030    2    1    2    0    0  0.00000000000E+00  0.00000000000E+00  0.20981393343E+03  0.12181994718E+04  0.11999950277E+04 0.  0.
        5    1    3    3  502    0 -0.22543709658E+03 -0.19069572633E+03 -0.42530769902E+03  0.51777936749E+03  0.46999998093E+01 0. -1.
       -5    1    3    3    0  502  0.22543709658E+03  0.19069572633E+03  0.63512163245E+03  0.70042010434E+03  0.46999998093E+01 0.  1.
</event>
<event>
 5   0  0.2315038E-04  0.1200768E+04  0.7818609E-02  0.9112184E-01
       -1   -1    0    0    0  501  0.00000000000E+00  0.00000000000E+00  0.82849855953E+03  0.82849855954E+03  0.50400001928E-02 0.  1.
        1   -1    0    0  501    0  0.00000000000E+00  0.00000000000E+00 -0.43507746991E+03  0.43507746994E+03  0.50400001928E-02 0. -1.
    10030    2    1    2    0    0  0.00000000000E+00  0.00000000000E+00  0.39342108962E+03  0.12635760295E+04  0.12007681827E+04 0.  0.
        1    1    3    3  502    0  0.11555962203E+03 -0.12427288483E+01 -0.42326269761E+03  0.43875606188E+03  0.50400001928E-02 0. -1.
       -1    1    3    3    0  502 -0.11555962203E+03  0.12427288483E+01  0.81668378723E+03  0.82481996761E+03  0.50400001928E-02 0.  1.
</event>
<event>
 5   0  0.3883890E-04  0.1200613E+04  0.7818609E-02  0.9112321E-01
       -2   -1    0    0    0  501  0.00000000000E+00  0.00000000000E+00  0.24097822001E+03  0.24097822002E+03  0.25500000920E-02 0.  1.
        2   -1    0    0  501    0  0.00000000000E+00  0.00000000000E+00 -0.14954363849E+04  0.14954363849E+04  0.25500000920E-02 0. -1.
    10030    2    1    2    0    0  0.00000000000E+00  0.00000000000E+00 -0.12544581649E+04  0.17364146050E+04  0.12006125073E+04 0.  0.
        2    1    3    3  502    0  0.16948521789E+03  0.33278885908E+03  0.52510345983E+02  0.37713525459E+03  0.25500000920E-02 0.  1.
       -2    1    3    3    0  502 -0.16948521789E+03 -0.33278885908E+03 -0.13069685109E+04  0.13592793504E+04  0.25500000920E-02 0. -1.
</event>
<event>
 5   0  0.2244308E-04  0.1200224E+04  0.7818609E-02  0.9112661E-01
        1   -1    0    0  501    0  0.00000000000E+00  0.00000000000E+00  0.74690471584E+03  0.74690471586E+03  0.50400001928E-02 0.  1.
       -1   -1    0    0    0  501  0.00000000000E+00  0.00000000000E+00 -0.48216878203E+03  0.48216878205E+03  0.50400001928E-02 0. -1.
    10030    2    1    2    0    0  0.00000000000E+00  0.00000000000E+00  0.26473593382E+03  0.12290734979E+04  0.12002235411E+04 0.  0.
        5    1    3    3  502    0 -0.27610069459E+03  0.49673657913E+03  0.32969975239E+03  0.65704097233E+03  0.46999998093E+01 0. -1.
       -5    1    3    3    0  502  0.27610069459E+03 -0.49673657913E+03 -0.64963818576E+02  0.57203252558E+03  0.46999998093E+01 0.  1.
</event>
<event>
 5   0  0.2340731E-04  0.1201390E+04  0.7818609E-02  0.9111640E-01
       -1   -1    0    0    0  501  0.00000000000E+00  0.00000000000E+00  0.45100164752E+03  0.45100164755E+03  0.50400001928E-02 0.  1.
        1   -1    0    0  501    0  0.00000000000E+00  0.00000000000E+00 -0.80007417988E+03  0.80007417989E+03  0.50400001928E-02 0. -1.
    10030    2    1    2    0    0  0.00000000000E+00  0.00000000000E+00 -0.34907253235E+03  0.12510758274E+04  0.12013904832E+04 0.  0.
        3    1    3    3  502    0  0.17270453064E+03  0.14643657633E+03 -0.75393139141E+03  0.78719951661E+03  0.10100000352E+00 0. -1.
       -3    1    3    3    0  502 -0.17270453064E+03 -0.14643657633E+03  0.40485885906E+03  0.46387631084E+03  0.10100000352E+00 0.  1.
</event>
<event>
 5   0  0.3832662E-04  0.1182752E+04  0.7818609E-02  0.9128089E-01
       -2   -1    0    0    0  501  0.00000000000E+00  0.00000000000E+00  0.66825420998E+03  0.66825420998E+03  0.25500000920E-02 0. -1.
        2   -1    0    0  501    0  0.00000000000E+00  0.00000000000E+00 -0.52334211371E+03  0.52334211372E+03  0.25500000920E-02 0.  1.
    10030    2    1    2    0    0  0.00000000000E+00  0.00000000000E+00  0.14491209626E+03  0.11915963237E+04  0.11827519956E+04 0.  0.
        4    1    3    3  502    0 -0.54531109363E+03  0.22094278957E+03  0.13243316078E+03  0.60309208258E+03  0.12699999809E+01 0. -1.
       -4    1    3    3    0  502  0.54531109363E+03 -0.22094278957E+03  0.12478935485E+02  0.58850424113E+03  0.12699999809E+01 0.  1.
</event>
<event>
 5   0  0.2340731E-04  0.1204796E+04  0.7818609E-02  0.9108669E-01
       -1   -1    0    0    0  501  0.00000000000E+00  0.00000000000E+00  0.95859345482E+03  0.95859345484E+03  0.50400001928E-02 0.  1.
        1   -1    0    0  501    0  0.00000000000E+00  0.00000000000E+00 -0.37855799297E+03  0.37855799301E+03  0.50400001928E-02 0. -1.
    10030    2    1    2    0    0  0.00000000000E+00  0.00000000000E+00  0.58003546185E+03  0.13371514478E+04  0.12047957742E+04 0.  0.
        3    1    3    3  502    0 -0.40158933629E+03  0.16325886973E+03  0.75424566977E+03  0.86995056994E+03  0.10100000352E+00 0.  1.
       -3    1    3    3    0  502  0.40158933629E+03 -0.16325886973E+03 -0.17421020792E+03  0.46720087790E+03  0.10100000352E+00 0. -1.
</event>
<event>
 5   0  0.2304842E-04  0.1199300E+04  0.7818609E-02  0.9113469E-01
       -1   -1    0    0    0  501  0.00000000000E+00  0.00000000000E+00  0.36625545254E+03  0.36625545258E+03  0.50400001928E-02 0. -1.
        1   -1    0    0  501    0  0.00000000000E+00  0.00000000000E+00 -0.98177424963E+03  0.98177424964E+03  0.50400001928E-02 0.  1.
    10030    2    1    2    0    0  0.00000000000E+00  0.00000000000E+00 -0.61551879709E+03  0.13480297022E+04  0.11993000828E+04 0.  0.
        4    1    3    3  502    0 -0.58530493480E+02  0.87776936257E+02 -0.97125882950E+03  0.97697284301E+03  0.12699999809E+01 0.  1.
       -4    1    3    3    0  502  0.58530493480E+02 -0.87776936257E+02  0.35574003241E+03  0.37105685921E+03  0.12699999809E+01 0. -1.
</event>
<event>
 5   0  0.2340731E-04  0.1217521E+04  0.7818609E-02  0.9097657E-01
       -1   -1    0    0    0  501  0.00000000000E+00  0.00000000000E+00  0.66458939305E+03  0.66458939307E+03  0.50400001928E-02 0.  1.
        1   -1    0    0  501    0  0.00000000000E+00  0.00000000000E+00 -0.55762173244E+03  0.55762173246E+03  0.50400001928E-02 0. -1.
    10030    2    1    2    0    0  0.00000000000E+00  0.00000000000E+00  0.10696766061E+03  0.12222111255E+04  0.12175212339E+04 0.  0.
        3    1    3    3  502    0 -0.33587685910E+03  0.45856945093E+03 -0.16527823779E+03  0.59195955258E+03  0.10100000352E+00 0. -1.
       -3    1    3    3    0  502  0.33587685910E+03 -0.45856945093E+03  0.27224589840E+03  0.63025157295E+03  0.10100000352E+00 0.  1.
</event>
<event>
 5   0  0.3993723E-04  0.1198280E+04  0.7818609E-02  0.9114363E-01
       -2   -1    0    0    0  501  0.00000000000E+00  0.00000000000E+00  0.18462023055E+03  0.18462023057E+03  0.25500000920E-02 0.  1.
        2   -1    0    0  501    0  0.00000000000E+00  0.00000000000E+00 -0.19443635548E+04  0.19443635548E+04  0.25500000920E-02 0. -1.
    10030    2    1    2    0    0  0.00000000000E+00  0.00000000000E+00 -0.17597433243E+04  0.21289837854E+04  0.11982801806E+04 0.  0.
        3    1    3    3  502    0  0.33654556852E+03 -0.42182973570E+03 -0.13423789665E+04  0.14467842083E+04  0.10100000352E+00 0. -1.
       -3    1    3    3    0  502 -0.33654556852E+03  0.42182973570E+03 -0.41736435780E+03  0.68219957708E+03  0.10100000352E+00 0.  1.
</event>
<event>
 5   0  0.2304842E-04  0.1198415E+04  0.7818609E-02  0.9114245E-01
        1   -1    0    0  501    0  0.00000000000E+00  0.00000000000E+00  0.78159250780E+03  0.78159250782E+03  0.50400001928E-02 0.  1.
       -1   -1    0    0    0  501  0.00000000000E+00  0.00000000000E+00 -0.45938207183E+03  0.45938207186E+03  0.50400001928E-02 0. -1.
    10030    2    1    2    0    0  0.00000000000E+00  0.00000000000E+00  0.32221043597E+03  0.12409745797E+04  0.11984149291E+04 0.  0.
        4    1    3    3  502    0  0.25290243522E+03  0.51676889821E+03 -0.12287567923E+02  0.57546705650E+03  0.12699999809E+01 0. -1.
       -4    1    3    3    0  502 -0.25290243522E+03 -0.51676889821E+03  0.33449800389E+03  0.66550752318E+03  0.12699999809E+01 0.  1.
</event>
<event>
 5   0  0.2244308E-04  0.1199067E+04  0.7818609E-02  0.9113674E-01
       -1   -1    0    0    0  501  0.00000000000E+00  0.00000000000E+00  0.17442310875E+03  0.17442310882E+03  0.50400001928E-02 0.  1.
        1   -1    0    0  501    0  0.00000000000E+00  0.00000000000E+00 -0.20607378534E+04  0.20607378534E+04  0.50400001928E-02 0. -1.
    10030    2    1    2    0    0  0.00000000000E+00  0.00000000000E+00 -0.18863147446E+04  0.22351609622E+04  0.11990668085E+04 0.  0.
        5    1    3    3  502    0 -0.46646585730E+03 -0.23148580222E+03 -0.38942050602E+03  0.65026647858E+03  0.46999998093E+01 0.  1.
       -5    1    3    3    0  502  0.46646585730E+03  0.23148580222E+03 -0.14968942386E+04  0.15848944836E+04  0.46999998093E+01 0. -1.
</event>
<event>
 5   0  0.4122956E-04  0.1199889E+04  0.7818609E-02  0.9112954E-01
        2   -1    0    0  501    0  0.00000000000E+00  0.00000000000E+00  0.11716784685E+04  0.11716784685E+04  0.25500000920E-02 0. -1.
       -2   -1    0    0    0  501  0.00000000000E+00  0.00000000000E+00 -0.30719447373E+03  0.30719447375E+03  0.25500000920E-02 0.  1.
    10030    2    1    2    0    0  0.00000000000E+00  0.00000000000E+00  0.86448399475E+03  0.14788729422E+04  0.11998885790E+04 0.  0.
        5    1    3    3  502    0 -0.53916588058E+03  0.66049579858E+02  0.74610524871E+03  0.92290710579E+03  0.46999998093E+01 0. -1.
       -5    1    3    3    0  502  0.53916588058E+03 -0.66049579858E+02  0.11837874604E+03  0.55596583644E+03  0.46999998093E+01 0.  1.
</event>
<event>
 5   0  0.2244308E-04  0.1199733E+04  0.7818609E-02  0.9113090E-01
       -1   -1    0    0    0  501  0.00000000000E+00  0.00000000000E+00  0.35983669298E+03  0.35983669301E+03  0.50400001928E-02 0. -1.
        1   -1    0    0  501    0  0.00000000000E+00  0.00000000000E+00 -0.10000091312E+04  0.10000091312E+04  0.50400001928E-02 0.  1.
    10030    2    1    2    0    0  0.00000000000E+00  0.00000000000E+00 -0.64017243820E+03  0.13598458242E+04  0.11997332683E+04 0.  0.
        5    1    3    3  502    0  0.10192934269E+03  0.40081883814E+03 -0.81255011805E+03  0.91175935216E+03  0.46999998093E+01 0.  1.
       -5    1    3    3    0  502 -0.10192934269E+03 -0.40081883814E+03  0.17237767986E+03  0.44808647203E+03  0.46999998093E+01 0. -1.
</event>
<event>
 5   0  0.3832662E-04  0.1198699E+04  0.7818609E-02  0.9113996E-01
       -2   -1    0    0    0  501  0.00000000000E+00  0.00000000000E+00  0.16476532277E+04  0.16476532277E+04  0.25500000920E-02 0.  1.
        2   -1    0    0  501    0  0.00000000000E+00  0.00000000000E+00 -0.21801911357E+03  0.21801911358E+03  0.25500000920E-02 0. -1.
    10030    2    1    2    0    0  0.00000000000E+00  0.00000000000E+00  0.14296341141E+04  0.18656723413E+04  0.11986991219E+04 0.  0.
        4    1    3    3  502    0 -0.11341501594E+02 -0.59283982959E+03  0.85077489441E+03  0.10370184314E+04  0.12699999809E+01 0.  1.
       -4    1    3    3    0  502  0.11341501594E+02  0.59283982959E+03  0.57885921970E+03  0.82865390987E+03  0.12699999809E+01 0. -1.
</event>
<event>
 5   0  0.2204090E-04  0.1202195E+04  0.7818609E-02  0.9110938E-01
       -1   -1    0    0    0  501  0.00000000000E+00  0.00000000000E+00  0.27356885774E+03  0.27356885778E+03  0.50400001928E-02 0.  1.
        1   -1    0    0  501    0  0.00000000000E+00  0.00000000000E+00 -0.13207567748E+04  0.13207567748E+04  0.50400001928E-02 0. -1.
    10030    2    1    2    0    0  0.00000000000E+00  0.00000000000E+00 -0.10471879171E+04  0.15943256326E+04  0.12021945305E+04 0.  0.
        2    1    3    3  502    0  0.57153812468E+03  0.10000943845E+03 -0.31533646580E+03  0.66037474392E+03  0.25500000920E-02 0. -1.
       -2    1    3    3    0  502 -0.57153812468E+03 -0.10000943845E+03 -0.73185145129E+03  0.93395088870E+03  0.25500000920E-02 0.  1.
</event>
<event>
 5   0  0.2204090E-04  0.1197867E+04  0.7818609E-02  0.9114726E-01
       -1   -1    0    0    0  501  0.00000000000E+00  0.00000000000E+00  0.87502699953E+03  0.87502699954E+03  0.50400001928E-02 0. -1.
        1   -1    0    0  501    0  0.00000000000E+00  0.00000000000E+00 -0.40995454253E+03  0.40995454257E+03  0.50400001928E-02 0.  1.
    10030    2    1    2    0    0  0.00000000000E+00  0.00000000000E+00  0.46507245700E+03  0.12849815421E+04  0.11978669264E+04 0.  0.
        2    1    3    3  502    0  0.70056144309E+02  0.56991582390E+03  0.41524422951E+03  0.70861814811E+03  0.25500000920E-02 0. -1.
       -2    1    3    3    0  502 -0.70056144309E+02 -0.56991582390E+03  0.49828227487E+02  0.57636339400E+03  0.25500000920E-02 0.  1.
</event>
<event>
 5   0  0.2315038E-04  0.1199919E+04  0.7818609E-02  0.9112927E-01
       -1   -1    0    0    0  501  0.00000000000E+00  0.00000000000E+00  0.13992483334E+04  0.13992483334E+04  0.50400001928E-02 0. -1.
        1   -1    0    0  501    0  0.00000000000E+00  0.00000000000E+00 -0.25724638392E+03  0.25724638397E+03  0.50400001928E-02 0.  1.
    10030    2    1    2    0    0  0.00000000000E+00  0.00000000000E+00  0.11420019495E+04  0.16564947173E+04  0.11999192873E+04 0.  0.
        1    1    3    3  502    0  0.22307022786E+03  0.54320439437E+03  0.40124804905E+03  0.71121820668E+03  0.50400001928E-02 0. -1.
       -1    1    3    3    0  502 -0.22307022786E+03 -0.54320439437E+03  0.74075390041E+03  0.94527651067E+03  0.50400001928E-02 0.  1.
</event>
<event>
 5   0  0.4024486E-04  0.1205480E+04  0.7818609E-02  0.9108074E-01
        2   -1    0    0  501    0  0.00000000000E+00  0.00000000000E+00  0.72843626569E+03  0.72843626570E+03  0.25500000920E-02 0. -1.
       -2   -1    0    0    0  501  0.00000000000E+00  0.00000000000E+00 -0.49873308519E+03  0.49873308520E+03  0.25500000920E-02 0.  1.
    10030    2    1    2    0    0  0.00000000000E+00  0.00000000000E+00  0.22970318050E+03  0.12271693509E+04  0.12054795994E+04 0.  0.
        1    1    3    3  502    0  0.25895946397E+03  0.33096945658E+01 -0.43920609307E+03  0.50987542623E+03  0.50400001928E-02 0.  1.
       -1    1    3    3    0  502 -0.25895946397E+03 -0.33096945658E+01  0.66890927357E+03  0.71729392466E+03  0.50400001928E-02 0. -1.
</event>
<event>
 5   0  0.2204090E-04  0.1199392E+04  0.7818609E-02  0.9113389E-01
        1   -1    0    0  501    0  0.00000000000E+00  0.00000000000E+00  0.59875172009E+03  0.59875172011E+03  0.50400001928E-02 0.  1.
       -1   -1    0    0    0  501  0.00000000000E+00  0.00000000000E+00 -0.60064145277E+03  0.60064145279E+03  0.50400001928E-02 0. -1.
    10030    2    1    2    0    0  0.00000000000E+00  0.00000000000E+00 -0.18897326762E+01  0.11993931729E+04  0.11993916842E+04 0.  0.
        2    1    3    3  502    0  0.14704490454E+03  0.35048397289E+03 -0.46481383272E+03  0.60042744632E+03  0.25500000920E-02 0. -1.
       -2    1    3    3    0  502 -0.14704490454E+03 -0.35048397289E+03  0.46292410004E+03  0.59896572658E+03  0.25500000920E-02 0.  1.
</event>
<event>
 5   0  0.1541375E-04  0.1200918E+04  0.7818609E-02  0.9112054E-01
       -3   -1    0    0    0  501  0.00000000000E+00  0.00000000000E+00  0.10029157761E+04  0.10029157812E+04  0.10100000352E+00 0. -1.
        3   -1    0    0  501    0  0.00000000000E+00  0.00000000000E+00 -0.35950249625E+03  0.35950251044E+03  0.10100000352E+00 0.  1.
    10030    2    1    2    0    0  0.00000000000E+00  0.00000000000E+00  0.64341327987E+03  0.13624182917E+04  0.12009175462E+04 0.  0.
        1    1    3    3  502    0  0.90641821589E+02  0.12465526396E+03  0.98009273487E+03  0.99213741166E+03  0.50400001928E-02 0. -1.
       -1    1    3    3    0  502 -0.90641821589E+02 -0.12465526396E+03 -0.33667945499E+03  0.37028088000E+03  0.50400001928E-02 0.  1.
</event>
<event>
 5   0  0.2204090E-04  0.1201840E+04  0.7818609E-02  0.9111248E-01
       -1   -1    0    0    0  501  0.00000000000E+00  0.00000000000E+00  0.38177544602E+03  0.38177544605E+03  0.50400001928E-02 0.  1.
        1   -1    0    0  501    0  0.00000000000E+00  0.00000000000E+00 -0.94585644652E+03  0.94585644653E+03  0.50400001928E-02 0. -1.
    10030    2    1    2    0    0  0.00000000000E+00  0.00000000000E+00 -0.56408100050E+03  0.13276318926E+04  0.12018398675E+04 0.  0.
        2    1    3    3  502    0  0.40654954747E+03 -0.22357891883E+03 -0.70389385332E+03  0.84305197006E+03  0.25500000920E-02 0. -1.
       -2    1    3    3    0  502 -0.40654954747E+03  0.22357891883E+03  0.13981285282E+03  0.48457992252E+03  0.25500000920E-02 0.  1.
</event>
<event>
 5   0  0.4122956E-04  0.1199811E+04  0.7818609E-02  0.9113022E-01
        2   -1    0    0  501    0  0.00000000000E+00  0.00000000000E+00  0.16131591876E+04  0.16131591876E+04  0.25500000920E-02 0. -1.
       -2   -1    0    0    0  501  0.00000000000E+00  0.00000000000E+00 -0.22309418126E+03  0.22309418128E+03  0.25500000920E-02 0.  1.
    10030    2    1    2    0    0  0.00000000000E+00  0.00000000000E+00  0.13900650063E+04  0.18362533689E+04  0.11998106988E+04 0.  0.
        5    1    3    3  502    0 -0.41592709639E+03 -0.43089514706E+03  0.74801271597E+03  0.95823331737E+03  0.46999998093E+01 0. -1.
       -5    1    3    3    0  502  0.41592709639E+03  0.43089514706E+03  0.64205229037E+03  0.87802005151E+03  0.46999998093E+01 0.  1.
</event>
<event>
 5   0  0.3832662E-04  0.1200049E+04  0.7818609E-02  0.9112813E-01
        2   -1    0    0  501    0  0.00000000000E+00  0.00000000000E+00  0.81149536258E+03  0.81149536259E+03  0.25500000920E-02 0. -1.
       -2   -1    0    0    0  501  0.00000000000E+00  0.00000000000E+00 -0.44366186152E+03  0.44366186153E+03  0.25500000920E-02 0.  1.
    10030    2    1    2    0    0  0.00000000000E+00  0.00000000000E+00  0.36783350106E+03  0.12551572241E+04  0.12000492376E+04 0.  0.
        4    1    3    3  502    0 -0.30758489463E+03 -0.21550258763E+03  0.67335668771E+03  0.77101275895E+03  0.12699999809E+01 0. -1.
       -4    1    3    3    0  502  0.30758489463E+03  0.21550258763E+03 -0.30552318665E+03  0.48414446517E+03  0.12699999809E+01 0.  1.
</event>
<event>
 5   0  0.2204090E-04  0.1200078E+04  0.7818609E-02  0.9112788E-01
        1   -1    0    0  501    0  0.00000000000E+00  0.00000000000E+00  0.15295490184E+04  0.15295490184E+04  0.50400001928E-02 0.  1.
       -1   -1    0    0    0  501  0.00000000000E+00  0.00000000000E+00 -0.23539418177E+03  0.23539418182E+03  0.50400001928E-02 0. -1.
    10030    2    1    2    0    0  0.00000000000E+00  0.00000000000E+00  0.12941548366E+04  0.17649432002E+04  0.12000782303E+04 0.  0.
        2    1    3    3  502    0  0.45564604885E+03 -0.38345899070E+03  0.75507876010E+03  0.96166421029E+03  0.25500000920E-02 0.  1.
       -2    1    3    3    0  502 -0.45564604885E+03  0.38345899070E+03  0.53907607651E+03  0.80327898992E+03  0.25500000920E-02 0. -1.
</event>
<event>
 5   0  0.2315038E-04  0.1197149E+04  0.7818609E-02  0.9115356E-01
       -1   -1    0    0    0  501  0.00000000000E+00  0.00000000000E+00  0.53695877036E+03  0.53695877039E+03  0.50400001928E-02 0.  1.
        1   -1    0    0  501    0  0.00000000000E+00  0.00000000000E+00 -0.66726072023E+03  0.66726072025E+03  0.50400001928E-02 0. -1.
    10030    2    1    2    0    0  0.00000000000E+00  0.00000000000E+00 -0.13030194986E+03  0.12042194906E+04  0.11971491066E+04 0.  0.
        1    1    3    3  502    0 -0.19625781442E+03 -0.26840310132E+03 -0.56581955502E+03  0.65628433120E+03  0.50400001928E-02 0. -1.
       -1    1    3    3    0  502  0.19625781442E+03  0.26840310132E+03  0.43551760515E+03  0.54793515943E+03  0.50400001928E-02 0.  1.
</event>
<event>
 5   0  0.2340731E-04  0.1200990E+04  0.7818609E-02  0.9111990E-01
        1   -1    0    0  501    0  0.00000000000E+00  0.00000000000E+00  0.40929546852E+03  0.40929546855E+03  0.50400001928E-02 0. -1.
       -1   -1    0    0    0  501  0.00000000000E+00  0.00000000000E+00 -0.88101206581E+03  0.88101206582E+03  0.50400001928E-02 0.  1.
    10030    2    1    2    0    0  0.00000000000E+00  0.00000000000E+00 -0.47171659729E+03  0.12903075344E+04  0.12009900021E+04 0.  0.
        3    1    3    3  502    0  0.19277704629E+03  0.69827161478E+02  0.37052375072E+03  0.42346981250E+03  0.10100000352E+00 0. -1.
       -3    1    3    3    0  502 -0.19277704629E+03 -0.69827161478E+02 -0.84224034800E+03  0.86683772187E+03  0.10100000352E+00 0.  1.
</event>
<event>
 5   0  0.3883890E-04  0.1196290E+04  0.7818609E-02  0.9116110E-01
       -2   -1    0    0    0  501  0.00000000000E+00  0.00000000000E+00  0.31646072715E+03  0.31646072716E+03  0.25500000920E-02 0. -1.
        2   -1    0    0  501    0  0.00000000000E+00  0.00000000000E+00 -0.11305592136E+04  0.11305592136E+04  0.25500000920E-02 0.  1.
    10030    2    1    2    0    0  0.00000000000E+00  0.00000000000E+00 -0.81409848643E+03  0.14470199407E+04  0.11962902504E+04 0.  0.
        2    1    3    3  502    0  0.32838641480E+03  0.15041742761E+03  0.16965290744E+03  0.39905532068E+03  0.25500000920E-02 0. -1.
       -2    1    3    3    0  502 -0.32838641480E+03 -0.15041742761E+03 -0.98375139386E+03  0.10479646201E+04  0.25500000920E-02 0.  1.
</event>
<event>
 5   0  0.2315038E-04  0.1198820E+04  0.7818609E-02  0.9113890E-01
        1   -1    0    0  501    0  0.00000000000E+00  0.00000000000E+00  0.45939583230E+03  0.45939583233E+03  0.50400001928E-02 0.  1.
       -1   -1    0    0    0  501  0.00000000000E+00  0.00000000000E+00 -0.78209749728E+03  0.78209749729E+03  0.50400001928E-02 0. -1.
    10030    2    1    2    0    0  0.00000000000E+00  0.00000000000E+00 -0.32270166497E+03  0.12414933296E+04  0.11988199710E+04 0.  0.
        1    1    3    3  502    0  0.96129928569E+02 -0.13370732560E+03 -0.75821163081E+03  0.77588883818E+03  0.50400001928E-02 0. -1.
       -1    1    3    3    0  502 -0.96129928569E+02  0.13370732560E+03  0.43550996584E+03  0.46560449145E+03  0.50400001928E-02 0.  1.
</event>
<event>
 5   0  0.4122956E-04  0.1194883E+04  0.7818609E-02  0.9117348E-01
       -2   -1    0    0    0  501  0.00000000000E+00  0.00000000000E+00  0.18793946279E+03  0.18793946281E+03  0.25500000920E-02 0. -1.
        2   -1    0    0  501    0  0.00000000000E+00  0.00000000000E+00 -0.18992080085E+04  0.18992080085E+04  0.25500000920E-02 0.  1.
    10030    2    1    2    0    0  0.00000000000E+00  0.00000000000E+00 -0.17112685457E+04  0.20871474713E+04  0.11948826434E+04 0.  0.
        5    1    3    3  502    0 -0.16751057122E+03 -0.40559107940E+03 -0.15637641303E+04  0.16241749476E+04  0.46999998093E+01 0.  1.
       -5    1    3    3    0  502  0.16751057122E+03  0.40559107940E+03 -0.14750441540E+03  0.46297252371E+03  0.46999998093E+01 0. -1.
</event>
<event>
 5   0  0.2315038E-04  0.1199986E+04  0.7818609E-02  0.9112869E-01
        1   -1    0    0  501    0  0.00000000000E+00  0.00000000000E+00  0.85011630129E+03  0.85011630130E+03  0.50400001928E-02 0.  1.
       -1   -1    0    0    0  501  0.00000000000E+00  0.00000000000E+00 -0.42346144953E+03  0.42346144956E+03  0.50400001928E-02 0. -1.
    10030    2    1    2    0    0  0.00000000000E+00  0.00000000000E+00  0.42665485176E+03  0.12735777509E+04  0.11999858020E+04 0.  0.
        1    1    3    3  502    0  0.55283821507E+03 -0.19855468384E+03  0.34304154461E+03  0.68024374739E+03  0.50400001928E-02 0.  1.
       -1    1    3    3    0  502 -0.55283821507E+03  0.19855468384E+03  0.83613307148E+02  0.59333400347E+03  0.50400001928E-02 0. -1.
</event>
<event>
 5   0  0.3883890E-04  0.1200332E+04  0.7818609E-02  0.9112566E-01
        2   -1    0    0  501    0  0.00000000000E+00  0.00000000000E+00  0.63384248317E+03  0.63384248317E+03  0.25500000920E-02 0. -1.
       -2   -1    0    0    0  501  0.00000000000E+00  0.00000000000E+00 -0.56827834833E+03  0.56827834833E+03  0.25500000920E-02 0.  1.
    10030    2    1    2    0    0  0.00000000000E+00  0.00000000000E+00  0.65564134840E+02  0.12021208315E+04  0.12003315533E+04 0.  0.
        2    1    3    3  502    0  0.13432350754E+03 -0.88244518171E+02  0.61189057147E+03  0.63264521742E+03  0.25500000920E-02 0. -1.
       -2    1    3    3    0  502 -0.13432350754E+03  0.88244518171E+02 -0.54632643663E+03  0.56947561408E+03  0.25500000920E-02 0.  1.
</event>
<event>
 5   0  0.1541375E-04  0.1194907E+04  0.7818609E-02  0.9117326E-01
       -3   -1    0    0    0  501  0.00000000000E+00  0.00000000000E+00  0.11264091862E+04  0.11264091907E+04  0.10100000352E+00 0. -1.
        3   -1    0    0  501    0  0.00000000000E+00  0.00000000000E+00 -0.31689233751E+03  0.31689235361E+03  0.10100000352E+00 0.  1.
    10030    2    1    2    0    0  0.00000000000E+00  0.00000000000E+00  0.80951684866E+03  0.14433015443E+04  0.11949066154E+04 0.  0.
        2    1    3    3  502    0  0.55893805994E+03  0.42351651143E+02  0.15503115814E+03  0.58158411017E+03  0.25500000920E-02 0.  1.
       -2    1    3    3    0  502 -0.55893805994E+03 -0.42351651143E+02  0.65448569052E+03  0.86171743414E+03  0.25500000920E-02 0. -1.
</event>
<event>
 5   0  0.3993723E-04  0.1199673E+04  0.7818609E-02  0.9113143E-01
       -2   -1    0    0    0  501  0.00000000000E+00  0.00000000000E+00  0.74261844349E+03  0.74261844350E+03  0.25500000920E-02 0.  1.
        2   -1    0    0  501    0  0.00000000000E+00  0.00000000000E+00 -0.48450708739E+03  0.48450708740E+03  0.25500000920E-02 0. -1.
    10030    2    1    2    0    0  0.00000000000E+00  0.00000000000E+00  0.25811135610E+03  0.12271255309E+04  0.11996731207E+04 0.  0.
        3    1    3    3  502    0 -0.39832381564E+03 -0.27361278832E+03  0.49254363750E+03  0.69001816286E+03  0.10100000352E+00 0.  1.
       -3    1    3    3    0  502  0.39832381564E+03  0.27361278832E+03 -0.23443228141E+03  0.53710736804E+03  0.10100000352E+00 0. -1.
</event>
<event>
 5   0  0.2315038E-04  0.1196612E+04  0.7818609E-02  0.9115827E-01
        1   -1    0    0  501    0  0.00000000000E+00  0.00000000000E+00  0.29842535044E+03  0.29842535049E+03  0.50400001928E-02 0.  1.
       -1   -1    0    0    0  501  0.00000000000E+00  0.00000000000E+00 -0.11995294762E+04  0.11995294762E+04  0.50400001928E-02 0. -1.
    10030    2    1    2    0    0  0.00000000000E+00  0.00000000000E+00 -0.90110412578E+03  0.14979548267E+04  0.11966118909E+04 0.  0.
        1    1    3    3  502    0  0.98355269187E+02 -0.34362699462E+03  0.15008737801E+03  0.38765898863E+03  0.50400001928E-02 0.  1.
       -1    1    3    3    0  502 -0.98355269187E+02  0.34362699462E+03 -0.10511915038E+04  0.11102958381E+04  0.50400001928E-02 0. -1.
</event>
<event>
 5   0  0.2204090E-04  0.1206805E+04  0.7818609E-02  0.9106921E-01
        1   -1    0    0  501    0  0.00000000000E+00  0.00000000000E+00  0.72249181632E+03  0.72249181634E+03  0.50400001928E-02 0. -1.
       -1   -1    0    0    0  501  0.00000000000E+00  0.00000000000E+00 -0.50394272065E+03  0.50394272067E+03  0.50400001928E-02 0.  1.
    10030    2    1    2    0    0  0.00000000000E+00  0.00000000000E+00  0.21854909567E+03  0.12264345370E+04  0.12068048584E+04 0.  0.
        2    1    3    3  502    0  0.56516213474E+03 -0.21052188166E+03  0.89811256187E+02  0.60974893435E+03  0.25500000920E-02 0. -1.
       -2    1    3    3    0  502 -0.56516213474E+03  0.21052188166E+03  0.12873783948E+03  0.61668560266E+03  0.25500000920E-02 0.  1.
</event>
<event>
 5   0  0.3993723E-04  0.1201187E+04  0.7818609E-02  0.9111818E-01
       -2   -1    0    0    0  501  0.00000000000E+00  0.00000000000E+00  0.19678907449E+03  0.19678907451E+03  0.25500000920E-02 0.  1.
        2   -1    0    0  501    0  0.00000000000E+00  0.00000000000E+00 -0.18329905271E+04  0.18329905271E+04  0.25500000920E-02 0. -1.
    10030    2    1    2    0    0  0.00000000000E+00  0.00000000000E+00 -0.16362014526E+04  0.20297796016E+04  0.12011869287E+04 0.  0.
        3    1    3    3  502    0  0.57714704152E+03 -0.82093634828E+02 -0.57395700195E+03  0.81808601180E+03  0.10100000352E+00 0.  1.
       -3    1    3    3    0  502 -0.57714704152E+03  0.82093634828E+02 -0.10622444507E+04  0.12116935898E+04  0.10100000352E+00 0. -1.
</event>
<event>
 5   0  0.2340731E-04  0.1201514E+04  0.7818609E-02  0.9111532E-01
       -1   -1    0    0    0  501  0.00000000000E+00  0.00000000000E+00  0.51892540734E+03  0.51892540736E+03  0.50400001928E-02 0.  1.
        1   -1    0    0  501    0  0.00000000000E+00  0.00000000000E+00 -0.69549306831E+03  0.69549306833E+03  0.50400001928E-02 0. -1.
    10030    2    1    2    0    0  0.00000000000E+00  0.00000000000E+00 -0.17656766097E+03  0.12144184757E+04  0.12015140845E+04 0.  0.
        3    1    3    3  502    0  0.48783370371E+03 -0.25988207865E+03  0.14959165044E+03  0.57262386377E+03  0.10100000352E+00 0.  1.
       -3    1    3    3    0  502 -0.48783370371E+03  0.25988207865E+03 -0.32615931141E+03  0.64179461193E+03  0.10100000352E+00 0. -1.
</event>
<event>
 5   0  0.4024486E-04  0.1198712E+04  0.7818609E-02  0.9113985E-01
       -2   -1    0    0    0  501  0.00000000000E+00  0.00000000000E+00  0.30938034767E+03  0.30938034768E+03  0.25500000920E-02 0. -1.
        2   -1    0    0  501    0  0.00000000000E+00  0.00000000000E+00 -0.11611191136E+04  0.11611191136E+04  0.25500000920E-02 0.  1.
    10030    2    1    2    0    0  0.00000000000E+00  0.00000000000E+00 -0.85173876592E+03  0.14704994613E+04  0.11987117002E+04 0.  0.
        1    1    3    3  502    0 -0.13972196894E+03  0.54386983849E+03 -0.68293016586E+03  0.88414378995E+03  0.50400001928E-02 0.  1.
       -1    1    3    3    0  502  0.13972196894E+03 -0.54386983849E+03 -0.16880860006E+03  0.58635567134E+03  0.50400001928E-02 0. -1.
</event>
<event>
 5   0  0.2315038E-04  0.1199526E+04  0.7818609E-02  0.9113271E-01
        1   -1    0    0  501    0  0.00000000000E+00  0.00000000000E+00  0.22119651944E+04  0.22119651944E+04  0.50400001928E-02 0. -1.
       -1   -1    0    0    0  501  0.00000000000E+00  0.00000000000E+00 -0.16262268925E+03  0.16262268933E+03  0.50400001928E-02 0.  1.
    10030    2    1    2    0    0  0.00000000000E+00  0.00000000000E+00  0.20493425051E+04  0.23745878837E+04  0.11995261207E+04 0.  0.
        1    1    3    3  502    0  0.86513789403E+02  0.43635523638E+03  0.18210169075E+04  0.18745647776E+04  0.50400001928E-02 0. -1.
       -1    1    3    3    0  502 -0.86513789403E+02 -0.43635523638E+03  0.22832559763E+03  0.50002310610E+03  0.50400001928E-02 0.  1.
</event>
<event>
 5   0  0.3883890E-04  0.1197581E+04  0.7818609E-02  0.9114976E-01
        2   -1    0    0  501    0  0.00000000000E+00  0.00000000000E+00  0.10160178927E+04  0.10160178927E+04  0.25500000920E-02 0. -1.
       -2   -1    0    0    0  501  0.00000000000E+00  0.00000000000E+00 -0.35289753907E+03  0.35289753908E+03  0.25500000920E-02 0.  1.
    10030    2    1    2    0    0  0.00000000000E+00  0.00000000000E+00  0.66312035364E+03  0.13689154318E+04  0.11975812524E+04 0.  0.
        2    1    3    3  502    0 -0.56835605435E+03 -0.14739652320E+03  0.46582005443E+03  0.74949493840E+03  0.25500000920E-02 0. -1.
       -2    1    3    3    0  502  0.56835605435E+03  0.14739652320E+03  0.19730029921E+03  0.61942049340E+03  0.25500000920E-02 0.  1.
</event>
<event>
 5   0  0.2340731E-04  0.1199007E+04  0.7818609E-02  0.9113726E-01
       -1   -1    0    0    0  501  0.00000000000E+00  0.00000000000E+00  0.41540356993E+03  0.41540356996E+03  0.50400001928E-02 0.  1.
        1   -1    0    0  501    0  0.00000000000E+00  0.00000000000E+00 -0.86519300098E+03  0.86519300099E+03  0.50400001928E-02 0. -1.
    10030    2    1    2    0    0  0.00000000000E+00  0.00000000000E+00 -0.44978943104E+03  0.12805965710E+04  0.11990066911E+04 0.  0.
        3    1    3    3  502    0  0.29844562347E+02 -0.42019225866E+03 -0.68047945405E+03  0.80031526895E+03  0.10100000352E+00 0. -1.
       -3    1    3    3    0  502 -0.29844562347E+02  0.42019225866E+03  0.23069002300E+03  0.48028130200E+03  0.10100000352E+00 0.  1.
</event>
<event>
 5   0  0.3832662E-04  0.1202600E+04  0.7818609E-02  0.9110584E-01
        2   -1    0    0  501    0  0.00000000000E+00  0.00000000000E+00  0.53153737810E+03  0.53153737810E+03  0.25500000920E-02 0. -1.
       -2   -1    0    0    0  501  0.00000000000E+00  0.00000000000E+00 -0.68021888352E+03  0.68021888353E+03  0.25500000920E-02 0.  1.
    10030    2    1    2    0    0  0.00000000000E+00  0.00000000000E+00 -0.14868150542E+03  0.12117562616E+04  0.12026001196E+04 0.  0.
        4    1    3    3  502    0  0.25352783795E+03 -0.54276805670E+03 -0.22113493917E+02  0.59946988874E+03  0.12699999809E+01 0.  1.
       -4    1    3    3    0  502 -0.25352783795E+03  0.54276805670E+03 -0.12656801151E+03  0.61228637289E+03  0.12699999809E+01 0. -1.
</event>
<event>
 5   0  0.4024486E-04  0.1198751E+04  0.7818609E-02  0.9113951E-01
       -2   -1    0    0    0  501  0.00000000000E+00  0.00000000000E+00  0.24064177299E+03  0.24064177300E+03  0.25500000920E-02 0.  1.
        2   -1    0    0  501    0  0.00000000000E+00  0.00000000000E+00 -0.14928869390E+04  0.14928869390E+04  0.25500000920E-02 0. -1.
    10030    2    1    2    0    0  0.00000000000E+00  0.00000000000E+00 -0.12522451660E+04  0.17335287120E+04  0.11987509498E+04 0.  0.
        1    1    3    3  502    0 -0.14003449833E+03  0.11107065153E+03  0.20120620360E+03  0.26912875496E+03  0.50400001928E-02 0.  1.
       -1    1    3    3    0  502  0.14003449833E+03 -0.11107065153E+03 -0.14534513696E+04  0.14643999571E+04  0.50400001928E-02 0. -1.
</event>
<event>
 5   0  0.2340731E-04  0.1192237E+04  0.7818609E-02  0.9119679E-01
       -1   -1    0    0    0  501  0.00000000000E+00  0.00000000000E+00  0.77044348222E+03  0.77044348224E+03  0.50400001928E-02 0.  1.
        1   -1    0    0  501    0  0.00000000000E+00  0.00000000000E+00 -0.46123696317E+03  0.46123696319E+03  0.50400001928E-02 0. -1.
    10030    2    1    2    0    0  0.00000000000E+00  0.00000000000E+00  0.30920651905E+03  0.12316804454E+04  0.11922365739E+04 0.  0.
        3    1    3    3  502    0 -0.44520871726E+03  0.34805623475E+03  0.35062547681E+03  0.66505050911E+03  0.10100000352E+00 0.  1.
       -3    1    3    3    0  502  0.44520871726E+03 -0.34805623475E+03 -0.41418957760E+02  0.56662993632E+03  0.10100000352E+00 0. -1.
</event>
<event>
 5   0  0.2244308E-04  0.1196030E+04  0.7818609E-02  0.9116339E-01
       -1   -1    0    0    0  501  0.00000000000E+00  0.00000000000E+00  0.23586891065E+03  0.23586891071E+03  0.50400001928E-02 0.  1.
        1   -1    0    0  501    0  0.00000000000E+00  0.00000000000E+00 -0.15161884919E+04  0.15161884919E+04  0.50400001928E-02 0. -1.
    10030    2    1    2    0    0  0.00000000000E+00  0.00000000000E+00 -0.12803195813E+04  0.17520574027E+04  0.11960296451E+04 0.  0.
        5    1    3    3  502    0  0.85031699492E+02 -0.18038993597E+03 -0.14660131797E+04  0.14795227784E+04  0.46999998093E+01 0. -1.
       -5    1    3    3    0  502 -0.85031699492E+02  0.18038993597E+03  0.18569359839E+03  0.27253462422E+03  0.46999998093E+01 0.  1.
</event>
<event>
 5   0  0.2340731E-04  0.1200584E+04  0.7818609E-02  0.9112346E-01
       -1   -1    0    0    0  501  0.00000000000E+00  0.00000000000E+00  0.20807259862E+03  0.20807259868E+03  0.50400001928E-02 0. -1.
        1   -1    0    0  501    0  0.00000000000E+00  0.00000000000E+00 -0.17318486051E+04  0.17318486051E+04  0.50400001928E-02 0.  1.
    10030    2    1    2    0    0  0.00000000000E+00  0.00000000000E+00 -0.15237760065E+04  0.19399212038E+04  0.12005835910E+04 0.  0.
        3    1    3    3  502    0 -0.58462265379E+03 -0.10617352807E+03 -0.89988433573E+03  0.10783544377E+04  0.10100000352E+00 0.  1.
       -3    1    3    3    0  502  0.58462265379E+03  0.10617352807E+03 -0.62389167073E+03  0.86156676607E+03  0.10100000352E+00 0. -1.
</event>
<event>
 5   0  0.2244308E-04  0.1200777E+04  0.7818609E-02  0.9112176E-01
       -1   -1    0    0    0  501  0.00000000000E+00  0.00000000000E+00  0.48315536195E+03  0.48315536197E+03  0.50400001928E-02 0. -1.
        1   -1    0    0  501    0  0.00000000000E+00  0.00000000000E+00 -0.74606762839E+03  0.74606762841E+03  0.50400001928E-02 0.  1.
    10030    2    1    2    0    0  0.00000000000E+00  0.00000000000E+00 -0.26291226644E+03  0.12292229904E+04  0.12007773733E+04 0.  0.
        5    1    3    3  502    0  0.48212238518E+02  0.36919309136E+03  0.35067494676E+03  0.51149092557E+03  0.46999998093E+01 0. -1.
       -5    1    3    3    0  502 -0.48212238518E+02 -0.36919309136E+03 -0.61358721320E+03  0.71773206481E+03  0.46999998093E+01 0.  1.
</event>
<event>
 5   0  0.3883890E-04  0.1200289E+04  0.7818609E-02  0.9112603E-01
       -2   -1    0    0    0  501  0.00000000000E+00  0.00000000000E+00  0.31426504948E+03  0.31426504949E+03  0.25500000920E-02 0. -1.
        2   -1    0    0  501    0  0.00000000000E+00  0.00000000000E+00 -0.11460821606E+04  0.11460821606E+04  0.25500000920E-02 0.  1.
    10030    2    1    2    0    0  0.00000000000E+00  0.00000000000E+00 -0.83181711107E+03  0.14603472100E+04  0.12002892433E+04 0.  0.
        2    1    3    3  502    0  0.80034500143E+02  0.48859178808E+03 -0.82858167521E+03  0.96523315789E+03  0.25500000920E-02 0.  1.
       -2    1    3    3    0  502 -0.80034500143E+02 -0.48859178808E+03 -0.32354358653E+01  0.49511405216E+03  0.25500000920E-02 0. -1.
</event>
<event>
 5   0  0.2340731E-04  0.1197706E+04  0.7818609E-02  0.9114867E-01
       -1   -1    0    0    0  501  0.00000000000E+00  0.00000000000E+00  0.16709270698E+03  0.16709270706E+03  0.50400001928E-02 0.  1.
        1   -1    0    0  501    0  0.00000000000E+00  0.00000000000E+00 -0.21462616503E+04  0.21462616503E+04  0.50400001928E-02 0. -1.
    10030    2    1    2    0    0  0.00000000000E+00  0.00000000000E+00 -0.19791689433E+04  0.23133543574E+04  0.11977055884E+04 0.  0.
        3    1    3    3  502    0  0.38628762537E+03  0.27118654099E+03 -0.27764199114E+03  0.54758136836E+03  0.10100000352E+00 0.  1.
       -3    1    3    3    0  502 -0.38628762537E+03 -0.27118654099E+03 -0.17015269522E+04  0.17657729890E+04  0.10100000352E+00 0. -1.
</event>
<event>
 5   0  0.4024486E-04  0.1199286E+04  0.7818609E-02  0.9113482E-01
        2   -1    0    0  501    0  0.00000000000E+00  0.00000000000E+00  0.77090301226E+03  0.77090301226E+03  0.25500000920E-02 0. -1.
       -2   -1    0    0    0  501  0.00000000000E+00  0.00000000000E+00 -0.46642888320E+03  0.46642888321E+03  0.25500000920E-02 0.  1.
    10030    2    1    2    0    0  0.00000000000E+00  0.00000000000E+00  0.30447412906E+03  0.12373318955E+04  0.11992855057E+04 0.  0.
        1    1    3    3  502    0  0.22885299461E+03 -0.23135812707E+03 -0.36739885802E+03  0.49079751121E+03  0.50400001928E-02 0.  1.
       -1    1    3    3    0  502 -0.22885299461E+03  0.23135812707E+03  0.67187298708E+03  0.74653438427E+03  0.50400001928E-02 0. -1.
</event>
<event>
 5   0  0.3832662E-04  0.1199561E+04  0.7818609E-02  0.9113241E-01
        2   -1    0    0  501    0  0.00000000000E+00  0.00000000000E+00  0.10189431614E+04  0.10189431614E+04  0.25500000920E-02 0. -1.
       -2   -1    0    0    0  501  0.00000000000E+00  0.00000000000E+00 -0.35304860565E+03  0.35304860566E+03  0.25500000920E-02 0.  1.
    10030    2    1    2    0    0  0.00000000000E+00  0.00000000000E+00  0.66589455579E+03  0.13719917671E+04  0.11995606902E+04 0.  0.
        4    1    3    3  502    0  0.21455505874E+03  0.53683400602E+03  0.51562535647E+03  0.77465846951E+03  0.12699999809E+01 0. -1.
       -4    1    3    3    0  502 -0.21455505874E+03 -0.53683400602E+03  0.15026919932E+03  0.59733329759E+03  0.12699999809E+01 0.  1.
</event>
<event>
 5   0  0.2340731E-04  0.1199007E+04  0.7818609E-02  0.9113726E-01
        1   -1    0    0  501    0  0.00000000000E+00  0.00000000000E+00  0.10918304245E+04  0.10918304245E+04  0.50400001928E-02 0.  1.
       -1   -1    0    0    0  501  0.00000000000E+00  0.00000000000E+00 -0.32917625136E+03  0.32917625140E+03  0.50400001928E-02 0. -1.
    10030    2    1    2    0    0  0.00000000000E+00  0.00000000000E+00  0.76265417314E+03  0.14210066759E+04  0.11990073332E+04 0.  0.
        3    1    3    3  502    0 -0.21163594177E+03 -0.44357298938E+03  0.78819511835E+03  0.92886937917E+03  0.10100000352E+00 0.  1.
       -3    1    3    3    0  502  0.21163594177E+03  0.44357298938E+03 -0.25540945210E+02  0.49213729674E+03  0.10100000352E+00 0. -1.
</event>
<event>
 5   0  0.3993723E-04  0.1203870E+04  0.7818609E-02  0.9109476E-01
        2   -1    0    0  501    0  0.00000000000E+00  0.00000000000E+00  0.40302563371E+03  0.40302563372E+03  0.25500000920E-02 0.  1.
       -2   -1    0    0    0  501  0.00000000000E+00  0.00000000000E+00 -0.89901450203E+03  0.89901450204E+03  0.25500000920E-02 0. -1.
    10030    2    1    2    0    0  0.00000000000E+00  0.00000000000E+00 -0.49598886833E+03  0.13020401358E+04  0.12038702412E+04 0.  0.
        3    1    3    3  502    0  0.23859181641E+03 -0.33680400397E+03  0.22586914374E+03  0.47051022544E+03  0.10100000352E+00 0.  1.
       -3    1    3    3    0  502 -0.23859181641E+03  0.33680400397E+03 -0.72185801207E+03  0.83152991031E+03  0.10100000352E+00 0. -1.
</event>
<event>
 5   0  0.4024486E-04  0.1201016E+04  0.7818609E-02  0.9111968E-01
       -2   -1    0    0    0  501  0.00000000000E+00  0.00000000000E+00  0.13624962348E+04  0.13624962348E+04  0.25500000920E-02 0. -1.
        2   -1    0    0  501    0  0.00000000000E+00  0.00000000000E+00 -0.26466849145E+03  0.26466849146E+03  0.25500000920E-02 0.  1.
    10030    2    1    2    0    0  0.00000000000E+00  0.00000000000E+00  0.10978277433E+04  0.16271647262E+04  0.12010159417E+04 0.  0.
        1    1    3    3  502    0 -0.17984171016E+03 -0.48286512335E+03  0.96673596348E+03  0.10954817165E+04  0.50400001928E-02 0. -1.
       -1    1    3    3    0  502  0.17984171016E+03  0.48286512335E+03  0.13109177983E+03  0.53168300973E+03  0.50400001928E-02 0.  1.
</event>
<event>
 5   0  0.2204090E-04  0.1199667E+04  0.7818609E-02  0.9113148E-01
       -1   -1    0    0    0  501  0.00000000000E+00  0.00000000000E+00  0.12070743098E+04  0.12070743098E+04  0.50400001928E-02 0.  1.
        1   -1    0    0  501    0  0.00000000000E+00  0.00000000000E+00 -0.29807620862E+03  0.29807620867E+03  0.50400001928E-02 0. -1.
    10030    2    1    2    0    0  0.00000000000E+00  0.00000000000E+00  0.90899810113E+03  0.15051505184E+04  0.11996668435E+04 0.  0.
        2    1    3    3  502    0 -0.19254603844E+02 -0.48254737218E+03  0.90087152848E+03  0.10221507800E+04  0.25500000920E-02 0.  1.
       -2    1    3    3    0  502  0.19254603844E+02  0.48254737218E+03  0.81265726551E+01  0.48299973846E+03  0.25500000920E-02 0. -1.
</event>
<event>
 5   0  0.2244308E-04  0.1200945E+04  0.7818609E-02  0.9112029E-01
        1   -1    0    0  501    0  0.00000000000E+00  0.00000000000E+00  0.80060051871E+03  0.80060051873E+03  0.50400001928E-02 0. -1.
       -1   -1    0    0    0  501  0.00000000000E+00  0.00000000000E+00 -0.45037122965E+03  0.45037122968E+03  0.50400001928E-02 0.  1.
    10030    2    1    2    0    0  0.00000000000E+00  0.00000000000E+00  0.35022928906E+03  0.12509717484E+04  0.12009453611E+04 0.  0.
        5    1    3    3  502    0 -0.15440059746E+02 -0.49190945376E+03 -0.18320897465E+03  0.52516752045E+03  0.46999998093E+01 0.  1.
       -5    1    3    3    0  502  0.15440059746E+02  0.49190945376E+03  0.53343826371E+03  0.72580422796E+03  0.46999998093E+01 0. -1.
</event>
<event>
 5   0  0.2315038E-04  0.1200682E+04  0.7818609E-02  0.9112260E-01
        1   -1    0    0  501    0  0.00000000000E+00  0.00000000000E+00  0.16262367474E+04  0.16262367474E+04  0.50400001928E-02 0.  1.
       -1   -1    0    0    0  501  0.00000000000E+00  0.00000000000E+00 -0.22162169062E+03  0.22162169068E+03  0.50400001928E-02 0. -1.
    10030    2    1    2    0    0  0.00000000000E+00  0.00000000000E+00  0.14046150568E+04  0.18478584381E+04  0.12006820351E+04 0.  0.
        1    1    3    3  502    0 -0.69892128954E+02 -0.21389335974E+03  0.15588782141E+04  0.15750354172E+04  0.50400001928E-02 0.  1.
       -1    1    3    3    0  502  0.69892128954E+02  0.21389335974E+03 -0.15426315728E+03  0.27282302093E+03  0.50400001928E-02 0. -1.
</event>
<event>
 5   0  0.4122956E-04  0.1199846E+04  0.7818609E-02  0.9112992E-01
        2   -1    0    0  501    0  0.00000000000E+00  0.00000000000E+00  0.69962170416E+03  0.69962170416E+03  0.25500000920E-02 0. -1.
       -2   -1    0    0    0  501  0.00000000000E+00  0.00000000000E+00 -0.51443142554E+03  0.51443142555E+03  0.25500000920E-02 0.  1.
    10030    2    1    2    0    0  0.00000000000E+00  0.00000000000E+00  0.18519027862E+03  0.12140531297E+04  0.11998456411E+04 0.  0.
        5    1    3    3  502    0  0.51665030772E+02 -0.15321574193E+03 -0.49194867785E+03  0.51786091822E+03  0.46999998093E+01 0.  1.
       -5    1    3    3    0  502 -0.51665030772E+02  0.15321574193E+03  0.67713895647E+03  0.69619221149E+03  0.46999998093E+01 0. -1.
</event>
<event>
 5   0  0.3993723E-04  0.1199379E+04  0.7818609E-02  0.9113400E-01
       -2   -1    0    0    0  501  0.00000000000E+00  0.00000000000E+00  0.21748344933E+03  0.21748344935E+03  0.25500000920E-02 0. -1.
        2   -1    0    0  501    0  0.00000000000E+00  0.00000000000E+00 -0.16535865481E+04  0.16535865481E+04  0.25500000920E-02 0.  1.
    10030    2    1    2    0    0  0.00000000000E+00  0.00000000000E+00 -0.14361030988E+04  0.18710699974E+04  0.11993793499E+04 0.  0.
        3    1    3    3  502    0  0.17369589068E+02 -0.59925846402E+03 -0.74094135534E+03  0.95310362059E+03  0.10100000352E+00 0. -1.
       -3    1    3    3    0  502 -0.17369589068E+02  0.59925846402E+03 -0.69516174343E+03  0.91796637686E+03  0.10100000352E+00 0.  1.
</event>
<event>
 5   0  0.3832662E-04  0.1199461E+04  0.7818609E-02  0.9113328E-01
        2   -1    0    0  501    0  0.00000000000E+00  0.00000000000E+00  0.37655810587E+03  0.37655810588E+03  0.25500000920E-02 0. -1.
       -2   -1    0    0    0  501  0.00000000000E+00  0.00000000000E+00 -0.95516949307E+03  0.95516949308E+03  0.25500000920E-02 0.  1.
    10030    2    1    2    0    0  0.00000000000E+00  0.00000000000E+00 -0.57861138720E+03  0.13317275990E+04  0.11994612376E+04 0.  0.
        4    1    3    3  502    0 -0.28013520063E+03  0.50686286377E+03 -0.11626886385E+03  0.59068244845E+03  0.12699999809E+01 0. -1.
       -4    1    3    3    0  502  0.28013520063E+03 -0.50686286377E+03 -0.46234252335E+03  0.74104515051E+03  0.12699999809E+01 0.  1.
</event>
<event>
 5   0  0.3993723E-04  0.1200136E+04  0.7818609E-02  0.9112738E-01
       -2   -1    0    0    0  501  0.00000000000E+00  0.00000000000E+00  0.98983355167E+03  0.98983355168E+03  0.25500000920E-02 0.  1.
        2   -1    0    0  501    0  0.00000000000E+00  0.00000000000E+00 -0.36377977431E+03  0.36377977432E+03  0.25500000920E-02 0. -1.
    10030    2    1    2    0    0  0.00000000000E+00  0.00000000000E+00  0.62605377736E+03  0.13536133260E+04  0.12001357024E+04 0.  0.
        3    1    3    3  502    0 -0.36245738345E+03 -0.31948676304E+03  0.71439225066E+03  0.86244040060E+03  0.10100000352E+00 0.  1.
       -3    1    3    3    0  502  0.36245738345E+03  0.31948676304E+03 -0.88338473302E+02  0.49117292540E+03  0.10100000352E+00 0. -1.
</event>
<event>
 5   0  0.2244308E-04  0.1198817E+04  0.7818609E-02  0.9113892E-01
       -1   -1    0    0    0  501  0.00000000000E+00  0.00000000000E+00  0.48919498957E+03  0.48919498959E+03  0.50400001928E-02 0.  1.
        1   -1    0    0  501    0  0.00000000000E+00  0.00000000000E+00 -0.73445305168E+03  0.73445305170E+03  0.50400001928E-02 0. -1.
    10030    2    1    2    0    0  0.00000000000E+00  0.00000000000E+00 -0.24525806211E+03  0.12236480413E+04  0.11988173388E+04 0.  0.
        5    1    3    3  502    0 -0.24533435712E+02  0.29426533335E+03 -0.65504070919E+03  0.71853628759E+03  0.46999998093E+01 0. -1.
       -5    1    3    3    0  502  0.24533435712E+02 -0.29426533335E+03  0.40978264708E+03  0.50511175370E+03  0.46999998093E+01 0.  1.
</event>
<event>
 5   0  0.2304842E-04  0.1177718E+04  0.7818609E-02  0.9132586E-01
        1   -1    0    0  501    0  0.00000000000E+00  0.00000000000E+00  0.81603760269E+03  0.81603760271E+03  0.50400001928E-02 0. -1.
       -1   -1    0    0    0  501  0.00000000000E+00  0.00000000000E+00 -0.42492535633E+03  0.42492535636E+03  0.50400001928E-02 0.  1.
    10030    2    1    2    0    0  0.00000000000E+00  0.00000000000E+00  0.39111224636E+03  0.12409629591E+04  0.11777182501E+04 0.  0.
        4    1    3    3  502    0  0.38175727243E+02  0.42670643263E+03 -0.23014130630E+03  0.48631512373E+03  0.12699999809E+01 0.  1.
       -4    1    3    3    0  502 -0.38175727243E+02 -0.42670643263E+03  0.62125355266E+03  0.75464783534E+03  0.12699999809E+01 0. -1.
</event>
<event>
 5   0  0.2244308E-04  0.1199818E+04  0.7818609E-02  0.9113016E-01
        1   -1    0    0  501    0  0.00000000000E+00  0.00000000000E+00  0.71334633324E+03  0.71334633326E+03  0.50400001928E-02 0. -1.
       -1   -1    0    0    0  501  0.00000000000E+00  0.00000000000E+00 -0.50451024761E+03  0.50451024764E+03  0.50400001928E-02 0.  1.
    10030    2    1    2    0    0  0.00000000000E+00  0.00000000000E+00  0.20883608563E+03  0.12178565809E+04  0.11998175449E+04 0.  0.
        5    1    3    3  502    0 -0.73917110457E+02  0.69817311232E+02  0.70451762193E+03  0.71183240006E+03  0.46999998093E+01 0. -1.
       -5    1    3    3    0  502  0.73917110457E+02 -0.69817311232E+02 -0.49568153630E+03  0.50602418084E+03  0.46999998093E+01 0.  1.
</event>
<event>
 5   0  0.2304842E-04  0.1200920E+04  0.7818609E-02  0.9112051E-01
       -1   -1    0    0    0  501  0.00000000000E+00  0.00000000000E+00  0.34153147897E+03  0.34153147901E+03  0.50400001928E-02 0.  1.
        1   -1    0    0  501    0  0.00000000000E+00  0.00000000000E+00 -0.10556928529E+04  0.10556928529E+04  0.50400001928E-02 0. -1.
    10030    2    1    2    0    0  0.00000000000E+00  0.00000000000E+00 -0.71416137394E+03  0.13972243319E+04  0.12009202162E+04 0.  0.
        4    1    3    3  502    0 -0.12468119819E+03 -0.39304097844E+03  0.15075938029E+03  0.43904056254E+03  0.12699999809E+01 0.  1.
       -4    1    3    3    0  502  0.12468119819E+03  0.39304097844E+03 -0.86492075423E+03  0.95818376938E+03  0.12699999809E+01 0. -1.
</event>
<event>
 5   0  0.3993723E-04  0.1201105E+04  0.7818609E-02  0.9111890E-01
        2   -1    0    0  501    0  0.00000000000E+00  0.00000000000E+00  0.11382230669E+04  0.11382230669E+04  0.25500000920E-02 0. -1.
       -2   -1    0    0    0  501  0.00000000000E+00  0.00000000000E+00 -0.31686515800E+03  0.31686515801E+03  0.25500000920E-02 0.  1.
    10030    2    1    2    0    0  0.00000000000E+00  0.00000000000E+00  0.82135790893E+03  0.14550882249E+04  0.12011048779E+04 0.  0.
        3    1    3    3  502    0  0.49580080209E+03 -0.33855771315E+03  0.39256932712E+03  0.71732171812E+03  0.10100000352E+00 0.  1.
       -3    1    3    3    0  502 -0.49580080209E+03  0.33855771315E+03  0.42878858181E+03  0.73776650682E+03  0.10100000352E+00 0. -1.
</event>
<event>
 5   0  0.2340731E-04  0.1200174E+04  0.7818609E-02  0.9112704E-01
        1   -1    0    0  501    0  0.00000000000E+00  0.00000000000E+00  0.98407082431E+03  0.98407082432E+03  0.50400001928E-02 0.  1.
       -1   -1    0    0    0  501  0.00000000000E+00  0.00000000000E+00 -0.36593339361E+03  0.36593339364E+03  0.50400001928E-02 0. -1.
    10030    2    1    2    0    0  0.00000000000E+00  0.00000000000E+00  0.61813743070E+03  0.13500042180E+04  0.12001739479E+04 0.  0.
        3    1    3    3  502    0 -0.51110755615E+03 -0.11478977436E+03 -0.20217143470E+02  0.52422930989E+03  0.10100000352E+00 0. -1.
       -3    1    3    3    0  502  0.51110755615E+03  0.11478977436E+03  0.63835457417E+03  0.82577490808E+03  0.10100000352E+00 0.  1.
</event>
<event>
 5   0  0.4122956E-04  0.1199404E+04  0.7818609E-02  0.9113378E-01
       -2   -1    0    0    0  501  0.00000000000E+00  0.00000000000E+00  0.58184376073E+03  0.58184376074E+03  0.25500000920E-02 0. -1.
        2   -1    0    0  501    0  0.00000000000E+00  0.00000000000E+00 -0.61810825412E+03  0.61810825413E+03  0.25500000920E-02 0.  1.
    10030    2    1    2    0    0  0.00000000000E+00  0.00000000000E+00 -0.36264493388E+02  0.11999520149E+04  0.11994039038E+04 0.  0.
        5    1    3    3  502    0 -0.75772024957E+02  0.54389403473E+03  0.22293060006E+03  0.59269069777E+03  0.46999998093E+01 0.  1.
       -5    1    3    3    0  502  0.75772024957E+02 -0.54389403473E+03 -0.25919509345E+03  0.60726131710E+03  0.46999998093E+01 0. -1.
</event>
<event>
 5   0  0.3993723E-04  0.1201458E+04  0.7818609E-02  0.9111581E-01
        2   -1    0    0  501    0  0.00000000000E+00  0.00000000000E+00  0.35270514225E+03  0.35270514226E+03  0.25500000920E-02 0. -1.
       -2   -1    0    0    0  501  0.00000000000E+00  0.00000000000E+00 -0.10231649044E+04  0.10231649044E+04  0.25500000920E-02 0.  1.
    10030    2    1    2    0    0  0.00000000000E+00  0.00000000000E+00 -0.67045976216E+03  0.13758700467E+04  0.12014583191E+04 0.  0.
        3    1    3    3  502    0  0.21978352040E+03 -0.33407837912E+03 -0.84859465082E+03  0.93809703700E+03  0.10100000352E+00 0.  1.
       -3    1    3    3    0  502 -0.21978352040E+03  0.33407837912E+03  0.17813488866E+03  0.43777300967E+03  0.10100000352E+00 0. -1.
</event>
<event>
 5   0  0.2340731E-04  0.1209146E+04  0.7818609E-02  0.9104888E-01
       -1   -1    0    0    0  501  0.00000000000E+00  0.00000000000E+00  0.35795355819E+03  0.35795355823E+03  0.50400001928E-02 0. -1.
        1   -1    0    0  501    0  0.00000000000E+00  0.00000000000E+00 -0.10211062528E+04  0.10211062528E+04  0.50400001928E-02 0.  1.
    10030    2    1    2    0    0  0.00000000000E+00  0.00000000000E+00 -0.66315269459E+03  0.13790598110E+04  0.12091461723E+04 0.  0.
        3    1    3    3  502    0  0.23299360476E+03 -0.49096971970E+03 -0.29453114969E+02  0.54424698594E+03  0.10100000352E+00 0. -1.
       -3    1    3    3    0  502 -0.23299360476E+03  0.49096971970E+03 -0.63369957962E+03  0.83481282509E+03  0.10100000352E+00 0.  1.
</event>
<event>
 5   0  0.3832662E-04  0.1201924E+04  0.7818609E-02  0.9111174E-01
       -2   -1    0    0    0  501  0.00000000000E+00  0.00000000000E+00  0.30490390888E+03  0.30490390889E+03  0.25500000920E-02 0. -1.
        2   -1    0    0  501    0  0.00000000000E+00  0.00000000000E+00 -0.11844892077E+04  0.11844892077E+04  0.25500000920E-02 0.  1.
    10030    2    1    2    0    0  0.00000000000E+00  0.00000000000E+00 -0.87958529880E+03  0.14893931166E+04  0.12019241065E+04 0.  0.
        4    1    3    3  502    0 -0.28209277017E+03  0.30745036627E+03 -0.97572891671E+03  0.10612024267E+04  0.12699999809E+01 0.  1.
       -4    1    3    3    0  502  0.28209277017E+03 -0.30745036627E+03  0.96143617904E+02  0.42819068984E+03  0.12699999809E+01 0. -1.
</event>
<event>
 5   0  0.4122956E-04  0.1200576E+04  0.7818609E-02  0.9112353E-01
        2   -1    0    0  501    0  0.00000000000E+00  0.00000000000E+00  0.18014381345E+04  0.18014381345E+04  0.25500000920E-02 0. -1.
       -2   -1    0    0    0  501  0.00000000000E+00  0.00000000000E+00 -0.20003218664E+03  0.20003218666E+03  0.25500000920E-02 0.  1.
    10030    2    1    2    0    0  0.00000000000E+00  0.00000000000E+00  0.16014059479E+04  0.20014703212E+04  0.12005758771E+04 0.  0.
        5    1    3    3  502    0  0.40851702569E+03  0.43981513439E+03  0.80056915014E+03  0.10006280862E+04  0.46999998093E+01 0. -1.
       -5    1    3    3    0  502 -0.40851702569E+03 -0.43981513439E+03  0.80083679773E+03  0.10008422350E+04  0.46999998093E+01 0.  1.
</event>
<event>
 5   0  0.2204090E-04  0.1197152E+04  0.7818609E-02  0.9115353E-01
       -1   -1    0    0    0  501  0.00000000000E+00  0.00000000000E+00  0.28269663072E+03  0.28269663076E+03  0.50400001928E-02 0. -1.
        1   -1    0    0  501    0  0.00000000000E+00  0.00000000000E+00 -0.12674129903E+04  0.12674129904E+04  0.50400001928E-02 0.  1.
    10030    2    1    2    0    0  0.00000000000E+00  0.00000000000E+00 -0.98471635963E+03  0.15501096211E+04  0.11971522579E+04 0.  0.
        2    1    3    3  502    0 -0.40544293593E+03 -0.37478852702E+03 -0.19302262380E+03  0.58490011762E+03  0.25500000920E-02 0. -1.
       -2    1    3    3    0  502  0.40544293593E+03  0.37478852702E+03 -0.79169373583E+03  0.96520950349E+03  0.25500000920E-02 0.  1.
</event>
<event>
 5   0  0.2304842E-04  0.1198138E+04  0.7818609E-02  0.9114488E-01
       -1   -1    0    0    0  501  0.00000000000E+00  0.00000000000E+00  0.32849527047E+03  0.32849527051E+03  0.50400001928E-02 0. -1.
        1   -1    0    0  501    0  0.00000000000E+00  0.00000000000E+00 -0.10925073424E+04  0.10925073424E+04  0.50400001928E-02 0.  1.
    10030    2    1    2    0    0  0.00000000000E+00  0.00000000000E+00 -0.76401207189E+03  0.14210026129E+04  0.11981377132E+04 0.  0.
        4    1    3    3  502    0 -0.13698852766E+03 -0.52656071962E+03 -0.84675026594E+02  0.55063919329E+03  0.12699999809E+01 0. -1.
       -4    1    3    3    0  502  0.13698852766E+03  0.52656071962E+03 -0.67933704529E+03  0.87036341959E+03  0.12699999809E+01 0.  1.
</event>
<event>
 5   0  0.2340731E-04  0.1200628E+04  0.7818609E-02  0.9112307E-01
       -1   -1    0    0    0  501  0.00000000000E+00  0.00000000000E+00  0.21629941419E+03  0.21629941425E+03  0.50400001928E-02 0. -1.
        1   -1    0    0  501    0  0.00000000000E+00  0.00000000000E+00 -0.16661006861E+04  0.16661006861E+04  0.50400001928E-02 0.  1.
    10030    2    1    2    0    0  0.00000000000E+00  0.00000000000E+00 -0.14498012719E+04  0.18824001003E+04  0.12006275067E+04 0.  0.
        3    1    3    3  502    0  0.57743511884E+03  0.12872172401E+03 -0.88460562908E+03  0.10642028603E+04  0.10100000352E+00 0. -1.
       -3    1    3    3    0  502 -0.57743511884E+03 -0.12872172401E+03 -0.56519564278E+03  0.81819723999E+03  0.10100000352E+00 0.  1.
</event>
<event>
 5   0  0.2244308E-04  0.1196259E+04  0.7818609E-02  0.9116138E-01
       -1   -1    0    0    0  501  0.00000000000E+00  0.00000000000E+00  0.54726985523E+03  0.54726985525E+03  0.50400001928E-02 0. -1.
        1   -1    0    0  501    0  0.00000000000E+00  0.00000000000E+00 -0.65371521631E+03  0.65371521633E+03  0.50400001928E-02 0.  1.
    10030    2    1    2    0    0  0.00000000000E+00  0.00000000000E+00 -0.10644536108E+03  0.12009850716E+04  0.11962585537E+04 0.  0.
        5    1    3    3  502    0 -0.27241892053E+03  0.31702944056E+03 -0.48271760947E+03  0.63855940596E+03  0.46999998093E+01 0.  1.
       -5    1    3    3    0  502  0.27241892053E+03 -0.31702944056E+03  0.37627224839E+03  0.56242566563E+03  0.46999998093E+01 0. -1.
</event>
<event>
 5   0  0.4024486E-04  0.1200165E+04  0.7818609E-02  0.9112712E-01
        2   -1    0    0  501    0  0.00000000000E+00  0.00000000000E+00  0.63953722972E+03  0.63953722973E+03  0.25500000920E-02 0.  1.
       -2   -1    0    0    0  501  0.00000000000E+00  0.00000000000E+00 -0.56306219932E+03  0.56306219932E+03  0.25500000920E-02 0. -1.
    10030    2    1    2    0    0  0.00000000000E+00  0.00000000000E+00  0.76475030408E+02  0.12025994291E+04  0.12001653871E+04 0.  0.
        1    1    3    3  502    0  0.56231927829E+03  0.20651322024E+03  0.73644121000E+02  0.60355127160E+03  0.50400001928E-02 0.  1.
       -1    1    3    3    0  502 -0.56231927829E+03 -0.20651322024E+03  0.28309094083E+01  0.59904815745E+03  0.50400001928E-02 0. -1.
</event>
<event>
 5   0  0.2315038E-04  0.1215483E+04  0.7818609E-02  0.9099411E-01
        1   -1    0    0  501    0  0.00000000000E+00  0.00000000000E+00  0.48509964253E+03  0.48509964255E+03  0.50400001928E-02 0.  1.
       -1   -1    0    0    0  501  0.00000000000E+00  0.00000000000E+00 -0.76138962625E+03  0.76138962626E+03  0.50400001928E-02 0. -1.
    10030    2    1    2    0    0  0.00000000000E+00  0.00000000000E+00 -0.27628998372E+03  0.12464892688E+04  0.12154831723E+04 0.  0.
        1    1    3    3  502    0  0.51416247268E+03 -0.31324150694E+03 -0.53166553534E+02  0.60440877924E+03  0.50400001928E-02 0.  1.
       -1    1    3    3    0  502 -0.51416247268E+03  0.31324150694E+03 -0.22312343019E+03  0.64208048958E+03  0.50400001928E-02 0. -1.
</event>
<event>
 5   0  0.4024486E-04  0.1200853E+04  0.7818609E-02  0.9112110E-01
        2   -1    0    0  501    0  0.00000000000E+00  0.00000000000E+00  0.18666792391E+04  0.18666792391E+04  0.25500000920E-02 0. -1.
       -2   -1    0    0    0  501  0.00000000000E+00  0.00000000000E+00 -0.19313010063E+03  0.19313010065E+03  0.25500000920E-02 0.  1.
    10030    2    1    2    0    0  0.00000000000E+00  0.00000000000E+00  0.16735491385E+04  0.20598093397E+04  0.12008529457E+04 0.  0.
        1    1    3    3  502    0  0.38564568328E+03  0.45329142695E+03  0.70045241029E+03  0.91914595679E+03  0.50400001928E-02 0.  1.
       -1    1    3    3    0  502 -0.38564568328E+03 -0.45329142695E+03  0.97309672817E+03  0.11406633829E+04  0.50400001928E-02 0. -1.
</event>
<event>
 5   0  0.2340731E-04  0.1199445E+04  0.7818609E-02  0.9113342E-01
        1   -1    0    0  501    0  0.00000000000E+00  0.00000000000E+00  0.12347282990E+04  0.12347282990E+04  0.50400001928E-02 0. -1.
       -1   -1    0    0    0  501  0.00000000000E+00  0.00000000000E+00 -0.29129267346E+03  0.29129267351E+03  0.50400001928E-02 0.  1.
    10030    2    1    2    0    0  0.00000000000E+00  0.00000000000E+00  0.94343562556E+03  0.15260209725E+04  0.11994453839E+04 0.  0.
        3    1    3    3  502    0 -0.16411904085E+03  0.11953512445E+03  0.11896712542E+04  0.12068725736E+04  0.10100000352E+00 0. -1.
       -3    1    3    3    0  502  0.16411904085E+03 -0.11953512445E+03 -0.24623562865E+03  0.31914839897E+03  0.10100000352E+00 0.  1.
</event>
<event>
 5   0  0.2204090E-04  0.1199180E+04  0.7818609E-02  0.9113574E-01
       -1   -1    0    0    0  501  0.00000000000E+00  0.00000000000E+00  0.48443800582E+03  0.48443800585E+03  0.50400001928E-02 0. -1.
        1   -1    0    0  501    0  0.00000000000E+00  0.00000000000E+00 -0.74211440441E+03  0.74211440443E+03  0.50400001928E-02 0.  1.
    10030    2    1    2    0    0  0.00000000000E+00  0.00000000000E+00 -0.25767639859E+03  0.12265524103E+04  0.11991804238E+04 0.  0.
        2    1    3    3  502    0  0.20458797775E+03  0.36067431351E+03  0.31413647190E+03  0.52021526703E+03  0.25500000920E-02 0. -1.
       -2    1    3    3    0  502 -0.20458797775E+03 -0.36067431351E+03 -0.57181287049E+03  0.70633714325E+03  0.25500000920E-02 0.  1.
</event>
<event>
 5   0  0.2244308E-04  0.1200645E+04  0.7818609E-02  0.9112292E-01
       -1   -1    0    0    0  501  0.00000000000E+00  0.00000000000E+00  0.21335712789E+03  0.21335712795E+03  0.50400001928E-02 0.  1.
        1   -1    0    0  501    0  0.00000000000E+00  0.00000000000E+00 -0.16891250911E+04  0.16891250911E+04  0.50400001928E-02 0. -1.
    10030    2    1    2    0    0  0.00000000000E+00  0.00000000000E+00 -0.14757679632E+04  0.19024822190E+04  0.12006446238E+04 0.  0.
        5    1    3    3  502    0 -0.92002404783E+02  0.44475115981E+03 -0.11586610309E+03  0.46873775235E+03  0.46999998093E+01 0.  1.
       -5    1    3    3    0  502  0.92002404783E+02 -0.44475115981E+03 -0.13599018601E+04  0.14337444667E+04  0.46999998093E+01 0. -1.
</event>
<event>
 5   0  0.4122956E-04  0.1177471E+04  0.7818609E-02  0.9132808E-01
        2   -1    0    0  501    0  0.00000000000E+00  0.00000000000E+00  0.10521627661E+04  0.10521627661E+04  0.25500000920E-02 0. -1.
       -2   -1    0    0    0  501  0.00000000000E+00  0.00000000000E+00 -0.32942589111E+03  0.32942589112E+03  0.25500000920E-02 0.  1.
    10030    2    1    2    0    0  0.00000000000E+00  0.00000000000E+00  0.72273687503E+03  0.13815886573E+04  0.11774712852E+04 0.  0.
        5    1    3    3  502    0  0.46329937611E+03 -0.18403194489E+03 -0.60866523430E+01  0.49857116441E+03  0.46999998093E+01 0.  1.
       -5    1    3    3    0  502 -0.46329937611E+03  0.18403194489E+03  0.72882352737E+03  0.88301749286E+03  0.46999998093E+01 0. -1.
</event>
<event>
 5   0  0.4122956E-04  0.1196397E+04  0.7818609E-02  0.9116016E-01
       -2   -1    0    0    0  501  0.00000000000E+00  0.00000000000E+00  0.83178155598E+03  0.83178155598E+03  0.25500000920E-02 0.  1.
        2   -1    0    0  501    0  0.00000000000E+00  0.00000000000E+00 -0.43021060037E+03  0.43021060037E+03  0.25500000920E-02 0. -1.
    10030    2    1    2    0    0  0.00000000000E+00  0.00000000000E+00  0.40157095561E+03  0.12619921564E+04  0.11963966609E+04 0.  0.
        5    1    3    3  502    0 -0.65960442456E+02  0.51473870550E+03 -0.11303668717E+03  0.53113660912E+03  0.46999998093E+01 0. -1.
       -5    1    3    3    0  502  0.65960442456E+02 -0.51473870550E+03  0.51460764279E+03  0.73085554723E+03  0.46999998093E+01 0.  1.
</event>
<event>
 5   0  0.4122956E-04  0.1201135E+04  0.7818609E-02  0.9111864E-01
        2   -1    0    0  501    0  0.00000000000E+00  0.00000000000E+00  0.28364738087E+04  0.28364738087E+04  0.25500000920E-02 0.  1.
       -2   -1    0    0    0  501  0.00000000000E+00  0.00000000000E+00 -0.12715836991E+03  0.12715836994E+03  0.25500000920E-02 0. -1.
    10030    2    1    2    0    0  0.00000000000E+00  0.00000000000E+00  0.27093154387E+04  0.29636321786E+04  0.12011351062E+04 0.  0.
        5    1    3    3  502    0 -0.14496515542E+03 -0.49670856811E+03  0.21067977806E+04  0.21694131180E+04  0.46999998093E+01 0.  1.
       -5    1    3    3    0  502  0.14496515542E+03  0.49670856811E+03  0.60251765811E+03  0.79421906063E+03  0.46999998093E+01 0. -1.
</event>
<event>
 5   0  0.2304842E-04  0.1199522E+04  0.7818609E-02  0.9113275E-01
        1   -1    0    0  501    0  0.00000000000E+00  0.00000000000E+00  0.85016970809E+03  0.85016970811E+03  0.50400001928E-02 0. -1.
       -1   -1    0    0    0  501  0.00000000000E+00  0.00000000000E+00 -0.42310786873E+03  0.42310786876E+03  0.50400001928E-02 0.  1.
    10030    2    1    2    0    0  0.00000000000E+00  0.00000000000E+00  0.42706183936E+03  0.12732775769E+04  0.11995223938E+04 0.  0.
        4    1    3    3  502    0 -0.20628915911E+03  0.25329863431E+03 -0.32038387762E+03  0.45756186166E+03  0.12699999809E+01 0.  1.
       -4    1    3    3    0  502  0.20628915911E+03 -0.25329863431E+03  0.74744571698E+03  0.81571571521E+03  0.12699999809E+01 0. -1.
</event>
<event>
 5   0  0.3883890E-04  0.1200444E+04  0.7818609E-02  0.9112468E-01
        2   -1    0    0  501    0  0.00000000000E+00  0.00000000000E+00  0.10927841009E+04  0.10927841009E+04  0.25500000920E-02 0. -1.
       -2   -1    0    0    0  501  0.00000000000E+00  0.00000000000E+00 -0.32967733987E+03  0.32967733988E+03  0.25500000920E-02 0.  1.
    10030    2    1    2    0    0  0.00000000000E+00  0.00000000000E+00  0.76310676108E+03  0.14224614408E+04  0.12004435105E+04 0.  0.
        2    1    3    3  502    0  0.73073586996E+02 -0.47883425228E+03 -0.38466586967E+02  0.48590294154E+03  0.25500000920E-02 0.  1.
       -2    1    3    3    0  502 -0.73073586996E+02  0.47883425228E+03  0.80157334805E+03  0.93655849929E+03  0.25500000920E-02 0. -1.
</event>
<event>
 5   0  0.3993723E-04  0.1208895E+04  0.7818609E-02  0.9105107E-01
       -2   -1    0    0    0  501  0.00000000000E+00  0.00000000000E+00  0.41258468061E+03  0.41258468062E+03  0.25500000920E-02 0.  1.
        2   -1    0    0  501    0  0.00000000000E+00  0.00000000000E+00 -0.88553094752E+03  0.88553094753E+03  0.25500000920E-02 0. -1.
    10030    2    1    2    0    0  0.00000000000E+00  0.00000000000E+00 -0.47294626691E+03  0.12981156281E+04  0.12088945416E+04 0.  0.
        3    1    3    3  502    0 -0.21237604181E+03  0.35045744511E+02 -0.84298195240E+03  0.87002894758E+03  0.10100000352E+00 0. -1.
       -3    1    3    3    0  502  0.21237604181E+03 -0.35045744511E+02  0.37003568549E+03  0.42808668057E+03  0.10100000352E+00 0.  1.
</event>
<event>
 5   0  0.2315038E-04  0.1198709E+04  0.7818609E-02  0.9113988E-01
        1   -1    0    0  501    0  0.00000000000E+00  0.00000000000E+00  0.55637625763E+03  0.55637625765E+03  0.50400001928E-02 0. -1.
       -1   -1    0    0    0  501  0.00000000000E+00  0.00000000000E+00 -0.64565218729E+03  0.64565218731E+03  0.50400001928E-02 0.  1.
    10030    2    1    2    0    0  0.00000000000E+00  0.00000000000E+00 -0.89275929659E+02  0.12020284450E+04  0.11987085513E+04 0.  0.
        1    1    3    3  502    0  0.13266385109E+03  0.11342491250E+03  0.53032656021E+03  0.55831099636E+03  0.50400001928E-02 0. -1.
       -1    1    3    3    0  502 -0.13266385109E+03 -0.11342491250E+03 -0.61960248987E+03  0.64371744861E+03  0.50400001928E-02 0.  1.
</event>
<event>
 5   0  0.3993723E-04  0.1208006E+04  0.7818609E-02  0.9105878E-01
        2   -1    0    0  501    0  0.00000000000E+00  0.00000000000E+00  0.42158530287E+03  0.42158530288E+03  0.25500000920E-02 0.  1.
       -2   -1    0    0    0  501  0.00000000000E+00  0.00000000000E+00 -0.86535133674E+03  0.86535133674E+03  0.25500000920E-02 0. -1.
    10030    2    1    2    0    0  0.00000000000E+00  0.00000000000E+00 -0.44376603387E+03  0.12869366396E+04  0.12080056381E+04 0.  0.
        3    1    3    3  502    0  0.45121950669E+03 -0.31783209154E+02  0.20453275334E+03  0.49643012902E+03  0.10100000352E+00 0.  1.
       -3    1    3    3    0  502 -0.45121950669E+03  0.31783209154E+02 -0.64829878721E+03  0.79050651060E+03  0.10100000352E+00 0. -1.
</event>
<event>
 5   0  0.2304842E-04  0.1200395E+04  0.7818609E-02  0.9112511E-01
        1   -1    0    0  501    0  0.00000000000E+00  0.00000000000E+00  0.11150443707E+04  0.11150443707E+04  0.50400001928E-02 0. -1.
       -1   -1    0    0    0  501  0.00000000000E+00  0.00000000000E+00 -0.32306942307E+03  0.32306942311E+03  0.50400001928E-02 0.  1.
    10030    2    1    2    0    0  0.00000000000E+00  0.00000000000E+00  0.79197494765E+03  0.14381137938E+04  0.12003945044E+04 0.  0.
        4    1    3    3  502    0 -0.99823805131E+02 -0.10537553739E+03  0.10936985560E+04  0.11032891462E+04  0.12699999809E+01 0. -1.
       -4    1    3    3    0  502  0.99823805131E+02  0.10537553739E+03 -0.30172360830E+03  0.33482464763E+03  0.12699999809E+01 0.  1.
</event>
<event>
 5   0  0.4122956E-04  0.1210693E+04  0.7818609E-02  0.9103548E-01
        2   -1    0    0  501    0  0.00000000000E+00  0.00000000000E+00  0.36841809031E+03  0.36841809032E+03  0.25500000920E-02 0.  1.
       -2   -1    0    0    0  501  0.00000000000E+00  0.00000000000E+00 -0.99464237697E+03  0.99464237697E+03  0.25500000920E-02 0. -1.
    10030    2    1    2    0    0  0.00000000000E+00  0.00000000000E+00 -0.62622428665E+03  0.13630604673E+04  0.12106927687E+04 0.  0.
        5    1    3    3  502    0 -0.58981093638E+03  0.12495017404E+03 -0.37408164629E+03  0.70954115790E+03  0.46999998093E+01 0.  1.
       -5    1    3    3    0  502  0.58981093638E+03 -0.12495017404E+03 -0.25214264036E+03  0.65351930939E+03  0.46999998093E+01 0. -1.
</event>
<event>
 5   0  0.2340731E-04  0.1205823E+04  0.7818609E-02  0.9107775E-01
       -1   -1    0    0    0  501  0.00000000000E+00  0.00000000000E+00  0.34190873535E+03  0.34190873539E+03  0.50400001928E-02 0. -1.
        1   -1    0    0  501    0  0.00000000000E+00  0.00000000000E+00 -0.10631555815E+04  0.10631555816E+04  0.50400001928E-02 0.  1.
    10030    2    1    2    0    0  0.00000000000E+00  0.00000000000E+00 -0.72124684619E+03  0.14050643169E+04  0.12058228401E+04 0.  0.
        3    1    3    3  502    0 -0.11950968055E+03 -0.26431210587E+03  0.25525333158E+03  0.38639063982E+03  0.10100000352E+00 0. -1.
       -3    1    3    3    0  502  0.11950968055E+03  0.26431210587E+03 -0.97650017778E+03  0.10186736771E+04  0.10100000352E+00 0.  1.
</event>
<event>
 5   0  0.3883890E-04  0.1198455E+04  0.7818609E-02  0.9114210E-01
        2   -1    0    0  501    0  0.00000000000E+00  0.00000000000E+00  0.10033426144E+04  0.10033426145E+04  0.25500000920E-02 0. -1.
       -2   -1    0    0    0  501  0.00000000000E+00  0.00000000000E+00 -0.35787727830E+03  0.35787727831E+03  0.25500000920E-02 0.  1.
    10030    2    1    2    0    0  0.00000000000E+00  0.00000000000E+00  0.64546533615E+03  0.13612198928E+04  0.11984548787E+04 0.  0.
        2    1    3    3  502    0  0.42162599297E+03  0.38717721084E+01 -0.16087545887E+03  0.45129190314E+03  0.25500000920E-02 0.  1.
       -2    1    3    3    0  502 -0.42162599297E+03 -0.38717721084E+01  0.80634079502E+03  0.90992798962E+03  0.25500000920E-02 0. -1.
</event>
<event>
 5   0  0.2244308E-04  0.1196362E+04  0.7818609E-02  0.9116047E-01
        1   -1    0    0  501    0  0.00000000000E+00  0.00000000000E+00  0.99876317793E+03  0.99876317794E+03  0.50400001928E-02 0.  1.
       -1   -1    0    0    0  501  0.00000000000E+00  0.00000000000E+00 -0.35826352203E+03  0.35826352206E+03  0.50400001928E-02 0. -1.
    10030    2    1    2    0    0  0.00000000000E+00  0.00000000000E+00  0.64049965590E+03  0.13570267000E+04  0.11963618413E+04 0.  0.
        5    1    3    3  502    0  0.56701688906E+03 -0.11220876110E+03  0.49486991388E+03  0.76093184991E+03  0.46999998093E+01 0. -1.
       -5    1    3    3    0  502 -0.56701688906E+03  0.11220876110E+03  0.14562974202E+03  0.59609485009E+03  0.46999998093E+01 0.  1.
</event>
<event>
 5   0  0.2204090E-04  0.1178964E+04  0.7818609E-02  0.9131471E-01
        1   -1    0    0  501    0  0.00000000000E+00  0.00000000000E+00  0.64003612679E+03  0.64003612681E+03  0.50400001928E-02 0. -1.
       -1   -1    0    0    0  501  0.00000000000E+00  0.00000000000E+00 -0.54292072567E+03  0.54292072570E+03  0.50400001928E-02 0.  1.
    10030    2    1    2    0    0  0.00000000000E+00  0.00000000000E+00  0.97115401119E+02  0.11829568525E+04  0.11789637457E+04 0.  0.
        2    1    3    3  502    0 -0.13958470058E+01  0.39186739592E+03 -0.39330511192E+03  0.55520349012E+03  0.25500000920E-02 0.  1.
       -2    1    3    3    0  502  0.13958470058E+01 -0.39186739592E+03  0.49042051304E+03  0.62775336239E+03  0.25500000920E-02 0. -1.
</event>
<event>
 5   0  0.2244308E-04  0.1199189E+04  0.7818609E-02  0.9113566E-01
       -1   -1    0    0    0  501  0.00000000000E+00  0.00000000000E+00  0.37368341987E+03  0.37368341990E+03  0.50400001928E-02 0. -1.
        1   -1    0    0  501    0  0.00000000000E+00  0.00000000000E+00 -0.96208105628E+03  0.96208105629E+03  0.50400001928E-02 0.  1.
    10030    2    1    2    0    0  0.00000000000E+00  0.00000000000E+00 -0.58839763641E+03  0.13357644762E+04  0.11991892917E+04 0.  0.
        5    1    3    3  502    0  0.27749669844E+03  0.46804429607E+03 -0.57471719815E+03  0.79144919520E+03  0.46999998093E+01 0. -1.
       -5    1    3    3    0  502 -0.27749669844E+03 -0.46804429607E+03 -0.13680438260E+02  0.54431528099E+03  0.46999998093E+01 0.  1.
</event>
<event>
 5   0  0.3993723E-04  0.1199720E+04  0.7818609E-02  0.9113101E-01
       -2   -1    0    0    0  501  0.00000000000E+00  0.00000000000E+00  0.22449386107E+03  0.22449386108E+03  0.25500000920E-02 0.  1.
        2   -1    0    0  501    0  0.00000000000E+00  0.00000000000E+00 -0.16028596117E+04  0.16028596117E+04  0.25500000920E-02 0. -1.
    10030    2    1    2    0    0  0.00000000000E+00  0.00000000000E+00 -0.13783657506E+04  0.18273534728E+04  0.11997202057E+04 0.  0.
        3    1    3    3  502    0  0.35606252313E+03 -0.41480884721E+03 -0.10653275626E+04  0.11974012385E+04  0.10100000352E+00 0.  1.
       -3    1    3    3    0  502 -0.35606252313E+03  0.41480884721E+03 -0.31303818799E+03  0.62995223426E+03  0.10100000352E+00 0. -1.
</event>
<event>
 5   0  0.2244308E-04  0.1207137E+04  0.7818609E-02  0.9106633E-01
       -1   -1    0    0    0  501  0.00000000000E+00  0.00000000000E+00  0.38017442349E+03  0.38017442352E+03  0.50400001928E-02 0. -1.
        1   -1    0    0  501    0  0.00000000000E+00  0.00000000000E+00 -0.95823041474E+03  0.95823041475E+03  0.50400001928E-02 0.  1.
    10030    2    1    2    0    0  0.00000000000E+00  0.00000000000E+00 -0.57805599125E+03  0.13384048383E+04  0.12071366046E+04 0.  0.
        5    1    3    3  502    0 -0.19137279989E+03 -0.26253519794E+03  0.27493383462E+03  0.42562775063E+03  0.46999998093E+01 0. -1.
       -5    1    3    3    0  502  0.19137279989E+03  0.26253519794E+03 -0.85298982586E+03  0.91277708764E+03  0.46999998093E+01 0.  1.
</event>
<event>
 5   0  0.4024486E-04  0.1202863E+04  0.7818609E-02  0.9110354E-01
        2   -1    0    0  501    0  0.00000000000E+00  0.00000000000E+00  0.54076235495E+03  0.54076235495E+03  0.25500000920E-02 0.  1.
       -2   -1    0    0    0  501  0.00000000000E+00  0.00000000000E+00 -0.66890710554E+03  0.66890710555E+03  0.25500000920E-02 0. -1.
    10030    2    1    2    0    0  0.00000000000E+00  0.00000000000E+00 -0.12814475060E+03  0.12096694605E+04  0.12028628877E+04 0.  0.
        1    1    3    3  502    0 -0.97122675852E+02 -0.37630631783E+01 -0.66095666848E+03  0.66806488641E+03  0.50400001928E-02 0. -1.
       -1    1    3    3    0  502  0.97122675852E+02  0.37630631783E+01  0.53281191789E+03  0.54160457409E+03  0.50400001928E-02 0.  1.
</event>
<event>
 5   0  0.4122956E-04  0.1202133E+04  0.7818609E-02  0.9110991E-01
       -2   -1    0    0    0  501  0.00000000000E+00  0.00000000000E+00  0.59005653420E+03  0.59005653421E+03  0.25500000920E-02 0.  1.
        2   -1    0    0  501    0  0.00000000000E+00  0.00000000000E+00 -0.61228221128E+03  0.61228221129E+03  0.25500000920E-02 0. -1.
    10030    2    1    2    0    0  0.00000000000E+00  0.00000000000E+00 -0.22225677082E+02  0.12023387455E+04  0.12021333030E+04 0.  0.
        5    1    3    3  502    0  0.38719324354E+03 -0.56641846417E+02 -0.46740580130E+03  0.60960411718E+03  0.46999998093E+01 0. -1.
       -5    1    3    3    0  502 -0.38719324354E+03  0.56641846417E+02  0.44518012421E+03  0.59273462831E+03  0.46999998093E+01 0.  1.
</event>
<event>
 5   0  0.4122956E-04  0.1194265E+04  0.7818609E-02  0.9117892E-01
       -2   -1    0    0    0  501  0.00000000000E+00  0.00000000000E+00  0.31406731380E+03  0.31406731381E+03  0.25500000920E-02 0. -1.
        2   -1    0    0  501    0  0.00000000000E+00  0.00000000000E+00 -0.11353203289E+04  0.11353203289E+04  0.25500000920E-02 0.  1.
    10030    2    1    2    0    0  0.00000000000E+00  0.00000000000E+00 -0.82125301514E+03  0.14493876428E+04  0.11942646374E+04 0.  0.
        5    1    3    3  502    0  0.25311105407E+03 -0.10630895613E+03 -0.10541653128E+04  0.10893362183E+04  0.46999998093E+01 0.  1.
       -5    1    3    3    0  502 -0.25311105407E+03  0.10630895613E+03  0.23291229766E+03  0.36005142444E+03  0.46999998093E+01 0. -1.
</event>
<event>
 5   0  0.2340731E-04  0.1199083E+04  0.7818609E-02  0.9113659E-01
       -1   -1    0    0    0  501  0.00000000000E+00  0.00000000000E+00  0.12016601508E+04  0.12016601508E+04  0.50400001928E-02 0. -1.
        1   -1    0    0  501    0  0.00000000000E+00  0.00000000000E+00 -0.29912808935E+03  0.29912808939E+03  0.50400001928E-02 0.  1.
    10030    2    1    2    0    0  0.00000000000E+00  0.00000000000E+00  0.90253206143E+03  0.15007882402E+04  0.11990834916E+04 0.  0.
        3    1    3    3  502    0  0.24513040513E+03 -0.18039761968E+03  0.10977795635E+04  0.11391892718E+04  0.10100000352E+00 0. -1.
       -3    1    3    3    0  502 -0.24513040513E+03  0.18039761968E+03 -0.19524750205E+03  0.36159896842E+03  0.10100000352E+00 0.  1.
</event>
<event>
 5   0  0.2244308E-04  0.1200141E+04  0.7818609E-02  0.9112733E-01
       -1   -1    0    0    0  501  0.00000000000E+00  0.00000000000E+00  0.55152981046E+03  0.55152981048E+03  0.50400001928E-02 0.  1.
        1   -1    0    0  501    0  0.00000000000E+00  0.00000000000E+00 -0.65288373104E+03  0.65288373106E+03  0.50400001928E-02 0. -1.
    10030    2    1    2    0    0  0.00000000000E+00  0.00000000000E+00 -0.10135392058E+03  0.12044135415E+04  0.12001413924E+04 0.  0.
        5    1    3    3  502    0  0.52984547983E+03  0.47086538668E+02  0.22799726917E+03  0.57875575105E+03  0.46999998093E+01 0.  1.
       -5    1    3    3    0  502 -0.52984547983E+03 -0.47086538668E+02 -0.32935118975E+03  0.62565779050E+03  0.46999998093E+01 0. -1.
</event>
<event>
 5   0  0.4122956E-04  0.1199703E+04  0.7818609E-02  0.9113117E-01
       -2   -1    0    0    0  501  0.00000000000E+00  0.00000000000E+00  0.22670512574E+03  0.22670512575E+03  0.25500000920E-02 0.  1.
        2   -1    0    0  501    0  0.00000000000E+00  0.00000000000E+00 -0.15871796952E+04  0.15871796952E+04  0.25500000920E-02 0. -1.
    10030    2    1    2    0    0  0.00000000000E+00  0.00000000000E+00 -0.13604745695E+04  0.18138848210E+04  0.11997029172E+04 0.  0.
        5    1    3    3  502    0 -0.18364633311E+03  0.50261012844E+03 -0.27045621455E+03  0.59959283756E+03  0.46999998093E+01 0.  1.
       -5    1    3    3    0  502  0.18364633311E+03 -0.50261012844E+03 -0.10900183549E+04  0.12142919834E+04  0.46999998093E+01 0. -1.
</event>
<event>
 5   0  0.2204090E-04  0.1199529E+04  0.7818609E-02  0.9113269E-01
        1   -1    0    0  501    0  0.00000000000E+00  0.00000000000E+00  0.68447745278E+03  0.68447745280E+03  0.50400001928E-02 0.  1.
       -1   -1    0    0    0  501  0.00000000000E+00  0.00000000000E+00 -0.52553617338E+03  0.52553617341E+03  0.50400001928E-02 0. -1.
    10030    2    1    2    0    0  0.00000000000E+00  0.00000000000E+00  0.15894127939E+03  0.12100136262E+04  0.11995293432E+04 0.  0.
        2    1    3    3  502    0 -0.13431968430E+03 -0.53734624050E+03  0.31155743920E+03  0.63549256305E+03  0.25500000920E-02 0.  1.
       -2    1    3    3    0  502  0.13431968430E+03  0.53734624050E+03 -0.15261615981E+03  0.57452106315E+03  0.25500000920E-02 0. -1.
</event>
<event>
 5   0  0.4024486E-04  0.1198024E+04  0.7818609E-02  0.9114587E-01
       -2   -1    0    0    0  501  0.00000000000E+00  0.00000000000E+00  0.30615111842E+03  0.30615111843E+03  0.25500000920E-02 0. -1.
        2   -1    0    0  501    0  0.00000000000E+00  0.00000000000E+00 -0.11720214104E+04  0.11720214104E+04  0.25500000920E-02 0.  1.
    10030    2    1    2    0    0  0.00000000000E+00  0.00000000000E+00 -0.86587029201E+03  0.14781725289E+04  0.11980244833E+04 0.  0.
        1    1    3    3  502    0  0.47773282765E+03 -0.30575415839E+03 -0.19527595469E+03  0.59987245186E+03  0.50400001928E-02 0. -1.
       -1    1    3    3    0  502 -0.47773282765E+03  0.30575415839E+03 -0.67059433731E+03  0.87830007700E+03  0.50400001928E-02 0.  1.
</event>
<event>
 5   0  0.2244308E-04  0.1200767E+04  0.7818609E-02  0.9112185E-01
       -1   -1    0    0    0  501  0.00000000000E+00  0.00000000000E+00  0.15403917530E+04  0.15403917530E+04  0.50400001928E-02 0.  1.
        1   -1    0    0  501    0  0.00000000000E+00  0.00000000000E+00 -0.23400569720E+03  0.23400569726E+03  0.50400001928E-02 0. -1.
    10030    2    1    2    0    0  0.00000000000E+00  0.00000000000E+00  0.13063860558E+04  0.17743974502E+04  0.12007671651E+04 0.  0.
        5    1    3    3  502    0 -0.15996759513E+03 -0.41891689166E+03  0.12430927177E+04  0.13215076951E+04  0.46999998093E+01 0.  1.
       -5    1    3    3    0  502  0.15996759513E+03  0.41891689166E+03  0.63293338088E+02  0.45288975508E+03  0.46999998093E+01 0. -1.
</event>
<event>
 5   0  0.2315038E-04  0.1201488E+04  0.7818609E-02  0.9111555E-01
        1   -1    0    0  501    0  0.00000000000E+00  0.00000000000E+00  0.22903671366E+04  0.22903671366E+04  0.50400001928E-02 0. -1.
       -1   -1    0    0    0  501  0.00000000000E+00  0.00000000000E+00 -0.15757000894E+03  0.15757000902E+03  0.50400001928E-02 0.  1.
    10030    2    1    2    0    0  0.00000000000E+00  0.00000000000E+00  0.21327971277E+04  0.24479371456E+04  0.12014876950E+04 0.  0.
        1    1    3    3  502    0 -0.48971287103E+03 -0.32869454521E+03  0.12990072672E+04  0.14266319358E+04  0.50400001928E-02 0. -1.
       -1    1    3    3    0  502  0.48971287103E+03  0.32869454521E+03  0.83378986050E+03  0.10213052098E+04  0.50400001928E-02 0.  1.
</event>
<event>
 5   0  0.2315038E-04  0.1198115E+04  0.7818609E-02  0.9114508E-01
       -1   -1    0    0    0  501  0.00000000000E+00  0.00000000000E+00  0.68843088551E+03  0.68843088553E+03  0.50400001928E-02 0. -1.
        1   -1    0    0  501    0  0.00000000000E+00  0.00000000000E+00 -0.52128702984E+03  0.52128702986E+03  0.50400001928E-02 0.  1.
    10030    2    1    2    0    0  0.00000000000E+00  0.00000000000E+00  0.16714385567E+03  0.12097179154E+04  0.11981153393E+04 0.  0.
        1    1    3    3  502    0  0.29983297636E+03 -0.26948509438E+03 -0.36383097054E+03  0.54304236019E+03  0.50400001928E-02 0.  1.
       -1    1    3    3    0  502 -0.29983297636E+03  0.26948509438E+03  0.53097482622E+03  0.66667555520E+03  0.50400001928E-02 0. -1.
</event>
<event>
 5   0  0.2304842E-04  0.1200079E+04  0.7818609E-02  0.9112788E-01
       -1   -1    0    0    0  501  0.00000000000E+00  0.00000000000E+00  0.11435213729E+04  0.11435213729E+04  0.50400001928E-02 0. -1.
        1   -1    0    0  501    0  0.00000000000E+00  0.00000000000E+00 -0.31485826520E+03  0.31485826524E+03  0.50400001928E-02 0.  1.
    10030    2    1    2    0    0  0.00000000000E+00  0.00000000000E+00  0.82866310773E+03  0.14583796382E+04  0.12000785903E+04 0.  0.
        4    1    3    3  502    0 -0.47782746583E+02 -0.93900382366E+02  0.11321910301E+04  0.11370833805E+04  0.12699999809E+01 0. -1.
       -4    1    3    3    0  502  0.47782746583E+02  0.93900382366E+02 -0.30352792233E+03  0.32129625771E+03  0.12699999809E+01 0.  1.
</event>
<event>
 5   0  0.3832662E-04  0.1199413E+04  0.7818609E-02  0.9113370E-01
        2   -1    0    0  501    0  0.00000000000E+00  0.00000000000E+00  0.12197119292E+04  0.12197119292E+04  0.25500000920E-02 0. -1.
       -2   -1    0    0    0  501  0.00000000000E+00  0.00000000000E+00 -0.29486300946E+03  0.29486300947E+03  0.25500000920E-02 0.  1.
    10030    2    1    2    0    0  0.00000000000E+00  0.00000000000E+00  0.92484891970E+03  0.15145749386E+04  0.11994130733E+04 0.  0.
        4    1    3    3  502    0  0.51469083536E+03  0.60256938820E+02  0.84357984679E+03  0.99003339615E+03  0.12699999809E+01 0. -1.
       -4    1    3    3    0  502 -0.51469083536E+03 -0.60256938820E+02  0.81269072910E+02  0.52454154248E+03  0.12699999809E+01 0.  1.
</event>
<event>
 5   0  0.4024486E-04  0.1200565E+04  0.7818609E-02  0.9112362E-01
       -2   -1    0    0    0  501  0.00000000000E+00  0.00000000000E+00  0.49480941671E+03  0.49480941672E+03  0.25500000920E-02 0.  1.
        2   -1    0    0  501    0  0.00000000000E+00  0.00000000000E+00 -0.72823777767E+03  0.72823777767E+03  0.25500000920E-02 0. -1.
    10030    2    1    2    0    0  0.00000000000E+00  0.00000000000E+00 -0.23342836095E+03  0.12230471944E+04  0.12005647171E+04 0.  0.
        1    1    3    3  502    0 -0.72260062518E+02  0.59533828611E+03 -0.14346847832E+03  0.61662986940E+03  0.50400001928E-02 0.  1.
       -1    1    3    3    0  502  0.72260062518E+02 -0.59533828611E+03 -0.89959882630E+02  0.60641732499E+03  0.50400001928E-02 0. -1.
</event>
<event>
 5   0  0.2304842E-04  0.1198237E+04  0.7818609E-02  0.9114401E-01
        1   -1    0    0  501    0  0.00000000000E+00  0.00000000000E+00  0.56471473252E+03  0.56471473254E+03  0.50400001928E-02 0.  1.
       -1   -1    0    0    0  501  0.00000000000E+00  0.00000000000E+00 -0.63561809258E+03  0.63561809260E+03  0.50400001928E-02 0. -1.
    10030    2    1    2    0    0  0.00000000000E+00  0.00000000000E+00 -0.70903360067E+02  0.12003328251E+04  0.11982368733E+04 0.  0.
        4    1    3    3  502    0 -0.44444319324E+03 -0.95860104424E+02  0.35538764256E+03  0.57707963144E+03  0.12699999809E+01 0.  1.
       -4    1    3    3    0  502  0.44444319324E+03  0.95860104424E+02 -0.42629100263E+03  0.62325319370E+03  0.12699999809E+01 0. -1.
</event>
<event>
 5   0  0.4122956E-04  0.1200952E+04  0.7818609E-02  0.9112024E-01
        2   -1    0    0  501    0  0.00000000000E+00  0.00000000000E+00  0.96415988001E+03  0.96415988002E+03  0.25500000920E-02 0.  1.
       -2   -1    0    0    0  501  0.00000000000E+00  0.00000000000E+00 -0.37397456567E+03  0.37397456568E+03  0.25500000920E-02 0. -1.
    10030    2    1    2    0    0  0.00000000000E+00  0.00000000000E+00  0.59018531434E+03  0.13381344457E+04  0.12009517432E+04 0.  0.
        5    1    3    3  502    0 -0.31837523418E+03  0.42080332333E+03  0.61437488631E+03  0.80988691655E+03  0.46999998093E+01 0.  1.
       -5    1    3    3    0  502  0.31837523418E+03 -0.42080332333E+03 -0.24189571969E+02  0.52824752915E+03  0.46999998093E+01 0. -1.
</event>
<event>
 5   0  0.3993723E-04  0.1204868E+04  0.7818609E-02  0.9108606E-01
       -2   -1    0    0    0  501  0.00000000000E+00  0.00000000000E+00  0.39889461257E+03  0.39889461258E+03  0.25500000920E-02 0. -1.
        2   -1    0    0  501    0  0.00000000000E+00  0.00000000000E+00 -0.90983096444E+03  0.90983096444E+03  0.25500000920E-02 0.  1.
    10030    2    1    2    0    0  0.00000000000E+00  0.00000000000E+00 -0.51093635187E+03  0.13087255770E+04  0.12048679099E+04 0.  0.
        3    1    3    3  502    0  0.51831106480E+03  0.11775138725E+03  0.52550780147E+02  0.53410986116E+03  0.10100000352E+00 0. -1.
       -3    1    3    3    0  502 -0.51831106480E+03 -0.11775138725E+03 -0.56348713202E+03  0.77461571585E+03  0.10100000352E+00 0.  1.
</event>
<event>
 5   0  0.3832662E-04  0.1193331E+04  0.7818609E-02  0.9118714E-01
       -2   -1    0    0    0  501  0.00000000000E+00  0.00000000000E+00  0.38360390663E+03  0.38360390664E+03  0.25500000920E-02 0. -1.
        2   -1    0    0  501    0  0.00000000000E+00  0.00000000000E+00 -0.92806614429E+03  0.92806614429E+03  0.25500000920E-02 0.  1.
    10030    2    1    2    0    0  0.00000000000E+00  0.00000000000E+00 -0.54446223766E+03  0.13116700509E+04  0.11933311335E+04 0.  0.
        4    1    3    3  502    0 -0.51196495730E+03  0.29128987950E+03 -0.16766415425E+03  0.61243023515E+03  0.12699999809E+01 0. -1.
       -4    1    3    3    0  502  0.51196495730E+03 -0.29128987950E+03 -0.37679808341E+03  0.69923981578E+03  0.12699999809E+01 0.  1.
</event>
<event>
 5   0  0.3883890E-04  0.1199608E+04  0.7818609E-02  0.9113200E-01
       -2   -1    0    0    0  501  0.00000000000E+00  0.00000000000E+00  0.44041319964E+03  0.44041319965E+03  0.25500000920E-02 0. -1.
        2   -1    0    0  501    0  0.00000000000E+00  0.00000000000E+00 -0.81688025224E+03  0.81688025224E+03  0.25500000920E-02 0.  1.
    10030    2    1    2    0    0  0.00000000000E+00  0.00000000000E+00 -0.37646705260E+03  0.12572934519E+04  0.11996080120E+04 0.  0.
        2    1    3    3  502    0  0.77615213953E+02 -0.26316898635E+03  0.37078385270E+03  0.46126207544E+03  0.25500000920E-02 0. -1.
       -2    1    3    3    0  502 -0.77615213953E+02  0.26316898635E+03 -0.74725090530E+03  0.79603137645E+03  0.25500000920E-02 0.  1.
</event>
<event>
 5   0  0.3883890E-04  0.1199414E+04  0.7818609E-02  0.9113370E-01
       -2   -1    0    0    0  501  0.00000000000E+00  0.00000000000E+00  0.20414530627E+04  0.20414530627E+04  0.25500000920E-02 0.  1.
        2   -1    0    0  501    0  0.00000000000E+00  0.00000000000E+00 -0.17617280391E+03  0.17617280393E+03  0.25500000920E-02 0. -1.
    10030    2    1    2    0    0  0.00000000000E+00  0.00000000000E+00  0.18652802588E+04  0.22176258666E+04  0.11994140405E+04 0.  0.
        2    1    3    3  502    0 -0.49013663266E+02  0.19149474735E+03  0.19794904910E+04  0.19893353618E+04  0.25500000920E-02 0.  1.
       -2    1    3    3    0  502  0.49013663266E+02 -0.19149474735E+03 -0.11421023225E+03  0.22829050486E+03  0.25500000920E-02 0. -1.
</event>
<event>
 5   0  0.3883890E-04  0.1197933E+04  0.7818609E-02  0.9114668E-01
       -2   -1    0    0    0  501  0.00000000000E+00  0.00000000000E+00  0.64793961449E+03  0.64793961450E+03  0.25500000920E-02 0.  1.
        2   -1    0    0  501    0  0.00000000000E+00  0.00000000000E+00 -0.55369468842E+03  0.55369468843E+03  0.25500000920E-02 0. -1.
    10030    2    1    2    0    0  0.00000000000E+00  0.00000000000E+00  0.94244926070E+02  0.12016343029E+04  0.11979327577E+04 0.  0.
        2    1    3    3  502    0 -0.11569704955E+03  0.52533227019E+03 -0.21713210012E+03  0.58009150165E+03  0.25500000920E-02 0. -1.
       -2    1    3    3    0  502  0.11569704955E+03 -0.52533227019E+03  0.31137702619E+03  0.62154280128E+03  0.25500000920E-02 0.  1.
</event>
<event>
 5   0  0.3993723E-04  0.1198305E+04  0.7818609E-02  0.9114341E-01
        2   -1    0    0  501    0  0.00000000000E+00  0.00000000000E+00  0.82781522866E+03  0.82781522866E+03  0.25500000920E-02 0. -1.
       -2   -1    0    0    0  501  0.00000000000E+00  0.00000000000E+00 -0.43365232581E+03  0.43365232581E+03  0.25500000920E-02 0.  1.
    10030    2    1    2    0    0  0.00000000000E+00  0.00000000000E+00  0.39416290286E+03  0.12614675545E+04  0.11983054690E+04 0.  0.
        3    1    3    3  502    0  0.33143478835E+01  0.19488995144E+03  0.79350517665E+03  0.81709458060E+03  0.10100000352E+00 0. -1.
       -3    1    3    3    0  502 -0.33143478835E+01 -0.19488995144E+03 -0.39934227379E+03  0.44437297388E+03  0.10100000352E+00 0.  1.
</event>
<event>
 5   0  0.3832662E-04  0.1194357E+04  0.7818609E-02  0.9117810E-01
        2   -1    0    0  501    0  0.00000000000E+00  0.00000000000E+00  0.85446806589E+03  0.85446806589E+03  0.25500000920E-02 0. -1.
       -2   -1    0    0    0  501  0.00000000000E+00  0.00000000000E+00 -0.41736173190E+03  0.41736173191E+03  0.25500000920E-02 0.  1.
    10030    2    1    2    0    0  0.00000000000E+00  0.00000000000E+00  0.43710633399E+03  0.12718297978E+04  0.11943571858E+04 0.  0.
        4    1    3    3  502    0 -0.39977881586E+03 -0.41703748259E+03  0.57489675488E+02  0.58056010816E+03  0.12699999809E+01 0. -1.
       -4    1    3    3    0  502  0.39977881586E+03  0.41703748259E+03  0.37961665850E+03  0.69126968964E+03  0.12699999809E+01 0.  1.
</event>
<event>
 5   0  0.4024486E-04  0.1205122E+04  0.7818609E-02  0.9108385E-01
        2   -1    0    0  501    0  0.00000000000E+00  0.00000000000E+00  0.66070992531E+03  0.66070992531E+03  0.25500000920E-02 0.  1.
       -2   -1    0    0    0  501  0.00000000000E+00  0.00000000000E+00 -0.54953006110E+03  0.54953006111E+03  0.25500000920E-02 0. -1.
    10030    2    1    2    0    0  0.00000000000E+00  0.00000000000E+00  0.11117986421E+03  0.12102399864E+04  0.12051223434E+04 0.  0.
        1    1    3    3  502    0  0.42980716021E+03 -0.41435482418E+03 -0.26339912763E+02  0.59759342895E+03  0.50400001928E-02 0.  1.
       -1    1    3    3    0  502 -0.42980716021E+03  0.41435482418E+03  0.13751977697E+03  0.61264655747E+03  0.50400001928E-02 0. -1.
</event>
<event>
 5   0  0.2315038E-04  0.1197880E+04  0.7818609E-02  0.9114714E-01
       -1   -1    0    0    0  501  0.00000000000E+00  0.00000000000E+00  0.11382599786E+04  0.11382599786E+04  0.50400001928E-02 0.  1.
        1   -1    0    0  501    0  0.00000000000E+00  0.00000000000E+00 -0.31515576332E+03  0.31515576336E+03  0.50400001928E-02 0. -1.
    10030    2    1    2    0    0  0.00000000000E+00  0.00000000000E+00  0.82310421525E+03  0.14534157419E+04  0.11978801149E+04 0.  0.
        1    1    3    3  502    0 -0.49427831581E+03 -0.11339832447E+03  0.79821778585E+03  0.94568592415E+03  0.50400001928E-02 0.  1.
       -1    1    3    3    0  502  0.49427831581E+03  0.11339832447E+03  0.24886429398E+02  0.50772981778E+03  0.50400001928E-02 0. -1.
</event>
<event>
 5   0  0.2340731E-04  0.1203683E+04  0.7818609E-02  0.9109639E-01
        1   -1    0    0  501    0  0.00000000000E+00  0.00000000000E+00  0.63650458529E+03  0.63650458531E+03  0.50400001928E-02 0. -1.
       -1   -1    0    0    0  501  0.00000000000E+00  0.00000000000E+00 -0.56906632226E+03  0.56906632228E+03  0.50400001928E-02 0.  1.
    10030    2    1    2    0    0  0.00000000000E+00  0.00000000000E+00  0.67438263032E+02  0.12055709076E+04  0.12036832199E+04 0.  0.
        3    1    3    3  502    0 -0.31018766153E+03 -0.37716772477E+03 -0.31860154203E+03  0.58307703673E+03  0.10100000352E+00 0.  1.
       -3    1    3    3    0  502  0.31018766153E+03  0.37716772477E+03  0.38603980507E+03  0.62249387087E+03  0.10100000352E+00 0. -1.
</event>
<event>
 5   0  0.2304842E-04  0.1202652E+04  0.7818609E-02  0.9110538E-01
        1   -1    0    0  501    0  0.00000000000E+00  0.00000000000E+00  0.34305010387E+03  0.34305010391E+03  0.50400001928E-02 0. -1.
       -1   -1    0    0    0  501  0.00000000000E+00  0.00000000000E+00 -0.10540531167E+04  0.10540531167E+04  0.50400001928E-02 0.  1.
    10030    2    1    2    0    0  0.00000000000E+00  0.00000000000E+00 -0.71100301286E+03  0.13971032206E+04  0.12026521213E+04 0.  0.
        4    1    3    3  502    0 -0.60026466871E+03  0.35543157443E+02 -0.35925318700E+03  0.70046088671E+03  0.12699999809E+01 0.  1.
       -4    1    3    3    0  502  0.60026466871E+03 -0.35543157443E+02 -0.35174982586E+03  0.69664233394E+03  0.12699999809E+01 0. -1.
</event>
<event>
 5   0  0.3832662E-04  0.1199402E+04  0.7818609E-02  0.9113380E-01
        2   -1    0    0  501    0  0.00000000000E+00  0.00000000000E+00  0.85647185128E+03  0.85647185129E+03  0.25500000920E-02 0.  1.
       -2   -1    0    0    0  501  0.00000000000E+00  0.00000000000E+00 -0.41990993625E+03  0.41990993625E+03  0.25500000920E-02 0. -1.
    10030    2    1    2    0    0  0.00000000000E+00  0.00000000000E+00  0.43656191504E+03  0.12763817875E+04  0.11994015849E+04 0.  0.
        4    1    3    3  502    0  0.31741758413E+03  0.39387634241E+03 -0.12448967911E+03  0.52095277035E+03  0.12699999809E+01 0. -1.
       -4    1    3    3    0  502 -0.31741758413E+03 -0.39387634241E+03  0.56105159415E+03  0.75542901720E+03  0.12699999809E+01 0.  1.
</event>
<event>
 5   0  0.3883890E-04  0.1201192E+04  0.7818609E-02  0.9111814E-01
       -2   -1    0    0    0  501  0.00000000000E+00  0.00000000000E+00  0.26941978242E+03  0.26941978243E+03  0.25500000920E-02 0.  1.
        2   -1    0    0  501    0  0.00000000000E+00  0.00000000000E+00 -0.13388614361E+04  0.13388614361E+04  0.25500000920E-02 0. -1.
    10030    2    1    2    0    0  0.00000000000E+00  0.00000000000E+00 -0.10694416537E+04  0.16082812185E+04  0.12011923356E+04 0.  0.
        2    1    3    3  502    0 -0.30995059051E+02 -0.17860937282E+02  0.26799209527E+03  0.27036913636E+03  0.25500000920E-02 0.  1.
       -2    1    3    3    0  502  0.30995059051E+02  0.17860937282E+02 -0.13374337489E+04  0.13379120821E+04  0.25500000920E-02 0. -1.
</event>
<event>
 5   0  0.3883890E-04  0.1198542E+04  0.7818609E-02  0.9114133E-01
        2   -1    0    0  501    0  0.00000000000E+00  0.00000000000E+00  0.18722434771E+04  0.18722434771E+04  0.25500000920E-02 0.  1.
       -2   -1    0    0    0  501  0.00000000000E+00  0.00000000000E+00 -0.19181578824E+03  0.19181578826E+03  0.25500000920E-02 0. -1.
    10030    2    1    2    0    0  0.00000000000E+00  0.00000000000E+00  0.16804276888E+04  0.20640592653E+04  0.11985422118E+04 0.  0.
        2    1    3    3  502    0  0.15753636406E+03 -0.44506549980E+03  0.20459465051E+03  0.51454832245E+03  0.25500000920E-02 0. -1.
       -2    1    3    3    0  502 -0.15753636406E+03  0.44506549980E+03  0.14758330383E+04  0.15495109429E+04  0.25500000920E-02 0.  1.
</event>
<event>
 5   0  0.4024486E-04  0.1181407E+04  0.7818609E-02  0.9129288E-01
       -2   -1    0    0    0  501  0.00000000000E+00  0.00000000000E+00  0.13672940650E+04  0.13672940650E+04  0.25500000920E-02 0. -1.
        2   -1    0    0  501    0  0.00000000000E+00  0.00000000000E+00 -0.25519799681E+03  0.25519799682E+03  0.25500000920E-02 0.  1.
    10030    2    1    2    0    0  0.00000000000E+00  0.00000000000E+00  0.11120960682E+04  0.16224920618E+04  0.11814071380E+04 0.  0.
        1    1    3    3  502    0 -0.57447100952E+03  0.28485890744E+02  0.74082596733E+03  0.93789738279E+03  0.50400001928E-02 0.  1.
       -1    1    3    3    0  502  0.57447100952E+03 -0.28485890744E+02  0.37127010088E+03  0.68459467905E+03  0.50400001928E-02 0. -1.
</event>
<event>
 5   0  0.4122956E-04  0.1199772E+04  0.7818609E-02  0.9113056E-01
       -2   -1    0    0    0  501  0.00000000000E+00  0.00000000000E+00  0.31302568120E+03  0.31302568121E+03  0.25500000920E-02 0. -1.
        2   -1    0    0  501    0  0.00000000000E+00  0.00000000000E+00 -0.11496282541E+04  0.11496282541E+04  0.25500000920E-02 0.  1.
    10030    2    1    2    0    0  0.00000000000E+00  0.00000000000E+00 -0.83660257290E+03  0.14626539353E+04  0.11997719239E+04 0.  0.
        5    1    3    3  502    0 -0.57865481597E+02 -0.10095053314E+03 -0.11357158220E+04  0.11416706804E+04  0.46999998093E+01 0.  1.
       -5    1    3    3    0  502  0.57865481597E+02  0.10095053314E+03  0.29911324915E+03  0.32098325488E+03  0.46999998093E+01 0. -1.
</event>
<event>
 5   0  0.2204090E-04  0.1200021E+04  0.7818609E-02  0.9112838E-01
       -1   -1    0    0    0  501  0.00000000000E+00  0.00000000000E+00  0.36332475777E+03  0.36332475781E+03  0.50400001928E-02 0. -1.
        1   -1    0    0  501    0  0.00000000000E+00  0.00000000000E+00 -0.99088428045E+03  0.99088428046E+03  0.50400001928E-02 0.  1.
    10030    2    1    2    0    0  0.00000000000E+00  0.00000000000E+00 -0.62755952268E+03  0.13542090383E+04  0.12000213185E+04 0.  0.
        2    1    3    3  502    0 -0.10505286708E+03 -0.57035368545E+03 -0.48741053330E+03  0.75756746193E+03  0.25500000920E-02 0. -1.
       -2    1    3    3    0  502  0.10505286708E+03  0.57035368545E+03 -0.14014898937E+03  0.59664157634E+03  0.25500000920E-02 0.  1.
</event>
<event>
 5   0  0.2340731E-04  0.1202718E+04  0.7818609E-02  0.9110481E-01
       -1   -1    0    0    0  501  0.00000000000E+00  0.00000000000E+00  0.33989029766E+03  0.33989029770E+03  0.50400001928E-02 0.  1.
        1   -1    0    0  501    0  0.00000000000E+00  0.00000000000E+00 -0.10639692347E+04  0.10639692347E+04  0.50400001928E-02 0. -1.
    10030    2    1    2    0    0  0.00000000000E+00  0.00000000000E+00 -0.72407893707E+03  0.14038595324E+04  0.12027182878E+04 0.  0.
        3    1    3    3  502    0  0.60015634468E+03 -0.16333116281E+02 -0.40210826416E+03  0.72259634310E+03  0.10100000352E+00 0. -1.
       -3    1    3    3    0  502 -0.60015634468E+03  0.16333116281E+02 -0.32197067291E+03  0.68126318935E+03  0.10100000352E+00 0.  1.
</event>
<event>
 5   0  0.2315038E-04  0.1199933E+04  0.7818609E-02  0.9112915E-01
        1   -1    0    0  501    0  0.00000000000E+00  0.00000000000E+00  0.15245238823E+04  0.15245238823E+04  0.50400001928E-02 0.  1.
       -1   -1    0    0    0  501  0.00000000000E+00  0.00000000000E+00 -0.23611287208E+03  0.23611287213E+03  0.50400001928E-02 0. -1.
    10030    2    1    2    0    0  0.00000000000E+00  0.00000000000E+00  0.12884110102E+04  0.17606367545E+04  0.11999328522E+04 0.  0.
        1    1    3    3  502    0  0.43955814833E+03 -0.31728022586E+03  0.26702163597E+03  0.60430014197E+03  0.50400001928E-02 0. -1.
       -1    1    3    3    0  502 -0.43955814833E+03  0.31728022586E+03  0.10213893743E+04  0.11563366125E+04  0.50400001928E-02 0.  1.
</event>
<event>
 5   0  0.2204090E-04  0.1201845E+04  0.7818609E-02  0.9111243E-01
        1   -1    0    0  501    0  0.00000000000E+00  0.00000000000E+00  0.82666238041E+03  0.82666238043E+03  0.50400001928E-02 0. -1.
       -1   -1    0    0    0  501  0.00000000000E+00  0.00000000000E+00 -0.43682623765E+03  0.43682623768E+03  0.50400001928E-02 0.  1.
    10030    2    1    2    0    0  0.00000000000E+00  0.00000000000E+00  0.38983614277E+03  0.12634886181E+04  0.12018449442E+04 0.  0.
        2    1    3    3  502    0 -0.40614132240E+03 -0.10746938219E+03 -0.25677914826E+03  0.49237787608E+03  0.25500000920E-02 0.  1.
       -2    1    3    3    0  502  0.40614132240E+03  0.10746938219E+03  0.64661529103E+03  0.77111074202E+03  0.25500000920E-02 0. -1.
</event>
<event>
 5   0  0.3993723E-04  0.1201157E+04  0.7818609E-02  0.9111844E-01
       -2   -1    0    0    0  501  0.00000000000E+00  0.00000000000E+00  0.10428999477E+04  0.10428999477E+04  0.25500000920E-02 0.  1.
        2   -1    0    0  501    0  0.00000000000E+00  0.00000000000E+00 -0.34585742695E+03  0.34585742696E+03  0.25500000920E-02 0. -1.
    10030    2    1    2    0    0  0.00000000000E+00  0.00000000000E+00  0.69704252072E+03  0.13887573746E+04  0.12011572628E+04 0.  0.
        3    1    3    3  502    0  0.37260935488E+02  0.42740929231E+03 -0.13738869020E+03  0.45049166791E+03  0.10100000352E+00 0. -1.
       -3    1    3    3    0  502 -0.37260935488E+02 -0.42740929231E+03  0.83443121092E+03  0.93826570673E+03  0.10100000352E+00 0.  1.
</event>
<event>
 5   0  0.2204090E-04  0.1197669E+04  0.7818609E-02  0.9114900E-01
        1   -1    0    0  501    0  0.00000000000E+00  0.00000000000E+00  0.11771456389E+04  0.11771456390E+04  0.50400001928E-02 0.  1.
       -1   -1    0    0    0  501  0.00000000000E+00  0.00000000000E+00 -0.30463730877E+03  0.30463730881E+03  0.50400001928E-02 0. -1.
    10030    2    1    2    0    0  0.00000000000E+00  0.00000000000E+00  0.87250833018E+03  0.14817829478E+04  0.11976685343E+04 0.  0.
        2    1    3    3  502    0 -0.14965328453E+03  0.40270950029E+03  0.95238737039E+03  0.10448027328E+04  0.25500000920E-02 0.  1.
       -2    1    3    3    0  502  0.14965328453E+03 -0.40270950029E+03 -0.79879040215E+02  0.43698021496E+03  0.25500000920E-02 0. -1.
</event>
<event>
 5   0  0.4122956E-04  0.1185606E+04  0.7818609E-02  0.9125550E-01
       -2   -1    0    0    0  501  0.00000000000E+00  0.00000000000E+00  0.40991870463E+03  0.40991870463E+03  0.25500000920E-02 0.  1.
        2   -1    0    0  501    0  0.00000000000E+00  0.00000000000E+00 -0.85728096049E+03  0.85728096049E+03  0.25500000920E-02 0. -1.
    10030    2    1    2    0    0  0.00000000000E+00  0.00000000000E+00 -0.44736225586E+03  0.12671996651E+04  0.11856061755E+04 0.  0.
        5    1    3    3  502    0  0.71109933774E+02 -0.58800573319E+03 -0.19780672068E+03  0.62446533426E+03  0.46999998093E+01 0.  1.
       -5    1    3    3    0  502 -0.71109933774E+02  0.58800573319E+03 -0.24955553518E+03  0.64273433087E+03  0.46999998093E+01 0. -1.
</event>
<event>
 5   0  0.3832662E-04  0.1199525E+04  0.7818609E-02  0.9113272E-01
       -2   -1    0    0    0  501  0.00000000000E+00  0.00000000000E+00  0.19301758624E+03  0.19301758626E+03  0.25500000920E-02 0.  1.
        2   -1    0    0  501    0  0.00000000000E+00  0.00000000000E+00 -0.18636396991E+04  0.18636396991E+04  0.25500000920E-02 0. -1.
    10030    2    1    2    0    0  0.00000000000E+00  0.00000000000E+00 -0.16706221129E+04  0.20566572854E+04  0.11995253000E+04 0.  0.
        4    1    3    3  502    0 -0.13703521201E+03  0.19294836555E+03 -0.17801964424E+04  0.17958587660E+04  0.12699999809E+01 0. -1.
       -4    1    3    3    0  502  0.13703521201E+03 -0.19294836555E+03  0.10957432952E+03  0.26079851934E+03  0.12699999809E+01 0.  1.
</event>
<event>
 5   0  0.2244308E-04  0.1201030E+04  0.7818609E-02  0.9111956E-01
        1   -1    0    0  501    0  0.00000000000E+00  0.00000000000E+00  0.42558614098E+03  0.42558614101E+03  0.50400001928E-02 0. -1.
       -1   -1    0    0    0  501  0.00000000000E+00  0.00000000000E+00 -0.84734477107E+03  0.84734477108E+03  0.50400001928E-02 0.  1.
    10030    2    1    2    0    0  0.00000000000E+00  0.00000000000E+00 -0.42175863009E+03  0.12729309121E+04  0.12010298768E+04 0.  0.
        5    1    3    3  502    0 -0.55565292625E+03  0.20499096164E+03 -0.31593248881E+03  0.67127259462E+03  0.46999998093E+01 0. -1.
       -5    1    3    3    0  502  0.55565292625E+03 -0.20499096164E+03 -0.10582614128E+03  0.60165831747E+03  0.46999998093E+01 0.  1.
</event>
<event>
 5   0  0.2340731E-04  0.1199876E+04  0.7818609E-02  0.9112965E-01
        1   -1    0    0  501    0  0.00000000000E+00  0.00000000000E+00  0.15169327430E+04  0.15169327430E+04  0.50400001928E-02 0.  1.
       -1   -1    0    0    0  501  0.00000000000E+00  0.00000000000E+00 -0.23727205886E+03  0.23727205891E+03  0.50400001928E-02 0. -1.
    10030    2    1    2    0    0  0.00000000000E+00  0.00000000000E+00  0.12796606841E+04  0.17542048019E+04  0.11998762522E+04 0.  0.
        3    1    3    3  502    0 -0.18229138544E+03  0.54231107441E+03  0.90377606491E+03  0.10696460332E+04  0.10100000352E+00 0.  1.
       -3    1    3    3    0  502  0.18229138544E+03 -0.54231107441E+03  0.37588461918E+03  0.68455876867E+03  0.10100000352E+00 0. -1.
</event>
<event>
 5   0  0.2304842E-04  0.1198313E+04  0.7818609E-02  0.9114335E-01
       -1   -1    0    0    0  501  0.00000000000E+00  0.00000000000E+00  0.50578781626E+03  0.50578781628E+03  0.50400001928E-02 0. -1.
        1   -1    0    0  501    0  0.00000000000E+00  0.00000000000E+00 -0.70976053954E+03  0.70976053955E+03  0.50400001928E-02 0.  1.
    10030    2    1    2    0    0  0.00000000000E+00  0.00000000000E+00 -0.20397272328E+03  0.12155483558E+04  0.11983125358E+04 0.  0.
        4    1    3    3  502    0 -0.24626370532E+03 -0.15997260685E+03 -0.63175247770E+03  0.69667054874E+03  0.12699999809E+01 0.  1.
       -4    1    3    3    0  502  0.24626370532E+03  0.15997260685E+03  0.42777975442E+03  0.51887780709E+03  0.12699999809E+01 0. -1.
</event>
<event>
 5   0  0.2244308E-04  0.1200086E+04  0.7818609E-02  0.9112781E-01
        1   -1    0    0  501    0  0.00000000000E+00  0.00000000000E+00  0.15939936653E+04  0.15939936653E+04  0.50400001928E-02 0. -1.
       -1   -1    0    0    0  501  0.00000000000E+00  0.00000000000E+00 -0.22588019688E+03  0.22588019694E+03  0.50400001928E-02 0.  1.
    10030    2    1    2    0    0  0.00000000000E+00  0.00000000000E+00  0.13681134684E+04  0.18198738622E+04  0.12000860019E+04 0.  0.
        5    1    3    3  502    0  0.45800060900E+03 -0.55311009815E+02  0.12658800931E+04  0.13473300879E+04  0.46999998093E+01 0. -1.
       -5    1    3    3    0  502 -0.45800060900E+03  0.55311009815E+02  0.10223337532E+03  0.47254377435E+03  0.46999998093E+01 0.  1.
</event>
<event>
 5   0  0.3883890E-04  0.1199923E+04  0.7818609E-02  0.9112924E-01
       -2   -1    0    0    0  501  0.00000000000E+00  0.00000000000E+00  0.25455081241E+03  0.25455081242E+03  0.25500000920E-02 0. -1.
        2   -1    0    0  501    0  0.00000000000E+00  0.00000000000E+00 -0.14140745584E+04  0.14140745584E+04  0.25500000920E-02 0.  1.
    10030    2    1    2    0    0  0.00000000000E+00  0.00000000000E+00 -0.11595237460E+04  0.16686253708E+04  0.11999230436E+04 0.  0.
        2    1    3    3  502    0  0.11069308875E+03  0.96912098633E+02  0.22907728549E+03  0.27225230484E+03  0.25500000920E-02 0. -1.
       -2    1    3    3    0  502 -0.11069308875E+03 -0.96912098633E+02 -0.13886010315E+04  0.13963730660E+04  0.25500000920E-02 0.  1.
</event>
<event>
 5   0  0.2204090E-04  0.1202942E+04  0.7818609E-02  0.9110285E-01
        1   -1    0    0  501    0  0.00000000000E+00  0.00000000000E+00  0.93742678827E+03  0.93742678828E+03  0.50400001928E-02 0.  1.
       -1   -1    0    0    0  501  0.00000000000E+00  0.00000000000E+00 -0.38591557515E+03  0.38591557518E+03  0.50400001928E-02 0. -1.
    10030    2    1    2    0    0  0.00000000000E+00  0.00000000000E+00  0.55151121312E+03  0.13233423635E+04  0.12029423896E+04 0.  0.
        2    1    3    3  502    0 -0.14195486558E+03 -0.57973770042E+03  0.19401816505E+03  0.62760659137E+03  0.25500000920E-02 0. -1.
       -2    1    3    3    0  502  0.14195486558E+03  0.57973770042E+03  0.35749304808E+03  0.69573577210E+03  0.25500000920E-02 0.  1.
</event>
<event>
 5   0  0.4122956E-04  0.1199236E+04  0.7818609E-02  0.9113525E-01
        2   -1    0    0  501    0  0.00000000000E+00  0.00000000000E+00  0.78957281374E+03  0.78957281374E+03  0.25500000920E-02 0.  1.
       -2   -1    0    0    0  501  0.00000000000E+00  0.00000000000E+00 -0.45536239129E+03  0.45536239130E+03  0.25500000920E-02 0. -1.
    10030    2    1    2    0    0  0.00000000000E+00  0.00000000000E+00  0.33421042245E+03  0.12449352050E+04  0.11992360311E+04 0.  0.
        5    1    3    3  502    0 -0.18341949657E+03  0.30853729998E+03 -0.33149062695E+03  0.48861651932E+03  0.46999998093E+01 0. -1.
       -5    1    3    3    0  502  0.18341949657E+03 -0.30853729998E+03  0.66570104939E+03  0.75631868572E+03  0.46999998093E+01 0.  1.
</event>
<event>
 5   0  0.2315038E-04  0.1173816E+04  0.7818609E-02  0.9136089E-01
       -1   -1    0    0    0  501  0.00000000000E+00  0.00000000000E+00  0.49747434396E+03  0.49747434399E+03  0.50400001928E-02 0.  1.
        1   -1    0    0  501    0  0.00000000000E+00  0.00000000000E+00 -0.69241994568E+03  0.69241994570E+03  0.50400001928E-02 0. -1.
    10030    2    1    2    0    0  0.00000000000E+00  0.00000000000E+00 -0.19494560172E+03  0.11898942897E+04  0.11738162688E+04 0.  0.
        1    1    3    3  502    0  0.33629119893E+03  0.34830205550E+03 -0.43376227565E+03  0.65004292485E+03  0.50400001928E-02 0. -1.
       -1    1    3    3    0  502 -0.33629119893E+03 -0.34830205550E+03  0.23881667393E+03  0.53985136484E+03  0.50400001928E-02 0.  1.
</event>
<event>
 5   0  0.3993723E-04  0.1200386E+04  0.7818609E-02  0.9112519E-01
        2   -1    0    0  501    0  0.00000000000E+00  0.00000000000E+00  0.31816558005E+04  0.31816558005E+04  0.25500000920E-02 0. -1.
       -2   -1    0    0    0  501  0.00000000000E+00  0.00000000000E+00 -0.11322142688E+03  0.11322142691E+03  0.25500000920E-02 0.  1.
    10030    2    1    2    0    0  0.00000000000E+00  0.00000000000E+00  0.30684343736E+04  0.32948772274E+04  0.12003859540E+04 0.  0.
        3    1    3    3  502    0  0.23258336307E+03  0.65739924484E+02  0.26261333595E+02  0.24311813238E+03  0.10100000352E+00 0.  1.
       -3    1    3    3    0  502 -0.23258336307E+03 -0.65739924484E+02  0.30421730400E+04  0.30517590950E+04  0.10100000352E+00 0. -1.
</event>
<event>
 5   0  0.4122956E-04  0.1200650E+04  0.7818609E-02  0.9112288E-01
       -2   -1    0    0    0  501  0.00000000000E+00  0.00000000000E+00  0.91405823091E+03  0.91405823091E+03  0.25500000920E-02 0.  1.
        2   -1    0    0  501    0  0.00000000000E+00  0.00000000000E+00 -0.39427453381E+03  0.39427453382E+03  0.25500000920E-02 0. -1.
    10030    2    1    2    0    0  0.00000000000E+00  0.00000000000E+00  0.51978369710E+03  0.13083327647E+04  0.12006496289E+04 0.  0.
        5    1    3    3  502    0  0.29144129926E+02  0.29541623799E+03 -0.30867823354E+03  0.42828083758E+03  0.46999998093E+01 0. -1.
       -5    1    3    3    0  502 -0.29144129926E+02 -0.29541623799E+03  0.82846193063E+03  0.88005192715E+03  0.46999998093E+01 0.  1.
</event>
<event>
 5   0  0.4122956E-04  0.1197185E+04  0.7818609E-02  0.9115324E-01
        2   -1    0    0  501    0  0.00000000000E+00  0.00000000000E+00  0.56637449929E+03  0.56637449929E+03  0.25500000920E-02 0. -1.
       -2   -1    0    0    0  501  0.00000000000E+00  0.00000000000E+00 -0.63264323350E+03  0.63264323351E+03  0.25500000920E-02 0.  1.
    10030    2    1    2    0    0  0.00000000000E+00  0.00000000000E+00 -0.66268734219E+02  0.11990177328E+04  0.11971850226E+04 0.  0.
        5    1    3    3  502    0  0.56676605305E+03 -0.16188799598E+03 -0.13750244754E+03  0.60527720526E+03  0.46999998093E+01 0.  1.
       -5    1    3    3    0  502 -0.56676605305E+03  0.16188799598E+03  0.71233713324E+02  0.59374052754E+03  0.46999998093E+01 0. -1.
</event>
<event>
 5   0  0.3993723E-04  0.1193584E+04  0.7818609E-02  0.9118491E-01
        2   -1    0    0  501    0  0.00000000000E+00  0.00000000000E+00  0.17585778619E+04  0.17585778619E+04  0.25500000920E-02 0.  1.
       -2   -1    0    0    0  501  0.00000000000E+00  0.00000000000E+00 -0.20252777351E+03  0.20252777353E+03  0.25500000920E-02 0. -1.
    10030    2    1    2    0    0  0.00000000000E+00  0.00000000000E+00  0.15560500883E+04  0.19611056354E+04  0.11935842809E+04 0.  0.
        3    1    3    3  502    0  0.38398915769E+03 -0.14762845915E+03  0.67671360033E+02  0.41691876708E+03  0.10100000352E+00 0. -1.
       -3    1    3    3    0  502 -0.38398915769E+03  0.14762845915E+03  0.14883787283E+04  0.15441868683E+04  0.10100000352E+00 0.  1.
</event>
<event>
 5   0  0.2315038E-04  0.1204037E+04  0.7818609E-02  0.9109331E-01
       -1   -1    0    0    0  501  0.00000000000E+00  0.00000000000E+00  0.15693946244E+04  0.15693946244E+04  0.50400001928E-02 0. -1.
        1   -1    0    0  501    0  0.00000000000E+00  0.00000000000E+00 -0.23093361700E+03  0.23093361705E+03  0.50400001928E-02 0.  1.
    10030    2    1    2    0    0  0.00000000000E+00  0.00000000000E+00  0.13384610074E+04  0.18003282415E+04  0.12040365064E+04 0.  0.
        1    1    3    3  502    0  0.32734498041E+03 -0.42373303682E+03  0.25777601959E+03  0.59426669012E+03  0.50400001928E-02 0.  1.
       -1    1    3    3    0  502 -0.32734498041E+03  0.42373303682E+03  0.10806849878E+04  0.12060615513E+04  0.50400001928E-02 0. -1.
</event>
<event>
 5   0  0.2204090E-04  0.1198308E+04  0.7818609E-02  0.9114339E-01
       -1   -1    0    0    0  501  0.00000000000E+00  0.00000000000E+00  0.58409168589E+03  0.58409168591E+03  0.50400001928E-02 0. -1.
        1   -1    0    0  501    0  0.00000000000E+00  0.00000000000E+00 -0.61460422679E+03  0.61460422681E+03  0.50400001928E-02 0.  1.
    10030    2    1    2    0    0  0.00000000000E+00  0.00000000000E+00 -0.30512540903E+02  0.11986959127E+04  0.11983075048E+04 0.  0.
        2    1    3    3  502    0  0.89763548533E+01  0.42944983588E+03  0.40258413900E+03  0.58871192061E+03  0.25500000920E-02 0. -1.
       -2    1    3    3    0  502 -0.89763548533E+01 -0.42944983588E+03 -0.43309667991E+03  0.60998399212E+03  0.25500000920E-02 0.  1.
</event>
<event>
 5   0  0.2244308E-04  0.1201222E+04  0.7818609E-02  0.9111788E-01
        1   -1    0    0  501    0  0.00000000000E+00  0.00000000000E+00  0.10663773279E+04  0.10663773279E+04  0.50400001928E-02 0. -1.
       -1   -1    0    0    0  501  0.00000000000E+00  0.00000000000E+00 -0.33827931495E+03  0.33827931498E+03  0.50400001928E-02 0.  1.
    10030    2    1    2    0    0  0.00000000000E+00  0.00000000000E+00  0.72809801298E+03  0.14046566429E+04  0.12012216981E+04 0.  0.
        5    1    3    3  502    0  0.44582695920E+03  0.41946802984E+02  0.83206945872E+03  0.94492480439E+03  0.46999998093E+01 0. -1.
       -5    1    3    3    0  502 -0.44582695920E+03 -0.41946802984E+02 -0.10397144574E+03  0.45973183853E+03  0.46999998093E+01 0.  1.
</event>
<event>
 5   0  0.3883890E-04  0.1196466E+04  0.7818609E-02  0.9115956E-01
       -2   -1    0    0    0  501  0.00000000000E+00  0.00000000000E+00  0.25097217105E+03  0.25097217106E+03  0.25500000920E-02 0. -1.
        2   -1    0    0  501    0  0.00000000000E+00  0.00000000000E+00 -0.14259849151E+04  0.14259849151E+04  0.25500000920E-02 0.  1.
    10030    2    1    2    0    0  0.00000000000E+00  0.00000000000E+00 -0.11750127441E+04  0.16769570862E+04  0.11964656786E+04 0.  0.
        2    1    3    3  502    0  0.57339768385E+02  0.80608641823E+02  0.23942943776E+03  0.25905995030E+03  0.25500000920E-02 0. -1.
       -2    1    3    3    0  502 -0.57339768385E+02 -0.80608641823E+02 -0.14144421818E+04  0.14178971359E+04  0.25500000920E-02 0.  1.
</event>
<event>
 5   0  0.2340731E-04  0.1199699E+04  0.7818609E-02  0.9113120E-01
        1   -1    0    0  501    0  0.00000000000E+00  0.00000000000E+00  0.13408989758E+04  0.13408989759E+04  0.50400001928E-02 0.  1.
       -1   -1    0    0    0  501  0.00000000000E+00  0.00000000000E+00 -0.26834189140E+03  0.26834189145E+03  0.50400001928E-02 0. -1.
    10030    2    1    2    0    0  0.00000000000E+00  0.00000000000E+00  0.10725570844E+04  0.16092408673E+04  0.11996989079E+04 0.  0.
        3    1    3    3  502    0  0.56100000365E+03  0.16829925106E+03  0.71000398292E+03  0.92040822897E+03  0.10100000352E+00 0.  1.
       -3    1    3    3    0  502 -0.56100000365E+03 -0.16829925106E+03  0.36255310153E+03  0.68883263833E+03  0.10100000352E+00 0. -1.
</event>
<event>
 5   0  0.2304842E-04  0.1198996E+04  0.7818609E-02  0.9113736E-01
        1   -1    0    0  501    0  0.00000000000E+00  0.00000000000E+00  0.89444919349E+03  0.89444919350E+03  0.50400001928E-02 0. -1.
       -1   -1    0    0    0  501  0.00000000000E+00  0.00000000000E+00 -0.40180917849E+03  0.40180917852E+03  0.50400001928E-02 0.  1.
    10030    2    1    2    0    0  0.00000000000E+00  0.00000000000E+00  0.49264001500E+03  0.12962583720E+04  0.11989960728E+04 0.  0.
        4    1    3    3  502    0 -0.48318758167E+03 -0.24539600716E+03  0.52344718306E+03  0.75345073214E+03  0.12699999809E+01 0.  1.
       -4    1    3    3    0  502  0.48318758167E+03  0.24539600716E+03 -0.30807168062E+02  0.54280763988E+03  0.12699999809E+01 0. -1.
</event>
<event>
 5   0  0.3832662E-04  0.1198148E+04  0.7818609E-02  0.9114479E-01
        2   -1    0    0  501    0  0.00000000000E+00  0.00000000000E+00  0.70547984496E+03  0.70547984496E+03  0.25500000920E-02 0. -1.
       -2   -1    0    0    0  501  0.00000000000E+00  0.00000000000E+00 -0.50871677055E+03  0.50871677056E+03  0.25500000920E-02 0.  1.
    10030    2    1    2    0    0  0.00000000000E+00  0.00000000000E+00  0.19676307441E+03  0.12141966155E+04  0.11981476177E+04 0.  0.
        4    1    3    3  502    0 -0.44113769519E+03  0.69444550337E+02  0.50305841202E+03  0.67267703283E+03  0.12699999809E+01 0. -1.
       -4    1    3    3    0  502  0.44113769519E+03 -0.69444550337E+02 -0.30629533761E+03  0.54151958269E+03  0.12699999809E+01 0.  1.
</event>
<event>
 5   0  0.1541375E-04  0.1198780E+04  0.7818609E-02  0.9113925E-01
       -3   -1    0    0    0  501  0.00000000000E+00  0.00000000000E+00  0.95605905775E+03  0.95605906309E+03  0.10100000352E+00 0. -1.
        3   -1    0    0  501    0  0.00000000000E+00  0.00000000000E+00 -0.37578026037E+03  0.37578027394E+03  0.10100000352E+00 0.  1.
    10030    2    1    2    0    0  0.00000000000E+00  0.00000000000E+00  0.58027879739E+03  0.13318393370E+04  0.11987796032E+04 0.  0.
        3    1    3    3  502    0 -0.39351475957E+03  0.45066779893E+03  0.33039354560E+03  0.68345829146E+03  0.10100000352E+00 0. -1.
       -3    1    3    3    0  502  0.39351475957E+03 -0.45066779893E+03  0.24988525179E+03  0.64838104557E+03  0.10100000352E+00 0.  1.
</event>
<event>
 5   0  0.2304842E-04  0.1211258E+04  0.7818609E-02  0.9103060E-01
        1   -1    0    0  501    0  0.00000000000E+00  0.00000000000E+00  0.13825514114E+04  0.13825514114E+04  0.50400001928E-02 0.  1.
       -1   -1    0    0    0  501  0.00000000000E+00  0.00000000000E+00 -0.26529659626E+03  0.26529659631E+03  0.50400001928E-02 0. -1.
    10030    2    1    2    0    0  0.00000000000E+00  0.00000000000E+00  0.11172548152E+04  0.16478480077E+04  0.12112575014E+04 0.  0.
        4    1    3    3  502    0  0.47676060717E+03 -0.43465865739E+02  0.10632670765E+04  0.11660739457E+04  0.12699999809E+01 0.  1.
       -4    1    3    3    0  502 -0.47676060717E+03  0.43465865739E+02  0.53987738705E+02  0.48177406205E+03  0.12699999809E+01 0. -1.
</event>
<event>
 5   0  0.2304842E-04  0.1201034E+04  0.7818609E-02  0.9111952E-01
        1   -1    0    0  501    0  0.00000000000E+00  0.00000000000E+00  0.37966495500E+03  0.37966495503E+03  0.50400001928E-02 0.  1.
       -1   -1    0    0    0  501  0.00000000000E+00  0.00000000000E+00 -0.94983962439E+03  0.94983962441E+03  0.50400001928E-02 0. -1.
    10030    2    1    2    0    0  0.00000000000E+00  0.00000000000E+00 -0.57017466939E+03  0.13295045794E+04  0.12010342514E+04 0.  0.
        4    1    3    3  502    0  0.30999136462E+03 -0.21373930310E+03 -0.80293004465E+03  0.88683561347E+03  0.12699999809E+01 0. -1.
       -4    1    3    3    0  502 -0.30999136462E+03  0.21373930310E+03  0.23275537525E+03  0.44266896597E+03  0.12699999809E+01 0.  1.
</event>
<event>
 5   0  0.2315038E-04  0.1200224E+04  0.7818609E-02  0.9112660E-01
       -1   -1    0    0    0  501  0.00000000000E+00  0.00000000000E+00  0.60916368769E+03  0.60916368771E+03  0.50400001928E-02 0. -1.
        1   -1    0    0  501    0  0.00000000000E+00  0.00000000000E+00 -0.59119502186E+03  0.59119502188E+03  0.50400001928E-02 0.  1.
    10030    2    1    2    0    0  0.00000000000E+00  0.00000000000E+00  0.17968665822E+02  0.12003587096E+04  0.12002242119E+04 0.  0.
        1    1    3    3  502    0  0.52654904827E+03  0.38337047457E+02  0.29434227855E+03  0.60445099587E+03  0.50400001928E-02 0. -1.
       -1    1    3    3    0  502 -0.52654904827E+03 -0.38337047457E+02 -0.27637361272E+03  0.59590771372E+03  0.50400001928E-02 0.  1.
</event>
<event>
 5   0  0.4024486E-04  0.1197929E+04  0.7818609E-02  0.9114671E-01
       -2   -1    0    0    0  501  0.00000000000E+00  0.00000000000E+00  0.25587286938E+03  0.25587286939E+03  0.25500000920E-02 0. -1.
        2   -1    0    0  501    0  0.00000000000E+00  0.00000000000E+00 -0.14020973235E+04  0.14020973235E+04  0.25500000920E-02 0.  1.
    10030    2    1    2    0    0  0.00000000000E+00  0.00000000000E+00 -0.11462244541E+04  0.16579701929E+04  0.11979293223E+04 0.  0.
        1    1    3    3  502    0 -0.92107379336E+02 -0.24836490358E+03  0.17039636138E+03  0.31496637067E+03  0.50400001928E-02 0. -1.
       -1    1    3    3    0  502  0.92107379336E+02  0.24836490358E+03 -0.13166208155E+04  0.13430038222E+04  0.50400001928E-02 0.  1.
</event>
<event>
 5   0  0.2340731E-04  0.1201219E+04  0.7818609E-02  0.9111790E-01
        1   -1    0    0  501    0  0.00000000000E+00  0.00000000000E+00  0.95202108565E+03  0.95202108567E+03  0.50400001928E-02 0.  1.
       -1   -1    0    0    0  501  0.00000000000E+00  0.00000000000E+00 -0.37891173802E+03  0.37891173806E+03  0.50400001928E-02 0. -1.
    10030    2    1    2    0    0  0.00000000000E+00  0.00000000000E+00  0.57310934763E+03  0.13309328237E+04  0.12012193209E+04 0.  0.
        3    1    3    3  502    0 -0.33817099461E+02  0.50334803573E+03 -0.74568703975E+02  0.50996406060E+03  0.10100000352E+00 0. -1.
       -3    1    3    3    0  502  0.33817099461E+02 -0.50334803573E+03  0.64767805161E+03  0.82096876312E+03  0.10100000352E+00 0.  1.
</event>
<event>
 5   0  0.3883890E-04  0.1198933E+04  0.7818609E-02  0.9113791E-01
        2   -1    0    0  501    0  0.00000000000E+00  0.00000000000E+00  0.97827374608E+03  0.97827374608E+03  0.25500000920E-02 0.  1.
       -2   -1    0    0    0  501  0.00000000000E+00  0.00000000000E+00 -0.36734119813E+03  0.36734119814E+03  0.25500000920E-02 0. -1.
    10030    2    1    2    0    0  0.00000000000E+00  0.00000000000E+00  0.61093254795E+03  0.13456149442E+04  0.11989332759E+04 0.  0.
        2    1    3    3  502    0 -0.38728544772E+03 -0.45736021039E+03  0.32101265230E+03  0.67986579779E+03  0.25500000920E-02 0. -1.
       -2    1    3    3    0  502  0.38728544772E+03  0.45736021039E+03  0.28991989565E+03  0.66574914643E+03  0.25500000920E-02 0.  1.
</event>
<event>
 5   0  0.3993723E-04  0.1198699E+04  0.7818609E-02  0.9113996E-01
       -2   -1    0    0    0  501  0.00000000000E+00  0.00000000000E+00  0.37634423586E+03  0.37634423587E+03  0.25500000920E-02 0. -1.
        2   -1    0    0  501    0  0.00000000000E+00  0.00000000000E+00 -0.95449722004E+03  0.95449722005E+03  0.25500000920E-02 0.  1.
    10030    2    1    2    0    0  0.00000000000E+00  0.00000000000E+00 -0.57815298418E+03  0.13308414559E+04  0.11986985057E+04 0.  0.
        3    1    3    3  502    0 -0.13820514882E+03 -0.46449453412E+03  0.10245179233E+03  0.49533041027E+03  0.10100000352E+00 0. -1.
       -3    1    3    3    0  502  0.13820514882E+03  0.46449453412E+03 -0.68060477651E+03  0.83551104565E+03  0.10100000352E+00 0.  1.
</event>
<event>
 5   0  0.1541375E-04  0.1200895E+04  0.7818609E-02  0.9112074E-01
        3   -1    0    0  501    0  0.00000000000E+00  0.00000000000E+00  0.65214657351E+03  0.65214658133E+03  0.10100000352E+00 0. -1.
       -3   -1    0    0    0  501  0.00000000000E+00  0.00000000000E+00 -0.55284676713E+03  0.55284677635E+03  0.10100000352E+00 0.  1.
    10030    2    1    2    0    0  0.00000000000E+00  0.00000000000E+00  0.99299806382E+02  0.12049933577E+04  0.12008948915E+04 0.  0.
        2    1    3    3  502    0 -0.22813543058E+03 -0.40191773178E+03  0.43430334135E+03  0.63419478878E+03  0.25500000920E-02 0. -1.
       -2    1    3    3    0  502  0.22813543058E+03  0.40191773178E+03 -0.33500353497E+03  0.57079856890E+03  0.25500000920E-02 0.  1.
</event>
<event>
 5   0  0.2244308E-04  0.1199981E+04  0.7818609E-02  0.9112873E-01
        1   -1    0    0  501    0  0.00000000000E+00  0.00000000000E+00  0.17553257849E+04  0.17553257849E+04  0.50400001928E-02 0.  1.
       -1   -1    0    0    0  501  0.00000000000E+00  0.00000000000E+00 -0.20508372000E+03  0.20508372006E+03  0.50400001928E-02 0. -1.
    10030    2    1    2    0    0  0.00000000000E+00  0.00000000000E+00  0.15502420649E+04  0.19604095049E+04  0.11999812362E+04 0.  0.
        5    1    3    3  502    0 -0.55378727322E+03 -0.17665089415E+03  0.10178823277E+04  0.11721742215E+04  0.46999998093E+01 0.  1.
       -5    1    3    3    0  502  0.55378727322E+03  0.17665089415E+03  0.53235973716E+03  0.78823528348E+03  0.46999998093E+01 0. -1.
</event>
<event>
 5   0  0.3832662E-04  0.1199527E+04  0.7818609E-02  0.9113271E-01
       -2   -1    0    0    0  501  0.00000000000E+00  0.00000000000E+00  0.33030031532E+03  0.33030031533E+03  0.25500000920E-02 0. -1.
        2   -1    0    0  501    0  0.00000000000E+00  0.00000000000E+00 -0.10890579480E+04  0.10890579480E+04  0.25500000920E-02 0.  1.
    10030    2    1    2    0    0  0.00000000000E+00  0.00000000000E+00 -0.75875763265E+03  0.14193582633E+04  0.11995268794E+04 0.  0.
        4    1    3    3  502    0 -0.26565341691E+03  0.42398247042E+03  0.11961305515E+02  0.50047733102E+03  0.12699999809E+01 0. -1.
       -4    1    3    3    0  502  0.26565341691E+03 -0.42398247042E+03 -0.77071893816E+03  0.91888093227E+03  0.12699999809E+01 0.  1.
</event>
<event>
 5   0  0.3832662E-04  0.1201334E+04  0.7818609E-02  0.9111690E-01
       -2   -1    0    0    0  501  0.00000000000E+00  0.00000000000E+00  0.21417735880E+03  0.21417735882E+03  0.25500000920E-02 0. -1.
        2   -1    0    0  501    0  0.00000000000E+00  0.00000000000E+00 -0.16845894228E+04  0.16845894228E+04  0.25500000920E-02 0.  1.
    10030    2    1    2    0    0  0.00000000000E+00  0.00000000000E+00 -0.14704120640E+04  0.18987667816E+04  0.12013341138E+04 0.  0.
        4    1    3    3  502    0  0.28818595528E+03 -0.17153567191E+02 -0.15677424512E+04  0.15941026930E+04  0.12699999809E+01 0.  1.
       -4    1    3    3    0  502 -0.28818595528E+03  0.17153567191E+02  0.97330387237E+02  0.30466408857E+03  0.12699999809E+01 0. -1.
</event>
<event>
 5   0  0.3883890E-04  0.1195972E+04  0.7818609E-02  0.9116390E-01
       -2   -1    0    0    0  501  0.00000000000E+00  0.00000000000E+00  0.15384210990E+03  0.15384210992E+03  0.25500000920E-02 0. -1.
        2   -1    0    0  501    0  0.00000000000E+00  0.00000000000E+00 -0.23243767979E+04  0.23243767979E+04  0.25500000920E-02 0.  1.
    10030    2    1    2    0    0  0.00000000000E+00  0.00000000000E+00 -0.21705346880E+04  0.24782189079E+04  0.11959716231E+04 0.  0.
        2    1    3    3  502    0  0.52860823352E+03 -0.23547518815E+03 -0.77298704399E+03  0.96560043443E+03  0.25500000920E-02 0. -1.
       -2    1    3    3    0  502 -0.52860823352E+03  0.23547518815E+03 -0.13975476440E+04  0.15126184734E+04  0.25500000920E-02 0.  1.
</event>
<event>
 5   0  0.2340731E-04  0.1200283E+04  0.7818609E-02  0.9112609E-01
       -1   -1    0    0    0  501  0.00000000000E+00  0.00000000000E+00  0.44248079317E+03  0.44248079320E+03  0.50400001928E-02 0.  1.
        1   -1    0    0  501    0  0.00000000000E+00  0.00000000000E+00 -0.81397782321E+03  0.81397782322E+03  0.50400001928E-02 0. -1.
    10030    2    1    2    0    0  0.00000000000E+00  0.00000000000E+00 -0.37149703003E+03  0.12564586164E+04  0.12002825548E+04 0.  0.
        3    1    3    3  502    0 -0.51003211772E+02  0.58215974423E+03 -0.42760342099E+02  0.58595200526E+03  0.10100000352E+00 0. -1.
       -3    1    3    3    0  502  0.51003211772E+02 -0.58215974423E+03 -0.32873668794E+03  0.67050661116E+03  0.10100000352E+00 0.  1.
</event>
<event>
 5   0  0.3993723E-04  0.1199981E+04  0.7818609E-02  0.9112873E-01
       -2   -1    0    0    0  501  0.00000000000E+00  0.00000000000E+00  0.35713367216E+03  0.35713367217E+03  0.25500000920E-02 0.  1.
        2   -1    0    0  501    0  0.00000000000E+00  0.00000000000E+00 -0.10079937244E+04  0.10079937244E+04  0.25500000920E-02 0. -1.
    10030    2    1    2    0    0  0.00000000000E+00  0.00000000000E+00 -0.65086005219E+03  0.13651273965E+04  0.11999808337E+04 0.  0.
        3    1    3    3  502    0  0.91696994226E+02  0.18106213785E+03  0.31689634121E+03  0.37631786801E+03  0.10100000352E+00 0.  1.
       -3    1    3    3    0  502 -0.91696994226E+02 -0.18106213785E+03 -0.96775639340E+03  0.98880952852E+03  0.10100000352E+00 0. -1.
</event>
<event>
 5   0  0.2244308E-04  0.1203217E+04  0.7818609E-02  0.9110046E-01
        1   -1    0    0  501    0  0.00000000000E+00  0.00000000000E+00  0.53023665930E+03  0.53023665933E+03  0.50400001928E-02 0. -1.
       -1   -1    0    0    0  501  0.00000000000E+00  0.00000000000E+00 -0.68258687581E+03  0.68258687583E+03  0.50400001928E-02 0.  1.
    10030    2    1    2    0    0  0.00000000000E+00  0.00000000000E+00 -0.15235021651E+03  0.12128235352E+04  0.12032166633E+04 0.  0.
        5    1    3    3  502    0 -0.37080429231E+03 -0.49929865647E+02  0.39867183201E+03  0.54676332569E+03  0.46999998093E+01 0. -1.
       -5    1    3    3    0  502  0.37080429231E+03  0.49929865647E+02 -0.55102204852E+03  0.66606020946E+03  0.46999998093E+01 0.  1.
</event>
<event>
 5   0  0.2340731E-04  0.1198689E+04  0.7818609E-02  0.9114005E-01
        1   -1    0    0  501    0  0.00000000000E+00  0.00000000000E+00  0.33894721558E+03  0.33894721562E+03  0.50400001928E-02 0.  1.
       -1   -1    0    0    0  501  0.00000000000E+00  0.00000000000E+00 -0.10597927517E+04  0.10597927518E+04  0.50400001928E-02 0. -1.
    10030    2    1    2    0    0  0.00000000000E+00  0.00000000000E+00 -0.72084553617E+03  0.13987399674E+04  0.11986889544E+04 0.  0.
        3    1    3    3  502    0 -0.70335521263E+02 -0.13929661683E+03 -0.10356721046E+04  0.10473620919E+04  0.10100000352E+00 0. -1.
       -3    1    3    3    0  502  0.70335521263E+02  0.13929661683E+03  0.31482656843E+03  0.35137787552E+03  0.10100000352E+00 0.  1.
</event>
<event>
 5   0  0.2244308E-04  0.1202143E+04  0.7818609E-02  0.9110983E-01
       -1   -1    0    0    0  501  0.00000000000E+00  0.00000000000E+00  0.35492772032E+03  0.35492772035E+03  0.50400001928E-02 0.  1.
        1   -1    0    0  501    0  0.00000000000E+00  0.00000000000E+00 -0.10179169140E+04  0.10179169140E+04  0.50400001928E-02 0. -1.
    10030    2    1    2    0    0  0.00000000000E+00  0.00000000000E+00 -0.66298919372E+03  0.13728446344E+04  0.12021429695E+04 0.  0.
        5    1    3    3  502    0  0.37983429198E+03 -0.25352131347E+03 -0.77777719082E+03  0.90194600409E+03  0.46999998093E+01 0. -1.
       -5    1    3    3    0  502 -0.37983429198E+03  0.25352131347E+03  0.11478799710E+03  0.47089863031E+03  0.46999998093E+01 0.  1.
</event>
<event>
 5   0  0.3832662E-04  0.1199126E+04  0.7818609E-02  0.9113621E-01
        2   -1    0    0  501    0  0.00000000000E+00  0.00000000000E+00  0.67350697307E+03  0.67350697307E+03  0.25500000920E-02 0.  1.
       -2   -1    0    0    0  501  0.00000000000E+00  0.00000000000E+00 -0.53373773042E+03  0.53373773043E+03  0.25500000920E-02 0. -1.
    10030    2    1    2    0    0  0.00000000000E+00  0.00000000000E+00  0.13976924265E+03  0.12072447035E+04  0.11991264875E+04 0.  0.
        4    1    3    3  502    0  0.40348670725E+03  0.41392787068E+03  0.23013720475E+03  0.62217565926E+03  0.12699999809E+01 0. -1.
       -4    1    3    3    0  502 -0.40348670725E+03 -0.41392787068E+03 -0.90367962106E+02  0.58506904424E+03  0.12699999809E+01 0.  1.
</event>
<event>
 5   0  0.2304842E-04  0.1200228E+04  0.7818609E-02  0.9112657E-01
       -1   -1    0    0    0  501  0.00000000000E+00  0.00000000000E+00  0.28745423257E+03  0.28745423261E+03  0.50400001928E-02 0. -1.
        1   -1    0    0  501    0  0.00000000000E+00  0.00000000000E+00 -0.12528491780E+04  0.12528491780E+04  0.50400001928E-02 0.  1.
    10030    2    1    2    0    0  0.00000000000E+00  0.00000000000E+00 -0.96539494538E+03  0.15403034106E+04  0.12002279767E+04 0.  0.
        4    1    3    3  502    0 -0.38439814292E+03  0.43429532951E+03 -0.68051886259E+03  0.89413751781E+03  0.12699999809E+01 0.  1.
       -4    1    3    3    0  502  0.38439814292E+03 -0.43429532951E+03 -0.28487608279E+03  0.64616589276E+03  0.12699999809E+01 0. -1.
</event>
<event>
 5   0  0.2340731E-04  0.1196074E+04  0.7818609E-02  0.9116300E-01
       -1   -1    0    0    0  501  0.00000000000E+00  0.00000000000E+00  0.42929839756E+03  0.42929839759E+03  0.50400001928E-02 0. -1.
        1   -1    0    0  501    0  0.00000000000E+00  0.00000000000E+00 -0.83309951326E+03  0.83309951328E+03  0.50400001928E-02 0.  1.
    10030    2    1    2    0    0  0.00000000000E+00  0.00000000000E+00 -0.40380111570E+03  0.12623979109E+04  0.11960740547E+04 0.  0.
        3    1    3    3  502    0  0.33017920157E+03  0.75294283909E+02  0.31834244723E+03  0.46478969249E+03  0.10100000352E+00 0. -1.
       -3    1    3    3    0  502 -0.33017920157E+03 -0.75294283909E+02 -0.72214356293E+03  0.79760821838E+03  0.10100000352E+00 0.  1.
</event>
<event>
 5   0  0.3883890E-04  0.1200983E+04  0.7818609E-02  0.9111997E-01
        2   -1    0    0  501    0  0.00000000000E+00  0.00000000000E+00  0.76204384181E+03  0.76204384182E+03  0.25500000920E-02 0.  1.
       -2   -1    0    0    0  501  0.00000000000E+00  0.00000000000E+00 -0.47318797194E+03  0.47318797194E+03  0.25500000920E-02 0. -1.
    10030    2    1    2    0    0  0.00000000000E+00  0.00000000000E+00  0.28885586988E+03  0.12352318138E+04  0.12009828975E+04 0.  0.
        2    1    3    3  502    0  0.32713100911E+01  0.59733261839E+03  0.20760454081E+03  0.63238959814E+03  0.25500000920E-02 0.  1.
       -2    1    3    3    0  502 -0.32713100911E+01 -0.59733261839E+03  0.81251329067E+02  0.60284221563E+03  0.25500000920E-02 0. -1.
</event>
<event>
 5   0  0.2340731E-04  0.1200809E+04  0.7818609E-02  0.9112149E-01
        1   -1    0    0  501    0  0.00000000000E+00  0.00000000000E+00  0.93950500202E+03  0.93950500204E+03  0.50400001928E-02 0.  1.
       -1   -1    0    0    0  501  0.00000000000E+00  0.00000000000E+00 -0.38369705353E+03  0.38369705357E+03  0.50400001928E-02 0. -1.
    10030    2    1    2    0    0  0.00000000000E+00  0.00000000000E+00  0.55580794849E+03  0.13232020556E+04  0.12008085627E+04 0.  0.
        3    1    3    3  502    0  0.50357949594E+03  0.11508119131E+03 -0.59309300040E+02  0.51995537558E+03  0.10100000352E+00 0. -1.
       -3    1    3    3    0  502 -0.50357949594E+03 -0.11508119131E+03  0.61511724853E+03  0.80324668002E+03  0.10100000352E+00 0.  1.
</event>
<event>
 5   0  0.3832662E-04  0.1200121E+04  0.7818609E-02  0.9112750E-01
       -2   -1    0    0    0  501  0.00000000000E+00  0.00000000000E+00  0.64973731020E+03  0.64973731020E+03  0.25500000920E-02 0.  1.
        2   -1    0    0  501    0  0.00000000000E+00  0.00000000000E+00 -0.55418214457E+03  0.55418214457E+03  0.25500000920E-02 0. -1.
    10030    2    1    2    0    0  0.00000000000E+00  0.00000000000E+00  0.95555165634E+02  0.12039194548E+04  0.12001213538E+04 0.  0.
        4    1    3    3  502    0  0.10869990081E+03 -0.17823681251E+03  0.61212991747E+03  0.64675240899E+03  0.12699999809E+01 0.  1.
       -4    1    3    3    0  502 -0.10869990081E+03  0.17823681251E+03 -0.51657475184E+03  0.55716704578E+03  0.12699999809E+01 0. -1.
</event>
<event>
 5   0  0.4024486E-04  0.1199835E+04  0.7818609E-02  0.9113001E-01
        2   -1    0    0  501    0  0.00000000000E+00  0.00000000000E+00  0.79415831798E+03  0.79415831799E+03  0.25500000920E-02 0.  1.
       -2   -1    0    0    0  501  0.00000000000E+00  0.00000000000E+00 -0.45318579316E+03  0.45318579317E+03  0.25500000920E-02 0. -1.
    10030    2    1    2    0    0  0.00000000000E+00  0.00000000000E+00  0.34097252482E+03  0.12473441112E+04  0.11998354341E+04 0.  0.
        1    1    3    3  502    0  0.60115353059E+01 -0.52854974680E+03 -0.12447387721E+03  0.54304209739E+03  0.50400001928E-02 0. -1.
       -1    1    3    3    0  502 -0.60115353059E+01  0.52854974680E+03  0.46544640204E+03  0.70430201377E+03  0.50400001928E-02 0.  1.
</event>
<event>
 5   0  0.4024486E-04  0.1200043E+04  0.7818609E-02  0.9112819E-01
        2   -1    0    0  501    0  0.00000000000E+00  0.00000000000E+00  0.59265020828E+03  0.59265020828E+03  0.25500000920E-02 0. -1.
       -2   -1    0    0    0  501  0.00000000000E+00  0.00000000000E+00 -0.60748436958E+03  0.60748436958E+03  0.25500000920E-02 0.  1.
    10030    2    1    2    0    0  0.00000000000E+00  0.00000000000E+00 -0.14834161300E+02  0.12001345779E+04  0.12000428962E+04 0.  0.
        1    1    3    3  502    0  0.37614852792E+03 -0.33475991569E+03 -0.33374527658E+03  0.60410084082E+03  0.50400001928E-02 0. -1.
       -1    1    3    3    0  502 -0.37614852792E+03  0.33475991569E+03  0.31891111529E+03  0.59603373704E+03  0.50400001928E-02 0.  1.
</event>
<event>
 5   0  0.3993723E-04  0.1207102E+04  0.7818609E-02  0.9106662E-01
       -2   -1    0    0    0  501  0.00000000000E+00  0.00000000000E+00  0.36484699752E+03  0.36484699753E+03  0.25500000920E-02 0.  1.
        2   -1    0    0  501    0  0.00000000000E+00  0.00000000000E+00 -0.99842977033E+03  0.99842977033E+03  0.25500000920E-02 0. -1.
    10030    2    1    2    0    0  0.00000000000E+00  0.00000000000E+00 -0.63358277281E+03  0.13632767679E+04  0.12071024877E+04 0.  0.
        3    1    3    3  502    0 -0.47405402872E+03 -0.29179708336E+03 -0.58020890993E+03  0.80406165769E+03  0.10100000352E+00 0. -1.
       -3    1    3    3    0  502  0.47405402872E+03  0.29179708336E+03 -0.53373862877E+02  0.55921511017E+03  0.10100000352E+00 0.  1.
</event>
<event>
 5   0  0.4122956E-04  0.1199557E+04  0.7818609E-02  0.9113245E-01
        2   -1    0    0  501    0  0.00000000000E+00  0.00000000000E+00  0.50400170804E+03  0.50400170804E+03  0.25500000920E-02 0.  1.
       -2   -1    0    0    0  501  0.00000000000E+00  0.00000000000E+00 -0.71375555031E+03  0.71375555032E+03  0.25500000920E-02 0. -1.
    10030    2    1    2    0    0  0.00000000000E+00  0.00000000000E+00 -0.20975384228E+03  0.12177572584E+04  0.11995566122E+04 0.  0.
        5    1    3    3  502    0 -0.29073234261E+03 -0.83609065022E+02  0.42085730600E+03  0.51832300046E+03  0.46999998093E+01 0.  1.
       -5    1    3    3    0  502  0.29073234261E+03  0.83609065022E+02 -0.63061114828E+03  0.69943425790E+03  0.46999998093E+01 0. -1.
</event>
<event>
 5   0  0.2340731E-04  0.1200169E+04  0.7818609E-02  0.9112709E-01
        1   -1    0    0  501    0  0.00000000000E+00  0.00000000000E+00  0.64795802279E+03  0.64795802281E+03  0.50400001928E-02 0.  1.
       -1   -1    0    0    0  501  0.00000000000E+00  0.00000000000E+00 -0.55574759910E+03  0.55574759912E+03  0.50400001928E-02 0. -1.
    10030    2    1    2    0    0  0.00000000000E+00  0.00000000000E+00  0.92210423692E+02  0.12037056219E+04  0.12001685140E+04 0.  0.
        3    1    3    3  502    0 -0.14048362392E+03  0.58325117082E+03  0.32518018266E+02  0.60081195774E+03  0.10100000352E+00 0. -1.
       -3    1    3    3    0  502  0.14048362392E+03 -0.58325117082E+03  0.59692405426E+02  0.60289366419E+03  0.10100000352E+00 0.  1.
</event>
<event>
 5   0  0.2304842E-04  0.1199534E+04  0.7818609E-02  0.9113264E-01
       -1   -1    0    0    0  501  0.00000000000E+00  0.00000000000E+00  0.44332947113E+03  0.44332947116E+03  0.50400001928E-02 0.  1.
        1   -1    0    0  501    0  0.00000000000E+00  0.00000000000E+00 -0.81140684033E+03  0.81140684035E+03  0.50400001928E-02 0. -1.
    10030    2    1    2    0    0  0.00000000000E+00  0.00000000000E+00 -0.36807736921E+03  0.12547363115E+04  0.11995341853E+04 0.  0.
        4    1    3    3  502    0  0.28216142137E+03 -0.24635411172E+03  0.30593363500E+03  0.48363459140E+03  0.12699999809E+01 0.  1.
       -4    1    3    3    0  502 -0.28216142137E+03  0.24635411172E+03 -0.67401100420E+03  0.77110172011E+03  0.12699999809E+01 0. -1.
</event>
<event>
 5   0  0.3832662E-04  0.1200763E+04  0.7818609E-02  0.9112189E-01
       -2   -1    0    0    0  501  0.00000000000E+00  0.00000000000E+00  0.20863085251E+03  0.20863085252E+03  0.25500000920E-02 0. -1.
        2   -1    0    0  501    0  0.00000000000E+00  0.00000000000E+00 -0.17277305699E+04  0.17277305699E+04  0.25500000920E-02 0.  1.
    10030    2    1    2    0    0  0.00000000000E+00  0.00000000000E+00 -0.15190997174E+04  0.19363614225E+04  0.12007629270E+04 0.  0.
        4    1    3    3  502    0  0.12648353230E+03  0.54421268003E+03 -0.40517639939E+03  0.69017030693E+03  0.12699999809E+01 0. -1.
       -4    1    3    3    0  502 -0.12648353230E+03 -0.54421268003E+03 -0.11139233180E+04  0.12461911155E+04  0.12699999809E+01 0.  1.
</event>
<event>
 5   0  0.2340731E-04  0.1199635E+04  0.7818609E-02  0.9113176E-01
       -1   -1    0    0    0  501  0.00000000000E+00  0.00000000000E+00  0.30066902370E+03  0.30066902374E+03  0.50400001928E-02 0. -1.
        1   -1    0    0  501    0  0.00000000000E+00  0.00000000000E+00 -0.11966013475E+04  0.11966013475E+04  0.50400001928E-02 0.  1.
    10030    2    1    2    0    0  0.00000000000E+00  0.00000000000E+00 -0.89593232379E+03  0.14972703712E+04  0.11996348760E+04 0.  0.
        3    1    3    3  502    0 -0.28397536115E+03  0.40392562020E+03 -0.87302434792E+03  0.10029802763E+04  0.10100000352E+00 0.  1.
       -3    1    3    3    0  502  0.28397536115E+03 -0.40392562020E+03 -0.22907975865E+02  0.49429009494E+03  0.10100000352E+00 0. -1.
</event>
<event>
 5   0  0.2204090E-04  0.1203131E+04  0.7818609E-02  0.9110120E-01
       -1   -1    0    0    0  501  0.00000000000E+00  0.00000000000E+00  0.58257805495E+03  0.58257805497E+03  0.50400001928E-02 0. -1.
        1   -1    0    0  501    0  0.00000000000E+00  0.00000000000E+00 -0.62117180506E+03  0.62117180508E+03  0.50400001928E-02 0.  1.
    10030    2    1    2    0    0  0.00000000000E+00  0.00000000000E+00 -0.38593750109E+02  0.12037498600E+04  0.12031310186E+04 0.  0.
        2    1    3    3  502    0  0.25822975581E+03 -0.53478331658E+03 -0.11529026846E+03  0.60495260019E+03  0.25500000920E-02 0.  1.
       -2    1    3    3    0  502 -0.25822975581E+03  0.53478331658E+03  0.76696518348E+02  0.59879725985E+03  0.25500000920E-02 0. -1.
</event>
<event>
 5   0  0.2340731E-04  0.1200908E+04  0.7818609E-02  0.9112062E-01
       -1   -1    0    0    0  501  0.00000000000E+00  0.00000000000E+00  0.11108284964E+04  0.11108284964E+04  0.50400001928E-02 0. -1.
        1   -1    0    0  501    0  0.00000000000E+00  0.00000000000E+00 -0.32457328685E+03  0.32457328689E+03  0.50400001928E-02 0.  1.
    10030    2    1    2    0    0  0.00000000000E+00  0.00000000000E+00  0.78625520950E+03  0.14354017833E+04  0.12009084165E+04 0.  0.
        3    1    3    3  502    0  0.75273879361E+01  0.15713874091E+03 -0.29950248168E+03  0.33830606290E+03  0.10100000352E+00 0.  1.
       -3    1    3    3    0  502 -0.75273879361E+01 -0.15713874091E+03  0.10857576912E+04  0.10970957204E+04  0.10100000352E+00 0. -1.
</event>
<event>
 5   0  0.2340731E-04  0.1198882E+04  0.7818609E-02  0.9113835E-01
       -1   -1    0    0    0  501  0.00000000000E+00  0.00000000000E+00  0.38013093379E+03  0.38013093383E+03  0.50400001928E-02 0.  1.
        1   -1    0    0  501    0  0.00000000000E+00  0.00000000000E+00 -0.94527875221E+03  0.94527875222E+03  0.50400001928E-02 0. -1.
    10030    2    1    2    0    0  0.00000000000E+00  0.00000000000E+00 -0.56514781841E+03  0.13254096860E+04  0.11988823042E+04 0.  0.
        3    1    3    3  502    0  0.54007703816E+03  0.25690274448E+03 -0.32744645169E+03  0.68183826249E+03  0.10100000352E+00 0.  1.
       -3    1    3    3    0  502 -0.54007703816E+03 -0.25690274448E+03 -0.23770136672E+03  0.64357142355E+03  0.10100000352E+00 0. -1.
</event>
<event>
 5   0  0.2244308E-04  0.1200141E+04  0.7818609E-02  0.9112733E-01
       -1   -1    0    0    0  501  0.00000000000E+00  0.00000000000E+00  0.27788405131E+03  0.27788405135E+03  0.50400001928E-02 0.  1.
        1   -1    0    0  501    0  0.00000000000E+00  0.00000000000E+00 -0.12958080395E+04  0.12958080395E+04  0.50400001928E-02 0. -1.
    10030    2    1    2    0    0  0.00000000000E+00  0.00000000000E+00 -0.10179239882E+04  0.15736920909E+04  0.12001406381E+04 0.  0.
        5    1    3    3  502    0 -0.21710389605E+03  0.20981670371E+03 -0.11889279635E+04  0.12266739351E+04  0.46999998093E+01 0. -1.
       -5    1    3    3    0  502  0.21710389605E+03 -0.20981670371E+03  0.17100397529E+03  0.34701815572E+03  0.46999998093E+01 0.  1.
</event>
<event>
 5   0  0.2204090E-04  0.1200449E+04  0.7818609E-02  0.9112464E-01
        1   -1    0    0  501    0  0.00000000000E+00  0.00000000000E+00  0.29901979896E+03  0.29901979901E+03  0.50400001928E-02 0.  1.
       -1   -1    0    0    0  501  0.00000000000E+00  0.00000000000E+00 -0.12048339718E+04  0.12048339718E+04  0.50400001928E-02 0. -1.
    10030    2    1    2    0    0  0.00000000000E+00  0.00000000000E+00 -0.90581417283E+03  0.15038537708E+04  0.12004486029E+04 0.  0.
        2    1    3    3  502    0  0.58272093124E+03 -0.16031259874E+02 -0.63204728605E+03  0.85982815539E+03  0.25500000920E-02 0. -1.
       -2    1    3    3    0  502 -0.58272093124E+03  0.16031259874E+02 -0.27376688678E+03  0.64402561541E+03  0.25500000920E-02 0.  1.
</event>
<event>
 5   0  0.1541375E-04  0.1198120E+04  0.7818609E-02  0.9114504E-01
        3   -1    0    0  501    0  0.00000000000E+00  0.00000000000E+00  0.29939080635E+03  0.29939082339E+03  0.10100000352E+00 0. -1.
       -3   -1    0    0    0  501  0.00000000000E+00  0.00000000000E+00 -0.11986768468E+04  0.11986768511E+04  0.10100000352E+00 0.  1.
    10030    2    1    2    0    0  0.00000000000E+00  0.00000000000E+00 -0.89928604045E+03  0.14980676744E+04  0.11981199333E+04 0.  0.
        4    1    3    3  502    0 -0.43622252515E+03  0.31809784849E+03 -0.12504590958E+03  0.55417905506E+03  0.12699999809E+01 0. -1.
       -4    1    3    3    0  502  0.43622252515E+03 -0.31809784849E+03 -0.77424013087E+03  0.94388861939E+03  0.12699999809E+01 0.  1.
</event>
<event>
 5   0  0.1541375E-04  0.1199034E+04  0.7818609E-02  0.9113702E-01
        4   -1    0    0  501    0  0.00000000000E+00  0.00000000000E+00  0.88661652001E+03  0.88661742959E+03  0.12699999809E+01 0. -1.
       -4   -1    0    0    0  501  0.00000000000E+00  0.00000000000E+00 -0.40538268150E+03  0.40538467085E+03  0.12699999809E+01 0.  1.
    10030    2    1    2    0    0  0.00000000000E+00  0.00000000000E+00  0.48123383851E+03  0.12920021004E+04  0.11990343699E+04 0.  0.
        1    1    3    3  502    0 -0.14208469145E+03  0.57535843122E+03  0.14306887892E+03  0.60966719451E+03  0.50400001928E-02 0.  1.
       -1    1    3    3    0  502  0.14208469145E+03 -0.57535843122E+03  0.33816495959E+03  0.68233490593E+03  0.50400001928E-02 0. -1.
</event>
<event>
 5   0  0.4122956E-04  0.1202016E+04  0.7818609E-02  0.9111094E-01
       -2   -1    0    0    0  501  0.00000000000E+00  0.00000000000E+00  0.36645634452E+03  0.36645634453E+03  0.25500000920E-02 0. -1.
        2   -1    0    0  501    0  0.00000000000E+00  0.00000000000E+00 -0.98568531292E+03  0.98568531292E+03  0.25500000920E-02 0.  1.
    10030    2    1    2    0    0  0.00000000000E+00  0.00000000000E+00 -0.61922896840E+03  0.13521416574E+04  0.12020160342E+04 0.  0.
        5    1    3    3  502    0  0.31453878844E+03  0.20614305331E+03  0.21771882747E+03  0.43457241709E+03  0.46999998093E+01 0. -1.
       -5    1    3    3    0  502 -0.31453878844E+03 -0.20614305331E+03 -0.83694779586E+03  0.91756924036E+03  0.46999998093E+01 0.  1.
</event>
<event>
 5   0  0.2315038E-04  0.1200016E+04  0.7818609E-02  0.9112842E-01
        1   -1    0    0  501    0  0.00000000000E+00  0.00000000000E+00  0.11800017224E+04  0.11800017225E+04  0.50400001928E-02 0.  1.
       -1   -1    0    0    0  501  0.00000000000E+00  0.00000000000E+00 -0.30509262597E+03  0.30509262601E+03  0.50400001928E-02 0. -1.
    10030    2    1    2    0    0  0.00000000000E+00  0.00000000000E+00  0.87490909647E+03  0.14850943485E+04  0.12000163735E+04 0.  0.
        1    1    3    3  502    0  0.46897906764E+03 -0.28001246042E+03  0.13014656192E+03  0.56150375909E+03  0.50400001928E-02 0. -1.
       -1    1    3    3    0  502 -0.46897906764E+03  0.28001246042E+03  0.74476253455E+03  0.92359058936E+03  0.50400001928E-02 0.  1.
</event>
<event>
 5   0  0.4122956E-04  0.1198115E+04  0.7818609E-02  0.9114508E-01
        2   -1    0    0  501    0  0.00000000000E+00  0.00000000000E+00  0.57580146868E+03  0.57580146869E+03  0.25500000920E-02 0. -1.
       -2   -1    0    0    0  501  0.00000000000E+00  0.00000000000E+00 -0.62325261661E+03  0.62325261661E+03  0.25500000920E-02 0.  1.
    10030    2    1    2    0    0  0.00000000000E+00  0.00000000000E+00 -0.47451147928E+02  0.11990540853E+04  0.11981148059E+04 0.  0.
        5    1    3    3  502    0 -0.46046946184E+03  0.28201295894E+03  0.23586985355E+03  0.58925386050E+03  0.46999998093E+01 0.  1.
       -5    1    3    3    0  502  0.46046946184E+03 -0.28201295894E+03 -0.28332100148E+03  0.60980022481E+03  0.46999998093E+01 0. -1.
</event>
<event>
 5   0  0.2340731E-04  0.1193349E+04  0.7818609E-02  0.9118698E-01
        1   -1    0    0  501    0  0.00000000000E+00  0.00000000000E+00  0.10847423225E+04  0.10847423225E+04  0.50400001928E-02 0.  1.
       -1   -1    0    0    0  501  0.00000000000E+00  0.00000000000E+00 -0.32820750785E+03  0.32820750789E+03  0.50400001928E-02 0. -1.
    10030    2    1    2    0    0  0.00000000000E+00  0.00000000000E+00  0.75653481462E+03  0.14129498304E+04  0.11933491934E+04 0.  0.
        3    1    3    3  502    0  0.41694891428E+03  0.15799050839E+03 -0.91198063045E+02  0.45510932177E+03  0.10100000352E+00 0. -1.
       -3    1    3    3    0  502 -0.41694891428E+03 -0.15799050839E+03  0.84773287767E+03  0.95784050861E+03  0.10100000352E+00 0.  1.
</event>
<event>
 5   0  0.3832662E-04  0.1199761E+04  0.7818609E-02  0.9113066E-01
        2   -1    0    0  501    0  0.00000000000E+00  0.00000000000E+00  0.25703592460E+04  0.25703592460E+04  0.25500000920E-02 0.  1.
       -2   -1    0    0    0  501  0.00000000000E+00  0.00000000000E+00 -0.14000252107E+03  0.14000252110E+03  0.25500000920E-02 0. -1.
    10030    2    1    2    0    0  0.00000000000E+00  0.00000000000E+00  0.24303567249E+04  0.27103617671E+04  0.11997612672E+04 0.  0.
        4    1    3    3  502    0 -0.81703483239E+02  0.27240301088E+03  0.21970567180E+02  0.28524231494E+03  0.12699999809E+01 0. -1.
       -4    1    3    3    0  502  0.81703483239E+02 -0.27240301088E+03  0.24083861578E+04  0.24251194522E+04  0.12699999809E+01 0.  1.
</event>
<event>
 5   0  0.2304842E-04  0.1200137E+04  0.7818609E-02  0.9112736E-01
        1   -1    0    0  501    0  0.00000000000E+00  0.00000000000E+00  0.21161522152E+04  0.21161522152E+04  0.50400001928E-02 0.  1.
       -1   -1    0    0    0  501  0.00000000000E+00  0.00000000000E+00 -0.17015902987E+03  0.17015902994E+03  0.50400001928E-02 0. -1.
    10030    2    1    2    0    0  0.00000000000E+00  0.00000000000E+00  0.19459931854E+04  0.22863112452E+04  0.12001373389E+04 0.  0.
        4    1    3    3  502    0 -0.22134150899E+03  0.35673591639E+03  0.15620644100E+03  0.44794491040E+03  0.12699999809E+01 0. -1.
       -4    1    3    3    0  502  0.22134150899E+03 -0.35673591639E+03  0.17897867444E+04  0.18383663348E+04  0.12699999809E+01 0.  1.
</event>
<event>
 5   0  0.3832662E-04  0.1202010E+04  0.7818609E-02  0.9111099E-01
        2   -1    0    0  501    0  0.00000000000E+00  0.00000000000E+00  0.20926215034E+04  0.20926215034E+04  0.25500000920E-02 0.  1.
       -2   -1    0    0    0  501  0.00000000000E+00  0.00000000000E+00 -0.17260968868E+03  0.17260968870E+03  0.25500000920E-02 0. -1.
    10030    2    1    2    0    0  0.00000000000E+00  0.00000000000E+00  0.19200118147E+04  0.22652311921E+04  0.12020095611E+04 0.  0.
        4    1    3    3  502    0 -0.46099001544E+03  0.28041532183E+03  0.14588231929E+04  0.15554135360E+04  0.12699999809E+01 0.  1.
       -4    1    3    3    0  502  0.46099001544E+03 -0.28041532183E+03  0.46118862183E+03  0.70981765606E+03  0.12699999809E+01 0. -1.
</event>
<event>
 5   0  0.3883890E-04  0.1199035E+04  0.7818609E-02  0.9113702E-01
        2   -1    0    0  501    0  0.00000000000E+00  0.00000000000E+00  0.13545981921E+04  0.13545981921E+04  0.25500000920E-02 0. -1.
       -2   -1    0    0    0  501  0.00000000000E+00  0.00000000000E+00 -0.26533418918E+03  0.26533418919E+03  0.25500000920E-02 0.  1.
    10030    2    1    2    0    0  0.00000000000E+00  0.00000000000E+00  0.10892640029E+04  0.16199323813E+04  0.11990349669E+04 0.  0.
        2    1    3    3  502    0  0.19457492664E+03  0.34158818431E+03  0.11561568430E+04  0.12211635989E+04  0.25500000920E-02 0. -1.
       -2    1    3    3    0  502 -0.19457492664E+03 -0.34158818431E+03 -0.66892840068E+02  0.39876878237E+03  0.25500000920E-02 0.  1.
</event>
<event>
 5   0  0.2315038E-04  0.1201806E+04  0.7818609E-02  0.9111277E-01
        1   -1    0    0  501    0  0.00000000000E+00  0.00000000000E+00  0.11816243803E+04  0.11816243803E+04  0.50400001928E-02 0.  1.
       -1   -1    0    0    0  501  0.00000000000E+00  0.00000000000E+00 -0.30558326179E+03  0.30558326183E+03  0.50400001928E-02 0. -1.
    10030    2    1    2    0    0  0.00000000000E+00  0.00000000000E+00  0.87604111853E+03  0.14872076422E+04  0.12018063611E+04 0.  0.
        1    1    3    3  502    0 -0.59333257555E+03  0.69000924151E+02  0.51897803261E+03  0.79129190006E+03  0.50400001928E-02 0.  1.
       -1    1    3    3    0  502  0.59333257555E+03 -0.69000924151E+02  0.35706308592E+03  0.69591574209E+03  0.50400001928E-02 0. -1.
</event>
<event>
 5   0  0.2244308E-04  0.1199039E+04  0.7818609E-02  0.9113698E-01
       -1   -1    0    0    0  501  0.00000000000E+00  0.00000000000E+00  0.72842452579E+03  0.72842452581E+03  0.50400001928E-02 0.  1.
        1   -1    0    0  501    0  0.00000000000E+00  0.00000000000E+00 -0.49342635776E+03  0.49342635778E+03  0.50400001928E-02 0. -1.
    10030    2    1    2    0    0  0.00000000000E+00  0.00000000000E+00  0.23499816804E+03  0.12218508836E+04  0.11990393833E+04 0.  0.
        5    1    3    3  502    0 -0.24272362183E+03 -0.28879091560E+03  0.59228900258E+03  0.70224162658E+03  0.46999998093E+01 0.  1.
       -5    1    3    3    0  502  0.24272362183E+03  0.28879091560E+03 -0.35729083454E+03  0.51960925701E+03  0.46999998093E+01 0. -1.
</event>
<event>
 5   0  0.2315038E-04  0.1199131E+04  0.7818609E-02  0.9113618E-01
       -1   -1    0    0    0  501  0.00000000000E+00  0.00000000000E+00  0.56832384185E+03  0.56832384187E+03  0.50400001928E-02 0. -1.
        1   -1    0    0  501    0  0.00000000000E+00  0.00000000000E+00 -0.63252453377E+03  0.63252453379E+03  0.50400001928E-02 0.  1.
    10030    2    1    2    0    0  0.00000000000E+00  0.00000000000E+00 -0.64200691918E+02  0.12008483757E+04  0.11991309739E+04 0.  0.
        1    1    3    3  502    0 -0.30451814638E+03  0.13993067324E+03 -0.52997118539E+03  0.62704174674E+03  0.50400001928E-02 0.  1.
       -1    1    3    3    0  502  0.30451814638E+03 -0.13993067324E+03  0.46577049347E+03  0.57380662892E+03  0.50400001928E-02 0. -1.
</event>
<event>
 5   0  0.4122956E-04  0.1200272E+04  0.7818609E-02  0.9112618E-01
        2   -1    0    0  501    0  0.00000000000E+00  0.00000000000E+00  0.18395383259E+04  0.18395383259E+04  0.25500000920E-02 0. -1.
       -2   -1    0    0    0  501  0.00000000000E+00  0.00000000000E+00 -0.19579012875E+03  0.19579012876E+03  0.25500000920E-02 0.  1.
    10030    2    1    2    0    0  0.00000000000E+00  0.00000000000E+00  0.16437481971E+04  0.20353284547E+04  0.12002723786E+04 0.  0.
        5    1    3    3  502    0 -0.17870276807E+03  0.47865725367E+03  0.28807458404E+03  0.58656329733E+03  0.46999998093E+01 0.  1.
       -5    1    3    3    0  502  0.17870276807E+03 -0.47865725367E+03  0.13556736131E+04  0.14487651573E+04  0.46999998093E+01 0. -1.
</event>
<event>
 5   0  0.3993723E-04  0.1201063E+04  0.7818609E-02  0.9111926E-01
        2   -1    0    0  501    0  0.00000000000E+00  0.00000000000E+00  0.98699938877E+03  0.98699938877E+03  0.25500000920E-02 0. -1.
       -2   -1    0    0    0  501  0.00000000000E+00  0.00000000000E+00 -0.36538845273E+03  0.36538845274E+03  0.25500000920E-02 0.  1.
    10030    2    1    2    0    0  0.00000000000E+00  0.00000000000E+00  0.62161093604E+03  0.13523878415E+04  0.12010631616E+04 0.  0.
        3    1    3    3  502    0 -0.23945469786E+03  0.16739690426E+03 -0.27996813109E+03  0.40465101076E+03  0.10100000352E+00 0.  1.
       -3    1    3    3    0  502  0.23945469786E+03 -0.16739690426E+03  0.90157906713E+03  0.94773683075E+03  0.10100000352E+00 0. -1.
</event>
<event>
 5   0  0.3993723E-04  0.1203534E+04  0.7818609E-02  0.9109769E-01
        2   -1    0    0  501    0  0.00000000000E+00  0.00000000000E+00  0.45745220633E+03  0.45745220634E+03  0.25500000920E-02 0.  1.
       -2   -1    0    0    0  501  0.00000000000E+00  0.00000000000E+00 -0.79160948383E+03  0.79160948384E+03  0.25500000920E-02 0. -1.
    10030    2    1    2    0    0  0.00000000000E+00  0.00000000000E+00 -0.33415727750E+03  0.12490616902E+04  0.12035339712E+04 0.  0.
        3    1    3    3  502    0 -0.19277205342E+03  0.52667748111E+03  0.59285171911E+02  0.56397249533E+03  0.10100000352E+00 0.  1.
       -3    1    3    3    0  502  0.19277205342E+03 -0.52667748111E+03 -0.39344244941E+03  0.68508919484E+03  0.10100000352E+00 0. -1.
</event>
<event>
 5   0  0.2204090E-04  0.1201227E+04  0.7818609E-02  0.9111783E-01
        1   -1    0    0  501    0  0.00000000000E+00  0.00000000000E+00  0.37220071651E+03  0.37220071654E+03  0.50400001928E-02 0. -1.
       -1   -1    0    0    0  501  0.00000000000E+00  0.00000000000E+00 -0.96919874639E+03  0.96919874641E+03  0.50400001928E-02 0.  1.
    10030    2    1    2    0    0  0.00000000000E+00  0.00000000000E+00 -0.59699802988E+03  0.13413994630E+04  0.12012268193E+04 0.  0.
        2    1    3    3  502    0 -0.49004266013E+03 -0.33945819772E+03 -0.38027552066E+03  0.70709486518E+03  0.25500000920E-02 0.  1.
       -2    1    3    3    0  502  0.49004266013E+03  0.33945819772E+03 -0.21672250923E+03  0.63430459777E+03  0.25500000920E-02 0. -1.
</event>
<event>
 5   0  0.3832662E-04  0.1203543E+04  0.7818609E-02  0.9109761E-01
        2   -1    0    0  501    0  0.00000000000E+00  0.00000000000E+00  0.74260630867E+03  0.74260630867E+03  0.25500000920E-02 0.  1.
       -2   -1    0    0    0  501  0.00000000000E+00  0.00000000000E+00 -0.48764626842E+03  0.48764626843E+03  0.25500000920E-02 0. -1.
    10030    2    1    2    0    0  0.00000000000E+00  0.00000000000E+00  0.25496004025E+03  0.12302525771E+04  0.12035434273E+04 0.  0.
        4    1    3    3  502    0 -0.50377444980E+03 -0.26942178224E+03  0.32075486613E+03  0.65518095979E+03  0.12699999809E+01 0.  1.
       -4    1    3    3    0  502  0.50377444980E+03  0.26942178224E+03 -0.65794825878E+02  0.57507161731E+03  0.12699999809E+01 0. -1.
</event>
<event>
 5   0  0.2315038E-04  0.1200673E+04  0.7818609E-02  0.9112268E-01
        1   -1    0    0  501    0  0.00000000000E+00  0.00000000000E+00  0.17195337217E+04  0.17195337217E+04  0.50400001928E-02 0.  1.
       -1   -1    0    0    0  501  0.00000000000E+00  0.00000000000E+00 -0.20959391291E+03  0.20959391297E+03  0.50400001928E-02 0. -1.
    10030    2    1    2    0    0  0.00000000000E+00  0.00000000000E+00  0.15099398088E+04  0.19291276347E+04  0.12006728133E+04 0.  0.
        1    1    3    3  502    0  0.11763328309E+02 -0.59976650165E+03  0.71744141980E+03  0.93519004661E+03  0.50400001928E-02 0.  1.
       -1    1    3    3    0  502 -0.11763328309E+02  0.59976650165E+03  0.79249838896E+03  0.99393758805E+03  0.50400001928E-02 0. -1.
</event>
<event>
 5   0  0.3993723E-04  0.1201184E+04  0.7818609E-02  0.9111821E-01
        2   -1    0    0  501    0  0.00000000000E+00  0.00000000000E+00  0.15193358495E+04  0.15193358495E+04  0.25500000920E-02 0.  1.
       -2   -1    0    0    0  501  0.00000000000E+00  0.00000000000E+00 -0.23741339346E+03  0.23741339347E+03  0.25500000920E-02 0. -1.
    10030    2    1    2    0    0  0.00000000000E+00  0.00000000000E+00  0.12819224561E+04  0.17567492430E+04  0.12011838824E+04 0.  0.
        3    1    3    3  502    0  0.48502199611E+03  0.27617257893E+03  0.96533976293E+03  0.11150777992E+04  0.10100000352E+00 0.  1.
       -3    1    3    3    0  502 -0.48502199611E+03 -0.27617257893E+03  0.31658269316E+03  0.64167144387E+03  0.10100000352E+00 0. -1.
</event>
<event>
 5   0  0.2315038E-04  0.1206044E+04  0.7818609E-02  0.9107583E-01
        1   -1    0    0  501    0  0.00000000000E+00  0.00000000000E+00  0.88384090484E+03  0.88384090486E+03  0.50400001928E-02 0.  1.
       -1   -1    0    0    0  501  0.00000000000E+00  0.00000000000E+00 -0.41142633856E+03  0.41142633859E+03  0.50400001928E-02 0. -1.
    10030    2    1    2    0    0  0.00000000000E+00  0.00000000000E+00  0.47241456628E+03  0.12952672435E+04  0.12060438257E+04 0.  0.
        1    1    3    3  502    0 -0.48979152159E+03 -0.59585007226E+02 -0.13612374651E+03  0.51183569834E+03  0.50400001928E-02 0. -1.
       -1    1    3    3    0  502  0.48979152159E+03  0.59585007226E+02  0.60853831279E+03  0.78343154511E+03  0.50400001928E-02 0.  1.
</event>
<event>
 5   0  0.4122956E-04  0.1198846E+04  0.7818609E-02  0.9113868E-01
       -2   -1    0    0    0  501  0.00000000000E+00  0.00000000000E+00  0.77146528238E+03  0.77146528238E+03  0.25500000920E-02 0.  1.
        2   -1    0    0  501    0  0.00000000000E+00  0.00000000000E+00 -0.46574711746E+03  0.46574711747E+03  0.25500000920E-02 0. -1.
    10030    2    1    2    0    0  0.00000000000E+00  0.00000000000E+00  0.30571816492E+03  0.12372123998E+04  0.11988456640E+04 0.  0.
        5    1    3    3  502    0 -0.43399383942E+02 -0.48124655592E+03 -0.21318047176E+03  0.52815694415E+03  0.46999998093E+01 0. -1.
       -5    1    3    3    0  502  0.43399383942E+02  0.48124655592E+03  0.51889863668E+03  0.70905545570E+03  0.46999998093E+01 0.  1.
</event>
<event>
 5   0  0.1541375E-04  0.1199363E+04  0.7818609E-02  0.9113414E-01
       -3   -1    0    0    0  501  0.00000000000E+00  0.00000000000E+00  0.29377928872E+03  0.29377930608E+03  0.10100000352E+00 0.  1.
        3   -1    0    0  501    0  0.00000000000E+00  0.00000000000E+00 -0.12241098816E+04  0.12241098858E+04  0.10100000352E+00 0. -1.
    10030    2    1    2    0    0  0.00000000000E+00  0.00000000000E+00 -0.93033059289E+03  0.15178891919E+04  0.11993634089E+04 0.  0.
        2    1    3    3  502    0  0.45113854283E+03 -0.23835304361E+03 -0.86393314261E+03  0.10033536929E+04  0.25500000920E-02 0. -1.
       -2    1    3    3    0  502 -0.45113854283E+03  0.23835304361E+03 -0.66397450275E+02  0.51453549891E+03  0.25500000920E-02 0.  1.
</event>
<event>
 5   0  0.2204090E-04  0.1194658E+04  0.7818609E-02  0.9117545E-01
        1   -1    0    0  501    0  0.00000000000E+00  0.00000000000E+00  0.20813312674E+04  0.20813312674E+04  0.50400001928E-02 0. -1.
       -1   -1    0    0    0  501  0.00000000000E+00  0.00000000000E+00 -0.17142973327E+03  0.17142973334E+03  0.50400001928E-02 0.  1.
    10030    2    1    2    0    0  0.00000000000E+00  0.00000000000E+00  0.19099015342E+04  0.22527610008E+04  0.11946582174E+04 0.  0.
        2    1    3    3  502    0  0.54379397685E+03 -0.18462063894E+03  0.64506851215E+03  0.86366084487E+03  0.25500000920E-02 0. -1.
       -2    1    3    3    0  502 -0.54379397685E+03  0.18462063894E+03  0.12648330220E+04  0.13891001559E+04  0.25500000920E-02 0.  1.
</event>
<event>
 5   0  0.3883890E-04  0.1201141E+04  0.7818609E-02  0.9111858E-01
        2   -1    0    0  501    0  0.00000000000E+00  0.00000000000E+00  0.65192884916E+03  0.65192884916E+03  0.25500000920E-02 0. -1.
       -2   -1    0    0    0  501  0.00000000000E+00  0.00000000000E+00 -0.55325816910E+03  0.55325816911E+03  0.25500000920E-02 0.  1.
    10030    2    1    2    0    0  0.00000000000E+00  0.00000000000E+00  0.98670680059E+02  0.12051870183E+04  0.12011410600E+04 0.  0.
        2    1    3    3  502    0  0.44946454406E+03 -0.39828420111E+03  0.43291741914E+02  0.60209870963E+03  0.25500000920E-02 0.  1.
       -2    1    3    3    0  502 -0.44946454406E+03  0.39828420111E+03  0.55378938144E+02  0.60308830864E+03  0.25500000920E-02 0. -1.
</event>
<event>
 5   0  0.3993723E-04  0.1188521E+04  0.7818609E-02  0.9122963E-01
        2   -1    0    0  501    0  0.00000000000E+00  0.00000000000E+00  0.12349731553E+04  0.12349731553E+04  0.25500000920E-02 0. -1.
       -2   -1    0    0    0  501  0.00000000000E+00  0.00000000000E+00 -0.28595424654E+03  0.28595424655E+03  0.25500000920E-02 0.  1.
    10030    2    1    2    0    0  0.00000000000E+00  0.00000000000E+00  0.94901890874E+03  0.15209274018E+04  0.11885214649E+04 0.  0.
        3    1    3    3  502    0 -0.27675275714E+03 -0.51383479185E+03  0.33127941487E+03  0.67109190341E+03  0.10100000352E+00 0. -1.
       -3    1    3    3    0  502  0.27675275714E+03  0.51383479185E+03  0.61773949388E+03  0.84983549843E+03  0.10100000352E+00 0.  1.
</event>
<event>
 5   0  0.2340731E-04  0.1199731E+04  0.7818609E-02  0.9113092E-01
        1   -1    0    0  501    0  0.00000000000E+00  0.00000000000E+00  0.50791045377E+03  0.50791045380E+03  0.50400001928E-02 0. -1.
       -1   -1    0    0    0  501  0.00000000000E+00  0.00000000000E+00 -0.70846875516E+03  0.70846875518E+03  0.50400001928E-02 0.  1.
    10030    2    1    2    0    0  0.00000000000E+00  0.00000000000E+00 -0.20055830138E+03  0.12163792090E+04  0.11997311148E+04 0.  0.
        3    1    3    3  502    0 -0.91771248782E+02 -0.39543637108E+03  0.34749031086E+03  0.53436075082E+03  0.10100000352E+00 0. -1.
       -3    1    3    3    0  502  0.91771248782E+02  0.39543637108E+03 -0.54804861224E+03  0.68201845815E+03  0.10100000352E+00 0.  1.
</event>
<event>
 5   0  0.4122956E-04  0.1198238E+04  0.7818609E-02  0.9114400E-01
        2   -1    0    0  501    0  0.00000000000E+00  0.00000000000E+00  0.10532184307E+04  0.10532184308E+04  0.25500000920E-02 0.  1.
       -2   -1    0    0    0  501  0.00000000000E+00  0.00000000000E+00 -0.34080652344E+03  0.34080652345E+03  0.25500000920E-02 0. -1.
    10030    2    1    2    0    0  0.00000000000E+00  0.00000000000E+00  0.71241190731E+03  0.13940249542E+04  0.11982382264E+04 0.  0.
        5    1    3    3  502    0  0.30199158707E+01 -0.41201377361E+03  0.86219225729E+03  0.95559512769E+03  0.46999998093E+01 0.  1.
       -5    1    3    3    0  502 -0.30199158707E+01  0.41201377361E+03 -0.14978034999E+03  0.43842982651E+03  0.46999998093E+01 0. -1.
</event>
<event>
 5   0  0.3832662E-04  0.1193086E+04  0.7818609E-02  0.9118930E-01
       -2   -1    0    0    0  501  0.00000000000E+00  0.00000000000E+00  0.32362082118E+03  0.32362082119E+03  0.25500000920E-02 0. -1.
        2   -1    0    0  501    0  0.00000000000E+00  0.00000000000E+00 -0.10996314040E+04  0.10996314040E+04  0.25500000920E-02 0.  1.
    10030    2    1    2    0    0  0.00000000000E+00  0.00000000000E+00 -0.77601058277E+03  0.14232522252E+04  0.11930861125E+04 0.  0.
        4    1    3    3  502    0  0.43170350008E+03 -0.27891143352E+03 -0.26761259099E+02  0.51466229474E+03  0.12699999809E+01 0. -1.
       -4    1    3    3    0  502 -0.43170350008E+03  0.27891143352E+03 -0.74924932367E+03  0.90858993042E+03  0.12699999809E+01 0.  1.
</event>
<event>
 5   0  0.3883890E-04  0.1197672E+04  0.7818609E-02  0.9114896E-01
        2   -1    0    0  501    0  0.00000000000E+00  0.00000000000E+00  0.13277981222E+04  0.13277981222E+04  0.25500000920E-02 0. -1.
       -2   -1    0    0    0  501  0.00000000000E+00  0.00000000000E+00 -0.27007475603E+03  0.27007475604E+03  0.25500000920E-02 0.  1.
    10030    2    1    2    0    0  0.00000000000E+00  0.00000000000E+00  0.10577233662E+04  0.15978728783E+04  0.11976723324E+04 0.  0.
        2    1    3    3  502    0  0.56400995990E+03 -0.16464701728E+03  0.37448691696E+03  0.69674695991E+03  0.25500000920E-02 0.  1.
       -2    1    3    3    0  502 -0.56400995990E+03  0.16464701728E+03  0.68323644925E+03  0.90112591837E+03  0.25500000920E-02 0. -1.
</event>
<event>
 5   0  0.1541375E-04  0.1197226E+04  0.7818609E-02  0.9115288E-01
        4   -1    0    0  501    0  0.00000000000E+00  0.00000000000E+00  0.48665516389E+03  0.48665682102E+03  0.12699999809E+01 0. -1.
       -4   -1    0    0    0  501  0.00000000000E+00  0.00000000000E+00 -0.73632415535E+03  0.73632525058E+03  0.12699999809E+01 0.  1.
    10030    2    1    2    0    0  0.00000000000E+00  0.00000000000E+00 -0.24966899145E+03  0.12229820716E+04  0.11972261867E+04 0.  0.
        5    1    3    3  502    0  0.21446764271E+03  0.14195114176E+02  0.44585918576E+03  0.49498522661E+03  0.46999998093E+01 0. -1.
       -5    1    3    3    0  502 -0.21446764271E+03 -0.14195114176E+02 -0.69552817721E+03  0.72799684500E+03  0.46999998093E+01 0.  1.
</event>
<event>
 5   0  0.3883890E-04  0.1195338E+04  0.7818609E-02  0.9116947E-01
       -2   -1    0    0    0  501  0.00000000000E+00  0.00000000000E+00  0.97644233158E+03  0.97644233158E+03  0.25500000920E-02 0. -1.
        2   -1    0    0  501    0  0.00000000000E+00  0.00000000000E+00 -0.36582648228E+03  0.36582648228E+03  0.25500000920E-02 0.  1.
    10030    2    1    2    0    0  0.00000000000E+00  0.00000000000E+00  0.61061584930E+03  0.13422688139E+04  0.11953383844E+04 0.  0.
        2    1    3    3  502    0 -0.88652370677E+02 -0.38972759943E+03 -0.19367993652E+03  0.44413822443E+03  0.25500000920E-02 0.  1.
       -2    1    3    3    0  502  0.88652370677E+02  0.38972759943E+03  0.80429578582E+03  0.89813058943E+03  0.25500000920E-02 0. -1.
</event>
<event>
 5   0  0.4122956E-04  0.1204012E+04  0.7818609E-02  0.9109352E-01
       -2   -1    0    0    0  501  0.00000000000E+00  0.00000000000E+00  0.43900758038E+03  0.43900758039E+03  0.25500000920E-02 0.  1.
        2   -1    0    0  501    0  0.00000000000E+00  0.00000000000E+00 -0.82552347753E+03  0.82552347754E+03  0.25500000920E-02 0. -1.
    10030    2    1    2    0    0  0.00000000000E+00  0.00000000000E+00 -0.38651589716E+03  0.12645310579E+04  0.12040117349E+04 0.  0.
        5    1    3    3  502    0 -0.29758869631E+01  0.42818510818E+03 -0.63765476881E+03  0.76809962698E+03  0.46999998093E+01 0. -1.
       -5    1    3    3    0  502  0.29758869631E+01 -0.42818510818E+03  0.25113887166E+03  0.49643143095E+03  0.46999998093E+01 0.  1.
</event>
<event>
 5   0  0.3832662E-04  0.1204806E+04  0.7818609E-02  0.9108660E-01
        2   -1    0    0  501    0  0.00000000000E+00  0.00000000000E+00  0.40757800456E+03  0.40757800457E+03  0.25500000920E-02 0.  1.
       -2   -1    0    0    0  501  0.00000000000E+00  0.00000000000E+00 -0.89035561864E+03  0.89035561864E+03  0.25500000920E-02 0. -1.
    10030    2    1    2    0    0  0.00000000000E+00  0.00000000000E+00 -0.48277761408E+03  0.12979336232E+04  0.12048059867E+04 0.  0.
        4    1    3    3  502    0 -0.34784377819E+03  0.37692308488E+03  0.98978076289E+02  0.52236441152E+03  0.12699999809E+01 0.  1.
       -4    1    3    3    0  502  0.34784377819E+03 -0.37692308488E+03 -0.58175569037E+03  0.77556921169E+03  0.12699999809E+01 0. -1.
</event>
<event>
 5   0  0.3883890E-04  0.1199609E+04  0.7818609E-02  0.9113199E-01
       -2   -1    0    0    0  501  0.00000000000E+00  0.00000000000E+00  0.21156508662E+03  0.21156508664E+03  0.25500000920E-02 0. -1.
        2   -1    0    0  501    0  0.00000000000E+00  0.00000000000E+00 -0.17004963365E+04  0.17004963365E+04  0.25500000920E-02 0.  1.
    10030    2    1    2    0    0  0.00000000000E+00  0.00000000000E+00 -0.14889312498E+04  0.19120614231E+04  0.11996093610E+04 0.  0.
        2    1    3    3  502    0 -0.47204803739E+03 -0.18980356051E+03 -0.23813865353E+03  0.56175151045E+03  0.25500000920E-02 0. -1.
       -2    1    3    3    0  502  0.47204803739E+03  0.18980356051E+03 -0.12507925963E+04  0.13503099126E+04  0.25500000920E-02 0.  1.
</event>
<event>
 5   0  0.4122956E-04  0.1199864E+04  0.7818609E-02  0.9112976E-01
       -2   -1    0    0    0  501  0.00000000000E+00  0.00000000000E+00  0.81064282720E+03  0.81064282721E+03  0.25500000920E-02 0. -1.
        2   -1    0    0  501    0  0.00000000000E+00  0.00000000000E+00 -0.44399130139E+03  0.44399130140E+03  0.25500000920E-02 0.  1.
    10030    2    1    2    0    0  0.00000000000E+00  0.00000000000E+00  0.36665152581E+03  0.12546341286E+04  0.11998639320E+04 0.  0.
        5    1    3    3  502    0  0.28151708358E+03 -0.49708553091E+03 -0.82029203678E+01  0.57134514200E+03  0.46999998093E+01 0.  1.
       -5    1    3    3    0  502 -0.28151708358E+03  0.49708553091E+03  0.37485444618E+03  0.68328898660E+03  0.46999998093E+01 0. -1.
</event>
<event>
 5   0  0.2315038E-04  0.1199986E+04  0.7818609E-02  0.9112869E-01
        1   -1    0    0  501    0  0.00000000000E+00  0.00000000000E+00  0.75426509200E+03  0.75426509201E+03  0.50400001928E-02 0. -1.
       -1   -1    0    0    0  501  0.00000000000E+00  0.00000000000E+00 -0.47727427959E+03  0.47727427961E+03  0.50400001928E-02 0.  1.
    10030    2    1    2    0    0  0.00000000000E+00  0.00000000000E+00  0.27699081241E+03  0.12315393716E+04  0.11999855473E+04 0.  0.
        1    1    3    3  502    0  0.19036122708E+03  0.38858609924E+03 -0.28807165351E+03  0.51982865531E+03  0.50400001928E-02 0.  1.
       -1    1    3    3    0  502 -0.19036122708E+03 -0.38858609924E+03  0.56506246592E+03  0.71171071632E+03  0.50400001928E-02 0. -1.
</event>
<event>
 5   0  0.3993723E-04  0.1198855E+04  0.7818609E-02  0.9113859E-01
       -2   -1    0    0    0  501  0.00000000000E+00  0.00000000000E+00  0.61634493353E+03  0.61634493354E+03  0.25500000920E-02 0.  1.
        2   -1    0    0  501    0  0.00000000000E+00  0.00000000000E+00 -0.58297464696E+03  0.58297464697E+03  0.25500000920E-02 0. -1.
    10030    2    1    2    0    0  0.00000000000E+00  0.00000000000E+00  0.33370286573E+02  0.11993195805E+04  0.11988552374E+04 0.  0.
        3    1    3    3  502    0  0.31236473075E+03 -0.49409625885E+03  0.14944156091E+03  0.60335365115E+03  0.10100000352E+00 0.  1.
       -3    1    3    3    0  502 -0.31236473075E+03  0.49409625885E+03 -0.11607127434E+03  0.59596592936E+03  0.10100000352E+00 0. -1.
</event>
<event>
 5   0  0.2315038E-04  0.1200573E+04  0.7818609E-02  0.9112355E-01
        1   -1    0    0  501    0  0.00000000000E+00  0.00000000000E+00  0.16523213940E+04  0.16523213941E+04  0.50400001928E-02 0.  1.
       -1   -1    0    0    0  501  0.00000000000E+00  0.00000000000E+00 -0.21808336822E+03  0.21808336827E+03  0.50400001928E-02 0. -1.
    10030    2    1    2    0    0  0.00000000000E+00  0.00000000000E+00  0.14342380258E+04  0.18704047623E+04  0.12005728883E+04 0.  0.
        1    1    3    3  502    0 -0.26543594657E+03 -0.47040276561E+03  0.11251912188E+04  0.12481146912E+04  0.50400001928E-02 0.  1.
       -1    1    3    3    0  502  0.26543594657E+03  0.47040276561E+03  0.30904680707E+03  0.62229007112E+03  0.50400001928E-02 0. -1.
</event>
<event>
 5   0  0.3883890E-04  0.1201328E+04  0.7818609E-02  0.9111695E-01
        2   -1    0    0  501    0  0.00000000000E+00  0.00000000000E+00  0.50990170521E+03  0.50990170521E+03  0.25500000920E-02 0. -1.
       -2   -1    0    0    0  501  0.00000000000E+00  0.00000000000E+00 -0.70758211874E+03  0.70758211874E+03  0.25500000920E-02 0.  1.
    10030    2    1    2    0    0  0.00000000000E+00  0.00000000000E+00 -0.19768041353E+03  0.12174838240E+04  0.12013281466E+04 0.  0.
        2    1    3    3  502    0  0.55720799910E+03 -0.18820043520E+03 -0.22253557749E+03  0.62882608193E+03  0.25500000920E-02 0.  1.
       -2    1    3    3    0  502 -0.55720799910E+03  0.18820043520E+03  0.24855163957E+02  0.58865774202E+03  0.25500000920E-02 0. -1.
</event>
<event>
 5   0  0.4122956E-04  0.1199532E+04  0.7818609E-02  0.9113266E-01
        2   -1    0    0  501    0  0.00000000000E+00  0.00000000000E+00  0.31693566603E+03  0.31693566604E+03  0.25500000920E-02 0. -1.
       -2   -1    0    0    0  501  0.00000000000E+00  0.00000000000E+00 -0.11349916397E+04  0.11349916397E+04  0.25500000920E-02 0.  1.
    10030    2    1    2    0    0  0.00000000000E+00  0.00000000000E+00 -0.81805597368E+03  0.14519273058E+04  0.11995321276E+04 0.  0.
        5    1    3    3  502    0  0.23699139796E+03  0.46148802552E+03 -0.44774361315E+02  0.52073309270E+03  0.46999998093E+01 0. -1.
       -5    1    3    3    0  502 -0.23699139796E+03 -0.46148802552E+03 -0.77328161236E+03  0.93119421305E+03  0.46999998093E+01 0.  1.
</event>
<event>
 5   0  0.2315038E-04  0.1199236E+04  0.7818609E-02  0.9113525E-01
        1   -1    0    0  501    0  0.00000000000E+00  0.00000000000E+00  0.90038171570E+03  0.90038171572E+03  0.50400001928E-02 0. -1.
       -1   -1    0    0    0  501  0.00000000000E+00  0.00000000000E+00 -0.39932164455E+03  0.39932164458E+03  0.50400001928E-02 0.  1.
    10030    2    1    2    0    0  0.00000000000E+00  0.00000000000E+00  0.50106007116E+03  0.12997033603E+04  0.11992362694E+04 0.  0.
        1    1    3    3  502    0  0.60698616115E+02 -0.14994037981E+03 -0.37522781406E+03  0.40861026904E+03  0.50400001928E-02 0.  1.
       -1    1    3    3    0  502 -0.60698616115E+02  0.14994037981E+03  0.87628788521E+03  0.89109309126E+03  0.50400001928E-02 0. -1.
</event>
<event>
 5   0  0.2304842E-04  0.1199590E+04  0.7818609E-02  0.9113215E-01
       -1   -1    0    0    0  501  0.00000000000E+00  0.00000000000E+00  0.24833657399E+03  0.24833657404E+03  0.50400001928E-02 0. -1.
        1   -1    0    0  501    0  0.00000000000E+00  0.00000000000E+00 -0.14486553628E+04  0.14486553628E+04  0.50400001928E-02 0.  1.
    10030    2    1    2    0    0  0.00000000000E+00  0.00000000000E+00 -0.12003187888E+04  0.16969919369E+04  0.11995901129E+04 0.  0.
        4    1    3    3  502    0  0.43185730522E+03  0.33944012481E+02 -0.11870224794E+04  0.12635968137E+04  0.12699999809E+01 0.  1.
       -4    1    3    3    0  502 -0.43185730522E+03 -0.33944012481E+02 -0.13296309446E+02  0.43339512319E+03  0.12699999809E+01 0. -1.
</event>
<event>
 5   0  0.2340731E-04  0.1200444E+04  0.7818609E-02  0.9112468E-01
       -1   -1    0    0    0  501  0.00000000000E+00  0.00000000000E+00  0.19871800735E+03  0.19871800741E+03  0.50400001928E-02 0. -1.
        1   -1    0    0  501    0  0.00000000000E+00  0.00000000000E+00 -0.18129534653E+04  0.18129534653E+04  0.50400001928E-02 0.  1.
    10030    2    1    2    0    0  0.00000000000E+00  0.00000000000E+00 -0.16142354579E+04  0.20116714727E+04  0.12004440847E+04 0.  0.
        3    1    3    3  502    0  0.16450681238E+03  0.15210705799E+03  0.12601453150E+03  0.25705781599E+03  0.10100000352E+00 0. -1.
       -3    1    3    3    0  502 -0.16450681238E+03 -0.15210705799E+03 -0.17402499894E+04  0.17546136567E+04  0.10100000352E+00 0.  1.
</event>
<event>
 5   0  0.1541375E-04  0.1200634E+04  0.7818609E-02  0.9112302E-01
        3   -1    0    0  501    0  0.00000000000E+00  0.00000000000E+00  0.48780722072E+03  0.48780723118E+03  0.10100000352E+00 0. -1.
       -3   -1    0    0    0  501  0.00000000000E+00  0.00000000000E+00 -0.73877643521E+03  0.73877644211E+03  0.10100000352E+00 0.  1.
    10030    2    1    2    0    0  0.00000000000E+00  0.00000000000E+00 -0.25096921448E+03  0.12265836733E+04  0.12006339829E+04 0.  0.
        2    1    3    3  502    0 -0.13793333221E+03  0.13976789145E+03 -0.70503732086E+03  0.73187313889E+03  0.25500000920E-02 0.  1.
       -2    1    3    3    0  502  0.13793333221E+03 -0.13976789145E+03  0.45406810637E+03  0.49471053440E+03  0.25500000920E-02 0. -1.
</event>
<event>
 5   0  0.2244308E-04  0.1185971E+04  0.7818609E-02  0.9125225E-01
        1   -1    0    0  501    0  0.00000000000E+00  0.00000000000E+00  0.55837933604E+03  0.55837933607E+03  0.50400001928E-02 0.  1.
       -1   -1    0    0    0  501  0.00000000000E+00  0.00000000000E+00 -0.62973664184E+03  0.62973664186E+03  0.50400001928E-02 0. -1.
    10030    2    1    2    0    0  0.00000000000E+00  0.00000000000E+00 -0.71357305793E+02  0.11881159779E+04  0.11859712104E+04 0.  0.
        5    1    3    3  502    0 -0.20621573183E+03  0.27630289929E+03 -0.51898412697E+03  0.62308493342E+03  0.46999998093E+01 0. -1.
       -5    1    3    3    0  502  0.20621573183E+03 -0.27630289929E+03  0.44762682118E+03  0.56503104450E+03  0.46999998093E+01 0.  1.
</event>
<event>
 5   0  0.2340731E-04  0.1183329E+04  0.7818609E-02  0.9127575E-01
       -1   -1    0    0    0  501  0.00000000000E+00  0.00000000000E+00  0.59591760168E+03  0.59591760170E+03  0.50400001928E-02 0. -1.
        1   -1    0    0  501    0  0.00000000000E+00  0.00000000000E+00 -0.58744210710E+03  0.58744210712E+03  0.50400001928E-02 0.  1.
    10030    2    1    2    0    0  0.00000000000E+00  0.00000000000E+00  0.84754945838E+01  0.11833597088E+04  0.11833293567E+04 0.  0.
        3    1    3    3  502    0  0.18290452049E+03 -0.16312874978E+03 -0.53429442997E+03  0.58782276301E+03  0.10100000352E+00 0.  1.
       -3    1    3    3    0  502 -0.18290452049E+03  0.16312874978E+03  0.54276992455E+03  0.59553694581E+03  0.10100000352E+00 0. -1.
</event>
<event>
 5   0  0.4122956E-04  0.1213405E+04  0.7818609E-02  0.9101203E-01
        2   -1    0    0  501    0  0.00000000000E+00  0.00000000000E+00  0.42954891128E+03  0.42954891129E+03  0.25500000920E-02 0.  1.
       -2   -1    0    0    0  501  0.00000000000E+00  0.00000000000E+00 -0.85691783408E+03  0.85691783408E+03  0.25500000920E-02 0. -1.
    10030    2    1    2    0    0  0.00000000000E+00  0.00000000000E+00 -0.42736892280E+03  0.12864667454E+04  0.12134053283E+04 0.  0.
        5    1    3    3  502    0 -0.40333797538E+03 -0.23395794209E+03 -0.62518899863E+03  0.77993667375E+03  0.46999998093E+01 0. -1.
       -5    1    3    3    0  502  0.40333797538E+03  0.23395794209E+03  0.19782007583E+03  0.50653007162E+03  0.46999998093E+01 0.  1.
</event>
<event>
 5   0  0.2244308E-04  0.1199271E+04  0.7818609E-02  0.9113495E-01
       -1   -1    0    0    0  501  0.00000000000E+00  0.00000000000E+00  0.28315377724E+03  0.28315377729E+03  0.50400001928E-02 0.  1.
        1   -1    0    0  501    0  0.00000000000E+00  0.00000000000E+00 -0.12698493268E+04  0.12698493268E+04  0.50400001928E-02 0. -1.
    10030    2    1    2    0    0  0.00000000000E+00  0.00000000000E+00 -0.98669554957E+03  0.15530031041E+04  0.11992708342E+04 0.  0.
        5    1    3    3  502    0  0.37311624005E+03  0.51829840691E+02 -0.10974673333E+04  0.11603269792E+04  0.46999998093E+01 0. -1.
       -5    1    3    3    0  502 -0.37311624005E+03 -0.51829840691E+02  0.11077178376E+03  0.39267612489E+03  0.46999998093E+01 0.  1.
</event>
<event>
 5   0  0.4122956E-04  0.1200812E+04  0.7818609E-02  0.9112147E-01
       -2   -1    0    0    0  501  0.00000000000E+00  0.00000000000E+00  0.21166129063E+03  0.21166129064E+03  0.25500000920E-02 0.  1.
        2   -1    0    0  501    0  0.00000000000E+00  0.00000000000E+00 -0.17031317893E+04  0.17031317893E+04  0.25500000920E-02 0. -1.
    10030    2    1    2    0    0  0.00000000000E+00  0.00000000000E+00 -0.14914704987E+04  0.19147930800E+04  0.12008115134E+04 0.  0.
        5    1    3    3  502    0  0.15106921087E+03  0.11341293251E+02  0.18065332990E+03  0.23581400936E+03  0.46999998093E+01 0.  1.
       -5    1    3    3    0  502 -0.15106921087E+03 -0.11341293251E+02 -0.16721238286E+04  0.16789790706E+04  0.46999998093E+01 0. -1.
</event>
<event>
 5   0  0.2304842E-04  0.1200916E+04  0.7818609E-02  0.9112055E-01
       -1   -1    0    0    0  501  0.00000000000E+00  0.00000000000E+00  0.12823546432E+04  0.12823546432E+04  0.50400001928E-02 0.  1.
        1   -1    0    0  501    0  0.00000000000E+00  0.00000000000E+00 -0.28116246349E+03  0.28116246354E+03  0.50400001928E-02 0. -1.
    10030    2    1    2    0    0  0.00000000000E+00  0.00000000000E+00  0.10011921797E+04  0.15635171067E+04  0.12009163012E+04 0.  0.
        4    1    3    3  502    0 -0.57326090044E+03 -0.72088221355E+02  0.71342833575E+03  0.91804486534E+03  0.12699999809E+01 0.  1.
       -4    1    3    3    0  502  0.57326090044E+03  0.72088221355E+02  0.28776384396E+03  0.64547224140E+03  0.12699999809E+01 0. -1.
</event>
<event>
 5   0  0.2244308E-04  0.1231902E+04  0.7818609E-02  0.9085382E-01
        1   -1    0    0  501    0  0.00000000000E+00  0.00000000000E+00  0.68262105484E+03  0.68262105485E+03  0.50400001928E-02 0.  1.
       -1   -1    0    0    0  501  0.00000000000E+00  0.00000000000E+00 -0.55579234401E+03  0.55579234403E+03  0.50400001928E-02 0. -1.
    10030    2    1    2    0    0  0.00000000000E+00  0.00000000000E+00  0.12682871083E+03  0.12384133989E+04  0.12319018730E+04 0.  0.
        5    1    3    3  502    0  0.44619463984E+03  0.31487399141E+03  0.34976763083E+03  0.64853278457E+03  0.46999998093E+01 0.  1.
       -5    1    3    3    0  502 -0.44619463984E+03 -0.31487399141E+03 -0.22293892000E+03  0.58988061431E+03  0.46999998093E+01 0. -1.
</event>
<event>
 5   0  0.3993723E-04  0.1208289E+04  0.7818609E-02  0.9105632E-01
        2   -1    0    0  501    0  0.00000000000E+00  0.00000000000E+00  0.77738095573E+03  0.77738095574E+03  0.25500000920E-02 0.  1.
       -2   -1    0    0    0  501  0.00000000000E+00  0.00000000000E+00 -0.46951285391E+03  0.46951285391E+03  0.25500000920E-02 0. -1.
    10030    2    1    2    0    0  0.00000000000E+00  0.00000000000E+00  0.30786810183E+03  0.12468938096E+04  0.12082886263E+04 0.  0.
        3    1    3    3  502    0 -0.17511095020E+03  0.52874996323E+03 -0.87529027805E+02  0.56382773026E+03  0.10100000352E+00 0. -1.
       -3    1    3    3    0  502  0.17511095020E+03 -0.52874996323E+03  0.39539712963E+03  0.68306607939E+03  0.10100000352E+00 0.  1.
</event>
<event>
 5   0  0.4122956E-04  0.1200057E+04  0.7818609E-02  0.9112806E-01
       -2   -1    0    0    0  501  0.00000000000E+00  0.00000000000E+00  0.18327735516E+03  0.18327735517E+03  0.25500000920E-02 0.  1.
        2   -1    0    0  501    0  0.00000000000E+00  0.00000000000E+00 -0.19644240470E+04  0.19644240470E+04  0.25500000920E-02 0. -1.
    10030    2    1    2    0    0  0.00000000000E+00  0.00000000000E+00 -0.17811466918E+04  0.21477014021E+04  0.12000574049E+04 0.  0.
        5    1    3    3  502    0 -0.38445644001E+03  0.44157703480E+03 -0.65575639061E+03  0.87911066752E+03  0.46999998093E+01 0.  1.
       -5    1    3    3    0  502  0.38445644001E+03 -0.44157703480E+03 -0.11253903012E+04  0.12685907346E+04  0.46999998093E+01 0. -1.
</event>
<event>
 5   0  0.2244308E-04  0.1200739E+04  0.7818609E-02  0.9112210E-01
       -1   -1    0    0    0  501  0.00000000000E+00  0.00000000000E+00  0.54328879479E+03  0.54328879482E+03  0.50400001928E-02 0. -1.
        1   -1    0    0  501    0  0.00000000000E+00  0.00000000000E+00 -0.66344759789E+03  0.66344759791E+03  0.50400001928E-02 0.  1.
    10030    2    1    2    0    0  0.00000000000E+00  0.00000000000E+00 -0.12015880310E+03  0.12067363927E+04  0.12007391822E+04 0.  0.
        5    1    3    3  502    0  0.27295838028E+03  0.18800956291E+03 -0.56314689561E+03  0.65346031949E+03  0.46999998093E+01 0.  1.
       -5    1    3    3    0  502 -0.27295838028E+03 -0.18800956291E+03  0.44298809252E+03  0.55327607324E+03  0.46999998093E+01 0. -1.
</event>
<event>
 5   0  0.3832662E-04  0.1204542E+04  0.7818609E-02  0.9108890E-01
       -2   -1    0    0    0  501  0.00000000000E+00  0.00000000000E+00  0.83375835724E+03  0.83375835725E+03  0.25500000920E-02 0.  1.
        2   -1    0    0  501    0  0.00000000000E+00  0.00000000000E+00 -0.43505486664E+03  0.43505486664E+03  0.25500000920E-02 0. -1.
    10030    2    1    2    0    0  0.00000000000E+00  0.00000000000E+00  0.39870349061E+03  0.12688132239E+04  0.12045424541E+04 0.  0.
        4    1    3    3  502    0  0.11886108681E+03 -0.44267967220E+02 -0.42082546695E+03  0.43952621926E+03  0.12699999809E+01 0. -1.
       -4    1    3    3    0  502 -0.11886108681E+03  0.44267967220E+02  0.81952895756E+03  0.82928700463E+03  0.12699999809E+01 0.  1.
</event>
<event>
 5   0  0.2315038E-04  0.1199850E+04  0.7818609E-02  0.9112987E-01
        1   -1    0    0  501    0  0.00000000000E+00  0.00000000000E+00  0.78792021050E+03  0.78792021051E+03  0.50400001928E-02 0.  1.
       -1   -1    0    0    0  501  0.00000000000E+00  0.00000000000E+00 -0.45678513555E+03  0.45678513558E+03  0.50400001928E-02 0. -1.
    10030    2    1    2    0    0  0.00000000000E+00  0.00000000000E+00  0.33113507495E+03  0.12447053461E+04  0.11998503910E+04 0.  0.
        1    1    3    3  502    0 -0.44940822755E+02  0.16163360999E+03 -0.43195574487E+03  0.46339062030E+03  0.50400001928E-02 0. -1.
       -1    1    3    3    0  502  0.44940822755E+02 -0.16163360999E+03  0.76309081982E+03  0.78131472579E+03  0.50400001928E-02 0.  1.
</event>
<event>
 5   0  0.2204090E-04  0.1200496E+04  0.7818609E-02  0.9112423E-01
       -1   -1    0    0    0  501  0.00000000000E+00  0.00000000000E+00  0.56617743103E+03  0.56617743105E+03  0.50400001928E-02 0.  1.
        1   -1    0    0  501    0  0.00000000000E+00  0.00000000000E+00 -0.63636853076E+03  0.63636853078E+03  0.50400001928E-02 0. -1.
    10030    2    1    2    0    0  0.00000000000E+00  0.00000000000E+00 -0.70191099733E+02  0.12025459618E+04  0.12004957309E+04 0.  0.
        2    1    3    3  502    0  0.58304909618E+03  0.10347259316E+03  0.63279471008E+02  0.59553095432E+03  0.25500000920E-02 0.  1.
       -2    1    3    3    0  502 -0.58304909618E+03 -0.10347259316E+03 -0.13347057074E+03  0.60701500752E+03  0.25500000920E-02 0. -1.
</event>
<event>
 5   0  0.2304842E-04  0.1200439E+04  0.7818609E-02  0.9112473E-01
        1   -1    0    0  501    0  0.00000000000E+00  0.00000000000E+00  0.79698087538E+03  0.79698087540E+03  0.50400001928E-02 0. -1.
       -1   -1    0    0    0  501  0.00000000000E+00  0.00000000000E+00 -0.45203491698E+03  0.45203491701E+03  0.50400001928E-02 0.  1.
    10030    2    1    2    0    0  0.00000000000E+00  0.00000000000E+00  0.34494595841E+03  0.12490157924E+04  0.12004385596E+04 0.  0.
        4    1    3    3  502    0  0.69729062776E+02  0.35371681354E+03 -0.32682490785E+03  0.48661469323E+03  0.12699999809E+01 0.  1.
       -4    1    3    3    0  502 -0.69729062776E+02 -0.35371681354E+03  0.67177086626E+03  0.76240109918E+03  0.12699999809E+01 0. -1.
</event>
<event>
 5   0  0.2304842E-04  0.1199545E+04  0.7818609E-02  0.9113255E-01
        1   -1    0    0  501    0  0.00000000000E+00  0.00000000000E+00  0.26766308909E+04  0.26766308909E+04  0.50400001928E-02 0. -1.
       -1   -1    0    0    0  501  0.00000000000E+00  0.00000000000E+00 -0.13439552342E+03  0.13439552352E+03  0.50400001928E-02 0.  1.
    10030    2    1    2    0    0  0.00000000000E+00  0.00000000000E+00  0.25422353675E+04  0.28110264144E+04  0.11995452634E+04 0.  0.
        4    1    3    3  502    0 -0.49268576064E+03  0.26738075068E+03  0.17709504680E+04  0.18575518559E+04  0.12699999809E+01 0. -1.
       -4    1    3    3    0  502  0.49268576064E+03 -0.26738075068E+03  0.77128489950E+03  0.95347455848E+03  0.12699999809E+01 0.  1.
</event>
<event>
 5   0  0.2315038E-04  0.1198716E+04  0.7818609E-02  0.9113981E-01
       -1   -1    0    0    0  501  0.00000000000E+00  0.00000000000E+00  0.52877966807E+03  0.52877966810E+03  0.50400001928E-02 0.  1.
        1   -1    0    0  501    0  0.00000000000E+00  0.00000000000E+00 -0.67935701278E+03  0.67935701280E+03  0.50400001928E-02 0. -1.
    10030    2    1    2    0    0  0.00000000000E+00  0.00000000000E+00 -0.15057734471E+03  0.12081366809E+04  0.11987162729E+04 0.  0.
        1    1    3    3  502    0  0.46264666561E+03 -0.13065734600E+03  0.28545844893E+03  0.55910625586E+03  0.50400001928E-02 0.  1.
       -1    1    3    3    0  502 -0.46264666561E+03  0.13065734600E+03 -0.43603579364E+03  0.64903042503E+03  0.50400001928E-02 0. -1.
</event>
<event>
 5   0  0.2244308E-04  0.1199463E+04  0.7818609E-02  0.9113327E-01
        1   -1    0    0  501    0  0.00000000000E+00  0.00000000000E+00  0.21618454769E+03  0.21618454775E+03  0.50400001928E-02 0. -1.
       -1   -1    0    0    0  501  0.00000000000E+00  0.00000000000E+00 -0.16637532141E+04  0.16637532141E+04  0.50400001928E-02 0.  1.
    10030    2    1    2    0    0  0.00000000000E+00  0.00000000000E+00 -0.14475686664E+04  0.18799377618E+04  0.11994627733E+04 0.  0.
        5    1    3    3  502    0  0.28170866141E+03  0.16504905337E+03 -0.15122156929E+04  0.15470679855E+04  0.46999998093E+01 0.  1.
       -5    1    3    3    0  502 -0.28170866141E+03 -0.16504905337E+03  0.64647026541E+02  0.33286977629E+03  0.46999998093E+01 0. -1.
</event>
<event>
 5   0  0.3832662E-04  0.1200349E+04  0.7818609E-02  0.9112551E-01
       -2   -1    0    0    0  501  0.00000000000E+00  0.00000000000E+00  0.10137928684E+04  0.10137928684E+04  0.25500000920E-02 0.  1.
        2   -1    0    0  501    0  0.00000000000E+00  0.00000000000E+00 -0.35530892537E+03  0.35530892538E+03  0.25500000920E-02 0. -1.
    10030    2    1    2    0    0  0.00000000000E+00  0.00000000000E+00  0.65848394303E+03  0.13691017938E+04  0.12003493735E+04 0.  0.
        4    1    3    3  502    0  0.43688932460E+03 -0.10640184434E+03  0.78263664384E+03  0.90261584498E+03  0.12699999809E+01 0.  1.
       -4    1    3    3    0  502 -0.43688932460E+03  0.10640184434E+03 -0.12415270081E+03  0.46648594882E+03  0.12699999809E+01 0. -1.
</event>
<event>
 5   0  0.2244308E-04  0.1200530E+04  0.7818609E-02  0.9112393E-01
       -1   -1    0    0    0  501  0.00000000000E+00  0.00000000000E+00  0.20129819740E+03  0.20129819746E+03  0.50400001928E-02 0. -1.
        1   -1    0    0  501    0  0.00000000000E+00  0.00000000000E+00 -0.17899703568E+04  0.17899703568E+04  0.50400001928E-02 0.  1.
    10030    2    1    2    0    0  0.00000000000E+00  0.00000000000E+00 -0.15886721594E+04  0.19912685543E+04  0.12005295603E+04 0.  0.
        5    1    3    3  502    0  0.51178886833E+03  0.31072448687E+03 -0.86506116530E+03  0.10520601039E+04  0.46999998093E+01 0.  1.
       -5    1    3    3    0  502 -0.51178886833E+03 -0.31072448687E+03 -0.72361099409E+03  0.93920845038E+03  0.46999998093E+01 0. -1.
</event>
<event>
 5   0  0.3832662E-04  0.1198365E+04  0.7818609E-02  0.9114289E-01
       -2   -1    0    0    0  501  0.00000000000E+00  0.00000000000E+00  0.38059813747E+03  0.38059813748E+03  0.25500000920E-02 0. -1.
        2   -1    0    0  501    0  0.00000000000E+00  0.00000000000E+00 -0.94330415143E+03  0.94330415143E+03  0.25500000920E-02 0.  1.
    10030    2    1    2    0    0  0.00000000000E+00  0.00000000000E+00 -0.56270601395E+03  0.13239022889E+04  0.11983652250E+04 0.  0.
        4    1    3    3  502    0  0.17056348269E+03  0.42945563493E+03 -0.70274812058E+03  0.84105919998E+03  0.12699999809E+01 0.  1.
       -4    1    3    3    0  502 -0.17056348269E+03 -0.42945563493E+03  0.14004210663E+03  0.48284308893E+03  0.12699999809E+01 0. -1.
</event>
<event>
 5   0  0.2315038E-04  0.1199213E+04  0.7818609E-02  0.9113546E-01
       -1   -1    0    0    0  501  0.00000000000E+00  0.00000000000E+00  0.22419560940E+03  0.22419560945E+03  0.50400001928E-02 0. -1.
        1   -1    0    0  501    0  0.00000000000E+00  0.00000000000E+00 -0.16036342276E+04  0.16036342276E+04  0.50400001928E-02 0.  1.
    10030    2    1    2    0    0  0.00000000000E+00  0.00000000000E+00 -0.13794386182E+04  0.18278298370E+04  0.11992126633E+04 0.  0.
        1    1    3    3  502    0  0.48333076035E+03  0.30598124549E+03 -0.41581141137E+03  0.70720030850E+03  0.50400001928E-02 0. -1.
       -1    1    3    3    0  502 -0.48333076035E+03 -0.30598124549E+03 -0.96362720678E+03  0.11206295285E+04  0.50400001928E-02 0.  1.
</event>
<event>
 5   0  0.1541375E-04  0.1205299E+04  0.7818609E-02  0.9108231E-01
       -3   -1    0    0    0  501  0.00000000000E+00  0.00000000000E+00  0.37295547468E+03  0.37295548835E+03  0.10100000352E+00 0.  1.
        3   -1    0    0  501    0  0.00000000000E+00  0.00000000000E+00 -0.97380614506E+03  0.97380615030E+03  0.10100000352E+00 0. -1.
    10030    2    1    2    0    0  0.00000000000E+00  0.00000000000E+00 -0.60085067039E+03  0.13467616387E+04  0.12052988771E+04 0.  0.
        3    1    3    3  502    0 -0.46510089502E+03  0.29762194578E+03 -0.30658808662E+02  0.55302589262E+03  0.10100000352E+00 0.  1.
       -3    1    3    3    0  502  0.46510089502E+03 -0.29762194578E+03 -0.57019186172E+03  0.79373574604E+03  0.10100000352E+00 0. -1.
</event>
<event>
 5   0  0.4024486E-04  0.1178529E+04  0.7818609E-02  0.9131860E-01
       -2   -1    0    0    0  501  0.00000000000E+00  0.00000000000E+00  0.38475277836E+03  0.38475277837E+03  0.25500000920E-02 0. -1.
        2   -1    0    0  501    0  0.00000000000E+00  0.00000000000E+00 -0.90248284289E+03  0.90248284290E+03  0.25500000920E-02 0.  1.
    10030    2    1    2    0    0  0.00000000000E+00  0.00000000000E+00 -0.51773006453E+03  0.12872356213E+04  0.11785292211E+04 0.  0.
        1    1    3    3  502    0 -0.37602775425E+03  0.41224708606E+03 -0.46578091622E+03  0.72684000569E+03  0.50400001928E-02 0. -1.
       -1    1    3    3    0  502  0.37602775425E+03 -0.41224708606E+03 -0.51949148314E+02  0.56039561558E+03  0.50400001928E-02 0.  1.
</event>
<event>
 5   0  0.2315038E-04  0.1199039E+04  0.7818609E-02  0.9113698E-01
        1   -1    0    0  501    0  0.00000000000E+00  0.00000000000E+00  0.16006157953E+04  0.16006157953E+04  0.50400001928E-02 0. -1.
       -1   -1    0    0    0  501  0.00000000000E+00  0.00000000000E+00 -0.22455347152E+03  0.22455347158E+03  0.50400001928E-02 0.  1.
    10030    2    1    2    0    0  0.00000000000E+00  0.00000000000E+00  0.13760623237E+04  0.18251692669E+04  0.11990393379E+04 0.  0.
        1    1    3    3  502    0  0.13759339885E+03 -0.76316823469E+02  0.15686268841E+04  0.15764981771E+04  0.50400001928E-02 0. -1.
       -1    1    3    3    0  502 -0.13759339885E+03  0.76316823469E+02 -0.19256456033E+03  0.24867108974E+03  0.50400001928E-02 0.  1.
</event>
<event>
 5   0  0.3883890E-04  0.1200299E+04  0.7818609E-02  0.9112595E-01
        2   -1    0    0  501    0  0.00000000000E+00  0.00000000000E+00  0.27188179454E+04  0.27188179454E+04  0.25500000920E-02 0. -1.
       -2   -1    0    0    0  501  0.00000000000E+00  0.00000000000E+00 -0.13247653171E+03  0.13247653174E+03  0.25500000920E-02 0.  1.
    10030    2    1    2    0    0  0.00000000000E+00  0.00000000000E+00  0.25863414137E+04  0.28512944771E+04  0.12002992490E+04 0.  0.
        2    1    3    3  502    0 -0.52085640227E+03  0.26591939827E+03  0.16134216290E+04  0.17161392342E+04  0.25500000920E-02 0. -1.
       -2    1    3    3    0  502  0.52085640227E+03 -0.26591939827E+03  0.97291978464E+03  0.11351552429E+04  0.25500000920E-02 0.  1.
</event>
<event>
 5   0  0.2315038E-04  0.1197406E+04  0.7818609E-02  0.9115130E-01
        1   -1    0    0  501    0  0.00000000000E+00  0.00000000000E+00  0.81152688322E+03  0.81152688323E+03  0.50400001928E-02 0. -1.
       -1   -1    0    0    0  501  0.00000000000E+00  0.00000000000E+00 -0.44169230920E+03  0.44169230923E+03  0.50400001928E-02 0.  1.
    10030    2    1    2    0    0  0.00000000000E+00  0.00000000000E+00  0.36983457402E+03  0.12532191925E+04  0.11974058344E+04 0.  0.
        1    1    3    3  502    0 -0.54558683352E+03  0.16966932303E+03  0.37211900540E+03  0.68185425590E+03  0.50400001928E-02 0. -1.
       -1    1    3    3    0  502  0.54558683352E+03 -0.16966932303E+03 -0.22844313852E+01  0.57136493656E+03  0.50400001928E-02 0.  1.
</event>
<event>
 5   0  0.2340731E-04  0.1200878E+04  0.7818609E-02  0.9112088E-01
        1   -1    0    0  501    0  0.00000000000E+00  0.00000000000E+00  0.92317212512E+03  0.92317212513E+03  0.50400001928E-02 0. -1.
       -1   -1    0    0    0  501  0.00000000000E+00  0.00000000000E+00 -0.39053074781E+03  0.39053074784E+03  0.50400001928E-02 0.  1.
    10030    2    1    2    0    0  0.00000000000E+00  0.00000000000E+00  0.53264137731E+03  0.13137028730E+04  0.12008781794E+04 0.  0.
        3    1    3    3  502    0  0.50875721751E+03 -0.29516539983E+03  0.39837010188E+03  0.71039092611E+03  0.10100000352E+00 0. -1.
       -3    1    3    3    0  502 -0.50875721751E+03  0.29516539983E+03  0.13427127543E+03  0.60331194687E+03  0.10100000352E+00 0.  1.
</event>
<event>
 5   0  0.2315038E-04  0.1198323E+04  0.7818609E-02  0.9114326E-01
        1   -1    0    0  501    0  0.00000000000E+00  0.00000000000E+00  0.83971671290E+03  0.83971671291E+03  0.50400001928E-02 0.  1.
       -1   -1    0    0    0  501  0.00000000000E+00  0.00000000000E+00 -0.42751825701E+03  0.42751825704E+03  0.50400001928E-02 0. -1.
    10030    2    1    2    0    0  0.00000000000E+00  0.00000000000E+00  0.41219845589E+03  0.12672349700E+04  0.11983225367E+04 0.  0.
        1    1    3    3  502    0  0.27973528226E+02  0.16982451362E+03  0.81301206895E+03  0.83103038934E+03  0.50400001928E-02 0.  1.
       -1    1    3    3    0  502 -0.27973528226E+02 -0.16982451362E+03 -0.40081361307E+03  0.43620458062E+03  0.50400001928E-02 0. -1.
</event>
<event>
 5   0  0.4122956E-04  0.1201279E+04  0.7818609E-02  0.9111737E-01
        2   -1    0    0  501    0  0.00000000000E+00  0.00000000000E+00  0.21025734855E+04  0.21025734855E+04  0.25500000920E-02 0.  1.
       -2   -1    0    0    0  501  0.00000000000E+00  0.00000000000E+00 -0.17158405180E+03  0.17158405182E+03  0.25500000920E-02 0. -1.
    10030    2    1    2    0    0  0.00000000000E+00  0.00000000000E+00  0.19309894337E+04  0.22741575373E+04  0.12012794477E+04 0.  0.
        5    1    3    3  502    0 -0.49200008433E+03 -0.88709779273E+02  0.15956837432E+04  0.16721728996E+04  0.46999998093E+01 0.  1.
       -5    1    3    3    0  502  0.49200008433E+03  0.88709779273E+02  0.33530569047E+03  0.60198463766E+03  0.46999998093E+01 0. -1.
</event>
<event>
 5   0  0.3993723E-04  0.1200550E+04  0.7818609E-02  0.9112375E-01
       -2   -1    0    0    0  501  0.00000000000E+00  0.00000000000E+00  0.33019472927E+03  0.33019472928E+03  0.25500000920E-02 0.  1.
        2   -1    0    0  501    0  0.00000000000E+00  0.00000000000E+00 -0.10912650673E+04  0.10912650673E+04  0.25500000920E-02 0. -1.
    10030    2    1    2    0    0  0.00000000000E+00  0.00000000000E+00 -0.76107033800E+03  0.14214597966E+04  0.12005498298E+04 0.  0.
        3    1    3    3  502    0 -0.55586111172E+03  0.18651720704E+03 -0.22817169206E+03  0.62915226718E+03  0.10100000352E+00 0. -1.
       -3    1    3    3    0  502  0.55586111172E+03 -0.18651720704E+03 -0.53289864595E+03  0.79230752937E+03  0.10100000352E+00 0.  1.
</event>
<event>
 5   0  0.4024486E-04  0.1203415E+04  0.7818609E-02  0.9109872E-01
        2   -1    0    0  501    0  0.00000000000E+00  0.00000000000E+00  0.36770664075E+03  0.36770664076E+03  0.25500000920E-02 0. -1.
       -2   -1    0    0    0  501  0.00000000000E+00  0.00000000000E+00 -0.98462195556E+03  0.98462195556E+03  0.25500000920E-02 0.  1.
    10030    2    1    2    0    0  0.00000000000E+00  0.00000000000E+00 -0.61691531481E+03  0.13523285963E+04  0.12034151930E+04 0.  0.
        1    1    3    3  502    0  0.32981314591E+01 -0.29390860978E+03 -0.89845864374E+03  0.94531533528E+03  0.50400001928E-02 0.  1.
       -1    1    3    3    0  502 -0.32981314591E+01  0.29390860978E+03  0.28154332893E+03  0.40701326104E+03  0.50400001928E-02 0. -1.
</event>
<event>
 5   0  0.2204090E-04  0.1199524E+04  0.7818609E-02  0.9113273E-01
       -1   -1    0    0    0  501  0.00000000000E+00  0.00000000000E+00  0.26823365458E+03  0.26823365463E+03  0.50400001928E-02 0. -1.
        1   -1    0    0  501    0  0.00000000000E+00  0.00000000000E+00 -0.13410490014E+04  0.13410490014E+04  0.50400001928E-02 0.  1.
    10030    2    1    2    0    0  0.00000000000E+00  0.00000000000E+00 -0.10728153468E+04  0.16092826560E+04  0.11995240300E+04 0.  0.
        2    1    3    3  502    0  0.32115485560E+03 -0.47703092137E+03 -0.76493527281E+03  0.95698741518E+03  0.25500000920E-02 0. -1.
       -2    1    3    3    0  502 -0.32115485560E+03  0.47703092137E+03 -0.30788007397E+03  0.65229524081E+03  0.25500000920E-02 0.  1.
</event>
<event>
 5   0  0.2315038E-04  0.1199594E+04  0.7818609E-02  0.9113212E-01
        1   -1    0    0  501    0  0.00000000000E+00  0.00000000000E+00  0.11019894295E+04  0.11019894295E+04  0.50400001928E-02 0. -1.
       -1   -1    0    0    0  501  0.00000000000E+00  0.00000000000E+00 -0.32646090063E+03  0.32646090067E+03  0.50400001928E-02 0.  1.
    10030    2    1    2    0    0  0.00000000000E+00  0.00000000000E+00  0.77552852884E+03  0.14284503302E+04  0.11995940341E+04 0.  0.
        1    1    3    3  502    0  0.31351524035E+03  0.49237579577E+03  0.55203438917E+03  0.80341004291E+03  0.50400001928E-02 0.  1.
       -1    1    3    3    0  502 -0.31351524035E+03 -0.49237579577E+03  0.22349413967E+03  0.62504028725E+03  0.50400001928E-02 0. -1.
</event>
<event>
 5   0  0.4122956E-04  0.1198301E+04  0.7818609E-02  0.9114345E-01
        2   -1    0    0  501    0  0.00000000000E+00  0.00000000000E+00  0.16283302928E+04  0.16283302928E+04  0.25500000920E-02 0. -1.
       -2   -1    0    0    0  501  0.00000000000E+00  0.00000000000E+00 -0.22045989824E+03  0.22045989825E+03  0.25500000920E-02 0.  1.
    10030    2    1    2    0    0  0.00000000000E+00  0.00000000000E+00  0.14078703946E+04  0.18487901911E+04  0.11983013489E+04 0.  0.
        5    1    3    3  502    0 -0.12556801367E+03 -0.14505866014E+03  0.15796258524E+04  0.15912414224E+04  0.46999998093E+01 0. -1.
       -5    1    3    3    0  502  0.12556801367E+03  0.14505866014E+03 -0.17175545781E+03  0.25754876864E+03  0.46999998093E+01 0.  1.
</event>
<event>
 5   0  0.2340731E-04  0.1198018E+04  0.7818609E-02  0.9114594E-01
        1   -1    0    0  501    0  0.00000000000E+00  0.00000000000E+00  0.46096204369E+03  0.46096204372E+03  0.50400001928E-02 0.  1.
       -1   -1    0    0    0  501  0.00000000000E+00  0.00000000000E+00 -0.77839704593E+03  0.77839704595E+03  0.50400001928E-02 0. -1.
    10030    2    1    2    0    0  0.00000000000E+00  0.00000000000E+00 -0.31743500224E+03  0.12393590897E+04  0.11980175176E+04 0.  0.
        3    1    3    3  502    0  0.14082778405E+03  0.53863239124E+03 -0.38737465133E+03  0.67824512409E+03  0.10100000352E+00 0. -1.
       -3    1    3    3    0  502 -0.14082778405E+03 -0.53863239124E+03  0.69939649084E+02  0.56111396558E+03  0.10100000352E+00 0.  1.
</event>
<event>
 5   0  0.2304842E-04  0.1200365E+04  0.7818609E-02  0.9112537E-01
        1   -1    0    0  501    0  0.00000000000E+00  0.00000000000E+00  0.84980077300E+03  0.84980077301E+03  0.50400001928E-02 0. -1.
       -1   -1    0    0    0  501  0.00000000000E+00  0.00000000000E+00 -0.42388619054E+03  0.42388619057E+03  0.50400001928E-02 0.  1.
    10030    2    1    2    0    0  0.00000000000E+00  0.00000000000E+00  0.42591458246E+03  0.12736869636E+04  0.12003646319E+04 0.  0.
        4    1    3    3  502    0 -0.31158096281E+03  0.48759339582E+03  0.38202348444E+03  0.69337837549E+03  0.12699999809E+01 0. -1.
       -4    1    3    3    0  502  0.31158096281E+03 -0.48759339582E+03  0.43891098018E+02  0.58030858809E+03  0.12699999809E+01 0.  1.
</event>
<event>
 5   0  0.3993723E-04  0.1196228E+04  0.7818609E-02  0.9116165E-01
       -2   -1    0    0    0  501  0.00000000000E+00  0.00000000000E+00  0.93453607403E+03  0.93453607403E+03  0.25500000920E-02 0. -1.
        2   -1    0    0  501    0  0.00000000000E+00  0.00000000000E+00 -0.38279994002E+03  0.38279994003E+03  0.25500000920E-02 0.  1.
    10030    2    1    2    0    0  0.00000000000E+00  0.00000000000E+00  0.55173613401E+03  0.13173360141E+04  0.11962279935E+04 0.  0.
        3    1    3    3  502    0  0.40780896120E+03  0.41135808958E+03  0.11172500253E+03  0.58992042945E+03  0.10100000352E+00 0.  1.
       -3    1    3    3    0  502 -0.40780896120E+03 -0.41135808958E+03  0.44001113148E+03  0.72741558460E+03  0.10100000352E+00 0. -1.
</event>
<event>
 5   0  0.2244308E-04  0.1199355E+04  0.7818609E-02  0.9113421E-01
        1   -1    0    0  501    0  0.00000000000E+00  0.00000000000E+00  0.37570347879E+03  0.37570347883E+03  0.50400001928E-02 0. -1.
       -1   -1    0    0    0  501  0.00000000000E+00  0.00000000000E+00 -0.95717327405E+03  0.95717327407E+03  0.50400001928E-02 0.  1.
    10030    2    1    2    0    0  0.00000000000E+00  0.00000000000E+00 -0.58146979526E+03  0.13328767529E+04  0.11993553750E+04 0.  0.
        5    1    3    3  502    0  0.76954416175E+02 -0.11499943373E+03 -0.93916802879E+03  0.94931845459E+03  0.46999998093E+01 0.  1.
       -5    1    3    3    0  502 -0.76954416175E+02  0.11499943373E+03  0.35769823353E+03  0.38355829830E+03  0.46999998093E+01 0. -1.
</event>
<event>
 5   0  0.4122956E-04  0.1191544E+04  0.7818609E-02  0.9120290E-01
        2   -1    0    0  501    0  0.00000000000E+00  0.00000000000E+00  0.66628233499E+03  0.66628233499E+03  0.25500000920E-02 0. -1.
       -2   -1    0    0    0  501  0.00000000000E+00  0.00000000000E+00 -0.53272381023E+03  0.53272381024E+03  0.25500000920E-02 0.  1.
    10030    2    1    2    0    0  0.00000000000E+00  0.00000000000E+00  0.13355852476E+03  0.11990061452E+04  0.11915443159E+04 0.  0.
        5    1    3    3  502    0  0.21743067959E+03 -0.34709449471E+03  0.50212198134E+03  0.64799634476E+03  0.46999998093E+01 0. -1.
       -5    1    3    3    0  502 -0.21743067959E+03  0.34709449471E+03 -0.36856345658E+03  0.55100980047E+03  0.46999998093E+01 0.  1.
</event>
<event>
 5   0  0.3832662E-04  0.1198020E+04  0.7818609E-02  0.9114591E-01
        2   -1    0    0  501    0  0.00000000000E+00  0.00000000000E+00  0.31612816457E+03  0.31612816458E+03  0.25500000920E-02 0. -1.
       -2   -1    0    0    0  501  0.00000000000E+00  0.00000000000E+00 -0.11350242740E+04  0.11350242740E+04  0.25500000920E-02 0.  1.
    10030    2    1    2    0    0  0.00000000000E+00  0.00000000000E+00 -0.81889610945E+03  0.14511524386E+04  0.11980202678E+04 0.  0.
        4    1    3    3  502    0  0.17365473472E+03  0.12847659898E+03  0.26730475903E+03  0.34367957529E+03  0.12699999809E+01 0. -1.
       -4    1    3    3    0  502 -0.17365473472E+03 -0.12847659898E+03 -0.10862008685E+04  0.11074728633E+04  0.12699999809E+01 0.  1.
</event>
<event>
 5   0  0.4024486E-04  0.1200649E+04  0.7818609E-02  0.9112288E-01
       -2   -1    0    0    0  501  0.00000000000E+00  0.00000000000E+00  0.34322819153E+03  0.34322819153E+03  0.25500000920E-02 0.  1.
        2   -1    0    0  501    0  0.00000000000E+00  0.00000000000E+00 -0.10500004173E+04  0.10500004173E+04  0.25500000920E-02 0. -1.
    10030    2    1    2    0    0  0.00000000000E+00  0.00000000000E+00 -0.70677222578E+03  0.13932286088E+04  0.12006493982E+04 0.  0.
        1    1    3    3  502    0  0.46137247623E+03 -0.27179638286E+03 -0.38467609043E+02  0.53685900619E+03  0.50400001928E-02 0.  1.
       -1    1    3    3    0  502 -0.46137247623E+03  0.27179638286E+03 -0.66830461673E+03  0.85636960264E+03  0.50400001928E-02 0. -1.
</event>
<event>
 5   0  0.4024486E-04  0.1203227E+04  0.7818609E-02  0.9110036E-01
        2   -1    0    0  501    0  0.00000000000E+00  0.00000000000E+00  0.15769320044E+04  0.15769320044E+04  0.25500000920E-02 0. -1.
       -2   -1    0    0    0  501  0.00000000000E+00  0.00000000000E+00 -0.22952100545E+03  0.22952100546E+03  0.25500000920E-02 0.  1.
    10030    2    1    2    0    0  0.00000000000E+00  0.00000000000E+00  0.13474109989E+04  0.18064530098E+04  0.12032273587E+04 0.  0.
        1    1    3    3  502    0  0.35567858960E+03 -0.78196868802E+02  0.13926528801E+04  0.14394804806E+04  0.50400001928E-02 0. -1.
       -1    1    3    3    0  502 -0.35567858960E+03  0.78196868802E+02 -0.45241881211E+02  0.36697252926E+03  0.50400001928E-02 0.  1.
</event>
<event>
 5   0  0.2204090E-04  0.1196472E+04  0.7818609E-02  0.9115950E-01
        1   -1    0    0  501    0  0.00000000000E+00  0.00000000000E+00  0.14827520304E+04  0.14827520304E+04  0.50400001928E-02 0.  1.
       -1   -1    0    0    0  501  0.00000000000E+00  0.00000000000E+00 -0.24136625296E+03  0.24136625301E+03  0.50400001928E-02 0. -1.
    10030    2    1    2    0    0  0.00000000000E+00  0.00000000000E+00  0.12413857775E+04  0.17241182835E+04  0.11964719833E+04 0.  0.
        2    1    3    3  502    0 -0.62604099727E+02  0.21301830873E+03 -0.17979655441E+03  0.28569717209E+03  0.25500000920E-02 0. -1.
       -2    1    3    3    0  502  0.62604099727E+02 -0.21301830873E+03  0.14211823319E+04  0.14384211114E+04  0.25500000920E-02 0.  1.
</event>
<event>
 5   0  0.3832662E-04  0.1200290E+04  0.7818609E-02  0.9112603E-01
       -2   -1    0    0    0  501  0.00000000000E+00  0.00000000000E+00  0.56398038582E+03  0.56398038582E+03  0.25500000920E-02 0.  1.
        2   -1    0    0  501    0  0.00000000000E+00  0.00000000000E+00 -0.63862860044E+03  0.63862860044E+03  0.25500000920E-02 0. -1.
    10030    2    1    2    0    0  0.00000000000E+00  0.00000000000E+00 -0.74648214620E+02  0.12026089863E+04  0.12002899724E+04 0.  0.
        4    1    3    3  502    0  0.29351552485E+03  0.51231926464E+03 -0.14500266910E+03  0.60798830515E+03  0.12699999809E+01 0.  1.
       -4    1    3    3    0  502 -0.29351552485E+03 -0.51231926464E+03  0.70354454479E+02  0.59462068112E+03  0.12699999809E+01 0. -1.
</event>
<event>
 5   0  0.2244308E-04  0.1200799E+04  0.7818609E-02  0.9112158E-01
        1   -1    0    0  501    0  0.00000000000E+00  0.00000000000E+00  0.12144408912E+04  0.12144408912E+04  0.50400001928E-02 0.  1.
       -1   -1    0    0    0  501  0.00000000000E+00  0.00000000000E+00 -0.29682745371E+03  0.29682745376E+03  0.50400001928E-02 0. -1.
    10030    2    1    2    0    0  0.00000000000E+00  0.00000000000E+00  0.91761343750E+03  0.15112683450E+04  0.12007987300E+04 0.  0.
        5    1    3    3  502    0  0.13385962728E+03  0.49262334864E+03  0.85651957902E+03  0.99711786800E+03  0.46999998093E+01 0.  1.
       -5    1    3    3    0  502 -0.13385962728E+03 -0.49262334864E+03  0.61093858481E+02  0.51415047698E+03  0.46999998093E+01 0. -1.
</event>
<event>
 5   0  0.2340731E-04  0.1215417E+04  0.7818609E-02  0.9099468E-01
        1   -1    0    0  501    0  0.00000000000E+00  0.00000000000E+00  0.15446092519E+04  0.15446092519E+04  0.50400001928E-02 0.  1.
       -1   -1    0    0    0  501  0.00000000000E+00  0.00000000000E+00 -0.23909595714E+03  0.23909595719E+03  0.50400001928E-02 0. -1.
    10030    2    1    2    0    0  0.00000000000E+00  0.00000000000E+00  0.13055132948E+04  0.17837052091E+04  0.12154173399E+04 0.  0.
        3    1    3    3  502    0  0.43596665771E+03 -0.16812609946E+02  0.12735912483E+04  0.13462482195E+04  0.10100000352E+00 0.  1.
       -3    1    3    3    0  502 -0.43596665771E+03  0.16812609946E+02  0.31922046421E+02  0.43745698958E+03  0.10100000352E+00 0. -1.
</event>
<event>
 5   0  0.3832662E-04  0.1201347E+04  0.7818609E-02  0.9111678E-01
        2   -1    0    0  501    0  0.00000000000E+00  0.00000000000E+00  0.18880087313E+04  0.18880087313E+04  0.25500000920E-02 0.  1.
       -2   -1    0    0    0  501  0.00000000000E+00  0.00000000000E+00 -0.19110534357E+03  0.19110534359E+03  0.25500000920E-02 0. -1.
    10030    2    1    2    0    0  0.00000000000E+00  0.00000000000E+00  0.16969033877E+04  0.20791140749E+04  0.12013468396E+04 0.  0.
        4    1    3    3  502    0 -0.16091114262E+03 -0.25960738818E+02  0.18490033195E+04  0.18561738184E+04  0.12699999809E+01 0.  1.
       -4    1    3    3    0  502  0.16091114262E+03  0.25960738818E+02 -0.15209993181E+03  0.22294025643E+03  0.12699999809E+01 0. -1.
</event>
<event>
 5   0  0.2304842E-04  0.1200179E+04  0.7818609E-02  0.9112700E-01
       -1   -1    0    0    0  501  0.00000000000E+00  0.00000000000E+00  0.80589079710E+03  0.80589079712E+03  0.50400001928E-02 0.  1.
        1   -1    0    0  501    0  0.00000000000E+00  0.00000000000E+00 -0.44684422130E+03  0.44684422133E+03  0.50400001928E-02 0. -1.
    10030    2    1    2    0    0  0.00000000000E+00  0.00000000000E+00  0.35904657580E+03  0.12527350184E+04  0.12001793961E+04 0.  0.
        4    1    3    3  502    0 -0.57047282200E+03  0.29806957155E+02 -0.12313628987E+02  0.57138510105E+03  0.12699999809E+01 0. -1.
       -4    1    3    3    0  502  0.57047282200E+03 -0.29806957155E+02  0.37136020479E+03  0.68134991740E+03  0.12699999809E+01 0.  1.
</event>
<event>
 5   0  0.4024486E-04  0.1199826E+04  0.7818609E-02  0.9113009E-01
       -2   -1    0    0    0  501  0.00000000000E+00  0.00000000000E+00  0.71735921702E+03  0.71735921703E+03  0.25500000920E-02 0.  1.
        2   -1    0    0  501    0  0.00000000000E+00  0.00000000000E+00 -0.50169539803E+03  0.50169539804E+03  0.25500000920E-02 0. -1.
    10030    2    1    2    0    0  0.00000000000E+00  0.00000000000E+00  0.21566381899E+03  0.12190546151E+04  0.11998263506E+04 0.  0.
        1    1    3    3  502    0 -0.89745257942E+02 -0.49982939577E+03 -0.21668010851E+03  0.55211765562E+03  0.50400001928E-02 0. -1.
       -1    1    3    3    0  502  0.89745257942E+02  0.49982939577E+03  0.43234392751E+03  0.66693695945E+03  0.50400001928E-02 0.  1.
</event>
<event>
 5   0  0.3993723E-04  0.1197017E+04  0.7818609E-02  0.9115471E-01
       -2   -1    0    0    0  501  0.00000000000E+00  0.00000000000E+00  0.74497275086E+03  0.74497275086E+03  0.25500000920E-02 0.  1.
        2   -1    0    0  501    0  0.00000000000E+00  0.00000000000E+00 -0.48083980004E+03  0.48083980004E+03  0.25500000920E-02 0. -1.
    10030    2    1    2    0    0  0.00000000000E+00  0.00000000000E+00  0.26413295082E+03  0.12258125509E+04  0.11970172072E+04 0.  0.
        3    1    3    3  502    0  0.14748220232E+03 -0.38801924715E+03  0.57360276597E+03  0.70804666477E+03  0.10100000352E+00 0.  1.
       -3    1    3    3    0  502 -0.14748220232E+03  0.38801924715E+03 -0.30946981515E+03  0.51776588614E+03  0.10100000352E+00 0. -1.
</event>
<event>
 5   0  0.3993723E-04  0.1201483E+04  0.7818609E-02  0.9111560E-01
       -2   -1    0    0    0  501  0.00000000000E+00  0.00000000000E+00  0.18134394657E+03  0.18134394659E+03  0.25500000920E-02 0. -1.
        2   -1    0    0  501    0  0.00000000000E+00  0.00000000000E+00 -0.19900869460E+04  0.19900869460E+04  0.25500000920E-02 0.  1.
    10030    2    1    2    0    0  0.00000000000E+00  0.00000000000E+00 -0.18087429994E+04  0.21714308926E+04  0.12014827853E+04 0.  0.
        3    1    3    3  502    0  0.41342966279E+03  0.34932593723E+03 -0.13754391548E+04  0.14781020179E+04  0.10100000352E+00 0.  1.
       -3    1    3    3    0  502 -0.41342966279E+03 -0.34932593723E+03 -0.43330384456E+03  0.69332887464E+03  0.10100000352E+00 0. -1.
</event>
<event>
 5   0  0.2204090E-04  0.1199089E+04  0.7818609E-02  0.9113654E-01
       -1   -1    0    0    0  501  0.00000000000E+00  0.00000000000E+00  0.28291608443E+03  0.28291608448E+03  0.50400001928E-02 0. -1.
        1   -1    0    0  501    0  0.00000000000E+00  0.00000000000E+00 -0.12705304036E+04  0.12705304036E+04  0.50400001928E-02 0.  1.
    10030    2    1    2    0    0  0.00000000000E+00  0.00000000000E+00 -0.98761431914E+03  0.15534464881E+04  0.11990887990E+04 0.  0.
        2    1    3    3  502    0 -0.27017931807E+03  0.16105135386E+03 -0.11550556949E+04  0.11971165611E+04  0.25500000920E-02 0.  1.
       -2    1    3    3    0  502  0.27017931807E+03 -0.16105135386E+03  0.16744137581E+03  0.35632992693E+03  0.25500000920E-02 0. -1.
</event>
<event>
 5   0  0.4122956E-04  0.1200039E+04  0.7818609E-02  0.9112822E-01
       -2   -1    0    0    0  501  0.00000000000E+00  0.00000000000E+00  0.32369994408E+03  0.32369994409E+03  0.25500000920E-02 0. -1.
        2   -1    0    0  501    0  0.00000000000E+00  0.00000000000E+00 -0.11122135344E+04  0.11122135344E+04  0.25500000920E-02 0.  1.
    10030    2    1    2    0    0  0.00000000000E+00  0.00000000000E+00 -0.78851359035E+03  0.14359134785E+04  0.12000390975E+04 0.  0.
        5    1    3    3  502    0 -0.44277890926E+03  0.27225019932E+03 -0.75288036321E+03  0.91489030207E+03  0.46999998093E+01 0.  1.
       -5    1    3    3    0  502  0.44277890926E+03 -0.27225019932E+03 -0.35633227137E+02  0.52102317644E+03  0.46999998093E+01 0. -1.
</event>
<event>
 5   0  0.4122956E-04  0.1194125E+04  0.7818609E-02  0.9118014E-01
       -2   -1    0    0    0  501  0.00000000000E+00  0.00000000000E+00  0.26411680936E+03  0.26411680937E+03  0.25500000920E-02 0.  1.
        2   -1    0    0  501    0  0.00000000000E+00  0.00000000000E+00 -0.13497199860E+04  0.13497199860E+04  0.25500000920E-02 0. -1.
    10030    2    1    2    0    0  0.00000000000E+00  0.00000000000E+00 -0.10856031766E+04  0.16138367953E+04  0.11941251798E+04 0.  0.
        5    1    3    3  502    0 -0.27589902100E+03  0.64303286108E+02  0.16747365227E+03  0.32912717389E+03  0.46999998093E+01 0.  1.
       -5    1    3    3    0  502  0.27589902100E+03 -0.64303286108E+02 -0.12530768289E+04  0.12847096215E+04  0.46999998093E+01 0. -1.
</event>
<event>
 5   0  0.3832662E-04  0.1188514E+04  0.7818609E-02  0.9122970E-01
        2   -1    0    0  501    0  0.00000000000E+00  0.00000000000E+00  0.88920073536E+03  0.88920073536E+03  0.25500000920E-02 0. -1.
       -2   -1    0    0    0  501  0.00000000000E+00  0.00000000000E+00 -0.39714471729E+03  0.39714471730E+03  0.25500000920E-02 0.  1.
    10030    2    1    2    0    0  0.00000000000E+00  0.00000000000E+00  0.49205601807E+03  0.12863454527E+04  0.11885139876E+04 0.  0.
        4    1    3    3  502    0 -0.31118830251E+03 -0.32629486614E+03  0.66497341871E+03  0.80342875215E+03  0.12699999809E+01 0. -1.
       -4    1    3    3    0  502  0.31118830251E+03  0.32629486614E+03 -0.17291740064E+03  0.48291670051E+03  0.12699999809E+01 0.  1.
</event>
<event>
 5   0  0.3832662E-04  0.1200116E+04  0.7818609E-02  0.9112755E-01
        2   -1    0    0  501    0  0.00000000000E+00  0.00000000000E+00  0.51717968362E+03  0.51717968363E+03  0.25500000920E-02 0. -1.
       -2   -1    0    0    0  501  0.00000000000E+00  0.00000000000E+00 -0.69621726184E+03  0.69621726184E+03  0.25500000920E-02 0.  1.
    10030    2    1    2    0    0  0.00000000000E+00  0.00000000000E+00 -0.17903757821E+03  0.12133969455E+04  0.12001156998E+04 0.  0.
        4    1    3    3  502    0 -0.27189229515E+03  0.52762187416E+03 -0.17857044870E+03  0.61983810815E+03  0.12699999809E+01 0.  1.
       -4    1    3    3    0  502  0.27189229515E+03 -0.52762187416E+03 -0.46712950929E+00  0.59355883733E+03  0.12699999809E+01 0. -1.
</event>
<event>
 5   0  0.2204090E-04  0.1198592E+04  0.7818609E-02  0.9114090E-01
       -1   -1    0    0    0  501  0.00000000000E+00  0.00000000000E+00  0.57559982387E+03  0.57559982389E+03  0.50400001928E-02 0. -1.
        1   -1    0    0  501    0  0.00000000000E+00  0.00000000000E+00 -0.62396750259E+03  0.62396750261E+03  0.50400001928E-02 0.  1.
    10030    2    1    2    0    0  0.00000000000E+00  0.00000000000E+00 -0.48367678719E+02  0.11995673265E+04  0.11985918148E+04 0.  0.
        2    1    3    3  502    0  0.41704517698E+03  0.38884788289E+01  0.40653113779E+03  0.58241683175E+03  0.25500000920E-02 0. -1.
       -2    1    3    3    0  502 -0.41704517698E+03 -0.38884788289E+01 -0.45489881651E+03  0.61715049476E+03  0.25500000920E-02 0.  1.
</event>
<event>
 5   0  0.3993723E-04  0.1199618E+04  0.7818609E-02  0.9113191E-01
       -2   -1    0    0    0  501  0.00000000000E+00  0.00000000000E+00  0.17832206270E+03  0.17832206272E+03  0.25500000920E-02 0. -1.
        2   -1    0    0  501    0  0.00000000000E+00  0.00000000000E+00 -0.20175354069E+04  0.20175354069E+04  0.25500000920E-02 0.  1.
    10030    2    1    2    0    0  0.00000000000E+00  0.00000000000E+00 -0.18392133442E+04  0.21958574696E+04  0.11996183983E+04 0.  0.
        3    1    3    3  502    0  0.15160724526E+03  0.57828262955E+03 -0.10088219724E+04  0.11726539722E+04  0.10100000352E+00 0.  1.
       -3    1    3    3    0  502 -0.15160724526E+03 -0.57828262955E+03 -0.83039137183E+03  0.10232034974E+04  0.10100000352E+00 0. -1.
</event>
<event>
 5   0  0.2304842E-04  0.1200120E+04  0.7818609E-02  0.9112752E-01
       -1   -1    0    0    0  501  0.00000000000E+00  0.00000000000E+00  0.88144960616E+03  0.88144960617E+03  0.50400001928E-02 0. -1.
        1   -1    0    0  501    0  0.00000000000E+00  0.00000000000E+00 -0.40849958038E+03  0.40849958041E+03  0.50400001928E-02 0.  1.
    10030    2    1    2    0    0  0.00000000000E+00  0.00000000000E+00  0.47295002578E+03  0.12899491866E+04  0.12001196511E+04 0.  0.
        4    1    3    3  502    0 -0.26511030658E+02  0.28842727924E+03 -0.32838632463E+03  0.43787249429E+03  0.12699999809E+01 0.  1.
       -4    1    3    3    0  502  0.26511030658E+02 -0.28842727924E+03  0.80133635041E+03  0.85207669229E+03  0.12699999809E+01 0. -1.
</event>
<event>
 5   0  0.4024486E-04  0.1200495E+04  0.7818609E-02  0.9112423E-01
       -2   -1    0    0    0  501  0.00000000000E+00  0.00000000000E+00  0.61672710250E+03  0.61672710250E+03  0.25500000920E-02 0. -1.
        2   -1    0    0  501    0  0.00000000000E+00  0.00000000000E+00 -0.58420813889E+03  0.58420813890E+03  0.25500000920E-02 0.  1.
    10030    2    1    2    0    0  0.00000000000E+00  0.00000000000E+00  0.32518963609E+02  0.12009352414E+04  0.12004948859E+04 0.  0.
        1    1    3    3  502    0 -0.62494533521E+02 -0.23148427769E+03  0.56673985549E+03  0.61537354620E+03  0.50400001928E-02 0. -1.
       -1    1    3    3    0  502  0.62494533521E+02  0.23148427769E+03 -0.53422089188E+03  0.58556169520E+03  0.50400001928E-02 0.  1.
</event>
<event>
 5   0  0.3883890E-04  0.1201558E+04  0.7818609E-02  0.9111494E-01
       -2   -1    0    0    0  501  0.00000000000E+00  0.00000000000E+00  0.10067370097E+04  0.10067370097E+04  0.25500000920E-02 0. -1.
        2   -1    0    0  501    0  0.00000000000E+00  0.00000000000E+00 -0.35852006181E+03  0.35852006182E+03  0.25500000920E-02 0.  1.
    10030    2    1    2    0    0  0.00000000000E+00  0.00000000000E+00  0.64821694792E+03  0.13652570716E+04  0.12015580135E+04 0.  0.
        2    1    3    3  502    0 -0.44050715996E+03  0.35579189251E+03  0.55220965160E+03  0.79092978707E+03  0.25500000920E-02 0.  1.
       -2    1    3    3    0  502  0.44050715996E+03 -0.35579189251E+03  0.96007296320E+02  0.57432728448E+03  0.25500000920E-02 0. -1.
</event>
<event>
 5   0  0.2304842E-04  0.1199833E+04  0.7818609E-02  0.9113003E-01
        1   -1    0    0  501    0  0.00000000000E+00  0.00000000000E+00  0.13183939475E+04  0.13183939475E+04  0.50400001928E-02 0. -1.
       -1   -1    0    0    0  501  0.00000000000E+00  0.00000000000E+00 -0.27298353266E+03  0.27298353271E+03  0.50400001928E-02 0.  1.
    10030    2    1    2    0    0  0.00000000000E+00  0.00000000000E+00  0.10454104148E+04  0.15913774802E+04  0.11998330505E+04 0.  0.
        4    1    3    3  502    0 -0.44965389493E+03 -0.39126892646E+03  0.61283948732E+03  0.85489990535E+03  0.12699999809E+01 0.  1.
       -4    1    3    3    0  502  0.44965389493E+03  0.39126892646E+03  0.43257092749E+03  0.73647757485E+03  0.12699999809E+01 0. -1.
</event>
<event>
 5   0  0.2204090E-04  0.1200829E+04  0.7818609E-02  0.9112132E-01
       -1   -1    0    0    0  501  0.00000000000E+00  0.00000000000E+00  0.45530549999E+03  0.45530550002E+03  0.50400001928E-02 0.  1.
        1   -1    0    0  501    0  0.00000000000E+00  0.00000000000E+00 -0.79177018909E+03  0.79177018910E+03  0.50400001928E-02 0. -1.
    10030    2    1    2    0    0  0.00000000000E+00  0.00000000000E+00 -0.33646468910E+03  0.12470756891E+04  0.12008285837E+04 0.  0.
        2    1    3    3  502    0  0.17221629683E+03  0.39812121221E+03 -0.59935692595E+03  0.73985652474E+03  0.25500000920E-02 0. -1.
       -2    1    3    3    0  502 -0.17221629683E+03 -0.39812121221E+03  0.26289223685E+03  0.50721916438E+03  0.25500000920E-02 0.  1.
</event>
<event>
 5   0  0.3832662E-04  0.1199268E+04  0.7818609E-02  0.9113497E-01
        2   -1    0    0  501    0  0.00000000000E+00  0.00000000000E+00  0.92956444767E+03  0.92956444768E+03  0.25500000920E-02 0.  1.
       -2   -1    0    0    0  501  0.00000000000E+00  0.00000000000E+00 -0.38680595702E+03  0.38680595703E+03  0.25500000920E-02 0. -1.
    10030    2    1    2    0    0  0.00000000000E+00  0.00000000000E+00  0.54275849065E+03  0.13163704047E+04  0.11992682199E+04 0.  0.
        4    1    3    3  502    0  0.51047585680E+03  0.43486707167E+02 -0.70626056924E+02  0.51717148693E+03  0.12699999809E+01 0.  1.
       -4    1    3    3    0  502 -0.51047585680E+03 -0.43486707167E+02  0.61338454757E+03  0.79919891778E+03  0.12699999809E+01 0. -1.
</event>
<event>
 5   0  0.3832662E-04  0.1197391E+04  0.7818609E-02  0.9115143E-01
        2   -1    0    0  501    0  0.00000000000E+00  0.00000000000E+00  0.73231410180E+03  0.73231410181E+03  0.25500000920E-02 0.  1.
       -2   -1    0    0    0  501  0.00000000000E+00  0.00000000000E+00 -0.48945713279E+03  0.48945713280E+03  0.25500000920E-02 0. -1.
    10030    2    1    2    0    0  0.00000000000E+00  0.00000000000E+00  0.24285696901E+03  0.12217712346E+04  0.11973910983E+04 0.  0.
        4    1    3    3  502    0  0.29535836179E+03  0.14692425488E+02  0.65258724379E+03  0.71646643529E+03  0.12699999809E+01 0.  1.
       -4    1    3    3    0  502 -0.29535836179E+03 -0.14692425488E+02 -0.40973027477E+03  0.50530479931E+03  0.12699999809E+01 0. -1.
</event>
<event>
 5   0  0.2304842E-04  0.1198626E+04  0.7818609E-02  0.9114060E-01
       -1   -1    0    0    0  501  0.00000000000E+00  0.00000000000E+00  0.24823970732E+03  0.24823970737E+03  0.50400001928E-02 0.  1.
        1   -1    0    0  501    0  0.00000000000E+00  0.00000000000E+00 -0.14468915918E+04  0.14468915918E+04  0.50400001928E-02 0. -1.
    10030    2    1    2    0    0  0.00000000000E+00  0.00000000000E+00 -0.11986518845E+04  0.16951312992E+04  0.11986257887E+04 0.  0.
        4    1    3    3  502    0 -0.77265054027E+02 -0.51541074091E+03 -0.18085702286E+03  0.55166021792E+03  0.12699999809E+01 0.  1.
       -4    1    3    3    0  502  0.77265054027E+02  0.51541074091E+03 -0.10177948616E+04  0.11434710812E+04  0.12699999809E+01 0. -1.
</event>
<event>
 5   0  0.2204090E-04  0.1201713E+04  0.7818609E-02  0.9111359E-01
        1   -1    0    0  501    0  0.00000000000E+00  0.00000000000E+00  0.80797423263E+03  0.80797423265E+03  0.50400001928E-02 0. -1.
       -1   -1    0    0    0  501  0.00000000000E+00  0.00000000000E+00 -0.44683156563E+03  0.44683156566E+03  0.50400001928E-02 0.  1.
    10030    2    1    2    0    0  0.00000000000E+00  0.00000000000E+00  0.36114266700E+03  0.12548057983E+04  0.12017127633E+04 0.  0.
        2    1    3    3  502    0 -0.47253608581E+03  0.44740068610E+02  0.56527289646E+03  0.73812293936E+03  0.25500000920E-02 0. -1.
       -2    1    3    3    0  502  0.47253608581E+03 -0.44740068610E+02 -0.20413022946E+03  0.51668285894E+03  0.25500000920E-02 0.  1.
</event>
<event>
 5   0  0.4122956E-04  0.1199400E+04  0.7818609E-02  0.9113382E-01
       -2   -1    0    0    0  501  0.00000000000E+00  0.00000000000E+00  0.28245369209E+03  0.28245369210E+03  0.25500000920E-02 0.  1.
        2   -1    0    0  501    0  0.00000000000E+00  0.00000000000E+00 -0.12732701783E+04  0.12732701783E+04  0.25500000920E-02 0. -1.
    10030    2    1    2    0    0  0.00000000000E+00  0.00000000000E+00 -0.99081648624E+03  0.15557238704E+04  0.11993996213E+04 0.  0.
        5    1    3    3  502    0  0.35841054135E+03  0.47417038636E+03 -0.39227484239E+03  0.71217786643E+03  0.46999998093E+01 0.  1.
       -5    1    3    3    0  502 -0.35841054135E+03 -0.47417038636E+03 -0.59854164384E+03  0.84354600400E+03  0.46999998093E+01 0. -1.
</event>
<event>
 5   0  0.4122956E-04  0.1197845E+04  0.7818609E-02  0.9114745E-01
        2   -1    0    0  501    0  0.00000000000E+00  0.00000000000E+00  0.96222095256E+03  0.96222095256E+03  0.25500000920E-02 0. -1.
       -2   -1    0    0    0  501  0.00000000000E+00  0.00000000000E+00 -0.37279183531E+03  0.37279183531E+03  0.25500000920E-02 0.  1.
    10030    2    1    2    0    0  0.00000000000E+00  0.00000000000E+00  0.58942911725E+03  0.13350127879E+04  0.11978449230E+04 0.  0.
        5    1    3    3  502    0  0.75227821763E+02 -0.66807057822E+02 -0.36328538424E+03  0.37698908279E+03  0.46999998093E+01 0.  1.
       -5    1    3    3    0  502 -0.75227821763E+02  0.66807057822E+02  0.95271450149E+03  0.95802370508E+03  0.46999998093E+01 0. -1.
</event>
<event>
 5   0  0.2340731E-04  0.1199096E+04  0.7818609E-02  0.9113649E-01
        1   -1    0    0  501    0  0.00000000000E+00  0.00000000000E+00  0.17493972016E+04  0.17493972016E+04  0.50400001928E-02 0.  1.
       -1   -1    0    0    0  501  0.00000000000E+00  0.00000000000E+00 -0.20547508751E+03  0.20547508757E+03  0.50400001928E-02 0. -1.
    10030    2    1    2    0    0  0.00000000000E+00  0.00000000000E+00  0.15439221141E+04  0.19548722892E+04  0.11990955644E+04 0.  0.
        3    1    3    3  502    0  0.31512862404E+03  0.35101367674E+03  0.16866407289E+03  0.50096330268E+03  0.10100000352E+00 0. -1.
       -3    1    3    3    0  502 -0.31512862404E+03 -0.35101367674E+03  0.13752580412E+04  0.14539089865E+04  0.10100000352E+00 0.  1.
</event>
<event>
 5   0  0.3883890E-04  0.1207373E+04  0.7818609E-02  0.9106427E-01
       -2   -1    0    0    0  501  0.00000000000E+00  0.00000000000E+00  0.19056832652E+04  0.19056832652E+04  0.25500000920E-02 0. -1.
        2   -1    0    0  501    0  0.00000000000E+00  0.00000000000E+00 -0.19123706968E+03  0.19123706970E+03  0.25500000920E-02 0.  1.
    10030    2    1    2    0    0  0.00000000000E+00  0.00000000000E+00  0.17144461955E+04  0.20969203349E+04  0.12073728229E+04 0.  0.
        2    1    3    3  502    0 -0.27979484640E+03 -0.48659390165E+03  0.12431539437E+04  0.13639979872E+04  0.25500000920E-02 0.  1.
       -2    1    3    3    0  502  0.27979484640E+03  0.48659390165E+03  0.47129225178E+03  0.73292234772E+03  0.25500000920E-02 0. -1.
</event>
<event>
 5   0  0.2304842E-04  0.1202993E+04  0.7818609E-02  0.9110241E-01
       -1   -1    0    0    0  501  0.00000000000E+00  0.00000000000E+00  0.28854535425E+03  0.28854535430E+03  0.50400001928E-02 0.  1.
        1   -1    0    0  501    0  0.00000000000E+00  0.00000000000E+00 -0.12538680615E+04  0.12538680615E+04  0.50400001928E-02 0. -1.
    10030    2    1    2    0    0  0.00000000000E+00  0.00000000000E+00 -0.96532270726E+03  0.15424134158E+04  0.12029926085E+04 0.  0.
        4    1    3    3  502    0 -0.45775130007E+03 -0.36852564035E+03 -0.64710035249E+03  0.87412120407E+03  0.12699999809E+01 0. -1.
       -4    1    3    3    0  502  0.45775130007E+03  0.36852564035E+03 -0.31822235477E+03  0.66829221175E+03  0.12699999809E+01 0.  1.
</event>
<event>
 5   0  0.3993723E-04  0.1199776E+04  0.7818609E-02  0.9113053E-01
        2   -1    0    0  501    0  0.00000000000E+00  0.00000000000E+00  0.13087732235E+04  0.13087732235E+04  0.25500000920E-02 0. -1.
       -2   -1    0    0    0  501  0.00000000000E+00  0.00000000000E+00 -0.27496398146E+03  0.27496398147E+03  0.25500000920E-02 0.  1.
    10030    2    1    2    0    0  0.00000000000E+00  0.00000000000E+00  0.10338092421E+04  0.15837372050E+04  0.11997758063E+04 0.  0.
        3    1    3    3  502    0  0.86344403113E+02 -0.15186816653E+03  0.12744511998E+04  0.12863689855E+04  0.10100000352E+00 0. -1.
       -3    1    3    3    0  502 -0.86344403113E+02  0.15186816653E+03 -0.24064195773E+03  0.29736821951E+03  0.10100000352E+00 0.  1.
</event>
<event>
 5   0  0.4122956E-04  0.1199358E+04  0.7818609E-02  0.9113419E-01
       -2   -1    0    0    0  501  0.00000000000E+00  0.00000000000E+00  0.81606800912E+03  0.81606800912E+03  0.25500000920E-02 0.  1.
        2   -1    0    0  501    0  0.00000000000E+00  0.00000000000E+00 -0.44066782842E+03  0.44066782843E+03  0.25500000920E-02 0. -1.
    10030    2    1    2    0    0  0.00000000000E+00  0.00000000000E+00  0.37540018070E+03  0.12567358376E+04  0.11993580240E+04 0.  0.
        5    1    3    3  502    0 -0.49061967665E+01 -0.28884477966E+03  0.73832747894E+03  0.79284609709E+03  0.46999998093E+01 0.  1.
       -5    1    3    3    0  502  0.49061967665E+01  0.28884477966E+03 -0.36292729824E+03  0.46388974047E+03  0.46999998093E+01 0. -1.
</event>
<event>
 5   0  0.3883890E-04  0.1194260E+04  0.7818609E-02  0.9117896E-01
       -2   -1    0    0    0  501  0.00000000000E+00  0.00000000000E+00  0.23886684262E+03  0.23886684263E+03  0.25500000920E-02 0.  1.
        2   -1    0    0  501    0  0.00000000000E+00  0.00000000000E+00 -0.14927316383E+04  0.14927316383E+04  0.25500000920E-02 0. -1.
    10030    2    1    2    0    0  0.00000000000E+00  0.00000000000E+00 -0.12538647957E+04  0.17315984809E+04  0.11942597596E+04 0.  0.
        2    1    3    3  502    0  0.37787667525E+03 -0.33223317455E+03 -0.16070588440E+03  0.52820076226E+03  0.25500000920E-02 0.  1.
       -2    1    3    3    0  502 -0.37787667525E+03  0.33223317455E+03 -0.10931589113E+04  0.12033977187E+04  0.25500000920E-02 0. -1.
</event>
<event>
 5   0  0.2340731E-04  0.1197101E+04  0.7818609E-02  0.9115397E-01
        1   -1    0    0  501    0  0.00000000000E+00  0.00000000000E+00  0.73611357334E+03  0.73611357336E+03  0.50400001928E-02 0.  1.
       -1   -1    0    0    0  501  0.00000000000E+00  0.00000000000E+00 -0.48669524986E+03  0.48669524988E+03  0.50400001928E-02 0. -1.
    10030    2    1    2    0    0  0.00000000000E+00  0.00000000000E+00  0.24941832348E+03  0.12228088232E+04  0.11971014653E+04 0.  0.
        3    1    3    3  502    0  0.43733846506E+03 -0.39632822776E+03  0.22645733105E+03  0.63215815278E+03  0.10100000352E+00 0.  1.
       -3    1    3    3    0  502 -0.43733846506E+03  0.39632822776E+03  0.22960992432E+02  0.59065067046E+03  0.10100000352E+00 0. -1.
</event>
<event>
 5   0  0.3883890E-04  0.1199637E+04  0.7818609E-02  0.9113175E-01
        2   -1    0    0  501    0  0.00000000000E+00  0.00000000000E+00  0.10206832987E+04  0.10206832987E+04  0.25500000920E-02 0. -1.
       -2   -1    0    0    0  501  0.00000000000E+00  0.00000000000E+00 -0.35249140307E+03  0.35249140308E+03  0.25500000920E-02 0.  1.
    10030    2    1    2    0    0  0.00000000000E+00  0.00000000000E+00  0.66819189559E+03  0.13731747017E+04  0.11996367584E+04 0.  0.
        2    1    3    3  502    0  0.59905266672E+03 -0.15163028058E+02  0.30407023521E+03  0.67197672793E+03  0.25500000920E-02 0.  1.
       -2    1    3    3    0  502 -0.59905266672E+03  0.15163028058E+02  0.36412166038E+03  0.70119797382E+03  0.25500000920E-02 0. -1.
</event>
<event>
 5   0  0.2244308E-04  0.1192702E+04  0.7818609E-02  0.9119269E-01
       -1   -1    0    0    0  501  0.00000000000E+00  0.00000000000E+00  0.70727323689E+03  0.70727323691E+03  0.50400001928E-02 0. -1.
        1   -1    0    0  501    0  0.00000000000E+00  0.00000000000E+00 -0.50282471599E+03  0.50282471601E+03  0.50400001928E-02 0.  1.
    10030    2    1    2    0    0  0.00000000000E+00  0.00000000000E+00  0.20444852090E+03  0.12100979529E+04  0.11927019150E+04 0.  0.
        5    1    3    3  502    0 -0.47138118936E+02  0.57037607016E+03  0.27218324770E+03  0.63376389451E+03  0.46999998093E+01 0.  1.
       -5    1    3    3    0  502  0.47138118936E+02 -0.57037607016E+03 -0.67734726792E+02  0.57633405840E+03  0.46999998093E+01 0. -1.
</event>
<event>
 5   0  0.2304842E-04  0.1196827E+04  0.7818609E-02  0.9115639E-01
        1   -1    0    0  501    0  0.00000000000E+00  0.00000000000E+00  0.66840527304E+03  0.66840527306E+03  0.50400001928E-02 0. -1.
       -1   -1    0    0    0  501  0.00000000000E+00  0.00000000000E+00 -0.53575070971E+03  0.53575070974E+03  0.50400001928E-02 0.  1.
    10030    2    1    2    0    0  0.00000000000E+00  0.00000000000E+00  0.13265456332E+03  0.12041559828E+04  0.11968268036E+04 0.  0.
        4    1    3    3  502    0 -0.29596979354E+03 -0.39133418138E+03  0.41099838864E+03  0.64004831737E+03  0.12699999809E+01 0. -1.
       -4    1    3    3    0  502  0.29596979354E+03  0.39133418138E+03 -0.27834382532E+03  0.56410766543E+03  0.12699999809E+01 0.  1.
</event>
<event>
 5   0  0.3993723E-04  0.1200617E+04  0.7818609E-02  0.9112316E-01
       -2   -1    0    0    0  501  0.00000000000E+00  0.00000000000E+00  0.61621912272E+03  0.61621912272E+03  0.25500000920E-02 0. -1.
        2   -1    0    0  501    0  0.00000000000E+00  0.00000000000E+00 -0.58480893618E+03  0.58480893619E+03  0.25500000920E-02 0.  1.
    10030    2    1    2    0    0  0.00000000000E+00  0.00000000000E+00  0.31410186537E+02  0.12010280589E+04  0.12006172573E+04 0.  0.
        3    1    3    3  502    0  0.13773374164E+02 -0.57371876897E+02 -0.58190135632E+03  0.58488497739E+03  0.10100000352E+00 0.  1.
       -3    1    3    3    0  502 -0.13773374164E+02  0.57371876897E+02  0.61331154286E+03  0.61614308151E+03  0.10100000352E+00 0. -1.
</event>
<event>
 5   0  0.2315038E-04  0.1199258E+04  0.7818609E-02  0.9113506E-01
       -1   -1    0    0    0  501  0.00000000000E+00  0.00000000000E+00  0.31020787656E+03  0.31020787660E+03  0.50400001928E-02 0.  1.
        1   -1    0    0  501    0  0.00000000000E+00  0.00000000000E+00 -0.11590769117E+04  0.11590769117E+04  0.50400001928E-02 0. -1.
    10030    2    1    2    0    0  0.00000000000E+00  0.00000000000E+00 -0.84886903514E+03  0.14692847883E+04  0.11992577498E+04 0.  0.
        1    1    3    3  502    0  0.23550655008E+03  0.10789712655E+03  0.23811602042E+03  0.35185844349E+03  0.50400001928E-02 0.  1.
       -1    1    3    3    0  502 -0.23550655008E+03 -0.10789712655E+03 -0.10869850556E+04  0.11174263448E+04  0.50400001928E-02 0. -1.
</event>
<event>
 5   0  0.2204090E-04  0.1197432E+04  0.7818609E-02  0.9115107E-01
        1   -1    0    0  501    0  0.00000000000E+00  0.00000000000E+00  0.12049476476E+04  0.12049476476E+04  0.50400001928E-02 0.  1.
       -1   -1    0    0    0  501  0.00000000000E+00  0.00000000000E+00 -0.29749084075E+03  0.29749084080E+03  0.50400001928E-02 0. -1.
    10030    2    1    2    0    0  0.00000000000E+00  0.00000000000E+00  0.90745680687E+03  0.15024384884E+04  0.11974320670E+04 0.  0.
        2    1    3    3  502    0 -0.56033157710E+03 -0.12791240264E+03  0.24329536379E+03  0.62411993487E+03  0.25500000920E-02 0.  1.
       -2    1    3    3    0  502  0.56033157710E+03  0.12791240264E+03  0.66416144309E+03  0.87831855357E+03  0.25500000920E-02 0. -1.
</event>
<event>
 5   0  0.2204090E-04  0.1199921E+04  0.7818609E-02  0.9112926E-01
       -1   -1    0    0    0  501  0.00000000000E+00  0.00000000000E+00  0.10397990984E+04  0.10397990984E+04  0.50400001928E-02 0. -1.
        1   -1    0    0  501    0  0.00000000000E+00  0.00000000000E+00 -0.34617506569E+03  0.34617506573E+03  0.50400001928E-02 0.  1.
    10030    2    1    2    0    0  0.00000000000E+00  0.00000000000E+00  0.69362403272E+03  0.13859741642E+04  0.11999208661E+04 0.  0.
        2    1    3    3  502    0  0.34803636621E+01  0.32155809447E+03  0.93184553843E+03  0.98577270633E+03  0.25500000920E-02 0. -1.
       -2    1    3    3    0  502 -0.34803636621E+01 -0.32155809447E+03 -0.23822150571E+03  0.40020145782E+03  0.25500000920E-02 0.  1.
</event>
<event>
 5   0  0.3832662E-04  0.1199229E+04  0.7818609E-02  0.9113532E-01
       -2   -1    0    0    0  501  0.00000000000E+00  0.00000000000E+00  0.93250205150E+03  0.93250205150E+03  0.25500000920E-02 0.  1.
        2   -1    0    0  501    0  0.00000000000E+00  0.00000000000E+00 -0.38556193566E+03  0.38556193567E+03  0.25500000920E-02 0. -1.
    10030    2    1    2    0    0  0.00000000000E+00  0.00000000000E+00  0.54694011584E+03  0.13180639872E+04  0.11992285787E+04 0.  0.
        4    1    3    3  502    0 -0.57863258314E+03 -0.57114712765E+02  0.11246912213E+03  0.59222349921E+03  0.12699999809E+01 0.  1.
       -4    1    3    3    0  502  0.57863258314E+03  0.57114712765E+02  0.43447099371E+03  0.72584048796E+03  0.12699999809E+01 0. -1.
</event>
<event>
 5   0  0.2304842E-04  0.1200067E+04  0.7818609E-02  0.9112798E-01
        1   -1    0    0  501    0  0.00000000000E+00  0.00000000000E+00  0.18083602073E+04  0.18083602073E+04  0.50400001928E-02 0. -1.
       -1   -1    0    0    0  501  0.00000000000E+00  0.00000000000E+00 -0.19909774629E+03  0.19909774635E+03  0.50400001928E-02 0.  1.
    10030    2    1    2    0    0  0.00000000000E+00  0.00000000000E+00  0.16092624610E+04  0.20074579536E+04  0.12000674011E+04 0.  0.
        4    1    3    3  502    0 -0.11583917060E+02  0.83275653586E+02  0.17984554996E+04  0.18004201784E+04  0.12699999809E+01 0. -1.
       -4    1    3    3    0  502  0.11583917060E+02 -0.83275653586E+02 -0.18919303864E+03  0.20703777526E+03  0.12699999809E+01 0.  1.
</event>
<event>
 5   0  0.2315038E-04  0.1200631E+04  0.7818609E-02  0.9112305E-01
        1   -1    0    0  501    0  0.00000000000E+00  0.00000000000E+00  0.43246378118E+03  0.43246378121E+03  0.50400001928E-02 0.  1.
       -1   -1    0    0    0  501  0.00000000000E+00  0.00000000000E+00 -0.83331501445E+03  0.83331501446E+03  0.50400001928E-02 0. -1.
    10030    2    1    2    0    0  0.00000000000E+00  0.00000000000E+00 -0.40085123327E+03  0.12657787957E+04  0.12006307710E+04 0.  0.
        1    1    3    3  502    0 -0.33343608508E+03 -0.31838891995E+03 -0.60577159349E+03  0.76125577218E+03  0.50400001928E-02 0. -1.
       -1    1    3    3    0  502  0.33343608508E+03  0.31838891995E+03  0.20492036022E+03  0.50452302349E+03  0.50400001928E-02 0.  1.
</event>
<event>
 5   0  0.4122956E-04  0.1201370E+04  0.7818609E-02  0.9111658E-01
        2   -1    0    0  501    0  0.00000000000E+00  0.00000000000E+00  0.42165246113E+03  0.42165246114E+03  0.25500000920E-02 0.  1.
       -2   -1    0    0    0  501  0.00000000000E+00  0.00000000000E+00 -0.85573443834E+03  0.85573443834E+03  0.25500000920E-02 0. -1.
    10030    2    1    2    0    0  0.00000000000E+00  0.00000000000E+00 -0.43408197721E+03  0.12773868995E+04  0.12013701045E+04 0.  0.
        5    1    3    3  502    0 -0.24546342815E+02  0.25369224186E+03  0.36128503828E+03  0.44216653583E+03  0.46999998093E+01 0.  1.
       -5    1    3    3    0  502  0.24546342815E+02 -0.25369224186E+03 -0.79536701549E+03  0.83522036365E+03  0.46999998093E+01 0. -1.
</event>
<event>
 5   0  0.4024486E-04  0.1223084E+04  0.7818609E-02  0.9092888E-01
        2   -1    0    0  501    0  0.00000000000E+00  0.00000000000E+00  0.69355152338E+03  0.69355152338E+03  0.25500000920E-02 0. -1.
       -2   -1    0    0    0  501  0.00000000000E+00  0.00000000000E+00 -0.53922931653E+03  0.53922931653E+03  0.25500000920E-02 0.  1.
    10030    2    1    2    0    0  0.00000000000E+00  0.00000000000E+00  0.15432220685E+03  0.12327808399E+04  0.12230835032E+04 0.  0.
        1    1    3    3  502    0  0.22070493788E+03 -0.40885672762E+03  0.47794274236E+03  0.66656114373E+03  0.50400001928E-02 0.  1.
       -1    1    3    3    0  502 -0.22070493788E+03  0.40885672762E+03 -0.32362053551E+03  0.56621969619E+03  0.50400001928E-02 0. -1.
</event>
<event>
 5   0  0.4024486E-04  0.1198107E+04  0.7818609E-02  0.9114515E-01
        2   -1    0    0  501    0  0.00000000000E+00  0.00000000000E+00  0.14250533216E+04  0.14250533216E+04  0.25500000920E-02 0. -1.
       -2   -1    0    0    0  501  0.00000000000E+00  0.00000000000E+00 -0.25182561824E+03  0.25182561825E+03  0.25500000920E-02 0.  1.
    10030    2    1    2    0    0  0.00000000000E+00  0.00000000000E+00  0.11732277034E+04  0.16768789399E+04  0.11981067294E+04 0.  0.
        1    1    3    3  502    0 -0.27946945022E+03  0.39744642202E+03  0.10770720852E+04  0.11815883838E+04  0.50400001928E-02 0. -1.
       -1    1    3    3    0  502  0.27946945022E+03 -0.39744642202E+03  0.96155618138E+02  0.49529055604E+03  0.50400001928E-02 0.  1.
</event>
<event>
 5   0  0.2340731E-04  0.1202428E+04  0.7818609E-02  0.9110734E-01
       -1   -1    0    0    0  501  0.00000000000E+00  0.00000000000E+00  0.25828666774E+03  0.25828666779E+03  0.50400001928E-02 0. -1.
        1   -1    0    0  501    0  0.00000000000E+00  0.00000000000E+00 -0.13994456958E+04  0.13994456958E+04  0.50400001928E-02 0.  1.
    10030    2    1    2    0    0  0.00000000000E+00  0.00000000000E+00 -0.11411590281E+04  0.16577323636E+04  0.12024278199E+04 0.  0.
        3    1    3    3  502    0 -0.17080995913E+03 -0.20806036004E+02 -0.13647720524E+04  0.13755768602E+04  0.10100000352E+00 0.  1.
       -3    1    3    3    0  502  0.17080995913E+03  0.20806036004E+02  0.22361302428E+03  0.28215550340E+03  0.10100000352E+00 0. -1.
</event>
<event>
 5   0  0.4122956E-04  0.1191994E+04  0.7818609E-02  0.9119893E-01
        2   -1    0    0  501    0  0.00000000000E+00  0.00000000000E+00  0.17521207010E+04  0.17521207010E+04  0.25500000920E-02 0. -1.
       -2   -1    0    0    0  501  0.00000000000E+00  0.00000000000E+00 -0.20273277731E+03  0.20273277732E+03  0.25500000920E-02 0.  1.
    10030    2    1    2    0    0  0.00000000000E+00  0.00000000000E+00  0.15493879237E+04  0.19548534783E+04  0.11919937851E+04 0.  0.
        5    1    3    3  502    0 -0.43618829773E+03  0.10872305536E+03  0.13298077160E+03  0.46881436567E+03  0.46999998093E+01 0.  1.
       -5    1    3    3    0  502  0.43618829773E+03 -0.10872305536E+03  0.14164071521E+04  0.14860391127E+04  0.46999998093E+01 0. -1.
</event>
<event>
 5   0  0.3883890E-04  0.1200403E+04  0.7818609E-02  0.9112503E-01
        2   -1    0    0  501    0  0.00000000000E+00  0.00000000000E+00  0.18375763071E+04  0.18375763071E+04  0.25500000920E-02 0. -1.
       -2   -1    0    0    0  501  0.00000000000E+00  0.00000000000E+00 -0.19604200090E+03  0.19604200091E+03  0.25500000920E-02 0.  1.
    10030    2    1    2    0    0  0.00000000000E+00  0.00000000000E+00  0.16415343062E+04  0.20336183080E+04  0.12004034923E+04 0.  0.
        2    1    3    3  502    0  0.39949469972E+03 -0.41045159730E+03  0.51688473839E+03  0.77151562629E+03  0.25500000920E-02 0.  1.
       -2    1    3    3    0  502 -0.39949469972E+03  0.41045159730E+03  0.11246495679E+04  0.12621026818E+04  0.25500000920E-02 0. -1.
</event>
<event>
 5   0  0.2244308E-04  0.1200827E+04  0.7818609E-02  0.9112133E-01
       -1   -1    0    0    0  501  0.00000000000E+00  0.00000000000E+00  0.27015398685E+03  0.27015398690E+03  0.50400001928E-02 0.  1.
        1   -1    0    0  501    0  0.00000000000E+00  0.00000000000E+00 -0.13344112921E+04  0.13344112921E+04  0.50400001928E-02 0. -1.
    10030    2    1    2    0    0  0.00000000000E+00  0.00000000000E+00 -0.10642573052E+04  0.16045652790E+04  0.12008272660E+04 0.  0.
        5    1    3    3  502    0 -0.18994528208E+03  0.26977057997E+03  0.13813955722E+03  0.35771497490E+03  0.46999998093E+01 0.  1.
       -5    1    3    3    0  502  0.18994528208E+03 -0.26977057997E+03 -0.12023968624E+04  0.12468503041E+04  0.46999998093E+01 0. -1.
</event>
<event>
 5   0  0.4024486E-04  0.1196145E+04  0.7818609E-02  0.9116237E-01
       -2   -1    0    0    0  501  0.00000000000E+00  0.00000000000E+00  0.27414364374E+03  0.27414364376E+03  0.25500000920E-02 0. -1.
        2   -1    0    0  501    0  0.00000000000E+00  0.00000000000E+00 -0.13047572642E+04  0.13047572642E+04  0.25500000920E-02 0.  1.
    10030    2    1    2    0    0  0.00000000000E+00  0.00000000000E+00 -0.10306136205E+04  0.15789009080E+04  0.11961453267E+04 0.  0.
        1    1    3    3  502    0  0.69030541697E+02  0.54824397518E+03 -0.81733456251E+03  0.98659640132E+03  0.50400001928E-02 0.  1.
       -1    1    3    3    0  502 -0.69030541697E+02 -0.54824397518E+03 -0.21327905796E+03  0.59230450664E+03  0.50400001928E-02 0. -1.
</event>
<event>
 5   0  0.3832662E-04  0.1198673E+04  0.7818609E-02  0.9114019E-01
       -2   -1    0    0    0  501  0.00000000000E+00  0.00000000000E+00  0.53382229031E+03  0.53382229032E+03  0.25500000920E-02 0. -1.
        2   -1    0    0  501    0  0.00000000000E+00  0.00000000000E+00 -0.67289086734E+03  0.67289086734E+03  0.25500000920E-02 0.  1.
    10030    2    1    2    0    0  0.00000000000E+00  0.00000000000E+00 -0.13906857703E+03  0.12067131577E+04  0.11986728393E+04 0.  0.
        4    1    3    3  502    0  0.44217344395E+03  0.28088924273E+03 -0.36266849918E+03  0.63713905422E+03  0.12699999809E+01 0.  1.
       -4    1    3    3    0  502 -0.44217344395E+03 -0.28088924273E+03  0.22359992216E+03  0.56957410344E+03  0.12699999809E+01 0. -1.
</event>
<event>
 5   0  0.4024486E-04  0.1200165E+04  0.7818609E-02  0.9112712E-01
       -2   -1    0    0    0  501  0.00000000000E+00  0.00000000000E+00  0.40630595766E+03  0.40630595767E+03  0.25500000920E-02 0.  1.
        2   -1    0    0  501    0  0.00000000000E+00  0.00000000000E+00 -0.88627551660E+03  0.88627551660E+03  0.25500000920E-02 0. -1.
    10030    2    1    2    0    0  0.00000000000E+00  0.00000000000E+00 -0.47996955894E+03  0.12925814743E+04  0.12001650262E+04 0.  0.
        1    1    3    3  502    0  0.24727218404E+03 -0.35907793149E+03 -0.68406873937E+03  0.81119081238E+03  0.50400001928E-02 0. -1.
       -1    1    3    3    0  502 -0.24727218404E+03  0.35907793149E+03  0.20409918043E+03  0.48139066190E+03  0.50400001928E-02 0.  1.
</event>
<event>
 5   0  0.3883890E-04  0.1199054E+04  0.7818609E-02  0.9113685E-01
       -2   -1    0    0    0  501  0.00000000000E+00  0.00000000000E+00  0.40229632399E+03  0.40229632400E+03  0.25500000920E-02 0. -1.
        2   -1    0    0  501    0  0.00000000000E+00  0.00000000000E+00 -0.89345259418E+03  0.89345259418E+03  0.25500000920E-02 0.  1.
    10030    2    1    2    0    0  0.00000000000E+00  0.00000000000E+00 -0.49115627018E+03  0.12957489182E+04  0.11990541177E+04 0.  0.
        2    1    3    3  502    0 -0.35613688745E+03 -0.27302319422E+02 -0.76592048574E+03  0.84511128837E+03  0.25500000920E-02 0.  1.
       -2    1    3    3    0  502  0.35613688745E+03  0.27302319422E+02  0.27476421556E+03  0.45063762981E+03  0.25500000920E-02 0. -1.
</event>
<event>
 5   0  0.2204090E-04  0.1176723E+04  0.7818609E-02  0.9133478E-01
        1   -1    0    0  501    0  0.00000000000E+00  0.00000000000E+00  0.79539578565E+03  0.79539578567E+03  0.50400001928E-02 0.  1.
       -1   -1    0    0    0  501  0.00000000000E+00  0.00000000000E+00 -0.43521643419E+03  0.43521643422E+03  0.50400001928E-02 0. -1.
    10030    2    1    2    0    0  0.00000000000E+00  0.00000000000E+00  0.36017935147E+03  0.12306122199E+04  0.11767231070E+04 0.  0.
        2    1    3    3  502    0  0.31272871949E+03 -0.12902091767E+03  0.68351161609E+03  0.76264918444E+03  0.25500000920E-02 0.  1.
       -2    1    3    3    0  502 -0.31272871949E+03  0.12902091767E+03 -0.32333226463E+03  0.46796303545E+03  0.25500000920E-02 0. -1.
</event>
<event>
 5   0  0.2204090E-04  0.1198379E+04  0.7818609E-02  0.9114277E-01
       -1   -1    0    0    0  501  0.00000000000E+00  0.00000000000E+00  0.11629419885E+04  0.11629419885E+04  0.50400001928E-02 0.  1.
        1   -1    0    0  501    0  0.00000000000E+00  0.00000000000E+00 -0.30872397439E+03  0.30872397443E+03  0.50400001928E-02 0. -1.
    10030    2    1    2    0    0  0.00000000000E+00  0.00000000000E+00  0.85421801406E+03  0.14716659629E+04  0.11983790264E+04 0.  0.
        2    1    3    3  502    0  0.22072662602E+03  0.47695158969E+03  0.78053280971E+03  0.94097530753E+03  0.25500000920E-02 0.  1.
       -2    1    3    3    0  502 -0.22072662602E+03 -0.47695158969E+03  0.73685204345E+02  0.53069065536E+03  0.25500000920E-02 0. -1.
</event>
<event>
 5   0  0.4024486E-04  0.1198185E+04  0.7818609E-02  0.9114447E-01
        2   -1    0    0  501    0  0.00000000000E+00  0.00000000000E+00  0.16327017975E+04  0.16327017975E+04  0.25500000920E-02 0.  1.
       -2   -1    0    0    0  501  0.00000000000E+00  0.00000000000E+00 -0.21982683817E+03  0.21982683819E+03  0.25500000920E-02 0. -1.
    10030    2    1    2    0    0  0.00000000000E+00  0.00000000000E+00  0.14128749594E+04  0.18525286357E+04  0.11981847501E+04 0.  0.
        1    1    3    3  502    0  0.25949139411E+03  0.35410813809E+03  0.13367194055E+04  0.14069637970E+04  0.50400001928E-02 0.  1.
       -1    1    3    3    0  502 -0.25949139411E+03 -0.35410813809E+03  0.76155553875E+02  0.44556483871E+03  0.50400001928E-02 0. -1.
</event>
<event>
 5   0  0.2315038E-04  0.1199752E+04  0.7818609E-02  0.9113074E-01
       -1   -1    0    0    0  501  0.00000000000E+00  0.00000000000E+00  0.22520818169E+03  0.22520818175E+03  0.50400001928E-02 0. -1.
        1   -1    0    0  501    0  0.00000000000E+00  0.00000000000E+00 -0.15978591782E+04  0.15978591782E+04  0.50400001928E-02 0.  1.
    10030    2    1    2    0    0  0.00000000000E+00  0.00000000000E+00 -0.13726509965E+04  0.18230673600E+04  0.11997515746E+04 0.  0.
        1    1    3    3  502    0  0.41392800105E+02  0.18240083779E+01 -0.15956823155E+04  0.15962201423E+04  0.50400001928E-02 0.  1.
       -1    1    3    3    0  502 -0.41392800105E+02 -0.18240083779E+01  0.22303131892E+03  0.22684721764E+03  0.50400001928E-02 0. -1.
</event>
<event>
 5   0  0.2244308E-04  0.1200315E+04  0.7818609E-02  0.9112581E-01
        1   -1    0    0  501    0  0.00000000000E+00  0.00000000000E+00  0.10151976999E+04  0.10151976999E+04  0.50400001928E-02 0.  1.
       -1   -1    0    0    0  501  0.00000000000E+00  0.00000000000E+00 -0.35479680671E+03  0.35479680675E+03  0.50400001928E-02 0. -1.
    10030    2    1    2    0    0  0.00000000000E+00  0.00000000000E+00  0.66040089320E+03  0.13699945067E+04  0.12003147956E+04 0.  0.
        5    1    3    3  502    0 -0.51585495022E+03 -0.31950808476E+02 -0.17942539217E+02  0.51717618714E+03  0.46999998093E+01 0. -1.
       -5    1    3    3    0  502  0.51585495022E+03  0.31950808476E+02  0.67834343242E+03  0.85281831953E+03  0.46999998093E+01 0.  1.
</event>
<event>
 5   0  0.4024486E-04  0.1200734E+04  0.7818609E-02  0.9112214E-01
        2   -1    0    0  501    0  0.00000000000E+00  0.00000000000E+00  0.33724511005E+03  0.33724511006E+03  0.25500000920E-02 0. -1.
       -2   -1    0    0    0  501  0.00000000000E+00  0.00000000000E+00 -0.10687790574E+04  0.10687790574E+04  0.25500000920E-02 0.  1.
    10030    2    1    2    0    0  0.00000000000E+00  0.00000000000E+00 -0.73153394739E+03  0.14060241675E+04  0.12007339603E+04 0.  0.
        1    1    3    3  502    0 -0.19349056504E+03 -0.53312313718E+02  0.29679930724E+03  0.35828847366E+03  0.50400001928E-02 0. -1.
       -1    1    3    3    0  502  0.19349056504E+03  0.53312313718E+02 -0.10283332546E+04  0.10477356938E+04  0.50400001928E-02 0.  1.
</event>
<event>
 5   0  0.2304842E-04  0.1202555E+04  0.7818609E-02  0.9110623E-01
        1   -1    0    0  501    0  0.00000000000E+00  0.00000000000E+00  0.13932706640E+04  0.13932706640E+04  0.50400001928E-02 0. -1.
       -1   -1    0    0    0  501  0.00000000000E+00  0.00000000000E+00 -0.25948609639E+03  0.25948609644E+03  0.50400001928E-02 0.  1.
    10030    2    1    2    0    0  0.00000000000E+00  0.00000000000E+00  0.11337845676E+04  0.16527567604E+04  0.12025545574E+04 0.  0.
        4    1    3    3  502    0  0.18756475586E+03 -0.44141779533E+03  0.10652844796E+04  0.11682734453E+04  0.12699999809E+01 0. -1.
       -4    1    3    3    0  502 -0.18756475586E+03  0.44141779533E+03  0.68500088015E+02  0.48448331513E+03  0.12699999809E+01 0.  1.
</event>
<event>
 5   0  0.3883890E-04  0.1199383E+04  0.7818609E-02  0.9113397E-01
        2   -1    0    0  501    0  0.00000000000E+00  0.00000000000E+00  0.55160985594E+03  0.55160985595E+03  0.25500000920E-02 0. -1.
       -2   -1    0    0    0  501  0.00000000000E+00  0.00000000000E+00 -0.65196381649E+03  0.65196381650E+03  0.25500000920E-02 0.  1.
    10030    2    1    2    0    0  0.00000000000E+00  0.00000000000E+00 -0.10035396055E+03  0.12035736724E+04  0.11993826194E+04 0.  0.
        2    1    3    3  502    0  0.42254517525E+03  0.40484890919E+03 -0.18171745343E+03  0.61275467953E+03  0.25500000920E-02 0. -1.
       -2    1    3    3    0  502 -0.42254517525E+03 -0.40484890919E+03  0.81363492883E+02  0.59081899291E+03  0.25500000920E-02 0.  1.
</event>
<event>
 5   0  0.2304842E-04  0.1200377E+04  0.7818609E-02  0.9112526E-01
       -1   -1    0    0    0  501  0.00000000000E+00  0.00000000000E+00  0.43243924901E+03  0.43243924904E+03  0.50400001928E-02 0. -1.
        1   -1    0    0  501    0  0.00000000000E+00  0.00000000000E+00 -0.83301060316E+03  0.83301060318E+03  0.50400001928E-02 0.  1.
    10030    2    1    2    0    0  0.00000000000E+00  0.00000000000E+00 -0.40057135415E+03  0.12654498522E+04  0.12003774068E+04 0.  0.
        4    1    3    3  502    0  0.78942951271E+02  0.21189229163E+03  0.38581576416E+03  0.44719766276E+03  0.12699999809E+01 0. -1.
       -4    1    3    3    0  502 -0.78942951271E+02 -0.21189229163E+03 -0.78638711831E+03  0.81825218945E+03  0.12699999809E+01 0.  1.
</event>
<event>
 5   0  0.2315038E-04  0.1200026E+04  0.7818609E-02  0.9112834E-01
       -1   -1    0    0    0  501  0.00000000000E+00  0.00000000000E+00  0.76916465827E+03  0.76916465829E+03  0.50400001928E-02 0. -1.
        1   -1    0    0  501    0  0.00000000000E+00  0.00000000000E+00 -0.46806047706E+03  0.46806047709E+03  0.50400001928E-02 0.  1.
    10030    2    1    2    0    0  0.00000000000E+00  0.00000000000E+00  0.30110418121E+03  0.12372251354E+04  0.12000259612E+04 0.  0.
        1    1    3    3  502    0  0.54548911548E+03  0.40329406440E+02  0.40483644833E+03  0.68049789570E+03  0.50400001928E-02 0. -1.
       -1    1    3    3    0  502 -0.54548911548E+03 -0.40329406440E+02 -0.10373226712E+03  0.55672723968E+03  0.50400001928E-02 0.  1.
</event>
<event>
 5   0  0.4122956E-04  0.1201715E+04  0.7818609E-02  0.9111357E-01
        2   -1    0    0  501    0  0.00000000000E+00  0.00000000000E+00  0.74853391589E+03  0.74853391590E+03  0.25500000920E-02 0.  1.
       -2   -1    0    0    0  501  0.00000000000E+00  0.00000000000E+00 -0.48231552190E+03  0.48231552191E+03  0.25500000920E-02 0. -1.
    10030    2    1    2    0    0  0.00000000000E+00  0.00000000000E+00  0.26621839400E+03  0.12308494378E+04  0.12017146522E+04 0.  0.
        5    1    3    3  502    0  0.18899094360E+03 -0.20665913317E+03  0.67758140505E+03  0.73318771440E+03  0.46999998093E+01 0.  1.
       -5    1    3    3    0  502 -0.18899094360E+03  0.20665913317E+03 -0.41136301105E+03  0.49766172341E+03  0.46999998093E+01 0. -1.
</event>
<event>
 5   0  0.2340731E-04  0.1203975E+04  0.7818609E-02  0.9109384E-01
       -1   -1    0    0    0  501  0.00000000000E+00  0.00000000000E+00  0.16018170120E+04  0.16018170120E+04  0.50400001928E-02 0.  1.
        1   -1    0    0  501    0  0.00000000000E+00  0.00000000000E+00 -0.22623620385E+03  0.22623620390E+03  0.50400001928E-02 0. -1.
    10030    2    1    2    0    0  0.00000000000E+00  0.00000000000E+00  0.13755808082E+04  0.18280532159E+04  0.12039750830E+04 0.  0.
        3    1    3    3  502    0 -0.10092977022E+02  0.24952768422E+03 -0.14387502845E+03  0.28821167115E+03  0.10100000352E+00 0. -1.
       -3    1    3    3    0  502  0.10092977022E+02 -0.24952768422E+03  0.15194558366E+04  0.15398415448E+04  0.10100000352E+00 0.  1.
</event>
<event>
 5   0  0.2340731E-04  0.1219688E+04  0.7818609E-02  0.9095796E-01
        1   -1    0    0  501    0  0.00000000000E+00  0.00000000000E+00  0.14082907652E+04  0.14082907653E+04  0.50400001928E-02 0.  1.
       -1   -1    0    0    0  501  0.00000000000E+00  0.00000000000E+00 -0.26408605091E+03  0.26408605096E+03  0.50400001928E-02 0. -1.
    10030    2    1    2    0    0  0.00000000000E+00  0.00000000000E+00  0.11442047143E+04  0.16723768162E+04  0.12196883975E+04 0.  0.
        3    1    3    3  502    0 -0.38134842371E+03 -0.16937731525E+03  0.11819094994E+04  0.12534055091E+04  0.10100000352E+00 0.  1.
       -3    1    3    3    0  502  0.38134842371E+03  0.16937731525E+03 -0.37704785066E+02  0.41897130714E+03  0.10100000352E+00 0. -1.
</event>
<event>
 5   0  0.3883890E-04  0.1200740E+04  0.7818609E-02  0.9112209E-01
        2   -1    0    0  501    0  0.00000000000E+00  0.00000000000E+00  0.73810137493E+03  0.73810137493E+03  0.25500000920E-02 0. -1.
       -2   -1    0    0    0  501  0.00000000000E+00  0.00000000000E+00 -0.48833924839E+03  0.48833924839E+03  0.25500000920E-02 0.  1.
    10030    2    1    2    0    0  0.00000000000E+00  0.00000000000E+00  0.24976212654E+03  0.12264406233E+04  0.12007395566E+04 0.  0.
        2    1    3    3  502    0  0.43854053605E+03  0.88286457501E+02  0.53386592408E+03  0.69650924275E+03  0.25500000920E-02 0. -1.
       -2    1    3    3    0  502 -0.43854053605E+03 -0.88286457501E+02 -0.28410379753E+03  0.52993138058E+03  0.25500000920E-02 0.  1.
</event>
<event>
 5   0  0.3832662E-04  0.1199507E+04  0.7818609E-02  0.9113288E-01
        2   -1    0    0  501    0  0.00000000000E+00  0.00000000000E+00  0.16608183915E+04  0.16608183915E+04  0.25500000920E-02 0.  1.
       -2   -1    0    0    0  501  0.00000000000E+00  0.00000000000E+00 -0.21658270751E+03  0.21658270753E+03  0.25500000920E-02 0. -1.
    10030    2    1    2    0    0  0.00000000000E+00  0.00000000000E+00  0.14442356840E+04  0.18774010991E+04  0.11995074722E+04 0.  0.
        4    1    3    3  502    0  0.91727204721E+02  0.48551238125E+03  0.19004558611E+03  0.52939124486E+03  0.12699999809E+01 0. -1.
       -4    1    3    3    0  502 -0.91727204721E+02 -0.48551238125E+03  0.12541900979E+04  0.13480098542E+04  0.12699999809E+01 0.  1.
</event>
<event>
 5   0  0.2340731E-04  0.1199655E+04  0.7818609E-02  0.9113158E-01
       -1   -1    0    0    0  501  0.00000000000E+00  0.00000000000E+00  0.19042097503E+03  0.19042097510E+03  0.50400001928E-02 0. -1.
        1   -1    0    0  501    0  0.00000000000E+00  0.00000000000E+00 -0.18894626402E+04  0.18894626402E+04  0.50400001928E-02 0.  1.
    10030    2    1    2    0    0  0.00000000000E+00  0.00000000000E+00 -0.16990416652E+04  0.20798836153E+04  0.11996554811E+04 0.  0.
        3    1    3    3  502    0  0.30887583837E+03 -0.38549034344E+03 -0.14394650228E+04  0.15218628882E+04  0.10100000352E+00 0.  1.
       -3    1    3    3    0  502 -0.30887583837E+03  0.38549034344E+03 -0.25957664238E+03  0.55802072712E+03  0.10100000352E+00 0. -1.
</event>
<event>
 5   0  0.3883890E-04  0.1199486E+04  0.7818609E-02  0.9113306E-01
        2   -1    0    0  501    0  0.00000000000E+00  0.00000000000E+00  0.64485866424E+03  0.64485866424E+03  0.25500000920E-02 0.  1.
       -2   -1    0    0    0  501  0.00000000000E+00  0.00000000000E+00 -0.55778386506E+03  0.55778386506E+03  0.25500000920E-02 0. -1.
    10030    2    1    2    0    0  0.00000000000E+00  0.00000000000E+00  0.87074799176E+02  0.12026425293E+04  0.11994861536E+04 0.  0.
        2    1    3    3  502    0 -0.18599185142E+03 -0.42149173426E+03 -0.34145676365E+03  0.57344657319E+03  0.25500000920E-02 0. -1.
       -2    1    3    3    0  502  0.18599185142E+03  0.42149173426E+03  0.42853156283E+03  0.62919595612E+03  0.25500000920E-02 0.  1.
</event>
<event>
 5   0  0.3832662E-04  0.1198624E+04  0.7818609E-02  0.9114062E-01
        2   -1    0    0  501    0  0.00000000000E+00  0.00000000000E+00  0.65971164848E+03  0.65971164848E+03  0.25500000920E-02 0.  1.
       -2   -1    0    0    0  501  0.00000000000E+00  0.00000000000E+00 -0.54444205322E+03  0.54444205323E+03  0.25500000920E-02 0. -1.
    10030    2    1    2    0    0  0.00000000000E+00  0.00000000000E+00  0.11526959526E+03  0.12041537017E+04  0.11986238183E+04 0.  0.
        4    1    3    3  502    0  0.14110810673E+03  0.11555141889E+02 -0.52739896576E+03  0.54607353083E+03  0.12699999809E+01 0. -1.
       -4    1    3    3    0  502 -0.14110810673E+03 -0.11555141889E+02  0.64266856101E+03  0.65808017088E+03  0.12699999809E+01 0.  1.
</event>
<event>
 5   0  0.3993723E-04  0.1200833E+04  0.7818609E-02  0.9112128E-01
       -2   -1    0    0    0  501  0.00000000000E+00  0.00000000000E+00  0.29633745117E+03  0.29633745118E+03  0.25500000920E-02 0. -1.
        2   -1    0    0  501    0  0.00000000000E+00  0.00000000000E+00 -0.12165175143E+04  0.12165175143E+04  0.25500000920E-02 0.  1.
    10030    2    1    2    0    0  0.00000000000E+00  0.00000000000E+00 -0.92018006317E+03  0.15128549655E+04  0.12008325437E+04 0.  0.
        3    1    3    3  502    0 -0.19536253244E+03 -0.23721015001E+03 -0.11099328505E+04  0.11516883768E+04  0.10100000352E+00 0.  1.
       -3    1    3    3    0  502  0.19536253244E+03  0.23721015001E+03  0.18975278732E+03  0.36116658877E+03  0.10100000352E+00 0. -1.
</event>
<event>
 5   0  0.2340731E-04  0.1200046E+04  0.7818609E-02  0.9112817E-01
       -1   -1    0    0    0  501  0.00000000000E+00  0.00000000000E+00  0.31418018187E+03  0.31418018191E+03  0.50400001928E-02 0. -1.
        1   -1    0    0  501    0  0.00000000000E+00  0.00000000000E+00 -0.11459265979E+04  0.11459265979E+04  0.50400001928E-02 0.  1.
    10030    2    1    2    0    0  0.00000000000E+00  0.00000000000E+00 -0.83174641606E+03  0.14601067798E+04  0.12000457108E+04 0.  0.
        3    1    3    3  502    0  0.48146380843E+03  0.10757619732E+02 -0.85135366314E+03  0.97812381381E+03  0.10100000352E+00 0.  1.
       -3    1    3    3    0  502 -0.48146380843E+03 -0.10757619732E+02  0.19607247077E+02  0.48198296603E+03  0.10100000352E+00 0. -1.
</event>
<event>
 5   0  0.3883890E-04  0.1201333E+04  0.7818609E-02  0.9111691E-01
       -2   -1    0    0    0  501  0.00000000000E+00  0.00000000000E+00  0.27874997453E+03  0.27874997455E+03  0.25500000920E-02 0. -1.
        2   -1    0    0  501    0  0.00000000000E+00  0.00000000000E+00 -0.12943508997E+04  0.12943508997E+04  0.25500000920E-02 0.  1.
    10030    2    1    2    0    0  0.00000000000E+00  0.00000000000E+00 -0.10156009252E+04  0.15731008743E+04  0.12013330601E+04 0.  0.
        2    1    3    3  502    0  0.21231683854E+03 -0.51676684259E+03 -0.21890475700E+03  0.60003808393E+03  0.25500000920E-02 0. -1.
       -2    1    3    3    0  502 -0.21231683854E+03  0.51676684259E+03 -0.79669616817E+03  0.97306279032E+03  0.25500000920E-02 0.  1.
</event>
<event>
 5   0  0.2244308E-04  0.1200533E+04  0.7818609E-02  0.9112390E-01
        1   -1    0    0  501    0  0.00000000000E+00  0.00000000000E+00  0.53670774355E+03  0.53670774357E+03  0.50400001928E-02 0.  1.
       -1   -1    0    0    0  501  0.00000000000E+00  0.00000000000E+00 -0.67135180238E+03  0.67135180240E+03  0.50400001928E-02 0. -1.
    10030    2    1    2    0    0  0.00000000000E+00  0.00000000000E+00 -0.13464405883E+03  0.12080595460E+04  0.12005327334E+04 0.  0.
        5    1    3    3  502    0  0.51738533791E+02 -0.21281968632E+03  0.49504540226E+03  0.54135121230E+03  0.46999998093E+01 0.  1.
       -5    1    3    3    0  502 -0.51738533791E+02  0.21281968632E+03 -0.62968946110E+03  0.66670833367E+03  0.46999998093E+01 0. -1.
</event>
<event>
 5   0  0.2304842E-04  0.1199297E+04  0.7818609E-02  0.9113472E-01
        1   -1    0    0  501    0  0.00000000000E+00  0.00000000000E+00  0.39478848987E+03  0.39478848990E+03  0.50400001928E-02 0.  1.
       -1   -1    0    0    0  501  0.00000000000E+00  0.00000000000E+00 -0.91081300224E+03  0.91081300225E+03  0.50400001928E-02 0. -1.
    10030    2    1    2    0    0  0.00000000000E+00  0.00000000000E+00 -0.51602451237E+03  0.13056014922E+04  0.11992972771E+04 0.  0.
        4    1    3    3  502    0 -0.14733264333E+03  0.11943371335E+03  0.36127447594E+03  0.40803453229E+03  0.12699999809E+01 0.  1.
       -4    1    3    3    0  502  0.14733264333E+03 -0.11943371335E+03 -0.87729898831E+03  0.89756695987E+03  0.12699999809E+01 0. -1.
</event>
<event>
 5   0  0.3883890E-04  0.1200218E+04  0.7818609E-02  0.9112666E-01
        2   -1    0    0  501    0  0.00000000000E+00  0.00000000000E+00  0.73828471915E+03  0.73828471915E+03  0.25500000920E-02 0.  1.
       -2   -1    0    0    0  501  0.00000000000E+00  0.00000000000E+00 -0.48779400572E+03  0.48779400572E+03  0.25500000920E-02 0. -1.
    10030    2    1    2    0    0  0.00000000000E+00  0.00000000000E+00  0.25049071343E+03  0.12260787249E+04  0.12002180810E+04 0.  0.
        2    1    3    3  502    0 -0.50647090267E+03 -0.19662344609E+03 -0.13511340241E+03  0.55984746701E+03  0.25500000920E-02 0. -1.
       -2    1    3    3    0  502  0.50647090267E+03  0.19662344609E+03  0.38560411584E+03  0.66623125787E+03  0.25500000920E-02 0.  1.
</event>
<event>
 5   0  0.2244308E-04  0.1200712E+04  0.7818609E-02  0.9112233E-01
       -1   -1    0    0    0  501  0.00000000000E+00  0.00000000000E+00  0.66768874017E+03  0.66768874019E+03  0.50400001928E-02 0.  1.
        1   -1    0    0  501    0  0.00000000000E+00  0.00000000000E+00 -0.53981382154E+03  0.53981382156E+03  0.50400001928E-02 0. -1.
    10030    2    1    2    0    0  0.00000000000E+00  0.00000000000E+00  0.12787491864E+03  0.12075025618E+04  0.12007124726E+04 0.  0.
        5    1    3    3  502    0 -0.16986333828E+03 -0.51120712236E+03 -0.20255020849E+03  0.57553014916E+03  0.46999998093E+01 0. -1.
       -5    1    3    3    0  502  0.16986333828E+03  0.51120712236E+03  0.33042512712E+03  0.63197241259E+03  0.46999998093E+01 0.  1.
</event>
<event>
 5   0  0.2340731E-04  0.1202405E+04  0.7818609E-02  0.9110754E-01
       -1   -1    0    0    0  501  0.00000000000E+00  0.00000000000E+00  0.68211551832E+03  0.68211551834E+03  0.50400001928E-02 0. -1.
        1   -1    0    0  501    0  0.00000000000E+00  0.00000000000E+00 -0.52988707819E+03  0.52988707821E+03  0.50400001928E-02 0.  1.
    10030    2    1    2    0    0  0.00000000000E+00  0.00000000000E+00  0.15222844013E+03  0.12120025966E+04  0.12024045892E+04 0.  0.
        3    1    3    3  502    0 -0.22968176695E+03  0.33193358172E+03 -0.37298752808E+03  0.54959378003E+03  0.10100000352E+00 0.  1.
       -3    1    3    3    0  502  0.22968176695E+03 -0.33193358172E+03  0.52521596821E+03  0.66240881652E+03  0.10100000352E+00 0. -1.
</event>
<event>
 5   0  0.2340731E-04  0.1200114E+04  0.7818609E-02  0.9112757E-01
       -1   -1    0    0    0  501  0.00000000000E+00  0.00000000000E+00  0.58689278373E+03  0.58689278376E+03  0.50400001928E-02 0. -1.
        1   -1    0    0  501    0  0.00000000000E+00  0.00000000000E+00 -0.61351643154E+03  0.61351643156E+03  0.50400001928E-02 0.  1.
    10030    2    1    2    0    0  0.00000000000E+00  0.00000000000E+00 -0.26623647803E+02  0.12004092153E+04  0.12001139386E+04 0.  0.
        3    1    3    3  502    0 -0.57678919239E+02 -0.57796201282E+03 -0.16401876640E+03  0.60354710829E+03  0.10100000352E+00 0.  1.
       -3    1    3    3    0  502  0.57678919239E+02  0.57796201282E+03  0.13739511860E+03  0.59686210703E+03  0.10100000352E+00 0. -1.
</event>
<event>
 5   0  0.2204090E-04  0.1201420E+04  0.7818609E-02  0.9111615E-01
        1   -1    0    0  501    0  0.00000000000E+00  0.00000000000E+00  0.53797137903E+03  0.53797137906E+03  0.50400001928E-02 0.  1.
       -1   -1    0    0    0  501  0.00000000000E+00  0.00000000000E+00 -0.67076474018E+03  0.67076474020E+03  0.50400001928E-02 0. -1.
    10030    2    1    2    0    0  0.00000000000E+00  0.00000000000E+00 -0.13279336115E+03  0.12087361193E+04  0.12014195476E+04 0.  0.
        2    1    3    3  502    0 -0.29672420368E+03  0.52031826666E+03 -0.20557378709E+02  0.59933209283E+03  0.25500000920E-02 0.  1.
       -2    1    3    3    0  502  0.29672420368E+03 -0.52031826666E+03 -0.11223598244E+03  0.60940402643E+03  0.25500000920E-02 0. -1.
</event>
<event>
 5   0  0.4122956E-04  0.1198469E+04  0.7818609E-02  0.9114198E-01
        2   -1    0    0  501    0  0.00000000000E+00  0.00000000000E+00  0.12460941510E+04  0.12460941510E+04  0.25500000920E-02 0. -1.
       -2   -1    0    0    0  501  0.00000000000E+00  0.00000000000E+00 -0.28816588398E+03  0.28816588399E+03  0.25500000920E-02 0.  1.
    10030    2    1    2    0    0  0.00000000000E+00  0.00000000000E+00  0.95792826703E+03  0.15342600350E+04  0.11984687273E+04 0.  0.
        5    1    3    3  502    0 -0.57919145163E+03  0.14175563333E+03  0.40320218612E+03  0.71982740300E+03  0.46999998093E+01 0.  1.
       -5    1    3    3    0  502  0.57919145163E+03 -0.14175563333E+03  0.55472608091E+03  0.81443263199E+03  0.46999998093E+01 0. -1.
</event>
<event>
 5   0  0.2304842E-04  0.1199109E+04  0.7818609E-02  0.9113637E-01
       -1   -1    0    0    0  501  0.00000000000E+00  0.00000000000E+00  0.19287207972E+03  0.19287207979E+03  0.50400001928E-02 0. -1.
        1   -1    0    0  501    0  0.00000000000E+00  0.00000000000E+00 -0.18637515556E+04  0.18637515556E+04  0.50400001928E-02 0.  1.
    10030    2    1    2    0    0  0.00000000000E+00  0.00000000000E+00 -0.16708794758E+04  0.20566236353E+04  0.11991090671E+04 0.  0.
        4    1    3    3  502    0  0.53704168545E+03  0.12932228973E+03 -0.12352003462E+04  0.13530925817E+04  0.12699999809E+01 0.  1.
       -4    1    3    3    0  502 -0.53704168545E+03 -0.12932228973E+03 -0.43567912964E+03  0.70353105364E+03  0.12699999809E+01 0. -1.
</event>
<event>
 5   0  0.2340731E-04  0.1199892E+04  0.7818609E-02  0.9112951E-01
        1   -1    0    0  501    0  0.00000000000E+00  0.00000000000E+00  0.13186680732E+04  0.13186680732E+04  0.50400001928E-02 0.  1.
       -1   -1    0    0    0  501  0.00000000000E+00  0.00000000000E+00 -0.27295378468E+03  0.27295378472E+03  0.50400001928E-02 0. -1.
    10030    2    1    2    0    0  0.00000000000E+00  0.00000000000E+00  0.10457142885E+04  0.15916218580E+04  0.11998923975E+04 0.  0.
        3    1    3    3  502    0 -0.41342233315E+03  0.19515557556E+03  0.75242854875E+01  0.45723117708E+03  0.10100000352E+00 0. -1.
       -3    1    3    3    0  502  0.41342233315E+03 -0.19515557556E+03  0.10381900031E+04  0.11343906809E+04  0.10100000352E+00 0.  1.
</event>
<event>
 5   0  0.3883890E-04  0.1200804E+04  0.7818609E-02  0.9112153E-01
        2   -1    0    0  501    0  0.00000000000E+00  0.00000000000E+00  0.12463537461E+04  0.12463537461E+04  0.25500000920E-02 0. -1.
       -2   -1    0    0    0  501  0.00000000000E+00  0.00000000000E+00 -0.28922967843E+03  0.28922967844E+03  0.25500000920E-02 0.  1.
    10030    2    1    2    0    0  0.00000000000E+00  0.00000000000E+00  0.95712406764E+03  0.15355834245E+04  0.12008038861E+04 0.  0.
        2    1    3    3  502    0 -0.42017881349E+03  0.15105093843E+03  0.99186112320E+03  0.10877293363E+04  0.25500000920E-02 0. -1.
       -2    1    3    3    0  502  0.42017881349E+03 -0.15105093843E+03 -0.34737055552E+02  0.44785408822E+03  0.25500000920E-02 0.  1.
</event>
<event>
 5   0  0.1541375E-04  0.1199252E+04  0.7818609E-02  0.9113512E-01
        4   -1    0    0  501    0  0.00000000000E+00  0.00000000000E+00  0.52926837186E+03  0.52926989556E+03  0.12699999809E+01 0. -1.
       -4   -1    0    0    0  501  0.00000000000E+00  0.00000000000E+00 -0.67933291143E+03  0.67933409855E+03  0.12699999809E+01 0.  1.
    10030    2    1    2    0    0  0.00000000000E+00  0.00000000000E+00 -0.15006453957E+03  0.12086039941E+04  0.11992515368E+04 0.  0.
        1    1    3    3  502    0  0.53172439463E+03  0.14391568098E+03 -0.31375188069E+03  0.63394226688E+03  0.50400001928E-02 0.  1.
       -1    1    3    3    0  502 -0.53172439463E+03 -0.14391568098E+03  0.16368734112E+03  0.57466172723E+03  0.50400001928E-02 0. -1.
</event>
<event>
 5   0  0.4122956E-04  0.1201740E+04  0.7818609E-02  0.9111335E-01
       -2   -1    0    0    0  501  0.00000000000E+00  0.00000000000E+00  0.37666378959E+03  0.37666378960E+03  0.25500000920E-02 0.  1.
        2   -1    0    0  501    0  0.00000000000E+00  0.00000000000E+00 -0.95853382723E+03  0.95853382723E+03  0.25500000920E-02 0. -1.
    10030    2    1    2    0    0  0.00000000000E+00  0.00000000000E+00 -0.58187003763E+03  0.13351976168E+04  0.12017403777E+04 0.  0.
        5    1    3    3  502    0 -0.35894110672E+03  0.12591460148E+03 -0.80769985971E+03  0.89280141036E+03  0.46999998093E+01 0. -1.
       -5    1    3    3    0  502  0.35894110672E+03 -0.12591460148E+03  0.22582982208E+03  0.44239620647E+03  0.46999998093E+01 0.  1.
</event>
<event>
 5   0  0.2315038E-04  0.1201410E+04  0.7818609E-02  0.9111623E-01
        1   -1    0    0  501    0  0.00000000000E+00  0.00000000000E+00  0.10894354371E+04  0.10894354371E+04  0.50400001928E-02 0.  1.
       -1   -1    0    0    0  501  0.00000000000E+00  0.00000000000E+00 -0.33122349091E+03  0.33122349095E+03  0.50400001928E-02 0. -1.
    10030    2    1    2    0    0  0.00000000000E+00  0.00000000000E+00  0.75821194620E+03  0.14206589281E+04  0.12014101858E+04 0.  0.
        1    1    3    3  502    0 -0.18310608470E+03 -0.48771781578E+03  0.73276841127E+03  0.89908066972E+03  0.50400001928E-02 0.  1.
       -1    1    3    3    0  502  0.18310608470E+03  0.48771781578E+03  0.25443534929E+02  0.52157825835E+03  0.50400001928E-02 0. -1.
</event>
<event>
 5   0  0.3993723E-04  0.1198827E+04  0.7818609E-02  0.9113884E-01
        2   -1    0    0  501    0  0.00000000000E+00  0.00000000000E+00  0.79679420663E+03  0.79679420664E+03  0.25500000920E-02 0. -1.
       -2   -1    0    0    0  501  0.00000000000E+00  0.00000000000E+00 -0.45092765149E+03  0.45092765150E+03  0.25500000920E-02 0.  1.
    10030    2    1    2    0    0  0.00000000000E+00  0.00000000000E+00  0.34586655514E+03  0.12477218581E+04  0.11988269939E+04 0.  0.
        3    1    3    3  502    0  0.27687114416E+03  0.49785059765E+03  0.36704378568E+03  0.67766805950E+03  0.10100000352E+00 0.  1.
       -3    1    3    3    0  502 -0.27687114416E+03 -0.49785059765E+03 -0.21177230545E+02  0.57005379864E+03  0.10100000352E+00 0. -1.
</event>
<event>
 5   0  0.4122956E-04  0.1198455E+04  0.7818609E-02  0.9114210E-01
        2   -1    0    0  501    0  0.00000000000E+00  0.00000000000E+00  0.19733942109E+04  0.19733942109E+04  0.25500000920E-02 0. -1.
       -2   -1    0    0    0  501  0.00000000000E+00  0.00000000000E+00 -0.18195742414E+03  0.18195742416E+03  0.25500000920E-02 0.  1.
    10030    2    1    2    0    0  0.00000000000E+00  0.00000000000E+00  0.17914367868E+04  0.21553516351E+04  0.11984552181E+04 0.  0.
        5    1    3    3  502    0 -0.57396539835E+03  0.15631112057E+03  0.76625317887E+03  0.97006982689E+03  0.46999998093E+01 0.  1.
       -5    1    3    3    0  502  0.57396539835E+03 -0.15631112057E+03  0.10251836079E+04  0.11852818082E+04  0.46999998093E+01 0. -1.
</event>
<event>
 5   0  0.2315038E-04  0.1202482E+04  0.7818609E-02  0.9110687E-01
        1   -1    0    0  501    0  0.00000000000E+00  0.00000000000E+00  0.13912499115E+04  0.13912499115E+04  0.50400001928E-02 0.  1.
       -1   -1    0    0    0  501  0.00000000000E+00  0.00000000000E+00 -0.25983154342E+03  0.25983154346E+03  0.50400001928E-02 0. -1.
    10030    2    1    2    0    0  0.00000000000E+00  0.00000000000E+00  0.11314183680E+04  0.16510814549E+04  0.12024817867E+04 0.  0.
        1    1    3    3  502    0  0.43961531189E+03 -0.32965424697E+03  0.90079546127E+03  0.10551616028E+04  0.50400001928E-02 0.  1.
       -1    1    3    3    0  502 -0.43961531189E+03  0.32965424697E+03  0.23062290677E+03  0.59591985211E+03  0.50400001928E-02 0. -1.
</event>
<event>
 5   0  0.3883890E-04  0.1199760E+04  0.7818609E-02  0.9113066E-01
        2   -1    0    0  501    0  0.00000000000E+00  0.00000000000E+00  0.18264689285E+04  0.18264689285E+04  0.25500000920E-02 0. -1.
       -2   -1    0    0    0  501  0.00000000000E+00  0.00000000000E+00 -0.19702291143E+03  0.19702291145E+03  0.25500000920E-02 0.  1.
    10030    2    1    2    0    0  0.00000000000E+00  0.00000000000E+00  0.16294460171E+04  0.20234918400E+04  0.11997603527E+04 0.  0.
        2    1    3    3  502    0  0.64823006707E+02 -0.13426365322E+03 -0.16527646362E+03  0.22258719687E+03  0.25500000920E-02 0.  1.
       -2    1    3    3    0  502 -0.64823006707E+02  0.13426365322E+03  0.17947224807E+04  0.18009046431E+04  0.25500000920E-02 0. -1.
</event>
<event>
 5   0  0.4122956E-04  0.1197286E+04  0.7818609E-02  0.9115235E-01
        2   -1    0    0  501    0  0.00000000000E+00  0.00000000000E+00  0.17097655529E+04  0.17097655529E+04  0.25500000920E-02 0.  1.
       -2   -1    0    0    0  501  0.00000000000E+00  0.00000000000E+00 -0.20960390410E+03  0.20960390411E+03  0.25500000920E-02 0. -1.
    10030    2    1    2    0    0  0.00000000000E+00  0.00000000000E+00  0.15001616488E+04  0.19193694570E+04  0.11972861563E+04 0.  0.
        5    1    3    3  502    0 -0.25515570787E+03 -0.61787982530E+02  0.16125266649E+04  0.16337645256E+04  0.46999998093E+01 0.  1.
       -5    1    3    3    0  502  0.25515570787E+03  0.61787982530E+02 -0.11236501606E+03  0.28560493146E+03  0.46999998093E+01 0. -1.
</event>
<event>
 5   0  0.2204090E-04  0.1200319E+04  0.7818609E-02  0.9112578E-01
        1   -1    0    0  501    0  0.00000000000E+00  0.00000000000E+00  0.12346768990E+04  0.12346768990E+04  0.50400001928E-02 0. -1.
       -1   -1    0    0    0  501  0.00000000000E+00  0.00000000000E+00 -0.29172913255E+03  0.29172913259E+03  0.50400001928E-02 0.  1.
    10030    2    1    2    0    0  0.00000000000E+00  0.00000000000E+00  0.94294776644E+03  0.15264060316E+04  0.12003186590E+04 0.  0.
        2    1    3    3  502    0 -0.34364608316E+03 -0.73558133341E+02  0.10901472845E+04  0.11453927411E+04  0.25500000920E-02 0. -1.
       -2    1    3    3    0  502  0.34364608316E+03  0.73558133341E+02 -0.14719951801E+03  0.38101329054E+03  0.25500000920E-02 0.  1.
</event>
<event>
 5   0  0.4122956E-04  0.1200263E+04  0.7818609E-02  0.9112626E-01
       -2   -1    0    0    0  501  0.00000000000E+00  0.00000000000E+00  0.17319310334E+03  0.17319310336E+03  0.25500000920E-02 0.  1.
        2   -1    0    0  501    0  0.00000000000E+00  0.00000000000E+00 -0.20795173624E+04  0.20795173624E+04  0.25500000920E-02 0. -1.
    10030    2    1    2    0    0  0.00000000000E+00  0.00000000000E+00 -0.19063242591E+04  0.22527104658E+04  0.12002634136E+04 0.  0.
        5    1    3    3  502    0  0.53965783466E+02 -0.54321465179E+03 -0.14210262226E+04  0.15222785813E+04  0.46999998093E+01 0. -1.
       -5    1    3    3    0  502 -0.53965783466E+02  0.54321465179E+03 -0.48529803653E+03  0.73043188455E+03  0.46999998093E+01 0.  1.
</event>
<event>
 5   0  0.2304842E-04  0.1197888E+04  0.7818609E-02  0.9114707E-01
       -1   -1    0    0    0  501  0.00000000000E+00  0.00000000000E+00  0.63545171298E+03  0.63545171300E+03  0.50400001928E-02 0.  1.
        1   -1    0    0  501    0  0.00000000000E+00  0.00000000000E+00 -0.56453410181E+03  0.56453410184E+03  0.50400001928E-02 0. -1.
    10030    2    1    2    0    0  0.00000000000E+00  0.00000000000E+00  0.70917611169E+02  0.11999858148E+04  0.11978884123E+04 0.  0.
        4    1    3    3  502    0 -0.27260707550E+03  0.48766818327E+03 -0.18078410112E+03  0.58721323104E+03  0.12699999809E+01 0. -1.
       -4    1    3    3    0  502  0.27260707550E+03 -0.48766818327E+03  0.25170171229E+03  0.61277258380E+03  0.12699999809E+01 0.  1.
</event>
<event>
 5   0  0.2244308E-04  0.1202310E+04  0.7818609E-02  0.9110837E-01
        1   -1    0    0  501    0  0.00000000000E+00  0.00000000000E+00  0.55591210566E+03  0.55591210568E+03  0.50400001928E-02 0.  1.
       -1   -1    0    0    0  501  0.00000000000E+00  0.00000000000E+00 -0.65007960790E+03  0.65007960792E+03  0.50400001928E-02 0. -1.
    10030    2    1    2    0    0  0.00000000000E+00  0.00000000000E+00 -0.94167502249E+02  0.12059917136E+04  0.12023096501E+04 0.  0.
        5    1    3    3  502    0 -0.26457797743E+03  0.15074415806E+03  0.47280821826E+03  0.56240111005E+03  0.46999998093E+01 0.  1.
       -5    1    3    3    0  502  0.26457797743E+03 -0.15074415806E+03 -0.56697572051E+03  0.64359060355E+03  0.46999998093E+01 0. -1.
</event>
<event>
 5   0  0.2244308E-04  0.1198282E+04  0.7818609E-02  0.9114362E-01
       -1   -1    0    0    0  501  0.00000000000E+00  0.00000000000E+00  0.27000509695E+03  0.27000509699E+03  0.50400001928E-02 0. -1.
        1   -1    0    0  501    0  0.00000000000E+00  0.00000000000E+00 -0.13294926426E+04  0.13294926426E+04  0.50400001928E-02 0.  1.
    10030    2    1    2    0    0  0.00000000000E+00  0.00000000000E+00 -0.10594875457E+04  0.15994977396E+04  0.11982817530E+04 0.  0.
        5    1    3    3  502    0 -0.53372462574E+03  0.26148898728E+03 -0.42888502304E+03  0.73294127976E+03  0.46999998093E+01 0.  1.
       -5    1    3    3    0  502  0.53372462574E+03 -0.26148898728E+03 -0.63060252263E+03  0.86655645986E+03  0.46999998093E+01 0. -1.
</event>
<event>
 5   0  0.2244308E-04  0.1199796E+04  0.7818609E-02  0.9113035E-01
        1   -1    0    0  501    0  0.00000000000E+00  0.00000000000E+00  0.97009818345E+03  0.97009818346E+03  0.50400001928E-02 0. -1.
       -1   -1    0    0    0  501  0.00000000000E+00  0.00000000000E+00 -0.37097058869E+03  0.37097058873E+03  0.50400001928E-02 0.  1.
    10030    2    1    2    0    0  0.00000000000E+00  0.00000000000E+00  0.59912759475E+03  0.13410687722E+04  0.11997964731E+04 0.  0.
        5    1    3    3  502    0 -0.49808348578E+03 -0.28817005423E+03  0.48901007473E+03  0.75517023389E+03  0.46999998093E+01 0. -1.
       -5    1    3    3    0  502  0.49808348578E+03  0.28817005423E+03  0.11011752002E+03  0.58589853830E+03  0.46999998093E+01 0.  1.
</event>
<event>
 5   0  0.3993723E-04  0.1200252E+04  0.7818609E-02  0.9112636E-01
        2   -1    0    0  501    0  0.00000000000E+00  0.00000000000E+00  0.28463270533E+03  0.28463270534E+03  0.25500000920E-02 0. -1.
       -2   -1    0    0    0  501  0.00000000000E+00  0.00000000000E+00 -0.12653181106E+04  0.12653181106E+04  0.25500000920E-02 0.  1.
    10030    2    1    2    0    0  0.00000000000E+00  0.00000000000E+00 -0.98068540523E+03  0.15499508159E+04  0.12002515018E+04 0.  0.
        3    1    3    3  502    0 -0.10402676678E+03 -0.14405817655E+03 -0.12305680656E+04  0.12433310504E+04  0.10100000352E+00 0.  1.
       -3    1    3    3    0  502  0.10402676678E+03  0.14405817655E+03  0.24988266041E+03  0.30661976553E+03  0.10100000352E+00 0. -1.
</event>
<event>
 5   0  0.2244308E-04  0.1200084E+04  0.7818609E-02  0.9112783E-01
        1   -1    0    0  501    0  0.00000000000E+00  0.00000000000E+00  0.11806399638E+04  0.11806399638E+04  0.50400001928E-02 0.  1.
       -1   -1    0    0    0  501  0.00000000000E+00  0.00000000000E+00 -0.30496185213E+03  0.30496185218E+03  0.50400001928E-02 0. -1.
    10030    2    1    2    0    0  0.00000000000E+00  0.00000000000E+00  0.87567811162E+03  0.14856018159E+04  0.12000835806E+04 0.  0.
        5    1    3    3  502    0 -0.46338605498E+03 -0.21875961450E+03  0.51407869844E+02  0.51502161505E+03  0.46999998093E+01 0. -1.
       -5    1    3    3    0  502  0.46338605498E+03  0.21875961450E+03  0.82427024177E+03  0.97058020089E+03  0.46999998093E+01 0.  1.
</event>
<event>
 5   0  0.2244308E-04  0.1201231E+04  0.7818609E-02  0.9111780E-01
        1   -1    0    0  501    0  0.00000000000E+00  0.00000000000E+00  0.81574639567E+03  0.81574639568E+03  0.50400001928E-02 0.  1.
       -1   -1    0    0    0  501  0.00000000000E+00  0.00000000000E+00 -0.44221936636E+03  0.44221936639E+03  0.50400001928E-02 0. -1.
    10030    2    1    2    0    0  0.00000000000E+00  0.00000000000E+00  0.37352702931E+03  0.12579657621E+04  0.12012307925E+04 0.  0.
        5    1    3    3  502    0  0.25079574849E+03 -0.54146088916E+03  0.25808570922E+03  0.65016053806E+03  0.46999998093E+01 0. -1.
       -5    1    3    3    0  502 -0.25079574849E+03  0.54146088916E+03  0.11544132008E+03  0.60780522401E+03  0.46999998093E+01 0.  1.
</event>
<event>
 5   0  0.3993723E-04  0.1200397E+04  0.7818609E-02  0.9112509E-01
       -2   -1    0    0    0  501  0.00000000000E+00  0.00000000000E+00  0.22099201487E+03  0.22099201489E+03  0.25500000920E-02 0.  1.
        2   -1    0    0  501    0  0.00000000000E+00  0.00000000000E+00 -0.16300952808E+04  0.16300952808E+04  0.25500000920E-02 0. -1.
    10030    2    1    2    0    0  0.00000000000E+00  0.00000000000E+00 -0.14091032659E+04  0.18510872957E+04  0.12003966687E+04 0.  0.
        3    1    3    3  502    0 -0.13568553189E+03 -0.48747893202E+03 -0.20679300025E+03  0.54663482132E+03  0.10100000352E+00 0.  1.
       -3    1    3    3    0  502  0.13568553189E+03  0.48747893202E+03 -0.12023102657E+04  0.13044524744E+04  0.10100000352E+00 0. -1.
</event>
<event>
 5   0  0.4024486E-04  0.1200656E+04  0.7818609E-02  0.9112283E-01
        2   -1    0    0  501    0  0.00000000000E+00  0.00000000000E+00  0.60052341389E+03  0.60052341390E+03  0.25500000920E-02 0.  1.
       -2   -1    0    0    0  501  0.00000000000E+00  0.00000000000E+00 -0.60013258287E+03  0.60013258287E+03  0.25500000920E-02 0. -1.
    10030    2    1    2    0    0  0.00000000000E+00  0.00000000000E+00  0.39083102344E+00  0.12006559968E+04  0.12006559332E+04 0.  0.
        1    1    3    3  502    0 -0.35952930512E+03 -0.23488378610E+03  0.41967362933E+03  0.60046454466E+03  0.50400001928E-02 0.  1.
       -1    1    3    3    0  502  0.35952930512E+03  0.23488378610E+03 -0.41928279831E+03  0.60019145212E+03  0.50400001928E-02 0. -1.
</event>
<event>
 5   0  0.3832662E-04  0.1201245E+04  0.7818609E-02  0.9111767E-01
       -2   -1    0    0    0  501  0.00000000000E+00  0.00000000000E+00  0.37176580507E+03  0.37176580508E+03  0.25500000920E-02 0. -1.
        2   -1    0    0  501    0  0.00000000000E+00  0.00000000000E+00 -0.97036241742E+03  0.97036241743E+03  0.25500000920E-02 0.  1.
    10030    2    1    2    0    0  0.00000000000E+00  0.00000000000E+00 -0.59859661235E+03  0.13421282225E+04  0.12012452961E+04 0.  0.
        4    1    3    3  502    0 -0.43490680566E+03  0.24820492953E+03  0.71255618916E+02  0.50579501063E+03  0.12699999809E+01 0. -1.
       -4    1    3    3    0  502  0.43490680566E+03 -0.24820492953E+03 -0.66985223127E+03  0.83633321188E+03  0.12699999809E+01 0.  1.
</event>
<event>
 5   0  0.2204090E-04  0.1195413E+04  0.7818609E-02  0.9116881E-01
       -1   -1    0    0    0  501  0.00000000000E+00  0.00000000000E+00  0.36044643257E+03  0.36044643261E+03  0.50400001928E-02 0.  1.
        1   -1    0    0  501    0  0.00000000000E+00  0.00000000000E+00 -0.99113969036E+03  0.99113969037E+03  0.50400001928E-02 0. -1.
    10030    2    1    2    0    0  0.00000000000E+00  0.00000000000E+00 -0.63069325779E+03  0.13515861230E+04  0.11954125072E+04 0.  0.
        2    1    3    3  502    0 -0.12975982544E+03  0.37678337956E+03 -0.81902217455E+03  0.91082415966E+03  0.25500000920E-02 0. -1.
       -2    1    3    3    0  502  0.12975982544E+03 -0.37678337956E+03  0.18832891676E+03  0.44076196332E+03  0.25500000920E-02 0.  1.
</event>
<event>
 5   0  0.4122956E-04  0.1198367E+04  0.7818609E-02  0.9114287E-01
       -2   -1    0    0    0  501  0.00000000000E+00  0.00000000000E+00  0.36498492178E+03  0.36498492179E+03  0.25500000920E-02 0.  1.
        2   -1    0    0  501    0  0.00000000000E+00  0.00000000000E+00 -0.98365998870E+03  0.98365998871E+03  0.25500000920E-02 0. -1.
    10030    2    1    2    0    0  0.00000000000E+00  0.00000000000E+00 -0.61867506692E+03  0.13486449105E+04  0.11983673294E+04 0.  0.
        5    1    3    3  502    0  0.22900302959E+03  0.46092966744E+02  0.31160702481E+03  0.38947140724E+03  0.46999998093E+01 0.  1.
       -5    1    3    3    0  502 -0.22900302959E+03 -0.46092966744E+02 -0.93028209174E+03  0.95917350326E+03  0.46999998093E+01 0. -1.
</event>
<event>
 5   0  0.2304842E-04  0.1203792E+04  0.7818609E-02  0.9109544E-01
        1   -1    0    0  501    0  0.00000000000E+00  0.00000000000E+00  0.15411535067E+04  0.15411535067E+04  0.50400001928E-02 0. -1.
       -1   -1    0    0    0  501  0.00000000000E+00  0.00000000000E+00 -0.23506987079E+03  0.23506987084E+03  0.50400001928E-02 0.  1.
    10030    2    1    2    0    0  0.00000000000E+00  0.00000000000E+00  0.13060836359E+04  0.17762233776E+04  0.12037919351E+04 0.  0.
        4    1    3    3  502    0  0.35444377596E+03 -0.34275547868E+03  0.11623976727E+04  0.12626486728E+04  0.12699999809E+01 0. -1.
       -4    1    3    3    0  502 -0.35444377596E+03  0.34275547868E+03  0.14368596323E+03  0.51357470480E+03  0.12699999809E+01 0.  1.
</event>
<event>
 5   0  0.4024486E-04  0.1199157E+04  0.7818609E-02  0.9113595E-01
        2   -1    0    0  501    0  0.00000000000E+00  0.00000000000E+00  0.95113940654E+03  0.95113940654E+03  0.25500000920E-02 0. -1.
       -2   -1    0    0    0  501  0.00000000000E+00  0.00000000000E+00 -0.37796174547E+03  0.37796174548E+03  0.25500000920E-02 0.  1.
    10030    2    1    2    0    0  0.00000000000E+00  0.00000000000E+00  0.57317766107E+03  0.13291011520E+04  0.11991568876E+04 0.  0.
        1    1    3    3  502    0  0.54498072001E+03 -0.23804372017E+03  0.20199297391E+03  0.62806843531E+03  0.50400001928E-02 0. -1.
       -1    1    3    3    0  502 -0.54498072001E+03  0.23804372017E+03  0.37118468716E+03  0.70103271672E+03  0.50400001928E-02 0.  1.
</event>
<event>
 5   0  0.4122956E-04  0.1199317E+04  0.7818609E-02  0.9113454E-01
        2   -1    0    0  501    0  0.00000000000E+00  0.00000000000E+00  0.60296359584E+03  0.60296359585E+03  0.25500000920E-02 0.  1.
       -2   -1    0    0    0  501  0.00000000000E+00  0.00000000000E+00 -0.59637189807E+03  0.59637189808E+03  0.25500000920E-02 0. -1.
    10030    2    1    2    0    0  0.00000000000E+00  0.00000000000E+00  0.65916977689E+01  0.11993354939E+04  0.11993173794E+04 0.  0.
        5    1    3    3  502    0 -0.38931465153E+02  0.53500950395E+03 -0.26469630644E+03  0.59819482858E+03  0.46999998093E+01 0. -1.
       -5    1    3    3    0  502  0.38931465153E+02 -0.53500950395E+03  0.27128800421E+03  0.60114066534E+03  0.46999998093E+01 0.  1.
</event>
<event>
 5   0  0.3883890E-04  0.1199414E+04  0.7818609E-02  0.9113370E-01
       -2   -1    0    0    0  501  0.00000000000E+00  0.00000000000E+00  0.23326035460E+03  0.23326035462E+03  0.25500000920E-02 0. -1.
        2   -1    0    0  501    0  0.00000000000E+00  0.00000000000E+00 -0.15418327795E+04  0.15418327795E+04  0.25500000920E-02 0.  1.
    10030    2    1    2    0    0  0.00000000000E+00  0.00000000000E+00 -0.13085724249E+04  0.17750931341E+04  0.11994139584E+04 0.  0.
        2    1    3    3  502    0  0.11509018267E+03  0.82440528033E+02 -0.15167480660E+04  0.15233406994E+04  0.25500000920E-02 0.  1.
       -2    1    3    3    0  502 -0.11509018267E+03 -0.82440528033E+02  0.20817564111E+03  0.25175243468E+03  0.25500000920E-02 0. -1.
</event>
<event>
 5   0  0.2315038E-04  0.1197844E+04  0.7818609E-02  0.9114746E-01
        1   -1    0    0  501    0  0.00000000000E+00  0.00000000000E+00  0.90824675600E+03  0.90824675601E+03  0.50400001928E-02 0. -1.
       -1   -1    0    0    0  501  0.00000000000E+00  0.00000000000E+00 -0.39494487826E+03  0.39494487829E+03  0.50400001928E-02 0.  1.
    10030    2    1    2    0    0  0.00000000000E+00  0.00000000000E+00  0.51330187774E+03  0.13031916343E+04  0.11978437369E+04 0.  0.
        1    1    3    3  502    0  0.31725675416E+03  0.47614842777E+03  0.64055784279E+02  0.57573632581E+03  0.50400001928E-02 0.  1.
       -1    1    3    3    0  502 -0.31725675416E+03 -0.47614842777E+03  0.44924609346E+03  0.72745530849E+03  0.50400001928E-02 0. -1.
</event>
<event>
 5   0  0.2304842E-04  0.1198559E+04  0.7818609E-02  0.9114119E-01
        1   -1    0    0  501    0  0.00000000000E+00  0.00000000000E+00  0.42522140377E+03  0.42522140380E+03  0.50400001928E-02 0.  1.
       -1   -1    0    0    0  501  0.00000000000E+00  0.00000000000E+00 -0.84458518631E+03  0.84458518632E+03  0.50400001928E-02 0. -1.
    10030    2    1    2    0    0  0.00000000000E+00  0.00000000000E+00 -0.41936378254E+03  0.12698065901E+04  0.11985586319E+04 0.  0.
        4    1    3    3  502    0 -0.24788865052E+03  0.74210994825E+02  0.36298499531E+03  0.44577547547E+03  0.12699999809E+01 0.  1.
       -4    1    3    3    0  502  0.24788865052E+03 -0.74210994825E+02 -0.78234877785E+03  0.82403111465E+03  0.12699999809E+01 0. -1.
</event>
<event>
 5   0  0.3883890E-04  0.1207212E+04  0.7818609E-02  0.9106567E-01
       -2   -1    0    0    0  501  0.00000000000E+00  0.00000000000E+00  0.62018471089E+03  0.62018471090E+03  0.25500000920E-02 0.  1.
        2   -1    0    0  501    0  0.00000000000E+00  0.00000000000E+00 -0.58747026003E+03  0.58747026004E+03  0.25500000920E-02 0. -1.
    10030    2    1    2    0    0  0.00000000000E+00  0.00000000000E+00  0.32714450857E+02  0.12076549709E+04  0.12072117849E+04 0.  0.
        2    1    3    3  502    0 -0.21790022149E+03  0.19928079431E+03  0.54299776593E+03  0.61809377551E+03  0.25500000920E-02 0.  1.
       -2    1    3    3    0  502  0.21790022149E+03 -0.19928079431E+03 -0.51028331508E+03  0.58956119543E+03  0.25500000920E-02 0. -1.
</event>
<event>
 5   0  0.4122956E-04  0.1200697E+04  0.7818609E-02  0.9112246E-01
       -2   -1    0    0    0  501  0.00000000000E+00  0.00000000000E+00  0.18162907889E+03  0.18162907891E+03  0.25500000920E-02 0. -1.
        2   -1    0    0  501    0  0.00000000000E+00  0.00000000000E+00 -0.19843655482E+04  0.19843655482E+04  0.25500000920E-02 0.  1.
    10030    2    1    2    0    0  0.00000000000E+00  0.00000000000E+00 -0.18027364693E+04  0.21659946271E+04  0.12006972753E+04 0.  0.
        5    1    3    3  502    0  0.29614556374E+03 -0.40639469573E+03 -0.14929352153E+04  0.15753528147E+04  0.46999998093E+01 0.  1.
       -5    1    3    3    0  502 -0.29614556374E+03  0.40639469573E+03 -0.30980125407E+03  0.59064181249E+03  0.46999998093E+01 0. -1.
</event>
<event>
 5   0  0.2304842E-04  0.1199819E+04  0.7818609E-02  0.9113015E-01
       -1   -1    0    0    0  501  0.00000000000E+00  0.00000000000E+00  0.31871062710E+03  0.31871062714E+03  0.50400001928E-02 0. -1.
        1   -1    0    0  501    0  0.00000000000E+00  0.00000000000E+00 -0.11292096801E+04  0.11292096801E+04  0.50400001928E-02 0.  1.
    10030    2    1    2    0    0  0.00000000000E+00  0.00000000000E+00 -0.81049905301E+03  0.14479203073E+04  0.11998185285E+04 0.  0.
        4    1    3    3  502    0  0.94650900409E+02  0.41810873416E+03  0.10119077893E+03  0.44047121719E+03  0.12699999809E+01 0. -1.
       -4    1    3    3    0  502 -0.94650900409E+02 -0.41810873416E+03 -0.91168983194E+03  0.10074490901E+04  0.12699999809E+01 0.  1.
</event>
<event>
 5   0  0.2204090E-04  0.1199089E+04  0.7818609E-02  0.9113654E-01
        1   -1    0    0  501    0  0.00000000000E+00  0.00000000000E+00  0.83244709862E+03  0.83244709864E+03  0.50400001928E-02 0. -1.
       -1   -1    0    0    0  501  0.00000000000E+00  0.00000000000E+00 -0.43180361901E+03  0.43180361904E+03  0.50400001928E-02 0.  1.
    10030    2    1    2    0    0  0.00000000000E+00  0.00000000000E+00  0.40064347961E+03  0.12642507177E+04  0.11990891040E+04 0.  0.
        2    1    3    3  502    0  0.56752217981E+03 -0.19330181849E+03  0.19760238635E+03  0.63126359051E+03  0.25500000920E-02 0.  1.
       -2    1    3    3    0  502 -0.56752217981E+03  0.19330181849E+03  0.20304109326E+03  0.63298712717E+03  0.25500000920E-02 0. -1.
</event>
<event>
 5   0  0.1541375E-04  0.1237918E+04  0.7818609E-02  0.9080299E-01
       -3   -1    0    0    0  501  0.00000000000E+00  0.00000000000E+00  0.27373357502E+03  0.27373359365E+03  0.10100000352E+00 0. -1.
        3   -1    0    0  501    0  0.00000000000E+00  0.00000000000E+00 -0.13995742262E+04  0.13995742298E+04  0.10100000352E+00 0.  1.
    10030    2    1    2    0    0  0.00000000000E+00  0.00000000000E+00 -0.11258406512E+04  0.16733078235E+04  0.12379183738E+04 0.  0.
        5    1    3    3  502    0 -0.41586788911E+03  0.25508809432E+03 -0.10777649146E+04  0.11830533962E+04  0.46999998093E+01 0.  1.
       -5    1    3    3    0  502  0.41586788911E+03 -0.25508809432E+03 -0.48075736567E+02  0.49025442731E+03  0.46999998093E+01 0. -1.
</event>
<event>
 5   0  0.3832662E-04  0.1199480E+04  0.7818609E-02  0.9113312E-01
       -2   -1    0    0    0  501  0.00000000000E+00  0.00000000000E+00  0.42105922363E+03  0.42105922363E+03  0.25500000920E-02 0.  1.
        2   -1    0    0  501    0  0.00000000000E+00  0.00000000000E+00 -0.85424553451E+03  0.85424553451E+03  0.25500000920E-02 0. -1.
    10030    2    1    2    0    0  0.00000000000E+00  0.00000000000E+00 -0.43318631088E+03  0.12753047581E+04  0.11994798232E+04 0.  0.
        4    1    3    3  502    0  0.14403235471E+03  0.44377193063E+03 -0.61725379380E+03  0.77374589142E+03  0.12699999809E+01 0. -1.
       -4    1    3    3    0  502 -0.14403235471E+03 -0.44377193063E+03  0.18406748292E+03  0.50155886673E+03  0.12699999809E+01 0.  1.
</event>
<event>
 5   0  0.2244308E-04  0.1200954E+04  0.7818609E-02  0.9112022E-01
       -1   -1    0    0    0  501  0.00000000000E+00  0.00000000000E+00  0.26194865039E+03  0.26194865044E+03  0.50400001928E-02 0. -1.
        1   -1    0    0  501    0  0.00000000000E+00  0.00000000000E+00 -0.13765008355E+04  0.13765008355E+04  0.50400001928E-02 0.  1.
    10030    2    1    2    0    0  0.00000000000E+00  0.00000000000E+00 -0.11145521851E+04  0.16384494860E+04  0.12009538479E+04 0.  0.
        5    1    3    3  502    0 -0.12855866836E+03  0.20910626724E+03  0.19034703866E+03  0.31065551232E+03  0.46999998093E+01 0. -1.
       -5    1    3    3    0  502  0.12855866836E+03 -0.20910626724E+03 -0.13048992238E+04  0.13277939736E+04  0.46999998093E+01 0.  1.
</event>
<event>
 5   0  0.3832662E-04  0.1197754E+04  0.7818609E-02  0.9114825E-01
       -2   -1    0    0    0  501  0.00000000000E+00  0.00000000000E+00  0.33320149386E+03  0.33320149387E+03  0.25500000920E-02 0. -1.
        2   -1    0    0  501    0  0.00000000000E+00  0.00000000000E+00 -0.10763869333E+04  0.10763869333E+04  0.25500000920E-02 0.  1.
    10030    2    1    2    0    0  0.00000000000E+00  0.00000000000E+00 -0.74318543945E+03  0.14095884272E+04  0.11977541220E+04 0.  0.
        4    1    3    3  502    0 -0.10537717584E+03  0.30381852307E+03 -0.96615969973E+03  0.10182711930E+04  0.12699999809E+01 0.  1.
       -4    1    3    3    0  502  0.10537717584E+03 -0.30381852307E+03  0.22297426028E+03  0.39131723422E+03  0.12699999809E+01 0. -1.
</event>
<event>
 5   0  0.3832662E-04  0.1200236E+04  0.7818609E-02  0.9112650E-01
       -2   -1    0    0    0  501  0.00000000000E+00  0.00000000000E+00  0.17213250097E+03  0.17213250099E+03  0.25500000920E-02 0. -1.
        2   -1    0    0  501    0  0.00000000000E+00  0.00000000000E+00 -0.20922358236E+04  0.20922358236E+04  0.25500000920E-02 0.  1.
    10030    2    1    2    0    0  0.00000000000E+00  0.00000000000E+00 -0.19201033227E+04  0.22643683246E+04  0.12002362850E+04 0.  0.
        4    1    3    3  502    0  0.52677801721E+03  0.23355732233E+03 -0.64382163372E+03  0.86403241327E+03  0.12699999809E+01 0. -1.
       -4    1    3    3    0  502 -0.52677801721E+03 -0.23355732233E+03 -0.12762816890E+04  0.14003359114E+04  0.12699999809E+01 0.  1.
</event>
<event>
 5   0  0.3993723E-04  0.1221469E+04  0.7818609E-02  0.9094269E-01
        2   -1    0    0  501    0  0.00000000000E+00  0.00000000000E+00  0.77713128776E+03  0.77713128777E+03  0.25500000920E-02 0.  1.
       -2   -1    0    0    0  501  0.00000000000E+00  0.00000000000E+00 -0.47996628381E+03  0.47996628382E+03  0.25500000920E-02 0. -1.
    10030    2    1    2    0    0  0.00000000000E+00  0.00000000000E+00  0.29716500395E+03  0.12570975716E+04  0.12214693058E+04 0.  0.
        3    1    3    3  502    0 -0.45528557962E+03  0.76201413129E+02 -0.26296285983E+03  0.53126367298E+03  0.10100000352E+00 0. -1.
       -3    1    3    3    0  502  0.45528557962E+03 -0.76201413129E+02  0.56012786378E+03  0.72583389860E+03  0.10100000352E+00 0.  1.
</event>
<event>
 5   0  0.2204090E-04  0.1198855E+04  0.7818609E-02  0.9113859E-01
        1   -1    0    0  501    0  0.00000000000E+00  0.00000000000E+00  0.10515959946E+04  0.10515959946E+04  0.50400001928E-02 0.  1.
       -1   -1    0    0    0  501  0.00000000000E+00  0.00000000000E+00 -0.34168376475E+03  0.34168376479E+03  0.50400001928E-02 0. -1.
    10030    2    1    2    0    0  0.00000000000E+00  0.00000000000E+00  0.70991222984E+03  0.13932797594E+04  0.11988549178E+04 0.  0.
        2    1    3    3  502    0 -0.65122796988E+02  0.23560836635E+03 -0.28112768210E+03  0.37253866193E+03  0.25500000920E-02 0. -1.
       -2    1    3    3    0  502  0.65122796988E+02 -0.23560836635E+03  0.99103991195E+03  0.10207410975E+04  0.25500000920E-02 0.  1.
</event>
<event>
 5   0  0.2304842E-04  0.1200623E+04  0.7818609E-02  0.9112312E-01
        1   -1    0    0  501    0  0.00000000000E+00  0.00000000000E+00  0.18971701289E+04  0.18971701289E+04  0.50400001928E-02 0. -1.
       -1   -1    0    0    0  501  0.00000000000E+00  0.00000000000E+00 -0.18995330988E+03  0.18995330995E+03  0.50400001928E-02 0.  1.
    10030    2    1    2    0    0  0.00000000000E+00  0.00000000000E+00  0.17072168190E+04  0.20871234388E+04  0.12006227475E+04 0.  0.
        4    1    3    3  502    0  0.17296754875E+03 -0.25645297989E+03 -0.40741033758E+02  0.31200536622E+03  0.12699999809E+01 0.  1.
       -4    1    3    3    0  502 -0.17296754875E+03  0.25645297989E+03  0.17479578527E+04  0.17751180726E+04  0.12699999809E+01 0. -1.
</event>
<event>
 5   0  0.2244308E-04  0.1198142E+04  0.7818609E-02  0.9114485E-01
       -1   -1    0    0    0  501  0.00000000000E+00  0.00000000000E+00  0.30521929005E+03  0.30521929009E+03  0.50400001928E-02 0. -1.
        1   -1    0    0  501    0  0.00000000000E+00  0.00000000000E+00 -0.11758299450E+04  0.11758299450E+04  0.50400001928E-02 0.  1.
    10030    2    1    2    0    0  0.00000000000E+00  0.00000000000E+00 -0.87061065491E+03  0.14810492351E+04  0.11981418632E+04 0.  0.
        5    1    3    3  502    0  0.17286768035E+03  0.33712861144E+03 -0.10089043948E+04  0.10777054809E+04  0.46999998093E+01 0.  1.
       -5    1    3    3    0  502 -0.17286768035E+03 -0.33712861144E+03  0.13829373992E+03  0.40334375421E+03  0.46999998093E+01 0. -1.
</event>
<event>
 5   0  0.4024486E-04  0.1201140E+04  0.7818609E-02  0.9111860E-01
       -2   -1    0    0    0  501  0.00000000000E+00  0.00000000000E+00  0.30784393581E+03  0.30784393583E+03  0.25500000920E-02 0. -1.
        2   -1    0    0  501    0  0.00000000000E+00  0.00000000000E+00 -0.11716459402E+04  0.11716459402E+04  0.25500000920E-02 0.  1.
    10030    2    1    2    0    0  0.00000000000E+00  0.00000000000E+00 -0.86380200436E+03  0.14794898760E+04  0.12011396215E+04 0.  0.
        1    1    3    3  502    0  0.52005828402E+03  0.34867468353E+02 -0.79937988532E+03  0.95429794101E+03  0.50400001928E-02 0. -1.
       -1    1    3    3    0  502 -0.52005828402E+03 -0.34867468353E+02 -0.64422119032E+02  0.52519193499E+03  0.50400001928E-02 0.  1.
</event>
<event>
 5   0  0.4122956E-04  0.1199473E+04  0.7818609E-02  0.9113318E-01
       -2   -1    0    0    0  501  0.00000000000E+00  0.00000000000E+00  0.26800933278E+03  0.26800933279E+03  0.25500000920E-02 0.  1.
        2   -1    0    0  501    0  0.00000000000E+00  0.00000000000E+00 -0.13420570091E+04  0.13420570091E+04  0.25500000920E-02 0. -1.
    10030    2    1    2    0    0  0.00000000000E+00  0.00000000000E+00 -0.10740476763E+04  0.16100663419E+04  0.11994728902E+04 0.  0.
        5    1    3    3  502    0  0.48590429278E+03 -0.34218902289E+03 -0.42909159991E+03  0.73303342368E+03  0.46999998093E+01 0.  1.
       -5    1    3    3    0  502 -0.48590429278E+03  0.34218902289E+03 -0.64495607642E+03  0.87703291821E+03  0.46999998093E+01 0. -1.
</event>
<event>
 5   0  0.3832662E-04  0.1200744E+04  0.7818609E-02  0.9112206E-01
        2   -1    0    0  501    0  0.00000000000E+00  0.00000000000E+00  0.36079206327E+03  0.36079206328E+03  0.25500000920E-02 0. -1.
       -2   -1    0    0    0  501  0.00000000000E+00  0.00000000000E+00 -0.99904180811E+03  0.99904180811E+03  0.25500000920E-02 0.  1.
    10030    2    1    2    0    0  0.00000000000E+00  0.00000000000E+00 -0.63824974484E+03  0.13598338714E+04  0.12007436950E+04 0.  0.
        4    1    3    3  502    0 -0.36649231783E+03 -0.12417093711E+03  0.20072483737E+03  0.43592099500E+03  0.12699999809E+01 0. -1.
       -4    1    3    3    0  502  0.36649231783E+03  0.12417093711E+03 -0.83897458221E+03  0.92391287638E+03  0.12699999809E+01 0.  1.
</event>
<event>
 5   0  0.2244308E-04  0.1200624E+04  0.7818609E-02  0.9112311E-01
       -1   -1    0    0    0  501  0.00000000000E+00  0.00000000000E+00  0.88839569866E+03  0.88839569867E+03  0.50400001928E-02 0.  1.
        1   -1    0    0  501    0  0.00000000000E+00  0.00000000000E+00 -0.40564633306E+03  0.40564633309E+03  0.50400001928E-02 0. -1.
    10030    2    1    2    0    0  0.00000000000E+00  0.00000000000E+00  0.48274936560E+03  0.12940420318E+04  0.12006239336E+04 0.  0.
        5    1    3    3  502    0  0.42359182673E+03  0.33877284816E+02  0.69836355617E+03  0.81750318206E+03  0.46999998093E+01 0.  1.
       -5    1    3    3    0  502 -0.42359182673E+03 -0.33877284816E+02 -0.21561419057E+03  0.47653884970E+03  0.46999998093E+01 0. -1.
</event>
<event>
 5   0  0.2315038E-04  0.1201037E+04  0.7818609E-02  0.9111950E-01
       -1   -1    0    0    0  501  0.00000000000E+00  0.00000000000E+00  0.42483071211E+03  0.42483071214E+03  0.50400001928E-02 0.  1.
        1   -1    0    0  501    0  0.00000000000E+00  0.00000000000E+00 -0.84886088926E+03  0.84886088927E+03  0.50400001928E-02 0. -1.
    10030    2    1    2    0    0  0.00000000000E+00  0.00000000000E+00 -0.42403017715E+03  0.12736916014E+04  0.12010365125E+04 0.  0.
        1    1    3    3  502    0 -0.40815511500E+03  0.41998898906E+03 -0.35286855777E+03  0.68373793804E+03  0.50400001928E-02 0. -1.
       -1    1    3    3    0  502  0.40815511500E+03 -0.41998898906E+03 -0.71161619376E+02  0.58995366337E+03  0.50400001928E-02 0.  1.
</event>
<event>
 5   0  0.1541375E-04  0.1199866E+04  0.7818609E-02  0.9112974E-01
        4   -1    0    0  501    0  0.00000000000E+00  0.00000000000E+00  0.34590533113E+03  0.34590766254E+03  0.12699999809E+01 0.  1.
       -4   -1    0    0    0  501  0.00000000000E+00  0.00000000000E+00 -0.10405076847E+04  0.10405084598E+04  0.12699999809E+01 0. -1.
    10030    2    1    2    0    0  0.00000000000E+00  0.00000000000E+00 -0.69460235361E+03  0.13864161223E+04  0.11998655069E+04 0.  0.
        5    1    3    3  502    0  0.27532534893E+03 -0.43412090895E+03  0.10023592009E+02  0.51418632201E+03  0.46999998093E+01 0. -1.
       -5    1    3    3    0  502 -0.27532534893E+03  0.43412090895E+03 -0.70462594562E+03  0.87222980034E+03  0.46999998093E+01 0.  1.
</event>
<event>
 5   0  0.2204090E-04  0.1197775E+04  0.7818609E-02  0.9114806E-01
       -1   -1    0    0    0  501  0.00000000000E+00  0.00000000000E+00  0.31156061102E+03  0.31156061106E+03  0.50400001928E-02 0.  1.
        1   -1    0    0  501    0  0.00000000000E+00  0.00000000000E+00 -0.11511924701E+04  0.11511924701E+04  0.50400001928E-02 0. -1.
    10030    2    1    2    0    0  0.00000000000E+00  0.00000000000E+00 -0.83963185908E+03  0.14627530812E+04  0.11977749862E+04 0.  0.
        2    1    3    3  502    0 -0.17564252158E+03  0.49315813024E+02 -0.11164325022E+04  0.11312399731E+04  0.25500000920E-02 0. -1.
       -2    1    3    3    0  502  0.17564252158E+03 -0.49315813024E+02  0.27680064310E+03  0.33151310808E+03  0.25500000920E-02 0.  1.
</event>
<event>
 5   0  0.2340731E-04  0.1198777E+04  0.7818609E-02  0.9113927E-01
       -1   -1    0    0    0  501  0.00000000000E+00  0.00000000000E+00  0.47627211698E+03  0.47627211701E+03  0.50400001928E-02 0.  1.
        1   -1    0    0  501    0  0.00000000000E+00  0.00000000000E+00 -0.75433077645E+03  0.75433077646E+03  0.50400001928E-02 0. -1.
    10030    2    1    2    0    0  0.00000000000E+00  0.00000000000E+00 -0.27805865947E+03  0.12306028935E+04  0.11987772367E+04 0.  0.
        3    1    3    3  502    0  0.11054748094E+03  0.58330556379E+03 -0.22368428803E+03  0.63442950530E+03  0.10100000352E+00 0. -1.
       -3    1    3    3    0  502 -0.11054748094E+03 -0.58330556379E+03 -0.54374371440E+02  0.59617338817E+03  0.10100000352E+00 0.  1.
</event>
<event>
 5   0  0.4024486E-04  0.1190578E+04  0.7818609E-02  0.9121144E-01
        2   -1    0    0  501    0  0.00000000000E+00  0.00000000000E+00  0.55725086248E+03  0.55725086249E+03  0.25500000920E-02 0.  1.
       -2   -1    0    0    0  501  0.00000000000E+00  0.00000000000E+00 -0.63592366343E+03  0.63592366343E+03  0.25500000920E-02 0. -1.
    10030    2    1    2    0    0  0.00000000000E+00  0.00000000000E+00 -0.78672800942E+02  0.11931745259E+04  0.11905780276E+04 0.  0.
        1    1    3    3  502    0 -0.90246334898E+00 -0.53519092194E+03 -0.30055570996E+03  0.61381094172E+03  0.50400001928E-02 0. -1.
       -1    1    3    3    0  502  0.90246334898E+00  0.53519092194E+03  0.22188290901E+03  0.57936358420E+03  0.50400001928E-02 0.  1.
</event>
<event>
 5   0  0.2204090E-04  0.1196944E+04  0.7818609E-02  0.9115536E-01
        1   -1    0    0  501    0  0.00000000000E+00  0.00000000000E+00  0.67217603226E+03  0.67217603228E+03  0.50400001928E-02 0. -1.
       -1   -1    0    0    0  501  0.00000000000E+00  0.00000000000E+00 -0.53284960666E+03  0.53284960669E+03  0.50400001928E-02 0.  1.
    10030    2    1    2    0    0  0.00000000000E+00  0.00000000000E+00  0.13932642560E+03  0.12050256390E+04  0.11969439994E+04 0.  0.
        2    1    3    3  502    0 -0.29118325504E+03  0.60845573664E+02 -0.45314922311E+03  0.54206465506E+03  0.25500000920E-02 0.  1.
       -2    1    3    3    0  502  0.29118325504E+03 -0.60845573664E+02  0.59247564871E+03  0.66296098390E+03  0.25500000920E-02 0. -1.
</event>
<event>
 5   0  0.2304842E-04  0.1195950E+04  0.7818609E-02  0.9116409E-01
       -1   -1    0    0    0  501  0.00000000000E+00  0.00000000000E+00  0.64113900579E+03  0.64113900581E+03  0.50400001928E-02 0.  1.
        1   -1    0    0  501    0  0.00000000000E+00  0.00000000000E+00 -0.55771666315E+03  0.55771666317E+03  0.50400001928E-02 0. -1.
    10030    2    1    2    0    0  0.00000000000E+00  0.00000000000E+00  0.83422342642E+02  0.11988556690E+04  0.11959496761E+04 0.  0.
        4    1    3    3  502    0 -0.52007248738E+03 -0.33371865293E+02  0.33565263309E+03  0.61988174398E+03  0.12699999809E+01 0.  1.
       -4    1    3    3    0  502  0.52007248738E+03  0.33371865293E+02 -0.25223029044E+03  0.57897392501E+03  0.12699999809E+01 0. -1.
</event>
<event>
 5   0  0.3832662E-04  0.1203320E+04  0.7818609E-02  0.9109955E-01
       -2   -1    0    0    0  501  0.00000000000E+00  0.00000000000E+00  0.19332801914E+03  0.19332801916E+03  0.25500000920E-02 0. -1.
        2   -1    0    0  501    0  0.00000000000E+00  0.00000000000E+00 -0.18724393434E+04  0.18724393434E+04  0.25500000920E-02 0.  1.
    10030    2    1    2    0    0  0.00000000000E+00  0.00000000000E+00 -0.16791113243E+04  0.20657673626E+04  0.12033203883E+04 0.  0.
        4    1    3    3  502    0  0.28352988714E+03  0.34685537994E+03 -0.15290191872E+04  0.15932981953E+04  0.12699999809E+01 0.  1.
       -4    1    3    3    0  502 -0.28352988714E+03 -0.34685537994E+03 -0.15009213708E+03  0.47246916725E+03  0.12699999809E+01 0. -1.
</event>
<event>
 5   0  0.2244308E-04  0.1199288E+04  0.7818609E-02  0.9113480E-01
       -1   -1    0    0    0  501  0.00000000000E+00  0.00000000000E+00  0.48442451175E+03  0.48442451178E+03  0.50400001928E-02 0. -1.
        1   -1    0    0  501    0  0.00000000000E+00  0.00000000000E+00 -0.74226835741E+03  0.74226835742E+03  0.50400001928E-02 0.  1.
    10030    2    1    2    0    0  0.00000000000E+00  0.00000000000E+00 -0.25784384565E+03  0.12266928692E+04  0.11992880999E+04 0.  0.
        5    1    3    3  502    0  0.56418381389E+03 -0.13940657382E+03  0.22146355952E+02  0.58159274390E+03  0.46999998093E+01 0. -1.
       -5    1    3    3    0  502 -0.56418381389E+03  0.13940657382E+03 -0.27999020160E+03  0.64510012531E+03  0.46999998093E+01 0.  1.
</event>
<event>
 5   0  0.2244308E-04  0.1193675E+04  0.7818609E-02  0.9118411E-01
        1   -1    0    0  501    0  0.00000000000E+00  0.00000000000E+00  0.57244380127E+03  0.57244380129E+03  0.50400001928E-02 0.  1.
       -1   -1    0    0    0  501  0.00000000000E+00  0.00000000000E+00 -0.62227025839E+03  0.62227025841E+03  0.50400001928E-02 0. -1.
    10030    2    1    2    0    0  0.00000000000E+00  0.00000000000E+00 -0.49826457124E+02  0.11947140597E+04  0.11936745824E+04 0.  0.
        5    1    3    3  502    0 -0.26521798317E+03  0.32270632292E+03  0.40173572447E+03  0.57956331127E+03  0.46999998093E+01 0.  1.
       -5    1    3    3    0  502  0.26521798317E+03 -0.32270632292E+03 -0.45156218160E+03  0.61515074843E+03  0.46999998093E+01 0. -1.
</event>
<event>
 5   0  0.2204090E-04  0.1197830E+04  0.7818609E-02  0.9114758E-01
       -1   -1    0    0    0  501  0.00000000000E+00  0.00000000000E+00  0.79043673177E+03  0.79043673178E+03  0.50400001928E-02 0. -1.
        1   -1    0    0  501    0  0.00000000000E+00  0.00000000000E+00 -0.45379865611E+03  0.45379865614E+03  0.50400001928E-02 0.  1.
    10030    2    1    2    0    0  0.00000000000E+00  0.00000000000E+00  0.33663807565E+03  0.12442353879E+04  0.11978299155E+04 0.  0.
        2    1    3    3  502    0 -0.71088396115E+02 -0.53062030359E+03 -0.11057411891E+03  0.54666086601E+03  0.25500000920E-02 0.  1.
       -2    1    3    3    0  502  0.71088396115E+02  0.53062030359E+03  0.44721219457E+03  0.69757452191E+03  0.25500000920E-02 0. -1.
</event>
<event>
 5   0  0.4024486E-04  0.1186517E+04  0.7818609E-02  0.9124740E-01
        2   -1    0    0  501    0  0.00000000000E+00  0.00000000000E+00  0.13373787109E+04  0.13373787109E+04  0.25500000920E-02 0.  1.
       -2   -1    0    0    0  501  0.00000000000E+00  0.00000000000E+00 -0.26316840144E+03  0.26316840145E+03  0.25500000920E-02 0. -1.
    10030    2    1    2    0    0  0.00000000000E+00  0.00000000000E+00  0.10742103095E+04  0.16005471124E+04  0.11865172860E+04 0.  0.
        1    1    3    3  502    0 -0.55268165149E+03 -0.28427368794E+02  0.24876291264E+03  0.60675209923E+03  0.50400001928E-02 0. -1.
       -1    1    3    3    0  502  0.55268165149E+03  0.28427368794E+02  0.82544739684E+03  0.99379501315E+03  0.50400001928E-02 0.  1.
</event>
<event>
 5   0  0.2204090E-04  0.1202457E+04  0.7818609E-02  0.9110709E-01
        1   -1    0    0  501    0  0.00000000000E+00  0.00000000000E+00  0.92973183191E+03  0.92973183192E+03  0.50400001928E-02 0.  1.
       -1   -1    0    0    0  501  0.00000000000E+00  0.00000000000E+00 -0.38879575559E+03  0.38879575562E+03  0.50400001928E-02 0. -1.
    10030    2    1    2    0    0  0.00000000000E+00  0.00000000000E+00  0.54093607631E+03  0.13185275875E+04  0.12024571346E+04 0.  0.
        2    1    3    3  502    0  0.30988834476E+03 -0.64981263733E+02 -0.28996645588E+03  0.42934123538E+03  0.25500000920E-02 0. -1.
       -2    1    3    3    0  502 -0.30988834476E+03  0.64981263733E+02  0.83090253220E+03  0.88918635216E+03  0.25500000920E-02 0.  1.
</event>
<event>
 5   0  0.4024486E-04  0.1201325E+04  0.7818609E-02  0.9111698E-01
        2   -1    0    0  501    0  0.00000000000E+00  0.00000000000E+00  0.14590669453E+04  0.14590669453E+04  0.25500000920E-02 0. -1.
       -2   -1    0    0    0  501  0.00000000000E+00  0.00000000000E+00 -0.24727801589E+03  0.24727801591E+03  0.25500000920E-02 0.  1.
    10030    2    1    2    0    0  0.00000000000E+00  0.00000000000E+00  0.12117889294E+04  0.17063449612E+04  0.12013245678E+04 0.  0.
        1    1    3    3  502    0 -0.24809112452E+03  0.56712469779E+02  0.13787068888E+04  0.14019979299E+04  0.50400001928E-02 0. -1.
       -1    1    3    3    0  502  0.24809112452E+03 -0.56712469779E+02 -0.16691795935E+03  0.30434703132E+03  0.50400001928E-02 0.  1.
</event>
<event>
 5   0  0.3993723E-04  0.1196439E+04  0.7818609E-02  0.9115979E-01
       -2   -1    0    0    0  501  0.00000000000E+00  0.00000000000E+00  0.38275212698E+03  0.38275212699E+03  0.25500000920E-02 0.  1.
        2   -1    0    0  501    0  0.00000000000E+00  0.00000000000E+00 -0.93498210380E+03  0.93498210381E+03  0.25500000920E-02 0. -1.
    10030    2    1    2    0    0  0.00000000000E+00  0.00000000000E+00 -0.55222997682E+03  0.13177342308E+04  0.11964386970E+04 0.  0.
        3    1    3    3  502    0 -0.18903069548E+03  0.55372432786E+03 -0.41333808472E+03  0.71637393697E+03  0.10100000352E+00 0. -1.
       -3    1    3    3    0  502  0.18903069548E+03 -0.55372432786E+03 -0.13889189210E+03  0.60136029382E+03  0.10100000352E+00 0.  1.
</event>
<event>
 5   0  0.3993723E-04  0.1189108E+04  0.7818609E-02  0.9122444E-01
        2   -1    0    0  501    0  0.00000000000E+00  0.00000000000E+00  0.12164174194E+04  0.12164174194E+04  0.25500000920E-02 0. -1.
       -2   -1    0    0    0  501  0.00000000000E+00  0.00000000000E+00 -0.29060276358E+03  0.29060276359E+03  0.25500000920E-02 0.  1.
    10030    2    1    2    0    0  0.00000000000E+00  0.00000000000E+00  0.92581465581E+03  0.15070201830E+04  0.11891076717E+04 0.  0.
        3    1    3    3  502    0  0.21271959480E+03 -0.54946805630E+03  0.36207913260E+03  0.69156784148E+03  0.10100000352E+00 0.  1.
       -3    1    3    3    0  502 -0.21271959480E+03  0.54946805630E+03  0.56373552321E+03  0.81545234149E+03  0.10100000352E+00 0. -1.
</event>
<event>
 5   0  0.2315038E-04  0.1211428E+04  0.7818609E-02  0.9102912E-01
        1   -1    0    0  501    0  0.00000000000E+00  0.00000000000E+00  0.28101195273E+03  0.28101195278E+03  0.50400001928E-02 0. -1.
       -1   -1    0    0    0  501  0.00000000000E+00  0.00000000000E+00 -0.13056019159E+04  0.13056019159E+04  0.50400001928E-02 0.  1.
    10030    2    1    2    0    0  0.00000000000E+00  0.00000000000E+00 -0.10245899631E+04  0.15866138686E+04  0.12114284856E+04 0.  0.
        1    1    3    3  502    0 -0.86944058252E+02  0.24490882855E+03 -0.12288725314E+04  0.12560522688E+04  0.50400001928E-02 0.  1.
       -1    1    3    3    0  502  0.86944058252E+02 -0.24490882855E+03  0.20428256826E+03  0.33056159984E+03  0.50400001928E-02 0. -1.
</event>
<event>
 5   0  0.2244308E-04  0.1226092E+04  0.7818609E-02  0.9090320E-01
        1   -1    0    0  501    0  0.00000000000E+00  0.00000000000E+00  0.12815241872E+04  0.12815241872E+04  0.50400001928E-02 0.  1.
       -1   -1    0    0    0  501  0.00000000000E+00  0.00000000000E+00 -0.29326417492E+03  0.29326417497E+03  0.50400001928E-02 0. -1.
    10030    2    1    2    0    0  0.00000000000E+00  0.00000000000E+00  0.98826001226E+03  0.15747883622E+04  0.12260915683E+04 0.  0.
        5    1    3    3  502    0  0.54788885593E+03 -0.25309332329E+03  0.35600736482E+03  0.70071517933E+03  0.46999998093E+01 0. -1.
       -5    1    3    3    0  502 -0.54788885593E+03  0.25309332329E+03  0.63225264745E+03  0.87407318283E+03  0.46999998093E+01 0.  1.
</event>
<event>
 5   0  0.3993723E-04  0.1198270E+04  0.7818609E-02  0.9114372E-01
       -2   -1    0    0    0  501  0.00000000000E+00  0.00000000000E+00  0.43727457659E+03  0.43727457660E+03  0.25500000920E-02 0. -1.
        2   -1    0    0  501    0  0.00000000000E+00  0.00000000000E+00 -0.82090970426E+03  0.82090970426E+03  0.25500000920E-02 0.  1.
    10030    2    1    2    0    0  0.00000000000E+00  0.00000000000E+00 -0.38363512767E+03  0.12581842809E+04  0.11982703257E+04 0.  0.
        3    1    3    3  502    0 -0.55934295865E+03 -0.63272993977E+01 -0.41716034642E+03  0.69780179487E+03  0.10100000352E+00 0.  1.
       -3    1    3    3    0  502  0.55934295865E+03  0.63272993977E+01  0.33525218747E+02  0.56038248598E+03  0.10100000352E+00 0. -1.
</event>
<event>
 5   0  0.2244308E-04  0.1204450E+04  0.7818609E-02  0.9108970E-01
        1   -1    0    0  501    0  0.00000000000E+00  0.00000000000E+00  0.15847907190E+04  0.15847907190E+04  0.50400001928E-02 0. -1.
       -1   -1    0    0    0  501  0.00000000000E+00  0.00000000000E+00 -0.22884721912E+03  0.22884721917E+03  0.50400001928E-02 0.  1.
    10030    2    1    2    0    0  0.00000000000E+00  0.00000000000E+00  0.13559434998E+04  0.18136379381E+04  0.12044499973E+04 0.  0.
        5    1    3    3  502    0  0.14546433155E+03 -0.37903700371E+03  0.82394612604E+01  0.40610208157E+03  0.46999998093E+01 0.  1.
       -5    1    3    3    0  502 -0.14546433155E+03  0.37903700371E+03  0.13477040386E+04  0.14075358566E+04  0.46999998093E+01 0. -1.
</event>
<event>
 5   0  0.3883890E-04  0.1198100E+04  0.7818609E-02  0.9114522E-01
        2   -1    0    0  501    0  0.00000000000E+00  0.00000000000E+00  0.72245830721E+03  0.72245830721E+03  0.25500000920E-02 0. -1.
       -2   -1    0    0    0  501  0.00000000000E+00  0.00000000000E+00 -0.49672157536E+03  0.49672157537E+03  0.25500000920E-02 0.  1.
    10030    2    1    2    0    0  0.00000000000E+00  0.00000000000E+00  0.22573673185E+03  0.12191798826E+04  0.11980995426E+04 0.  0.
        2    1    3    3  502    0  0.26740712963E+03 -0.13180316752E+03  0.64160849772E+03  0.70748859518E+03  0.25500000920E-02 0. -1.
       -2    1    3    3    0  502 -0.26740712963E+03  0.13180316752E+03 -0.41587176587E+03  0.51169128740E+03  0.25500000920E-02 0.  1.
</event>
<event>
 5   0  0.2315038E-04  0.1204558E+04  0.7818609E-02  0.9108876E-01
       -1   -1    0    0    0  501  0.00000000000E+00  0.00000000000E+00  0.32494048172E+03  0.32494048176E+03  0.50400001928E-02 0.  1.
        1   -1    0    0  501    0  0.00000000000E+00  0.00000000000E+00 -0.11163281110E+04  0.11163281110E+04  0.50400001928E-02 0. -1.
    10030    2    1    2    0    0  0.00000000000E+00  0.00000000000E+00 -0.79138762929E+03  0.14412685928E+04  0.12045583326E+04 0.  0.
        1    1    3    3  502    0  0.54877716700E+03 -0.13552659001E+03 -0.64443126112E+03  0.85721379244E+03  0.50400001928E-02 0. -1.
       -1    1    3    3    0  502 -0.54877716700E+03  0.13552659001E+03 -0.14695636817E+03  0.58405480033E+03  0.50400001928E-02 0.  1.
</event>
<event>
 5   0  0.2315038E-04  0.1193176E+04  0.7818609E-02  0.9118851E-01
        1   -1    0    0  501    0  0.00000000000E+00  0.00000000000E+00  0.64125275321E+03  0.64125275323E+03  0.50400001928E-02 0. -1.
       -1   -1    0    0    0  501  0.00000000000E+00  0.00000000000E+00 -0.55503408152E+03  0.55503408154E+03  0.50400001928E-02 0.  1.
    10030    2    1    2    0    0  0.00000000000E+00  0.00000000000E+00  0.86218671693E+02  0.11962868348E+04  0.11931758176E+04 0.  0.
        1    1    3    3  502    0 -0.49916059082E+02  0.13538877918E+02  0.63900082475E+03  0.64109045246E+03  0.50400001928E-02 0. -1.
       -1    1    3    3    0  502  0.49916059082E+02 -0.13538877918E+02 -0.55278215306E+03  0.55519638232E+03  0.50400001928E-02 0.  1.
</event>
<event>
 5   0  0.2204090E-04  0.1197014E+04  0.7818609E-02  0.9115474E-01
        1   -1    0    0  501    0  0.00000000000E+00  0.00000000000E+00  0.65374347627E+03  0.65374347629E+03  0.50400001928E-02 0. -1.
       -1   -1    0    0    0  501  0.00000000000E+00  0.00000000000E+00 -0.54793768053E+03  0.54793768055E+03  0.50400001928E-02 0.  1.
    10030    2    1    2    0    0  0.00000000000E+00  0.00000000000E+00  0.10580579574E+03  0.12016811568E+04  0.11970140919E+04 0.  0.
        2    1    3    3  502    0 -0.16191271237E+03  0.35527447527E+03 -0.40249004726E+03  0.56074407474E+03  0.25500000920E-02 0.  1.
       -2    1    3    3    0  502  0.16191271237E+03 -0.35527447527E+03  0.50829584300E+03  0.64093708211E+03  0.25500000920E-02 0. -1.
</event>
<event>
 5   0  0.3832662E-04  0.1199520E+04  0.7818609E-02  0.9113277E-01
        2   -1    0    0  501    0  0.00000000000E+00  0.00000000000E+00  0.14801124660E+04  0.14801124660E+04  0.25500000920E-02 0.  1.
       -2   -1    0    0    0  501  0.00000000000E+00  0.00000000000E+00 -0.24303002117E+03  0.24303002118E+03  0.25500000920E-02 0. -1.
    10030    2    1    2    0    0  0.00000000000E+00  0.00000000000E+00  0.12370824448E+04  0.17231424872E+04  0.11995195104E+04 0.  0.
        4    1    3    3  502    0 -0.17318381703E+03  0.22970510579E+03  0.13745328312E+04  0.14043144901E+04  0.12699999809E+01 0.  1.
       -4    1    3    3    0  502  0.17318381703E+03 -0.22970510579E+03 -0.13745038639E+03  0.31882799708E+03  0.12699999809E+01 0. -1.
</event>
<event>
 5   0  0.2340731E-04  0.1199590E+04  0.7818609E-02  0.9113216E-01
       -1   -1    0    0    0  501  0.00000000000E+00  0.00000000000E+00  0.25291401223E+03  0.25291401228E+03  0.50400001928E-02 0.  1.
        1   -1    0    0  501    0  0.00000000000E+00  0.00000000000E+00 -0.14224352715E+04  0.14224352715E+04  0.50400001928E-02 0. -1.
    10030    2    1    2    0    0  0.00000000000E+00  0.00000000000E+00 -0.11695212592E+04  0.16753492838E+04  0.11995896160E+04 0.  0.
        3    1    3    3  502    0 -0.57595509564E+03 -0.12443721419E+03 -0.74118572363E+03  0.94687125819E+03  0.10100000352E+00 0. -1.
       -3    1    3    3    0  502  0.57595509564E+03  0.12443721419E+03 -0.42833553562E+03  0.72847802557E+03  0.10100000352E+00 0.  1.
</event>
<event>
 5   0  0.2244308E-04  0.1201249E+04  0.7818609E-02  0.9111764E-01
       -1   -1    0    0    0  501  0.00000000000E+00  0.00000000000E+00  0.38765684361E+03  0.38765684364E+03  0.50400001928E-02 0. -1.
        1   -1    0    0  501    0  0.00000000000E+00  0.00000000000E+00 -0.93059114947E+03  0.93059114949E+03  0.50400001928E-02 0.  1.
    10030    2    1    2    0    0  0.00000000000E+00  0.00000000000E+00 -0.54293430586E+03  0.13182479931E+04  0.12012493958E+04 0.  0.
        5    1    3    3  502    0  0.11991238137E+03  0.49299105570E+03 -0.62418915251E+03  0.80439626324E+03  0.46999998093E+01 0.  1.
       -5    1    3    3    0  502 -0.11991238137E+03 -0.49299105570E+03  0.81254846651E+02  0.51385172988E+03  0.46999998093E+01 0. -1.
</event>
<event>
 5   0  0.2204090E-04  0.1196431E+04  0.7818609E-02  0.9115986E-01
        1   -1    0    0  501    0  0.00000000000E+00  0.00000000000E+00  0.10490336575E+04  0.10490336575E+04  0.50400001928E-02 0.  1.
       -1   -1    0    0    0  501  0.00000000000E+00  0.00000000000E+00 -0.34113496549E+03  0.34113496552E+03  0.50400001928E-02 0. -1.
    10030    2    1    2    0    0  0.00000000000E+00  0.00000000000E+00  0.70789869201E+03  0.13901686230E+04  0.11964314616E+04 0.  0.
        2    1    3    3  502    0 -0.59912052944E+02 -0.54669528821E+03  0.62742726355E+03  0.83434415159E+03  0.25500000920E-02 0.  1.
       -2    1    3    3    0  502  0.59912052944E+02  0.54669528821E+03  0.80471428456E+02  0.55582447144E+03  0.25500000920E-02 0. -1.
</event>
<event>
 5   0  0.3883890E-04  0.1200499E+04  0.7818609E-02  0.9112420E-01
        2   -1    0    0  501    0  0.00000000000E+00  0.00000000000E+00  0.19419382488E+04  0.19419382488E+04  0.25500000920E-02 0.  1.
       -2   -1    0    0    0  501  0.00000000000E+00  0.00000000000E+00 -0.18553610789E+03  0.18553610791E+03  0.25500000920E-02 0. -1.
    10030    2    1    2    0    0  0.00000000000E+00  0.00000000000E+00  0.17564021409E+04  0.21274743567E+04  0.12004993369E+04 0.  0.
        2    1    3    3  502    0  0.19298015424E+03 -0.28038398196E+03  0.20250907395E+01  0.34038304638E+03  0.25500000920E-02 0. -1.
       -2    1    3    3    0  502 -0.19298015424E+03  0.28038398196E+03  0.17543770501E+04  0.17870913103E+04  0.25500000920E-02 0.  1.
</event>
<event>
 5   0  0.1541375E-04  0.1199049E+04  0.7818609E-02  0.9113690E-01
       -3   -1    0    0    0  501  0.00000000000E+00  0.00000000000E+00  0.31773934120E+03  0.31773935725E+03  0.10100000352E+00 0.  1.
        3   -1    0    0  501    0  0.00000000000E+00  0.00000000000E+00 -0.11312083082E+04  0.11312083127E+04  0.10100000352E+00 0. -1.
    10030    2    1    2    0    0  0.00000000000E+00  0.00000000000E+00 -0.81346896700E+03  0.14489476700E+04  0.11990486187E+04 0.  0.
        1    1    3    3  502    0  0.38165100896E+03  0.45993976939E+03 -0.46376490349E+03  0.75649188353E+03  0.50400001928E-02 0.  1.
       -1    1    3    3    0  502 -0.38165100896E+03 -0.45993976939E+03 -0.34970406351E+03  0.69245578643E+03  0.50400001928E-02 0. -1.
</event>
<event>
 5   0  0.3832662E-04  0.1198446E+04  0.7818609E-02  0.9114218E-01
        2   -1    0    0  501    0  0.00000000000E+00  0.00000000000E+00  0.12052064632E+04  0.12052064632E+04  0.25500000920E-02 0.  1.
       -2   -1    0    0    0  501  0.00000000000E+00  0.00000000000E+00 -0.29793065379E+03  0.29793065380E+03  0.25500000920E-02 0. -1.
    10030    2    1    2    0    0  0.00000000000E+00  0.00000000000E+00  0.90727580937E+03  0.15031371170E+04  0.11984455758E+04 0.  0.
        4    1    3    3  502    0  0.29249016242E+03 -0.41064475157E+03  0.85983849893E+03  0.99674643930E+03  0.12699999809E+01 0.  1.
       -4    1    3    3    0  502 -0.29249016242E+03  0.41064475157E+03  0.47437310438E+02  0.50639067766E+03  0.12699999809E+01 0. -1.
</event>
<event>
 5   0  0.3832662E-04  0.1200773E+04  0.7818609E-02  0.9112181E-01
       -2   -1    0    0    0  501  0.00000000000E+00  0.00000000000E+00  0.27407151753E+03  0.27407151754E+03  0.25500000920E-02 0. -1.
        2   -1    0    0  501    0  0.00000000000E+00  0.00000000000E+00 -0.13152175912E+04  0.13152175912E+04  0.25500000920E-02 0.  1.
    10030    2    1    2    0    0  0.00000000000E+00  0.00000000000E+00 -0.10411460737E+04  0.15892891088E+04  0.12007725532E+04 0.  0.
        4    1    3    3  502    0 -0.59336733764E+03 -0.16094010488E+02 -0.63982717645E+03  0.87276814972E+03  0.12699999809E+01 0. -1.
       -4    1    3    3    0  502  0.59336733764E+03  0.16094010488E+02 -0.40131889724E+03  0.71652095903E+03  0.12699999809E+01 0.  1.
</event>
<event>
 5   0  0.2304842E-04  0.1200744E+04  0.7818609E-02  0.9112206E-01
       -1   -1    0    0    0  501  0.00000000000E+00  0.00000000000E+00  0.53033346888E+03  0.53033346891E+03  0.50400001928E-02 0.  1.
        1   -1    0    0  501    0  0.00000000000E+00  0.00000000000E+00 -0.67966007877E+03  0.67966007879E+03  0.50400001928E-02 0. -1.
    10030    2    1    2    0    0  0.00000000000E+00  0.00000000000E+00 -0.14932660989E+03  0.12099935477E+04  0.12007439148E+04 0.  0.
        4    1    3    3  502    0 -0.43117206241E+03 -0.28548463162E+03 -0.38202775018E+03  0.64292895183E+03  0.12699999809E+01 0. -1.
       -4    1    3    3    0  502  0.43117206241E+03  0.28548463162E+03  0.23270114030E+03  0.56706459587E+03  0.12699999809E+01 0.  1.
</event>
<event>
 5   0  0.3883890E-04  0.1202848E+04  0.7818609E-02  0.9110367E-01
       -2   -1    0    0    0  501  0.00000000000E+00  0.00000000000E+00  0.13792675792E+03  0.13792675794E+03  0.25500000920E-02 0.  1.
        2   -1    0    0  501    0  0.00000000000E+00  0.00000000000E+00 -0.26224869462E+04  0.26224869462E+04  0.25500000920E-02 0. -1.
    10030    2    1    2    0    0  0.00000000000E+00  0.00000000000E+00 -0.24845601883E+04  0.27604137041E+04  0.12028484896E+04 0.  0.
        2    1    3    3  502    0 -0.42480861949E+03 -0.37090168529E+03 -0.76264821991E+03  0.94850552486E+03  0.25500000920E-02 0.  1.
       -2    1    3    3    0  502  0.42480861949E+03  0.37090168529E+03 -0.17219119684E+04  0.18119081793E+04  0.25500000920E-02 0. -1.
</event>
<event>
 5   0  0.1541375E-04  0.1202026E+04  0.7818609E-02  0.9111085E-01
       -3   -1    0    0    0  501  0.00000000000E+00  0.00000000000E+00  0.62160051647E+03  0.62160052468E+03  0.10100000352E+00 0. -1.
        3   -1    0    0  501    0  0.00000000000E+00  0.00000000000E+00 -0.58110736242E+03  0.58110737119E+03  0.10100000352E+00 0.  1.
    10030    2    1    2    0    0  0.00000000000E+00  0.00000000000E+00  0.40493154054E+02  0.12027078959E+04  0.12020260344E+04 0.  0.
        5    1    3    3  502    0  0.60045591976E+03  0.23056383788E+02  0.31006672157E+02  0.60171622226E+03  0.46999998093E+01 0. -1.
       -5    1    3    3    0  502 -0.60045591976E+03 -0.23056383788E+02  0.94864818971E+01  0.60099167361E+03  0.46999998093E+01 0.  1.
</event>
<event>
 5   0  0.3832662E-04  0.1200736E+04  0.7818609E-02  0.9112212E-01
       -2   -1    0    0    0  501  0.00000000000E+00  0.00000000000E+00  0.26979702727E+03  0.26979702728E+03  0.25500000920E-02 0. -1.
        2   -1    0    0  501    0  0.00000000000E+00  0.00000000000E+00 -0.13359748006E+04  0.13359748006E+04  0.25500000920E-02 0.  1.
    10030    2    1    2    0    0  0.00000000000E+00  0.00000000000E+00 -0.10661777733E+04  0.16057718279E+04  0.12007364902E+04 0.  0.
        4    1    3    3  502    0 -0.28868499863E+02  0.38021705322E+03  0.87062600810E+02  0.39112645935E+03  0.12699999809E+01 0. -1.
       -4    1    3    3    0  502  0.28868499863E+02 -0.38021705322E+03 -0.11532403741E+04  0.12146453685E+04  0.12699999809E+01 0.  1.
</event>
<event>
 5   0  0.4122956E-04  0.1201464E+04  0.7818609E-02  0.9111576E-01
        2   -1    0    0  501    0  0.00000000000E+00  0.00000000000E+00  0.40490008507E+03  0.40490008508E+03  0.25500000920E-02 0. -1.
       -2   -1    0    0    0  501  0.00000000000E+00  0.00000000000E+00 -0.89127908820E+03  0.89127908821E+03  0.25500000920E-02 0.  1.
    10030    2    1    2    0    0  0.00000000000E+00  0.00000000000E+00 -0.48637900313E+03  0.12961791733E+04  0.12014640713E+04 0.  0.
        5    1    3    3  502    0  0.23493443478E+03  0.48603123819E+03  0.41091375957E+02  0.54141587003E+03  0.46999998093E+01 0. -1.
       -5    1    3    3    0  502 -0.23493443478E+03 -0.48603123819E+03 -0.52747037909E+03  0.75476330326E+03  0.46999998093E+01 0.  1.
</event>
<event>
 5   0  0.1541375E-04  0.1201383E+04  0.7818609E-02  0.9111647E-01
       -4   -1    0    0    0  501  0.00000000000E+00  0.00000000000E+00  0.33122629062E+03  0.33122872535E+03  0.12699999809E+01 0.  1.
        4   -1    0    0  501    0  0.00000000000E+00  0.00000000000E+00 -0.10893706810E+04  0.10893714212E+04  0.12699999809E+01 0. -1.
    10030    2    1    2    0    0  0.00000000000E+00  0.00000000000E+00 -0.75814439034E+03  0.14206001466E+04  0.12013833110E+04 0.  0.
        2    1    3    3  502    0 -0.11148285051E+03  0.58791665093E+03 -0.31699474767E+03  0.67717064648E+03  0.25500000920E-02 0.  1.
       -2    1    3    3    0  502  0.11148285051E+03 -0.58791665093E+03 -0.44114964267E+03  0.74342950011E+03  0.25500000920E-02 0. -1.
</event>
<event>
 5   0  0.3993723E-04  0.1200031E+04  0.7818609E-02  0.9112830E-01
       -2   -1    0    0    0  501  0.00000000000E+00  0.00000000000E+00  0.25937967720E+03  0.25937967721E+03  0.25500000920E-02 0.  1.
        2   -1    0    0  501    0  0.00000000000E+00  0.00000000000E+00 -0.13879973921E+04  0.13879973921E+04  0.25500000920E-02 0. -1.
    10030    2    1    2    0    0  0.00000000000E+00  0.00000000000E+00 -0.11286177149E+04  0.16473770693E+04  0.12000305255E+04 0.  0.
        3    1    3    3  502    0 -0.34524367183E+03  0.41690811306E+03 -0.91967774542E+03  0.10671516918E+04  0.10100000352E+00 0. -1.
       -3    1    3    3    0  502  0.34524367183E+03 -0.41690811306E+03 -0.20893996949E+03  0.58022537753E+03  0.10100000352E+00 0.  1.
</event>
<event>
 5   0  0.2244308E-04  0.1201460E+04  0.7818609E-02  0.9111579E-01
        1   -1    0    0  501    0  0.00000000000E+00  0.00000000000E+00  0.43698527749E+03  0.43698527752E+03  0.50400001928E-02 0. -1.
       -1   -1    0    0    0  501  0.00000000000E+00  0.00000000000E+00 -0.82583285888E+03  0.82583285889E+03  0.50400001928E-02 0.  1.
    10030    2    1    2    0    0  0.00000000000E+00  0.00000000000E+00 -0.38884758138E+03  0.12628181364E+04  0.12014604463E+04 0.  0.
        5    1    3    3  502    0 -0.36760493803E+03  0.33948334460E+03 -0.54377173060E+03  0.73898045761E+03  0.46999998093E+01 0.  1.
       -5    1    3    3    0  502  0.36760493803E+03 -0.33948334460E+03  0.15492414921E+03  0.52383767881E+03  0.46999998093E+01 0. -1.
</event>
<event>
 5   0  0.2204090E-04  0.1210667E+04  0.7818609E-02  0.9103570E-01
        1   -1    0    0  501    0  0.00000000000E+00  0.00000000000E+00  0.10716501904E+04  0.10716501904E+04  0.50400001928E-02 0. -1.
       -1   -1    0    0    0  501  0.00000000000E+00  0.00000000000E+00 -0.34192944200E+03  0.34192944203E+03  0.50400001928E-02 0.  1.
    10030    2    1    2    0    0  0.00000000000E+00  0.00000000000E+00  0.72972074836E+03  0.14135796324E+04  0.12106671741E+04 0.  0.
        2    1    3    3  502    0  0.34718376857E+03  0.41570301441E+03  0.49211497177E+02  0.54384495659E+03  0.25500000920E-02 0.  1.
       -2    1    3    3    0  502 -0.34718376857E+03 -0.41570301441E+03  0.68050925118E+03  0.86973467581E+03  0.25500000920E-02 0. -1.
</event>
<event>
 5   0  0.4024486E-04  0.1198745E+04  0.7818609E-02  0.9113956E-01
       -2   -1    0    0    0  501  0.00000000000E+00  0.00000000000E+00  0.37332591289E+03  0.37332591290E+03  0.25500000920E-02 0.  1.
        2   -1    0    0  501    0  0.00000000000E+00  0.00000000000E+00 -0.96228846320E+03  0.96228846320E+03  0.25500000920E-02 0. -1.
    10030    2    1    2    0    0  0.00000000000E+00  0.00000000000E+00 -0.58896255031E+03  0.13356143761E+04  0.11987447084E+04 0.  0.
        1    1    3    3  502    0 -0.38172725401E+03 -0.12990251988E+03 -0.78857453533E+03  0.88568626439E+03  0.50400001928E-02 0. -1.
       -1    1    3    3    0  502  0.38172725401E+03  0.12990251988E+03  0.19961198503E+03  0.44992811172E+03  0.50400001928E-02 0.  1.
</event>
<event>
 5   0  0.2304842E-04  0.1199882E+04  0.7818609E-02  0.9112960E-01
        1   -1    0    0  501    0  0.00000000000E+00  0.00000000000E+00  0.15489203140E+04  0.15489203140E+04  0.50400001928E-02 0. -1.
       -1   -1    0    0    0  501  0.00000000000E+00  0.00000000000E+00 -0.23237417088E+03  0.23237417093E+03  0.50400001928E-02 0.  1.
    10030    2    1    2    0    0  0.00000000000E+00  0.00000000000E+00  0.13165461431E+04  0.17812944849E+04  0.11998817838E+04 0.  0.
        4    1    3    3  502    0 -0.36031346007E+03 -0.20726824439E+02  0.13697344929E+04  0.14164849398E+04  0.12699999809E+01 0. -1.
       -4    1    3    3    0  502  0.36031346007E+03  0.20726824439E+02 -0.53188349786E+02  0.36480954512E+03  0.12699999809E+01 0.  1.
</event>
<event>
 5   0  0.3993723E-04  0.1193374E+04  0.7818609E-02  0.9118676E-01
       -2   -1    0    0    0  501  0.00000000000E+00  0.00000000000E+00  0.17351592380E+03  0.17351592382E+03  0.25500000920E-02 0. -1.
        2   -1    0    0  501    0  0.00000000000E+00  0.00000000000E+00 -0.20518895055E+04  0.20518895055E+04  0.25500000920E-02 0.  1.
    10030    2    1    2    0    0  0.00000000000E+00  0.00000000000E+00 -0.18783735817E+04  0.22254054293E+04  0.11933742131E+04 0.  0.
        3    1    3    3  502    0  0.27797783477E+03 -0.25396168397E+03 -0.18023847834E+04  0.18412927880E+04  0.10100000352E+00 0.  1.
       -3    1    3    3    0  502 -0.27797783477E+03  0.25396168397E+03 -0.75988798297E+02  0.38411264131E+03  0.10100000352E+00 0. -1.
</event>
<event>
 5   0  0.2340731E-04  0.1198996E+04  0.7818609E-02  0.9113736E-01
       -1   -1    0    0    0  501  0.00000000000E+00  0.00000000000E+00  0.45333415589E+03  0.45333415592E+03  0.50400001928E-02 0. -1.
        1   -1    0    0  501    0  0.00000000000E+00  0.00000000000E+00 -0.79278768863E+03  0.79278768865E+03  0.50400001928E-02 0.  1.
    10030    2    1    2    0    0  0.00000000000E+00  0.00000000000E+00 -0.33945353274E+03  0.12461218446E+04  0.11989958093E+04 0.  0.
        3    1    3    3  502    0 -0.45494674742E+03  0.21648498181E+03 -0.50738951269E+03  0.71504294845E+03  0.10100000352E+00 0.  1.
       -3    1    3    3    0  502  0.45494674742E+03 -0.21648498181E+03  0.16793597995E+03  0.53107889612E+03  0.10100000352E+00 0. -1.
</event>
<event>
 5   0  0.2340731E-04  0.1196562E+04  0.7818609E-02  0.9115871E-01
       -1   -1    0    0    0  501  0.00000000000E+00  0.00000000000E+00  0.20351289498E+03  0.20351289504E+03  0.50400001928E-02 0. -1.
        1   -1    0    0  501    0  0.00000000000E+00  0.00000000000E+00 -0.17588096925E+04  0.17588096925E+04  0.50400001928E-02 0.  1.
    10030    2    1    2    0    0  0.00000000000E+00  0.00000000000E+00 -0.15552967975E+04  0.19623225875E+04  0.11965624970E+04 0.  0.
        3    1    3    3  502    0 -0.39966735565E+03 -0.42709708964E+03 -0.98375327765E+03  0.11445158106E+04  0.10100000352E+00 0. -1.
       -3    1    3    3    0  502  0.39966735565E+03  0.42709708964E+03 -0.57154351984E+03  0.81780677695E+03  0.10100000352E+00 0.  1.
</event>
<event>
 5   0  0.2244308E-04  0.1199686E+04  0.7818609E-02  0.9113131E-01
       -1   -1    0    0    0  501  0.00000000000E+00  0.00000000000E+00  0.18669456339E+03  0.18669456346E+03  0.50400001928E-02 0.  1.
        1   -1    0    0  501    0  0.00000000000E+00  0.00000000000E+00 -0.19272746697E+04  0.19272746697E+04  0.50400001928E-02 0. -1.
    10030    2    1    2    0    0  0.00000000000E+00  0.00000000000E+00 -0.17405801063E+04  0.21139692332E+04  0.11996861307E+04 0.  0.
        5    1    3    3  502    0  0.25901635225E+03 -0.51698693315E+03 -0.11512591425E+04  0.12883263030E+04  0.46999998093E+01 0. -1.
       -5    1    3    3    0  502 -0.25901635225E+03  0.51698693315E+03 -0.58932096386E+03  0.82564293022E+03  0.46999998093E+01 0.  1.
</event>
<event>
 5   0  0.3883890E-04  0.1201591E+04  0.7818609E-02  0.9111466E-01
        2   -1    0    0  501    0  0.00000000000E+00  0.00000000000E+00  0.76909416657E+03  0.76909416658E+03  0.25500000920E-02 0. -1.
       -2   -1    0    0    0  501  0.00000000000E+00  0.00000000000E+00 -0.46932475818E+03  0.46932475819E+03  0.25500000920E-02 0.  1.
    10030    2    1    2    0    0  0.00000000000E+00  0.00000000000E+00  0.29976940839E+03  0.12384189248E+04  0.12015905022E+04 0.  0.
        2    1    3    3  502    0 -0.25851854276E+03 -0.35029699349E+02  0.70767098220E+03  0.75422618348E+03  0.25500000920E-02 0. -1.
       -2    1    3    3    0  502  0.25851854276E+03  0.35029699349E+02 -0.40790157381E+03  0.48419274128E+03  0.25500000920E-02 0.  1.
</event>
<event>
 5   0  0.4122956E-04  0.1199311E+04  0.7818609E-02  0.9113460E-01
       -2   -1    0    0    0  501  0.00000000000E+00  0.00000000000E+00  0.20182497277E+03  0.20182497279E+03  0.25500000920E-02 0. -1.
        2   -1    0    0  501    0  0.00000000000E+00  0.00000000000E+00 -0.17816749658E+04  0.17816749658E+04  0.25500000920E-02 0.  1.
    10030    2    1    2    0    0  0.00000000000E+00  0.00000000000E+00 -0.15798499930E+04  0.19834999386E+04  0.11993106378E+04 0.  0.
        5    1    3    3  502    0  0.50469329429E+03 -0.32379574363E+03 -0.79377057896E+03  0.99481296077E+03  0.46999998093E+01 0.  1.
       -5    1    3    3    0  502 -0.50469329429E+03  0.32379574363E+03 -0.78607941407E+03  0.98868697782E+03  0.46999998093E+01 0. -1.
</event>
<event>
 5   0  0.2304842E-04  0.1199030E+04  0.7818609E-02  0.9113706E-01
       -1   -1    0    0    0  501  0.00000000000E+00  0.00000000000E+00  0.39021766388E+03  0.39021766391E+03  0.50400001928E-02 0. -1.
        1   -1    0    0  501    0  0.00000000000E+00  0.00000000000E+00 -0.92107168836E+03  0.92107168838E+03  0.50400001928E-02 0.  1.
    10030    2    1    2    0    0  0.00000000000E+00  0.00000000000E+00 -0.53085402448E+03  0.13112893523E+04  0.11990303458E+04 0.  0.
        4    1    3    3  502    0  0.45507576229E+03 -0.12288109575E+03  0.13969141629E+03  0.49163911338E+03  0.12699999809E+01 0. -1.
       -4    1    3    3    0  502 -0.45507576229E+03  0.12288109575E+03 -0.67054544077E+03  0.81965023892E+03  0.12699999809E+01 0.  1.
</event>
<event>
 5   0  0.3832662E-04  0.1208334E+04  0.7818609E-02  0.9105593E-01
       -2   -1    0    0    0  501  0.00000000000E+00  0.00000000000E+00  0.18799046481E+03  0.18799046482E+03  0.25500000920E-02 0. -1.
        2   -1    0    0  501    0  0.00000000000E+00  0.00000000000E+00 -0.19416835580E+04  0.19416835580E+04  0.25500000920E-02 0.  1.
    10030    2    1    2    0    0  0.00000000000E+00  0.00000000000E+00 -0.17536930932E+04  0.21296740228E+04  0.12083343819E+04 0.  0.
        4    1    3    3  502    0 -0.53396577111E+03  0.13130406266E+03 -0.43567452993E+03  0.70155121732E+03  0.12699999809E+01 0. -1.
       -4    1    3    3    0  502  0.53396577111E+03 -0.13130406266E+03 -0.13180185632E+04  0.14281228055E+04  0.12699999809E+01 0.  1.
</event>
<event>
 5   0  0.2244308E-04  0.1200468E+04  0.7818609E-02  0.9112447E-01
        1   -1    0    0  501    0  0.00000000000E+00  0.00000000000E+00  0.45360921716E+03  0.45360921719E+03  0.50400001928E-02 0. -1.
       -1   -1    0    0    0  501  0.00000000000E+00  0.00000000000E+00 -0.79425331330E+03  0.79425331331E+03  0.50400001928E-02 0.  1.
    10030    2    1    2    0    0  0.00000000000E+00  0.00000000000E+00 -0.34064409614E+03  0.12478625305E+04  0.12004676151E+04 0.  0.
        5    1    3    3  502    0  0.45067441125E+03 -0.13860245231E+03 -0.55638857157E+03  0.72932050383E+03  0.46999998093E+01 0.  1.
       -5    1    3    3    0  502 -0.45067441125E+03  0.13860245231E+03  0.21574447543E+03  0.51854202666E+03  0.46999998093E+01 0. -1.
</event>
<event>
 5   0  0.3883890E-04  0.1200400E+04  0.7818609E-02  0.9112507E-01
       -2   -1    0    0    0  501  0.00000000000E+00  0.00000000000E+00  0.90901359488E+03  0.90901359488E+03  0.25500000920E-02 0.  1.
        2   -1    0    0  501    0  0.00000000000E+00  0.00000000000E+00 -0.39629771316E+03  0.39629771317E+03  0.25500000920E-02 0. -1.
    10030    2    1    2    0    0  0.00000000000E+00  0.00000000000E+00  0.51271588172E+03  0.13053113080E+04  0.12003999482E+04 0.  0.
        2    1    3    3  502    0 -0.54240605897E+03  0.23954088902E+03  0.15519004759E+03  0.61291771160E+03  0.25500000920E-02 0.  1.
       -2    1    3    3    0  502  0.54240605897E+03 -0.23954088902E+03  0.35752583413E+03  0.69239359644E+03  0.25500000920E-02 0. -1.
</event>
<event>
 5   0  0.3993723E-04  0.1197483E+04  0.7818609E-02  0.9115062E-01
       -2   -1    0    0    0  501  0.00000000000E+00  0.00000000000E+00  0.43413947579E+03  0.43413947580E+03  0.25500000920E-02 0.  1.
        2   -1    0    0  501    0  0.00000000000E+00  0.00000000000E+00 -0.82575205818E+03  0.82575205819E+03  0.25500000920E-02 0. -1.
    10030    2    1    2    0    0  0.00000000000E+00  0.00000000000E+00 -0.39161258239E+03  0.12598915340E+04  0.11974833037E+04 0.  0.
        3    1    3    3  502    0  0.28136821137E+03 -0.45227050037E+03  0.91894828433E+02  0.54051951451E+03  0.10100000352E+00 0.  1.
       -3    1    3    3    0  502 -0.28136821137E+03  0.45227050037E+03 -0.48350741082E+03  0.71937201947E+03  0.10100000352E+00 0. -1.
</event>
<event>
 5   0  0.2204090E-04  0.1196903E+04  0.7818609E-02  0.9115572E-01
        1   -1    0    0  501    0  0.00000000000E+00  0.00000000000E+00  0.14317677196E+04  0.14317677196E+04  0.50400001928E-02 0. -1.
       -1   -1    0    0    0  501  0.00000000000E+00  0.00000000000E+00 -0.25014117498E+03  0.25014117503E+03  0.50400001928E-02 0.  1.
    10030    2    1    2    0    0  0.00000000000E+00  0.00000000000E+00  0.11816265446E+04  0.16819088946E+04  0.11969027692E+04 0.  0.
        2    1    3    3  502    0 -0.49809692829E+02  0.20246690773E+03  0.13790767543E+04  0.13947496365E+04  0.25500000920E-02 0. -1.
       -2    1    3    3    0  502  0.49809692829E+02 -0.20246690773E+03 -0.19745020969E+03  0.28715925814E+03  0.25500000920E-02 0.  1.
</event>
<event>
 5   0  0.2244308E-04  0.1200793E+04  0.7818609E-02  0.9112163E-01
       -1   -1    0    0    0  501  0.00000000000E+00  0.00000000000E+00  0.48747851359E+03  0.48747851362E+03  0.50400001928E-02 0.  1.
        1   -1    0    0  501    0  0.00000000000E+00  0.00000000000E+00 -0.73946988589E+03  0.73946988591E+03  0.50400001928E-02 0. -1.
    10030    2    1    2    0    0  0.00000000000E+00  0.00000000000E+00 -0.25199137230E+03  0.12269483995E+04  0.12007925397E+04 0.  0.
        5    1    3    3  502    0  0.29685343173E+03  0.14555311891E+02  0.40701800925E+03  0.50400353856E+03  0.46999998093E+01 0.  1.
       -5    1    3    3    0  502 -0.29685343173E+03 -0.14555311891E+02 -0.65900938155E+03  0.72294486097E+03  0.46999998093E+01 0. -1.
</event>
<event>
 5   0  0.3993723E-04  0.1208663E+04  0.7818609E-02  0.9105307E-01
       -2   -1    0    0    0  501  0.00000000000E+00  0.00000000000E+00  0.98390962354E+03  0.98390962354E+03  0.25500000920E-02 0.  1.
        2   -1    0    0  501    0  0.00000000000E+00  0.00000000000E+00 -0.37118920343E+03  0.37118920344E+03  0.25500000920E-02 0. -1.
    10030    2    1    2    0    0  0.00000000000E+00  0.00000000000E+00  0.61272042011E+03  0.13550988270E+04  0.12086631117E+04 0.  0.
        3    1    3    3  502    0  0.57999176572E+03  0.26805998360E+02  0.49432549880E+03  0.76253965066E+03  0.10100000352E+00 0. -1.
       -3    1    3    3    0  502 -0.57999176572E+03 -0.26805998360E+02  0.11839492130E+03  0.59255917632E+03  0.10100000352E+00 0.  1.
</event>
<event>
 5   0  0.3993723E-04  0.1193924E+04  0.7818609E-02  0.9118192E-01
       -2   -1    0    0    0  501  0.00000000000E+00  0.00000000000E+00  0.25578777659E+03  0.25578777660E+03  0.25500000920E-02 0.  1.
        2   -1    0    0  501    0  0.00000000000E+00  0.00000000000E+00 -0.13932000305E+04  0.13932000305E+04  0.25500000920E-02 0. -1.
    10030    2    1    2    0    0  0.00000000000E+00  0.00000000000E+00 -0.11374122539E+04  0.16489878071E+04  0.11939238471E+04 0.  0.
        3    1    3    3  502    0 -0.51727956876E+03 -0.29216827988E+03 -0.48789915550E+03  0.76875617212E+03  0.10100000352E+00 0. -1.
       -3    1    3    3    0  502  0.51727956876E+03  0.29216827988E+03 -0.64951309841E+03  0.88023163499E+03  0.10100000352E+00 0.  1.
</event>
<event>
 5   0  0.3883890E-04  0.1201315E+04  0.7818609E-02  0.9111707E-01
       -2   -1    0    0    0  501  0.00000000000E+00  0.00000000000E+00  0.32138997326E+03  0.32138997327E+03  0.25500000920E-02 0.  1.
        2   -1    0    0  501    0  0.00000000000E+00  0.00000000000E+00 -0.11225900274E+04  0.11225900274E+04  0.25500000920E-02 0. -1.
    10030    2    1    2    0    0  0.00000000000E+00  0.00000000000E+00 -0.80120005419E+03  0.14439800007E+04  0.12013145781E+04 0.  0.
        2    1    3    3  502    0 -0.30205460005E+03 -0.39055092495E+03  0.10586152534E+02  0.49384114148E+03  0.25500000920E-02 0.  1.
       -2    1    3    3    0  502  0.30205460005E+03  0.39055092495E+03 -0.81178620672E+03  0.95013885923E+03  0.25500000920E-02 0. -1.
</event>
<event>
 5   0  0.2315038E-04  0.1198983E+04  0.7818609E-02  0.9113747E-01
        1   -1    0    0  501    0  0.00000000000E+00  0.00000000000E+00  0.54950252713E+03  0.54950252716E+03  0.50400001928E-02 0. -1.
       -1   -1    0    0    0  501  0.00000000000E+00  0.00000000000E+00 -0.65402797761E+03  0.65402797763E+03  0.50400001928E-02 0.  1.
    10030    2    1    2    0    0  0.00000000000E+00  0.00000000000E+00 -0.10452545047E+03  0.12035305048E+04  0.11989829466E+04 0.  0.
        1    1    3    3  502    0 -0.20951001085E+03  0.20062554551E+03 -0.57889054047E+03  0.64750236450E+03  0.50400001928E-02 0.  1.
       -1    1    3    3    0  502  0.20951001085E+03 -0.20062554551E+03  0.47436509000E+03  0.55602814029E+03  0.50400001928E-02 0. -1.
</event>
<event>
 5   0  0.3832662E-04  0.1191063E+04  0.7818609E-02  0.9120715E-01
        2   -1    0    0  501    0  0.00000000000E+00  0.00000000000E+00  0.72879277306E+03  0.72879277306E+03  0.25500000920E-02 0.  1.
       -2   -1    0    0    0  501  0.00000000000E+00  0.00000000000E+00 -0.48663710283E+03  0.48663710283E+03  0.25500000920E-02 0. -1.
    10030    2    1    2    0    0  0.00000000000E+00  0.00000000000E+00  0.24215567023E+03  0.12154298759E+04  0.11910627249E+04 0.  0.
        4    1    3    3  502    0  0.17850280389E+03 -0.36962358009E+03  0.56138065141E+03  0.69543848803E+03  0.12699999809E+01 0.  1.
       -4    1    3    3    0  502 -0.17850280389E+03  0.36962358009E+03 -0.31922498118E+03  0.51999138787E+03  0.12699999809E+01 0. -1.
</event>
<event>
 5   0  0.3993723E-04  0.1199465E+04  0.7818609E-02  0.9113325E-01
       -2   -1    0    0    0  501  0.00000000000E+00  0.00000000000E+00  0.78168040124E+03  0.78168040124E+03  0.25500000920E-02 0. -1.
        2   -1    0    0  501    0  0.00000000000E+00  0.00000000000E+00 -0.46013576456E+03  0.46013576457E+03  0.25500000920E-02 0.  1.
    10030    2    1    2    0    0  0.00000000000E+00  0.00000000000E+00  0.32154463668E+03  0.12418161658E+04  0.11994650626E+04 0.  0.
        3    1    3    3  502    0 -0.50027500139E+03  0.33008996880E+03  0.18260319674E+03  0.62656077294E+03  0.10100000352E+00 0.  1.
       -3    1    3    3    0  502  0.50027500139E+03 -0.33008996880E+03  0.13894143994E+03  0.61525539287E+03  0.10100000352E+00 0. -1.
</event>
<event>
 5   0  0.1541375E-04  0.1196397E+04  0.7818609E-02  0.9116016E-01
       -4   -1    0    0    0  501  0.00000000000E+00  0.00000000000E+00  0.99449401195E+03  0.99449482286E+03  0.12699999809E+01 0. -1.
        4   -1    0    0  501    0  0.00000000000E+00  0.00000000000E+00 -0.35982051445E+03  0.35982275570E+03  0.12699999809E+01 0.  1.
    10030    2    1    2    0    0  0.00000000000E+00  0.00000000000E+00  0.63467349749E+03  0.13543175786E+04  0.11963969472E+04 0.  0.
        5    1    3    3  502    0 -0.14767966024E+03  0.79900202073E+02  0.96725083373E+03  0.98172785928E+03  0.46999998093E+01 0. -1.
       -5    1    3    3    0  502  0.14767966024E+03 -0.79900202073E+02 -0.33257733623E+03  0.37258971928E+03  0.46999998093E+01 0.  1.
</event>
<event>
 5   0  0.2315038E-04  0.1199139E+04  0.7818609E-02  0.9113610E-01
        1   -1    0    0  501    0  0.00000000000E+00  0.00000000000E+00  0.58299576644E+03  0.58299576646E+03  0.50400001928E-02 0.  1.
       -1   -1    0    0    0  501  0.00000000000E+00  0.00000000000E+00 -0.61661476627E+03  0.61661476630E+03  0.50400001928E-02 0. -1.
    10030    2    1    2    0    0  0.00000000000E+00  0.00000000000E+00 -0.33618999836E+02  0.11996105328E+04  0.11991393552E+04 0.  0.
        1    1    3    3  502    0 -0.27045712082E+02 -0.28960623275E+03 -0.54130603721E+03  0.61450424452E+03  0.50400001928E-02 0. -1.
       -1    1    3    3    0  502  0.27045712082E+02  0.28960623275E+03  0.50768703737E+03  0.58510628823E+03  0.50400001928E-02 0.  1.
</event>
<event>
 5   0  0.4024486E-04  0.1201048E+04  0.7818609E-02  0.9111940E-01
        2   -1    0    0  501    0  0.00000000000E+00  0.00000000000E+00  0.15862744795E+04  0.15862744795E+04  0.25500000920E-02 0. -1.
       -2   -1    0    0    0  501  0.00000000000E+00  0.00000000000E+00 -0.22734327238E+03  0.22734327239E+03  0.25500000920E-02 0.  1.
    10030    2    1    2    0    0  0.00000000000E+00  0.00000000000E+00  0.13589312072E+04  0.18136177519E+04  0.12010475945E+04 0.  0.
        1    1    3    3  502    0 -0.31472542951E+03  0.51042769986E+03  0.72816958696E+03  0.94330243303E+03  0.50400001928E-02 0.  1.
       -1    1    3    3    0  502  0.31472542951E+03 -0.51042769986E+03  0.63076162019E+03  0.87031531889E+03  0.50400001928E-02 0. -1.
</event>
<event>
 5   0  0.2244308E-04  0.1200324E+04  0.7818609E-02  0.9112573E-01
       -1   -1    0    0    0  501  0.00000000000E+00  0.00000000000E+00  0.31341230641E+03  0.31341230645E+03  0.50400001928E-02 0.  1.
        1   -1    0    0  501    0  0.00000000000E+00  0.00000000000E+00 -0.11492674188E+04  0.11492674188E+04  0.50400001928E-02 0. -1.
    10030    2    1    2    0    0  0.00000000000E+00  0.00000000000E+00 -0.83585511238E+03  0.14626797252E+04  0.12003242103E+04 0.  0.
        5    1    3    3  502    0 -0.25534599551E+03  0.51548458409E+03 -0.20953229546E+03  0.61225142442E+03  0.46999998093E+01 0. -1.
       -5    1    3    3    0  502  0.25534599551E+03 -0.51548458409E+03 -0.62632281692E+03  0.85042830083E+03  0.46999998093E+01 0.  1.
</event>
<event>
 5   0  0.2304842E-04  0.1197632E+04  0.7818609E-02  0.9114932E-01
       -1   -1    0    0    0  501  0.00000000000E+00  0.00000000000E+00  0.29654221855E+03  0.29654221860E+03  0.50400001928E-02 0. -1.
        1   -1    0    0  501    0  0.00000000000E+00  0.00000000000E+00 -0.12092060427E+04  0.12092060427E+04  0.50400001928E-02 0.  1.
    10030    2    1    2    0    0  0.00000000000E+00  0.00000000000E+00 -0.91266382418E+03  0.15057482613E+04  0.11976320681E+04 0.  0.
        4    1    3    3  502    0 -0.56505064316E+03  0.30765150039E+02 -0.70254626748E+03  0.90210952474E+03  0.12699999809E+01 0.  1.
       -4    1    3    3    0  502  0.56505064316E+03 -0.30765150039E+02 -0.21011755671E+03  0.60363873660E+03  0.12699999809E+01 0. -1.
</event>
<event>
 5   0  0.3993723E-04  0.1199905E+04  0.7818609E-02  0.9112940E-01
       -2   -1    0    0    0  501  0.00000000000E+00  0.00000000000E+00  0.22886643316E+03  0.22886643317E+03  0.25500000920E-02 0. -1.
        2   -1    0    0  501    0  0.00000000000E+00  0.00000000000E+00 -0.15727211721E+04  0.15727211721E+04  0.25500000920E-02 0.  1.
    10030    2    1    2    0    0  0.00000000000E+00  0.00000000000E+00 -0.13438547389E+04  0.18015876053E+04  0.11999051380E+04 0.  0.
        3    1    3    3  502    0  0.21278190652E+03  0.14384302327E+03  0.14214778243E+03  0.29355230767E+03  0.10100000352E+00 0. -1.
       -3    1    3    3    0  502 -0.21278190652E+03 -0.14384302327E+03 -0.14860025214E+04  0.15080352976E+04  0.10100000352E+00 0.  1.
</event>
<event>
 5   0  0.2304842E-04  0.1199884E+04  0.7818609E-02  0.9112958E-01
       -1   -1    0    0    0  501  0.00000000000E+00  0.00000000000E+00  0.29542467336E+03  0.29542467340E+03  0.50400001928E-02 0.  1.
        1   -1    0    0  501    0  0.00000000000E+00  0.00000000000E+00 -0.12183501550E+04  0.12183501550E+04  0.50400001928E-02 0. -1.
    10030    2    1    2    0    0  0.00000000000E+00  0.00000000000E+00 -0.92292548168E+03  0.15137748285E+04  0.11998844888E+04 0.  0.
        4    1    3    3  502    0  0.35251602204E+03 -0.39022847451E+03 -0.82576454007E+03  0.97899667857E+03  0.12699999809E+01 0. -1.
       -4    1    3    3    0  502 -0.35251602204E+03  0.39022847451E+03 -0.97160941603E+02  0.53477814988E+03  0.12699999809E+01 0.  1.
</event>
<event>
 5   0  0.2315038E-04  0.1198773E+04  0.7818609E-02  0.9113931E-01
        1   -1    0    0  501    0  0.00000000000E+00  0.00000000000E+00  0.13721491700E+04  0.13721491700E+04  0.50400001928E-02 0.  1.
       -1   -1    0    0    0  501  0.00000000000E+00  0.00000000000E+00 -0.26182588023E+03  0.26182588028E+03  0.50400001928E-02 0. -1.
    10030    2    1    2    0    0  0.00000000000E+00  0.00000000000E+00  0.11103232898E+04  0.16339750503E+04  0.11987729798E+04 0.  0.
        1    1    3    3  502    0  0.19804566800E+03 -0.51735830257E+03  0.86712346018E+03  0.10289726892E+04  0.50400001928E-02 0.  1.
       -1    1    3    3    0  502 -0.19804566800E+03  0.51735830257E+03  0.24319982962E+03  0.60500236115E+03  0.50400001928E-02 0. -1.
</event>
<event>
 5   0  0.2204090E-04  0.1201037E+04  0.7818609E-02  0.9111949E-01
        1   -1    0    0  501    0  0.00000000000E+00  0.00000000000E+00  0.48639125170E+03  0.48639125173E+03  0.50400001928E-02 0.  1.
       -1   -1    0    0    0  501  0.00000000000E+00  0.00000000000E+00 -0.74142491815E+03  0.74142491817E+03  0.50400001928E-02 0. -1.
    10030    2    1    2    0    0  0.00000000000E+00  0.00000000000E+00 -0.25503366644E+03  0.12278161699E+04  0.12010372084E+04 0.  0.
        2    1    3    3  502    0  0.47706299379E+03 -0.25360406450E+03  0.14047010991E+03  0.55824365053E+03  0.25500000920E-02 0.  1.
       -2    1    3    3    0  502 -0.47706299379E+03  0.25360406450E+03 -0.39550377636E+03  0.66957251937E+03  0.25500000920E-02 0. -1.
</event>
<event>
 5   0  0.4024486E-04  0.1197318E+04  0.7818609E-02  0.9115207E-01
       -2   -1    0    0    0  501  0.00000000000E+00  0.00000000000E+00  0.14744953233E+03  0.14744953235E+03  0.25500000920E-02 0.  1.
        2   -1    0    0  501    0  0.00000000000E+00  0.00000000000E+00 -0.24306125069E+04  0.24306125069E+04  0.25500000920E-02 0. -1.
    10030    2    1    2    0    0  0.00000000000E+00  0.00000000000E+00 -0.22831629745E+04  0.25780620392E+04  0.11973181322E+04 0.  0.
        1    1    3    3  502    0  0.31912389000E+03 -0.47319253499E+03 -0.75256456533E+03  0.94451292069E+03  0.50400001928E-02 0.  1.
       -1    1    3    3    0  502 -0.31912389000E+03  0.47319253499E+03 -0.15305984092E+04  0.16335491185E+04  0.50400001928E-02 0. -1.
</event>
<event>
 5   0  0.2244308E-04  0.1200313E+04  0.7818609E-02  0.9112583E-01
        1   -1    0    0  501    0  0.00000000000E+00  0.00000000000E+00  0.16056697820E+04  0.16056697820E+04  0.50400001928E-02 0.  1.
       -1   -1    0    0    0  501  0.00000000000E+00  0.00000000000E+00 -0.22432244051E+03  0.22432244057E+03  0.50400001928E-02 0. -1.
    10030    2    1    2    0    0  0.00000000000E+00  0.00000000000E+00  0.13813473415E+04  0.18299922226E+04  0.12003128996E+04 0.  0.
        5    1    3    3  502    0  0.49709661773E+02  0.14531847449E+03  0.15751721578E+04  0.15826490218E+04  0.46999998093E+01 0.  1.
       -5    1    3    3    0  502 -0.49709661773E+02 -0.14531847449E+03 -0.19382481637E+03  0.24734320072E+03  0.46999998093E+01 0. -1.
</event>
<event>
 5   0  0.3993723E-04  0.1198636E+04  0.7818609E-02  0.9114051E-01
       -2   -1    0    0    0  501  0.00000000000E+00  0.00000000000E+00  0.25471675066E+03  0.25471675067E+03  0.25500000920E-02 0. -1.
        2   -1    0    0  501    0  0.00000000000E+00  0.00000000000E+00 -0.14101242461E+04  0.14101242461E+04  0.25500000920E-02 0.  1.
    10030    2    1    2    0    0  0.00000000000E+00  0.00000000000E+00 -0.11554074955E+04  0.16648409968E+04  0.11986363352E+04 0.  0.
        3    1    3    3  502    0 -0.13198407389E+03  0.57578602564E+03 -0.43720095446E+03  0.73491089791E+03  0.10100000352E+00 0. -1.
       -3    1    3    3    0  502  0.13198407389E+03 -0.57578602564E+03 -0.71820654101E+03  0.92993009890E+03  0.10100000352E+00 0.  1.
</event>
<event>
 5   0  0.3883890E-04  0.1199467E+04  0.7818609E-02  0.9113323E-01
        2   -1    0    0  501    0  0.00000000000E+00  0.00000000000E+00  0.58952922953E+03  0.58952922953E+03  0.25500000920E-02 0. -1.
       -2   -1    0    0    0  501  0.00000000000E+00  0.00000000000E+00 -0.61011425925E+03  0.61011425926E+03  0.25500000920E-02 0.  1.
    10030    2    1    2    0    0  0.00000000000E+00  0.00000000000E+00 -0.20585029725E+02  0.11996434888E+04  0.11994668635E+04 0.  0.
        2    1    3    3  502    0 -0.34516881522E+03 -0.24266789805E+03  0.41597555892E+03  0.59250728718E+03  0.25500000920E-02 0. -1.
       -2    1    3    3    0  502  0.34516881522E+03  0.24266789805E+03 -0.43656058864E+03  0.60713620161E+03  0.25500000920E-02 0.  1.
</event>
<event>
 5   0  0.3832662E-04  0.1190847E+04  0.7818609E-02  0.9120906E-01
       -2   -1    0    0    0  501  0.00000000000E+00  0.00000000000E+00  0.67215449928E+03  0.67215449929E+03  0.25500000920E-02 0.  1.
        2   -1    0    0  501    0  0.00000000000E+00  0.00000000000E+00 -0.52745223017E+03  0.52745223018E+03  0.25500000920E-02 0. -1.
    10030    2    1    2    0    0  0.00000000000E+00  0.00000000000E+00  0.14470226911E+03  0.11996067295E+04  0.11908474120E+04 0.  0.
        4    1    3    3  502    0  0.25034376803E+02  0.44614012060E+03 -0.32406605034E+03  0.55198563850E+03  0.12699999809E+01 0. -1.
       -4    1    3    3    0  502 -0.25034376803E+02 -0.44614012060E+03  0.46876831945E+03  0.64762109096E+03  0.12699999809E+01 0.  1.
</event>
<event>
 5   0  0.3993723E-04  0.1229676E+04  0.7818609E-02  0.9087270E-01
        2   -1    0    0  501    0  0.00000000000E+00  0.00000000000E+00  0.68786393279E+03  0.68786393279E+03  0.25500000920E-02 0. -1.
       -2   -1    0    0    0  501  0.00000000000E+00  0.00000000000E+00 -0.54956480466E+03  0.54956480466E+03  0.25500000920E-02 0.  1.
    10030    2    1    2    0    0  0.00000000000E+00  0.00000000000E+00  0.13829912813E+03  0.12374287375E+04  0.12296760677E+04 0.  0.
        3    1    3    3  502    0 -0.29016110674E+03 -0.15448085634E+03 -0.45371067521E+03  0.56027777918E+03  0.10100000352E+00 0.  1.
       -3    1    3    3    0  502  0.29016110674E+03  0.15448085634E+03  0.59200980334E+03  0.67715095828E+03  0.10100000352E+00 0. -1.
</event>
<event>
 5   0  0.2315038E-04  0.1200007E+04  0.7818609E-02  0.9112851E-01
       -1   -1    0    0    0  501  0.00000000000E+00  0.00000000000E+00  0.26890157866E+03  0.26890157871E+03  0.50400001928E-02 0. -1.
        1   -1    0    0  501    0  0.00000000000E+00  0.00000000000E+00 -0.13387948584E+04  0.13387948584E+04  0.50400001928E-02 0.  1.
    10030    2    1    2    0    0  0.00000000000E+00  0.00000000000E+00 -0.10698932797E+04  0.16076964371E+04  0.12000067516E+04 0.  0.
        1    1    3    3  502    0  0.23520272912E+03 -0.51166019049E+03 -0.81239752411E+03  0.98848682921E+03  0.50400001928E-02 0. -1.
       -1    1    3    3    0  502 -0.23520272912E+03  0.51166019049E+03 -0.25749575561E+03  0.61920960788E+03  0.50400001928E-02 0.  1.
</event>
<event>
 5   0  0.2244308E-04  0.1199946E+04  0.7818609E-02  0.9112904E-01
       -1   -1    0    0    0  501  0.00000000000E+00  0.00000000000E+00  0.19868729850E+03  0.19868729856E+03  0.50400001928E-02 0.  1.
        1   -1    0    0  501    0  0.00000000000E+00  0.00000000000E+00 -0.18117281558E+04  0.18117281558E+04  0.50400001928E-02 0. -1.
    10030    2    1    2    0    0  0.00000000000E+00  0.00000000000E+00 -0.16130408573E+04  0.20104154543E+04  0.11999456204E+04 0.  0.
        5    1    3    3  502    0 -0.85550517762E+02 -0.43635071620E+03 -0.14813318068E+04  0.15466372718E+04  0.46999998093E+01 0. -1.
       -5    1    3    3    0  502  0.85550517762E+02  0.43635071620E+03 -0.13170905043E+03  0.46377818252E+03  0.46999998093E+01 0.  1.
</event>
<event>
 5   0  0.1541375E-04  0.1200721E+04  0.7818609E-02  0.9112226E-01
       -3   -1    0    0    0  501  0.00000000000E+00  0.00000000000E+00  0.85215218808E+03  0.85215219406E+03  0.10100000352E+00 0. -1.
        3   -1    0    0  501    0  0.00000000000E+00  0.00000000000E+00 -0.42296736950E+03  0.42296738156E+03  0.10100000352E+00 0.  1.
    10030    2    1    2    0    0  0.00000000000E+00  0.00000000000E+00  0.42918481858E+03  0.12751195756E+04  0.12007207517E+04 0.  0.
        2    1    3    3  502    0 -0.11984135471E+03  0.10689892272E+03 -0.39973505563E+03  0.43078700617E+03  0.25500000920E-02 0.  1.
       -2    1    3    3    0  502  0.11984135471E+03 -0.10689892272E+03  0.82891987421E+03  0.84433256945E+03  0.25500000920E-02 0. -1.
</event>
<event>
 5   0  0.3832662E-04  0.1200522E+04  0.7818609E-02  0.9112400E-01
        2   -1    0    0  501    0  0.00000000000E+00  0.00000000000E+00  0.10024307144E+04  0.10024307144E+04  0.25500000920E-02 0. -1.
       -2   -1    0    0    0  501  0.00000000000E+00  0.00000000000E+00 -0.35943938556E+03  0.35943938557E+03  0.25500000920E-02 0.  1.
    10030    2    1    2    0    0  0.00000000000E+00  0.00000000000E+00  0.64299132888E+03  0.13618701000E+04  0.12005216867E+04 0.  0.
        4    1    3    3  502    0 -0.55275567226E+03 -0.52544814488E+02  0.58020738324E+03  0.80308281716E+03  0.12699999809E+01 0. -1.
       -4    1    3    3    0  502  0.55275567226E+03  0.52544814488E+02  0.62783945640E+02  0.55878728285E+03  0.12699999809E+01 0.  1.
</event>
<event>
 5   0  0.3883890E-04  0.1199515E+04  0.7818609E-02  0.9113281E-01
        2   -1    0    0  501    0  0.00000000000E+00  0.00000000000E+00  0.56315947099E+03  0.56315947099E+03  0.25500000920E-02 0. -1.
       -2   -1    0    0    0  501  0.00000000000E+00  0.00000000000E+00 -0.63873427355E+03  0.63873427356E+03  0.25500000920E-02 0.  1.
    10030    2    1    2    0    0  0.00000000000E+00  0.00000000000E+00 -0.75574802566E+02  0.12018937446E+04  0.11995153281E+04 0.  0.
        2    1    3    3  502    0 -0.21250437736E+03 -0.41439851097E+03 -0.41645872563E+03  0.62475763817E+03  0.25500000920E-02 0.  1.
       -2    1    3    3    0  502  0.21250437736E+03  0.41439851097E+03  0.34088392306E+03  0.57713610639E+03  0.25500000920E-02 0. -1.
</event>
<event>
 5   0  0.2204090E-04  0.1200304E+04  0.7818609E-02  0.9112590E-01
        1   -1    0    0  501    0  0.00000000000E+00  0.00000000000E+00  0.21998774692E+03  0.21998774698E+03  0.50400001928E-02 0.  1.
       -1   -1    0    0    0  501  0.00000000000E+00  0.00000000000E+00 -0.16372852383E+04  0.16372852383E+04  0.50400001928E-02 0. -1.
    10030    2    1    2    0    0  0.00000000000E+00  0.00000000000E+00 -0.14172974914E+04  0.18572729853E+04  0.12003044459E+04 0.  0.
        2    1    3    3  502    0 -0.35737725023E+03 -0.21821072518E+03 -0.13739096834E+04  0.14363015831E+04  0.25500000920E-02 0. -1.
       -2    1    3    3    0  502  0.35737725023E+03  0.21821072518E+03 -0.43387808007E+02  0.42097140219E+03  0.25500000920E-02 0.  1.
</event>
<event>
 5   0  0.1541375E-04  0.1200674E+04  0.7818609E-02  0.9112267E-01
        4   -1    0    0  501    0  0.00000000000E+00  0.00000000000E+00  0.70703369000E+03  0.70703483061E+03  0.12699999809E+01 0.  1.
       -4   -1    0    0    0  501  0.00000000000E+00  0.00000000000E+00 -0.50973927568E+03  0.50974085776E+03  0.12699999809E+01 0. -1.
    10030    2    1    2    0    0  0.00000000000E+00  0.00000000000E+00  0.19729441433E+03  0.12167756884E+04  0.12006739732E+04 0.  0.
        2    1    3    3  502    0  0.46398145468E+03  0.44755353242E+02  0.48203619568E+03  0.67055255266E+03  0.25500000920E-02 0.  1.
       -2    1    3    3    0  502 -0.46398145468E+03 -0.44755353242E+02 -0.28474178136E+03  0.54622313571E+03  0.25500000920E-02 0. -1.
</event>
<event>
 5   0  0.4024486E-04  0.1201793E+04  0.7818609E-02  0.9111288E-01
       -2   -1    0    0    0  501  0.00000000000E+00  0.00000000000E+00  0.16113901729E+03  0.16113901731E+03  0.25500000920E-02 0. -1.
        2   -1    0    0  501    0  0.00000000000E+00  0.00000000000E+00 -0.22407777137E+04  0.22407777138E+04  0.25500000920E-02 0.  1.
    10030    2    1    2    0    0  0.00000000000E+00  0.00000000000E+00 -0.20796386965E+04  0.24019167311E+04  0.12017931915E+04 0.  0.
        1    1    3    3  502    0 -0.19085491739E+03  0.99033382754E+02 -0.21612581527E+04  0.21719277182E+04  0.50400001928E-02 0.  1.
       -1    1    3    3    0  502  0.19085491739E+03 -0.99033382754E+02  0.81619456224E+02  0.22998901289E+03  0.50400001928E-02 0. -1.
</event>
<event>
 5   0  0.2304842E-04  0.1204041E+04  0.7818609E-02  0.9109327E-01
        1   -1    0    0  501    0  0.00000000000E+00  0.00000000000E+00  0.25052354372E+03  0.25052354377E+03  0.50400001928E-02 0.  1.
       -1   -1    0    0    0  501  0.00000000000E+00  0.00000000000E+00 -0.14466844085E+04  0.14466844085E+04  0.50400001928E-02 0. -1.
    10030    2    1    2    0    0  0.00000000000E+00  0.00000000000E+00 -0.11961608648E+04  0.16972079523E+04  0.12040407048E+04 0.  0.
        4    1    3    3  502    0  0.21389794392E+03  0.54196829246E+03 -0.38456106694E+03  0.69811946510E+03  0.12699999809E+01 0. -1.
       -4    1    3    3    0  502 -0.21389794392E+03 -0.54196829246E+03 -0.81159979783E+03  0.99908848716E+03  0.12699999809E+01 0.  1.
</event>
<event>
 5   0  0.2244308E-04  0.1199838E+04  0.7818609E-02  0.9112998E-01
       -1   -1    0    0    0  501  0.00000000000E+00  0.00000000000E+00  0.29559430541E+03  0.29559430546E+03  0.50400001928E-02 0.  1.
        1   -1    0    0  501    0  0.00000000000E+00  0.00000000000E+00 -0.12175575883E+04  0.12175575883E+04  0.50400001928E-02 0. -1.
    10030    2    1    2    0    0  0.00000000000E+00  0.00000000000E+00 -0.92196328286E+03  0.15131518937E+04  0.11998384719E+04 0.  0.
        5    1    3    3  502    0 -0.39797682681E+02 -0.59126254053E+03 -0.34331241595E+03  0.68488010069E+03  0.46999998093E+01 0.  1.
       -5    1    3    3    0  502  0.39797682681E+02  0.59126254053E+03 -0.57865086691E+03  0.82827179305E+03  0.46999998093E+01 0. -1.
</event>
<event>
 5   0  0.2315038E-04  0.1200601E+04  0.7818609E-02  0.9112331E-01
       -1   -1    0    0    0  501  0.00000000000E+00  0.00000000000E+00  0.27976549499E+03  0.27976549504E+03  0.50400001928E-02 0.  1.
        1   -1    0    0  501    0  0.00000000000E+00  0.00000000000E+00 -0.12880812795E+04  0.12880812795E+04  0.50400001928E-02 0. -1.
    10030    2    1    2    0    0  0.00000000000E+00  0.00000000000E+00 -0.10083157845E+04  0.15678467746E+04  0.12006010108E+04 0.  0.
        1    1    3    3  502    0  0.11118756149E+03  0.58680715979E+03 -0.58311135597E+03  0.83470004798E+03  0.50400001928E-02 0. -1.
       -1    1    3    3    0  502 -0.11118756149E+03 -0.58680715979E+03 -0.42520442857E+03  0.73314672660E+03  0.50400001928E-02 0.  1.
</event>
<event>
 5   0  0.2340731E-04  0.1199088E+04  0.7818609E-02  0.9113655E-01
        1   -1    0    0  501    0  0.00000000000E+00  0.00000000000E+00  0.64513270964E+03  0.64513270966E+03  0.50400001928E-02 0. -1.
       -1   -1    0    0    0  501  0.00000000000E+00  0.00000000000E+00 -0.55717712503E+03  0.55717712505E+03  0.50400001928E-02 0.  1.
    10030    2    1    2    0    0  0.00000000000E+00  0.00000000000E+00  0.87955584609E+02  0.12023098347E+04  0.11990883011E+04 0.  0.
        3    1    3    3  502    0  0.53597055141E+03  0.25738356605E+03 -0.33316577899E+02  0.59550040857E+03  0.10100000352E+00 0. -1.
       -3    1    3    3    0  502 -0.53597055141E+03 -0.25738356605E+03  0.12127216251E+03  0.60680942614E+03  0.10100000352E+00 0.  1.
</event>
<event>
 5   0  0.4024486E-04  0.1204462E+04  0.7818609E-02  0.9108960E-01
        2   -1    0    0  501    0  0.00000000000E+00  0.00000000000E+00  0.94504419147E+03  0.94504419148E+03  0.25500000920E-02 0.  1.
       -2   -1    0    0    0  501  0.00000000000E+00  0.00000000000E+00 -0.38377271881E+03  0.38377271882E+03  0.25500000920E-02 0. -1.
    10030    2    1    2    0    0  0.00000000000E+00  0.00000000000E+00  0.56127147266E+03  0.13288169103E+04  0.12044620023E+04 0.  0.
        1    1    3    3  502    0  0.31774041413E+03 -0.13384426072E+03 -0.26411376272E+03  0.43431478973E+03  0.50400001928E-02 0. -1.
       -1    1    3    3    0  502 -0.31774041413E+03  0.13384426072E+03  0.82538523538E+03  0.89450212057E+03  0.50400001928E-02 0.  1.
</event>
<event>
 5   0  0.4024486E-04  0.1218817E+04  0.7818609E-02  0.9096543E-01
       -2   -1    0    0    0  501  0.00000000000E+00  0.00000000000E+00  0.53814963689E+03  0.53814963690E+03  0.25500000920E-02 0.  1.
        2   -1    0    0  501    0  0.00000000000E+00  0.00000000000E+00 -0.69010352048E+03  0.69010352049E+03  0.25500000920E-02 0. -1.
    10030    2    1    2    0    0  0.00000000000E+00  0.00000000000E+00 -0.15195388359E+03  0.12282531574E+04  0.12188173923E+04 0.  0.
        1    1    3    3  502    0 -0.41858806385E+03 -0.34805141577E+03  0.20004718794E+03  0.57997813118E+03  0.50400001928E-02 0. -1.
       -1    1    3    3    0  502  0.41858806385E+03  0.34805141577E+03 -0.35200107153E+03  0.64827502621E+03  0.50400001928E-02 0.  1.
</event>
<event>
 5   0  0.2244308E-04  0.1202263E+04  0.7818609E-02  0.9110878E-01
        1   -1    0    0  501    0  0.00000000000E+00  0.00000000000E+00  0.88047186781E+03  0.88047186783E+03  0.50400001928E-02 0.  1.
       -1   -1    0    0    0  501  0.00000000000E+00  0.00000000000E+00 -0.41041496931E+03  0.41041496934E+03  0.50400001928E-02 0. -1.
    10030    2    1    2    0    0  0.00000000000E+00  0.00000000000E+00  0.47005689850E+03  0.12908868372E+04  0.12022625913E+04 0.  0.
        5    1    3    3  502    0 -0.40812660380E+03 -0.30987548150E+03 -0.10237531754E+03  0.52258294500E+03  0.46999998093E+01 0. -1.
       -5    1    3    3    0  502  0.40812660380E+03  0.30987548150E+03  0.57243221604E+03  0.76830389217E+03  0.46999998093E+01 0.  1.
</event>
<event>
 5   0  0.3832662E-04  0.1201136E+04  0.7818609E-02  0.9111863E-01
        2   -1    0    0  501    0  0.00000000000E+00  0.00000000000E+00  0.71788971913E+03  0.71788971913E+03  0.25500000920E-02 0. -1.
       -2   -1    0    0    0  501  0.00000000000E+00  0.00000000000E+00 -0.50241928936E+03  0.50241928937E+03  0.25500000920E-02 0.  1.
    10030    2    1    2    0    0  0.00000000000E+00  0.00000000000E+00  0.21547042976E+03  0.12203090085E+04  0.12011355336E+04 0.  0.
        4    1    3    3  502    0 -0.48385675377E+03  0.31127230159E+03  0.28274118501E+03  0.64105537553E+03  0.12699999809E+01 0. -1.
       -4    1    3    3    0  502  0.48385675377E+03 -0.31127230159E+03 -0.67270755245E+02  0.57925363297E+03  0.12699999809E+01 0.  1.
</event>
<event>
 5   0  0.2204090E-04  0.1199841E+04  0.7818609E-02  0.9112995E-01
       -1   -1    0    0    0  501  0.00000000000E+00  0.00000000000E+00  0.10700195659E+04  0.10700195659E+04  0.50400001928E-02 0. -1.
        1   -1    0    0  501    0  0.00000000000E+00  0.00000000000E+00 -0.33635349302E+03  0.33635349306E+03  0.50400001928E-02 0.  1.
    10030    2    1    2    0    0  0.00000000000E+00  0.00000000000E+00  0.73366607288E+03  0.14063730590E+04  0.11998413539E+04 0.  0.
        2    1    3    3  502    0  0.22107668056E+03 -0.75565820701E+02  0.10145035784E+04  0.10410584049E+04  0.25500000920E-02 0. -1.
       -2    1    3    3    0  502 -0.22107668056E+03  0.75565820701E+02 -0.28083750550E+03  0.36531465403E+03  0.25500000920E-02 0.  1.
</event>
<event>
 5   0  0.4122956E-04  0.1234196E+04  0.7818609E-02  0.9083441E-01
       -2   -1    0    0    0  501  0.00000000000E+00  0.00000000000E+00  0.21749119581E+03  0.21749119582E+03  0.25500000920E-02 0. -1.
        2   -1    0    0  501    0  0.00000000000E+00  0.00000000000E+00 -0.17509206652E+04  0.17509206652E+04  0.25500000920E-02 0.  1.
    10030    2    1    2    0    0  0.00000000000E+00  0.00000000000E+00 -0.15334294694E+04  0.19684118611E+04  0.12341958180E+04 0.  0.
        5    1    3    3  502    0  0.32994417295E+03  0.52123815723E+02 -0.15942292748E+04  0.16288551563E+04  0.46999998093E+01 0.  1.
       -5    1    3    3    0  502 -0.32994417295E+03 -0.52123815723E+02  0.60799805399E+02  0.33955670478E+03  0.46999998093E+01 0. -1.
</event>
<event>
 5   0  0.4122956E-04  0.1197880E+04  0.7818609E-02  0.9114714E-01
       -2   -1    0    0    0  501  0.00000000000E+00  0.00000000000E+00  0.36510769936E+03  0.36510769937E+03  0.25500000920E-02 0. -1.
        2   -1    0    0  501    0  0.00000000000E+00  0.00000000000E+00 -0.98253017564E+03  0.98253017564E+03  0.25500000920E-02 0.  1.
    10030    2    1    2    0    0  0.00000000000E+00  0.00000000000E+00 -0.61742247627E+03  0.13476378750E+04  0.11978803479E+04 0.  0.
        5    1    3    3  502    0  0.17051280493E+03 -0.57286871765E+03 -0.26581190053E+03  0.65416453646E+03  0.46999998093E+01 0. -1.
       -5    1    3    3    0  502 -0.17051280493E+03  0.57286871765E+03 -0.35161057575E+03  0.69347333855E+03  0.46999998093E+01 0.  1.
</event>
<event>
 5   0  0.3993723E-04  0.1197136E+04  0.7818609E-02  0.9115367E-01
        2   -1    0    0  501    0  0.00000000000E+00  0.00000000000E+00  0.44071739489E+03  0.44071739489E+03  0.25500000920E-02 0. -1.
       -2   -1    0    0    0  501  0.00000000000E+00  0.00000000000E+00 -0.81295504800E+03  0.81295504800E+03  0.25500000920E-02 0.  1.
    10030    2    1    2    0    0  0.00000000000E+00  0.00000000000E+00 -0.37223765311E+03  0.12536724429E+04  0.11971356330E+04 0.  0.
        3    1    3    3  502    0 -0.69189049211E+02  0.45552063484E+03  0.21402217586E+03  0.50802723869E+03  0.10100000352E+00 0. -1.
       -3    1    3    3    0  502  0.69189049211E+02 -0.45552063484E+03 -0.58625982897E+03  0.74564520421E+03  0.10100000352E+00 0.  1.
</event>
<event>
 5   0  0.4122956E-04  0.1210186E+04  0.7818609E-02  0.9103987E-01
        2   -1    0    0  501    0  0.00000000000E+00  0.00000000000E+00  0.61837569391E+03  0.61837569392E+03  0.25500000920E-02 0.  1.
       -2   -1    0    0    0  501  0.00000000000E+00  0.00000000000E+00 -0.59209536345E+03  0.59209536346E+03  0.25500000920E-02 0. -1.
    10030    2    1    2    0    0  0.00000000000E+00  0.00000000000E+00  0.26280330462E+02  0.12104710574E+04  0.12101857399E+04 0.  0.
        5    1    3    3  502    0 -0.56018593284E+03 -0.39773531275E+02 -0.21213521992E+03  0.60034461326E+03  0.46999998093E+01 0. -1.
       -5    1    3    3    0  502  0.56018593284E+03  0.39773531275E+02  0.23841555038E+03  0.61012644411E+03  0.46999998093E+01 0.  1.
</event>
<event>
 5   0  0.3883890E-04  0.1198270E+04  0.7818609E-02  0.9114372E-01
        2   -1    0    0  501    0  0.00000000000E+00  0.00000000000E+00  0.48429126685E+03  0.48429126686E+03  0.25500000920E-02 0. -1.
       -2   -1    0    0    0  501  0.00000000000E+00  0.00000000000E+00 -0.74121243255E+03  0.74121243255E+03  0.25500000920E-02 0.  1.
    10030    2    1    2    0    0  0.00000000000E+00  0.00000000000E+00 -0.25692116570E+03  0.12255036994E+04  0.11982699328E+04 0.  0.
        2    1    3    3  502    0 -0.25486028816E+03  0.34318512412E+03  0.30088151430E+03  0.52274227068E+03  0.25500000920E-02 0. -1.
       -2    1    3    3    0  502  0.25486028816E+03 -0.34318512412E+03 -0.55780268000E+03  0.70276142873E+03  0.25500000920E-02 0.  1.
</event>
<event>
 5   0  0.4122956E-04  0.1201460E+04  0.7818609E-02  0.9111579E-01
        2   -1    0    0  501    0  0.00000000000E+00  0.00000000000E+00  0.74871030075E+03  0.74871030075E+03  0.25500000920E-02 0.  1.
       -2   -1    0    0    0  501  0.00000000000E+00  0.00000000000E+00 -0.48199776318E+03  0.48199776319E+03  0.25500000920E-02 0. -1.
    10030    2    1    2    0    0  0.00000000000E+00  0.00000000000E+00  0.26671253756E+03  0.12307080639E+04  0.12014602619E+04 0.  0.
        5    1    3    3  502    0 -0.10805736232E+03  0.22858673023E+03  0.69153075100E+03  0.73631865138E+03  0.46999998093E+01 0.  1.
       -5    1    3    3    0  502  0.10805736232E+03 -0.22858673023E+03 -0.42481821344E+03  0.49438941256E+03  0.46999998093E+01 0. -1.
</event>
<event>
 5   0  0.3883890E-04  0.1209486E+04  0.7818609E-02  0.9104594E-01
        2   -1    0    0  501    0  0.00000000000E+00  0.00000000000E+00  0.21090153589E+04  0.21090153589E+04  0.25500000920E-02 0. -1.
       -2   -1    0    0    0  501  0.00000000000E+00  0.00000000000E+00 -0.17340500361E+03  0.17340500362E+03  0.25500000920E-02 0.  1.
    10030    2    1    2    0    0  0.00000000000E+00  0.00000000000E+00  0.19356103553E+04  0.22824203625E+04  0.12094855368E+04 0.  0.
        2    1    3    3  502    0 -0.36800342977E+03  0.46370926682E+03  0.12009289469E+04  0.13389111785E+04  0.25500000920E-02 0.  1.
       -2    1    3    3    0  502  0.36800342977E+03 -0.46370926682E+03  0.73468140839E+03  0.94350918400E+03  0.25500000920E-02 0. -1.
</event>
<event>
 5   0  0.3832662E-04  0.1197468E+04  0.7818609E-02  0.9115076E-01
       -2   -1    0    0    0  501  0.00000000000E+00  0.00000000000E+00  0.20659978600E+03  0.20659978602E+03  0.25500000920E-02 0. -1.
        2   -1    0    0  501    0  0.00000000000E+00  0.00000000000E+00 -0.17351536677E+04  0.17351536677E+04  0.25500000920E-02 0.  1.
    10030    2    1    2    0    0  0.00000000000E+00  0.00000000000E+00 -0.15285538817E+04  0.19417534538E+04  0.11974679561E+04 0.  0.
        4    1    3    3  502    0 -0.47423857004E+03  0.65385355309E+02 -0.13473661254E+04  0.14298862034E+04  0.12699999809E+01 0.  1.
       -4    1    3    3    0  502  0.47423857004E+03 -0.65385355309E+02 -0.18118775632E+03  0.51186725031E+03  0.12699999809E+01 0. -1.
</event>
<event>
 5   0  0.4024486E-04  0.1202659E+04  0.7818609E-02  0.9110532E-01
        2   -1    0    0  501    0  0.00000000000E+00  0.00000000000E+00  0.10059658807E+04  0.10059658807E+04  0.25500000920E-02 0.  1.
       -2   -1    0    0    0  501  0.00000000000E+00  0.00000000000E+00 -0.35945268417E+03  0.35945268418E+03  0.25500000920E-02 0. -1.
    10030    2    1    2    0    0  0.00000000000E+00  0.00000000000E+00  0.64651319657E+03  0.13654185649E+04  0.12026589475E+04 0.  0.
        1    1    3    3  502    0  0.57054297034E+03  0.50198559535E+02  0.11527682987E+03  0.58423276518E+03  0.50400001928E-02 0. -1.
       -1    1    3    3    0  502 -0.57054297034E+03 -0.50198559535E+02  0.53123636670E+03  0.78118579974E+03  0.50400001928E-02 0.  1.
</event>
<event>
 5   0  0.2315038E-04  0.1193423E+04  0.7818609E-02  0.9118633E-01
        1   -1    0    0  501    0  0.00000000000E+00  0.00000000000E+00  0.52987828017E+03  0.52987828020E+03  0.50400001928E-02 0.  1.
       -1   -1    0    0    0  501  0.00000000000E+00  0.00000000000E+00 -0.67197422613E+03  0.67197422615E+03  0.50400001928E-02 0. -1.
    10030    2    1    2    0    0  0.00000000000E+00  0.00000000000E+00 -0.14209594596E+03  0.12018525063E+04  0.11934228878E+04 0.  0.
        1    1    3    3  502    0 -0.18017299766E+03 -0.16154743312E+03 -0.62034051304E+03  0.66586953255E+03  0.50400001928E-02 0. -1.
       -1    1    3    3    0  502  0.18017299766E+03  0.16154743312E+03  0.47824456708E+03  0.53598297380E+03  0.50400001928E-02 0.  1.
</event>
<event>
 5   0  0.2244308E-04  0.1230746E+04  0.7818609E-02  0.9086362E-01
        1   -1    0    0  501    0  0.00000000000E+00  0.00000000000E+00  0.35092161504E+03  0.35092161508E+03  0.50400001928E-02 0. -1.
       -1   -1    0    0    0  501  0.00000000000E+00  0.00000000000E+00 -0.10791121896E+04  0.10791121896E+04  0.50400001928E-02 0.  1.
    10030    2    1    2    0    0  0.00000000000E+00  0.00000000000E+00 -0.72819057459E+03  0.14300338047E+04  0.12307457779E+04 0.  0.
        5    1    3    3  502    0 -0.39945509370E+03  0.42400030119E+03 -0.59449961983E+03  0.83234158570E+03  0.46999998093E+01 0.  1.
       -5    1    3    3    0  502  0.39945509370E+03 -0.42400030119E+03 -0.13369095476E+03  0.59769221902E+03  0.46999998093E+01 0. -1.
</event>
<event>
 5   0  0.2204090E-04  0.1199587E+04  0.7818609E-02  0.9113218E-01
        1   -1    0    0  501    0  0.00000000000E+00  0.00000000000E+00  0.91717376068E+03  0.91717376069E+03  0.50400001928E-02 0. -1.
       -1   -1    0    0    0  501  0.00000000000E+00  0.00000000000E+00 -0.39223972615E+03  0.39223972618E+03  0.50400001928E-02 0.  1.
    10030    2    1    2    0    0  0.00000000000E+00  0.00000000000E+00  0.52493403453E+03  0.13094134869E+04  0.11995865700E+04 0.  0.
        2    1    3    3  502    0  0.38964806281E+03 -0.11640384748E+03 -0.21877895952E+03  0.46177884501E+03  0.25500000920E-02 0.  1.
       -2    1    3    3    0  502 -0.38964806281E+03  0.11640384748E+03  0.74371299405E+03  0.84763464186E+03  0.25500000920E-02 0. -1.
</event>
<event>
 5   0  0.2244308E-04  0.1199499E+04  0.7818609E-02  0.9113295E-01
       -1   -1    0    0    0  501  0.00000000000E+00  0.00000000000E+00  0.66906329261E+03  0.66906329263E+03  0.50400001928E-02 0.  1.
        1   -1    0    0  501    0  0.00000000000E+00  0.00000000000E+00 -0.53761627681E+03  0.53761627683E+03  0.50400001928E-02 0. -1.
    10030    2    1    2    0    0  0.00000000000E+00  0.00000000000E+00  0.13144701580E+03  0.12066795695E+04  0.11994987559E+04 0.  0.
        5    1    3    3  502    0 -0.68799378577E+01  0.51527574877E+03  0.37435124350E+03  0.63695947621E+03  0.46999998093E+01 0.  1.
       -5    1    3    3    0  502  0.68799378577E+01 -0.51527574877E+03 -0.24290422770E+03  0.56972009325E+03  0.46999998093E+01 0. -1.
</event>
<event>
 5   0  0.4024486E-04  0.1197207E+04  0.7818609E-02  0.9115305E-01
       -2   -1    0    0    0  501  0.00000000000E+00  0.00000000000E+00  0.34127258258E+03  0.34127258259E+03  0.25500000920E-02 0.  1.
        2   -1    0    0  501    0  0.00000000000E+00  0.00000000000E+00 -0.10499702935E+04  0.10499702935E+04  0.25500000920E-02 0. -1.
    10030    2    1    2    0    0  0.00000000000E+00  0.00000000000E+00 -0.70869771094E+03  0.13912428761E+04  0.11972068722E+04 0.  0.
        1    1    3    3  502    0  0.53488624047E+02 -0.77277476872E+02 -0.10413431616E+04  0.10455756413E+04  0.50400001928E-02 0. -1.
       -1    1    3    3    0  502 -0.53488624047E+02  0.77277476872E+02  0.33264545070E+03  0.34566723483E+03  0.50400001928E-02 0.  1.
</event>
<event>
 5   0  0.3832662E-04  0.1200548E+04  0.7818609E-02  0.9112377E-01
       -2   -1    0    0    0  501  0.00000000000E+00  0.00000000000E+00  0.41921913475E+03  0.41921913476E+03  0.25500000920E-02 0.  1.
        2   -1    0    0  501    0  0.00000000000E+00  0.00000000000E+00 -0.85952335143E+03  0.85952335143E+03  0.25500000920E-02 0. -1.
    10030    2    1    2    0    0  0.00000000000E+00  0.00000000000E+00 -0.44030421668E+03  0.12787424862E+04  0.12005476012E+04 0.  0.
        4    1    3    3  502    0  0.76880442677E+02  0.77703558250E+02  0.40852758288E+03  0.42290051348E+03  0.12699999809E+01 0.  1.
       -4    1    3    3    0  502 -0.76880442677E+02 -0.77703558250E+02 -0.84883179955E+03  0.85584197271E+03  0.12699999809E+01 0. -1.
</event>
<event>
 5   0  0.2304842E-04  0.1200531E+04  0.7818609E-02  0.9112392E-01
        1   -1    0    0  501    0  0.00000000000E+00  0.00000000000E+00  0.14773218205E+04  0.14773218205E+04  0.50400001928E-02 0.  1.
       -1   -1    0    0    0  501  0.00000000000E+00  0.00000000000E+00 -0.24390005252E+03  0.24390005257E+03  0.50400001928E-02 0. -1.
    10030    2    1    2    0    0  0.00000000000E+00  0.00000000000E+00  0.12334217680E+04  0.17212218731E+04  0.12005313318E+04 0.  0.
        4    1    3    3  502    0 -0.22665345176E+02  0.57457617717E+03  0.36977109990E+03  0.68365472314E+03  0.12699999809E+01 0. -1.
       -4    1    3    3    0  502  0.22665345176E+02 -0.57457617717E+03  0.86365066806E+03  0.10375671499E+04  0.12699999809E+01 0.  1.
</event>
<event>
 5   0  0.2204090E-04  0.1200488E+04  0.7818609E-02  0.9112430E-01
       -1   -1    0    0    0  501  0.00000000000E+00  0.00000000000E+00  0.48312336756E+03  0.48312336759E+03  0.50400001928E-02 0. -1.
        1   -1    0    0  501    0  0.00000000000E+00  0.00000000000E+00 -0.74575710591E+03  0.74575710593E+03  0.50400001928E-02 0.  1.
    10030    2    1    2    0    0  0.00000000000E+00  0.00000000000E+00 -0.26263373835E+03  0.12288804735E+04  0.12004877083E+04 0.  0.
        2    1    3    3  502    0 -0.44963606168E+02 -0.53801497529E+03 -0.39983917693E+03  0.67182825702E+03  0.25500000920E-02 0.  1.
       -2    1    3    3    0  502  0.44963606168E+02  0.53801497529E+03  0.13720543858E+03  0.55705221649E+03  0.25500000920E-02 0. -1.
</event>
<event>
 5   0  0.2204090E-04  0.1205456E+04  0.7818609E-02  0.9108094E-01
       -1   -1    0    0    0  501  0.00000000000E+00  0.00000000000E+00  0.85438752581E+03  0.85438752582E+03  0.50400001928E-02 0. -1.
        1   -1    0    0  501    0  0.00000000000E+00  0.00000000000E+00 -0.42519478746E+03  0.42519478749E+03  0.50400001928E-02 0.  1.
    10030    2    1    2    0    0  0.00000000000E+00  0.00000000000E+00  0.42919273835E+03  0.12795823133E+04  0.12054561335E+04 0.  0.
        2    1    3    3  502    0 -0.45486031801E+03 -0.16802893545E+03 -0.16539633586E+03  0.51233541744E+03  0.25500000920E-02 0.  1.
       -2    1    3    3    0  502  0.45486031801E+03  0.16802893545E+03  0.59458907420E+03  0.76724689587E+03  0.25500000920E-02 0. -1.
</event>
<event>
 5   0  0.3883890E-04  0.1199731E+04  0.7818609E-02  0.9113092E-01
       -2   -1    0    0    0  501  0.00000000000E+00  0.00000000000E+00  0.18347737991E+03  0.18347737993E+03  0.25500000920E-02 0.  1.
        2   -1    0    0  501    0  0.00000000000E+00  0.00000000000E+00 -0.19612137209E+04  0.19612137209E+04  0.25500000920E-02 0. -1.
    10030    2    1    2    0    0  0.00000000000E+00  0.00000000000E+00 -0.17777363410E+04  0.21446911009E+04  0.11997305614E+04 0.  0.
        2    1    3    3  502    0 -0.59277224185E+03 -0.91974641688E+02 -0.88940311812E+03  0.10727889690E+04  0.25500000920E-02 0.  1.
       -2    1    3    3    0  502  0.59277224185E+03  0.91974641688E+02 -0.88833322289E+03  0.10719021319E+04  0.25500000920E-02 0. -1.
</event>
<event>
 5   0  0.2304842E-04  0.1203160E+04  0.7818609E-02  0.9110095E-01
       -1   -1    0    0    0  501  0.00000000000E+00  0.00000000000E+00  0.10306848991E+04  0.10306848991E+04  0.50400001928E-02 0. -1.
        1   -1    0    0  501    0  0.00000000000E+00  0.00000000000E+00 -0.35112440457E+03  0.35112440461E+03  0.50400001928E-02 0.  1.
    10030    2    1    2    0    0  0.00000000000E+00  0.00000000000E+00  0.67956049454E+03  0.13818093037E+04  0.12031602080E+04 0.  0.
        4    1    3    3  502    0  0.10596174964E+03 -0.18411832236E+03  0.98617284257E+03  0.10087942988E+04  0.12699999809E+01 0. -1.
       -4    1    3    3    0  502 -0.10596174964E+03  0.18411832236E+03 -0.30661234803E+03  0.37301500490E+03  0.12699999809E+01 0.  1.
</event>
<event>
 5   0  0.2204090E-04  0.1201163E+04  0.7818609E-02  0.9111839E-01
       -1   -1    0    0    0  501  0.00000000000E+00  0.00000000000E+00  0.24134889104E+03  0.24134889109E+03  0.50400001928E-02 0. -1.
        1   -1    0    0  501    0  0.00000000000E+00  0.00000000000E+00 -0.14945092574E+04  0.14945092575E+04  0.50400001928E-02 0.  1.
    10030    2    1    2    0    0  0.00000000000E+00  0.00000000000E+00 -0.12531603664E+04  0.17358581485E+04  0.12011630231E+04 0.  0.
        2    1    3    3  502    0  0.19358278373E+03 -0.10676084974E+03 -0.14335706890E+04  0.14505161473E+04  0.25500000920E-02 0.  1.
       -2    1    3    3    0  502 -0.19358278373E+03  0.10676084974E+03  0.18041032257E+03  0.28534200128E+03  0.25500000920E-02 0. -1.
</event>
<event>
 5   0  0.2340731E-04  0.1199776E+04  0.7818609E-02  0.9113052E-01
       -1   -1    0    0    0  501  0.00000000000E+00  0.00000000000E+00  0.35482262197E+03  0.35482262201E+03  0.50400001928E-02 0. -1.
        1   -1    0    0  501    0  0.00000000000E+00  0.00000000000E+00 -0.10142130539E+04  0.10142130540E+04  0.50400001928E-02 0.  1.
    10030    2    1    2    0    0  0.00000000000E+00  0.00000000000E+00 -0.65939043197E+03  0.13690356760E+04  0.11997762043E+04 0.  0.
        3    1    3    3  502    0 -0.48988038863E+03  0.23518573324E+03 -0.61965110552E+03  0.82417390583E+03  0.10100000352E+00 0.  1.
       -3    1    3    3    0  502  0.48988038863E+03 -0.23518573324E+03 -0.39739326449E+02  0.54486177013E+03  0.10100000352E+00 0. -1.
</event>
<event>
 5   0  0.2304842E-04  0.1206459E+04  0.7818609E-02  0.9107221E-01
        1   -1    0    0  501    0  0.00000000000E+00  0.00000000000E+00  0.24509766152E+04  0.24509766152E+04  0.50400001928E-02 0.  1.
       -1   -1    0    0    0  501  0.00000000000E+00  0.00000000000E+00 -0.14846573482E+03  0.14846573490E+03  0.50400001928E-02 0. -1.
    10030    2    1    2    0    0  0.00000000000E+00  0.00000000000E+00  0.23025108803E+04  0.25994423501E+04  0.12064593558E+04 0.  0.
        4    1    3    3  502    0  0.52571243991E+02 -0.55902699058E+03  0.16262932290E+04  0.17204959144E+04  0.12699999809E+01 0. -1.
       -4    1    3    3    0  502 -0.52571243991E+02  0.55902699058E+03  0.67621765139E+03  0.87894643571E+03  0.12699999809E+01 0.  1.
</event>
<event>
 5   0  0.3832662E-04  0.1195909E+04  0.7818609E-02  0.9116445E-01
        2   -1    0    0  501    0  0.00000000000E+00  0.00000000000E+00  0.13390580669E+04  0.13390580669E+04  0.25500000920E-02 0.  1.
       -2   -1    0    0    0  501  0.00000000000E+00  0.00000000000E+00 -0.26701556211E+03  0.26701556212E+03  0.25500000920E-02 0. -1.
    10030    2    1    2    0    0  0.00000000000E+00  0.00000000000E+00  0.10720425048E+04  0.16060736290E+04  0.11959085959E+04 0.  0.
        4    1    3    3  502    0 -0.18276678191E+03  0.51043862250E+03  0.19734567051E+03  0.57697331869E+03  0.12699999809E+01 0. -1.
       -4    1    3    3    0  502  0.18276678191E+03 -0.51043862250E+03  0.87469683426E+03  0.10291003103E+04  0.12699999809E+01 0.  1.
</event>
<event>
 5   0  0.3883890E-04  0.1198859E+04  0.7818609E-02  0.9113855E-01
       -2   -1    0    0    0  501  0.00000000000E+00  0.00000000000E+00  0.80255765854E+03  0.80255765854E+03  0.25500000920E-02 0.  1.
        2   -1    0    0  501    0  0.00000000000E+00  0.00000000000E+00 -0.44771360761E+03  0.44771360761E+03  0.25500000920E-02 0. -1.
    10030    2    1    2    0    0  0.00000000000E+00  0.00000000000E+00  0.35484405093E+03  0.12502712662E+04  0.11988594323E+04 0.  0.
        2    1    3    3  502    0  0.71881848816E+02 -0.11085401876E+03  0.78718403897E+03  0.79819441547E+03  0.25500000920E-02 0.  1.
       -2    1    3    3    0  502 -0.71881848816E+02  0.11085401876E+03 -0.43233998804E+03  0.45207685069E+03  0.25500000920E-02 0. -1.
</event>
<event>
 5   0  0.4122956E-04  0.1200056E+04  0.7818609E-02  0.9112807E-01
        2   -1    0    0  501    0  0.00000000000E+00  0.00000000000E+00  0.47569186862E+03  0.47569186863E+03  0.25500000920E-02 0.  1.
       -2   -1    0    0    0  501  0.00000000000E+00  0.00000000000E+00 -0.75686363533E+03  0.75686363533E+03  0.25500000920E-02 0. -1.
    10030    2    1    2    0    0  0.00000000000E+00  0.00000000000E+00 -0.28117176670E+03  0.12325555040E+04  0.12000564603E+04 0.  0.
        5    1    3    3  502    0  0.24045270392E+03 -0.54474789454E+03 -0.64804158623E+02  0.59899035084E+03  0.46999998093E+01 0.  1.
       -5    1    3    3    0  502 -0.24045270392E+03  0.54474789454E+03 -0.21636760808E+03  0.63356515312E+03  0.46999998093E+01 0. -1.
</event>
<event>
 5   0  0.3993723E-04  0.1189203E+04  0.7818609E-02  0.9122360E-01
        2   -1    0    0  501    0  0.00000000000E+00  0.00000000000E+00  0.55773470388E+03  0.55773470389E+03  0.25500000920E-02 0. -1.
       -2   -1    0    0    0  501  0.00000000000E+00  0.00000000000E+00 -0.63390503789E+03  0.63390503789E+03  0.25500000920E-02 0.  1.
    10030    2    1    2    0    0  0.00000000000E+00  0.00000000000E+00 -0.76170334007E+02  0.11916397418E+04  0.11892028231E+04 0.  0.
        3    1    3    3  502    0  0.47026556226E+03 -0.18737681972E+03 -0.35063948820E+03  0.61579853240E+03  0.10100000352E+00 0.  1.
       -3    1    3    3    0  502 -0.47026556226E+03  0.18737681972E+03  0.27446915419E+03  0.57584120938E+03  0.10100000352E+00 0. -1.
</event>
<event>
 5   0  0.4024486E-04  0.1200431E+04  0.7818609E-02  0.9112479E-01
       -2   -1    0    0    0  501  0.00000000000E+00  0.00000000000E+00  0.40851269387E+03  0.40851269388E+03  0.25500000920E-02 0. -1.
        2   -1    0    0  501    0  0.00000000000E+00  0.00000000000E+00 -0.88187926052E+03  0.88187926052E+03  0.25500000920E-02 0.  1.
    10030    2    1    2    0    0  0.00000000000E+00  0.00000000000E+00 -0.47336656665E+03  0.12903919544E+04  0.12004313764E+04 0.  0.
        1    1    3    3  502    0 -0.18569533037E+03  0.36802487731E+03  0.23228370696E+03  0.47316042373E+03  0.50400001928E-02 0. -1.
       -1    1    3    3    0  502  0.18569533037E+03 -0.36802487731E+03 -0.70565027362E+03  0.81723153067E+03  0.50400001928E-02 0.  1.
</event>
<event>
 5   0  0.2340731E-04  0.1201557E+04  0.7818609E-02  0.9111495E-01
       -1   -1    0    0    0  501  0.00000000000E+00  0.00000000000E+00  0.72526229585E+03  0.72526229586E+03  0.50400001928E-02 0. -1.
        1   -1    0    0  501    0  0.00000000000E+00  0.00000000000E+00 -0.49766123688E+03  0.49766123691E+03  0.50400001928E-02 0.  1.
    10030    2    1    2    0    0  0.00000000000E+00  0.00000000000E+00  0.22760105897E+03  0.12229235328E+04  0.12015572084E+04 0.  0.
        3    1    3    3  502    0 -0.17270360721E+03  0.28690311634E+03  0.62146370462E+03  0.70594410576E+03  0.10100000352E+00 0. -1.
       -3    1    3    3    0  502  0.17270360721E+03 -0.28690311634E+03 -0.39386264565E+03  0.51697942701E+03  0.10100000352E+00 0.  1.
</event>
<event>
 5   0  0.2340731E-04  0.1199810E+04  0.7818609E-02  0.9113023E-01
        1   -1    0    0  501    0  0.00000000000E+00  0.00000000000E+00  0.49776574926E+03  0.49776574929E+03  0.50400001928E-02 0. -1.
       -1   -1    0    0    0  501  0.00000000000E+00  0.00000000000E+00 -0.72300279207E+03  0.72300279209E+03  0.50400001928E-02 0.  1.
    10030    2    1    2    0    0  0.00000000000E+00  0.00000000000E+00 -0.22523704281E+03  0.12207685414E+04  0.11998100292E+04 0.  0.
        3    1    3    3  502    0  0.32486478274E+03 -0.25354348729E+03  0.33096095823E+03  0.52854195017E+03  0.10100000352E+00 0. -1.
       -3    1    3    3    0  502 -0.32486478274E+03  0.25354348729E+03 -0.55619800104E+03  0.69222659121E+03  0.10100000352E+00 0.  1.
</event>
<event>
 5   0  0.3993723E-04  0.1198210E+04  0.7818609E-02  0.9114425E-01
       -2   -1    0    0    0  501  0.00000000000E+00  0.00000000000E+00  0.17229073557E+03  0.17229073559E+03  0.25500000920E-02 0. -1.
        2   -1    0    0  501    0  0.00000000000E+00  0.00000000000E+00 -0.20832606826E+04  0.20832606826E+04  0.25500000920E-02 0.  1.
    10030    2    1    2    0    0  0.00000000000E+00  0.00000000000E+00 -0.19109699471E+04  0.22555514182E+04  0.11982095233E+04 0.  0.
        3    1    3    3  502    0  0.41234426953E+03 -0.34787368724E+03 -0.14459400331E+04  0.15433037577E+04  0.10100000352E+00 0.  1.
       -3    1    3    3    0  502 -0.41234426953E+03  0.34787368724E+03 -0.46502991393E+03  0.71224766053E+03  0.10100000352E+00 0. -1.
</event>
<event>
 5   0  0.2204090E-04  0.1202377E+04  0.7818609E-02  0.9110779E-01
        1   -1    0    0  501    0  0.00000000000E+00  0.00000000000E+00  0.13657354169E+04  0.13657354169E+04  0.50400001928E-02 0.  1.
       -1   -1    0    0    0  501  0.00000000000E+00  0.00000000000E+00 -0.26463953691E+03  0.26463953696E+03  0.50400001928E-02 0. -1.
    10030    2    1    2    0    0  0.00000000000E+00  0.00000000000E+00  0.11010958800E+04  0.16303749539E+04  0.12023769597E+04 0.  0.
        2    1    3    3  502    0 -0.56039796995E+03  0.73566946253E+02  0.27275941235E+03  0.62757921997E+03  0.25500000920E-02 0. -1.
       -2    1    3    3    0  502  0.56039796995E+03 -0.73566946253E+02  0.82833646767E+03  0.10027957339E+04  0.25500000920E-02 0.  1.
</event>
<event>
 5   0  0.4024486E-04  0.1198914E+04  0.7818609E-02  0.9113808E-01
        2   -1    0    0  501    0  0.00000000000E+00  0.00000000000E+00  0.17611334322E+04  0.17611334322E+04  0.25500000920E-02 0. -1.
       -2   -1    0    0    0  501  0.00000000000E+00  0.00000000000E+00 -0.20404391135E+03  0.20404391137E+03  0.25500000920E-02 0.  1.
    10030    2    1    2    0    0  0.00000000000E+00  0.00000000000E+00  0.15570895208E+04  0.19651773436E+04  0.11989137649E+04 0.  0.
        1    1    3    3  502    0  0.37395270417E+03 -0.46817583380E+03  0.80783515534E+03  0.10057966368E+04  0.50400001928E-02 0.  1.
       -1    1    3    3    0  502 -0.37395270417E+03  0.46817583380E+03  0.74925436549E+03  0.95938070678E+03  0.50400001928E-02 0. -1.
</event>
<event>
 5   0  0.3993723E-04  0.1199695E+04  0.7818609E-02  0.9113124E-01
        2   -1    0    0  501    0  0.00000000000E+00  0.00000000000E+00  0.92728487128E+03  0.92728487129E+03  0.25500000920E-02 0. -1.
       -2   -1    0    0    0  501  0.00000000000E+00  0.00000000000E+00 -0.38803263020E+03  0.38803263021E+03  0.25500000920E-02 0.  1.
    10030    2    1    2    0    0  0.00000000000E+00  0.00000000000E+00  0.53925224108E+03  0.13153175015E+04  0.11996946071E+04 0.  0.
        3    1    3    3  502    0  0.21096572955E+03  0.20335912492E+03  0.84347792197E+03  0.89292580195E+03  0.10100000352E+00 0. -1.
       -3    1    3    3    0  502 -0.21096572955E+03 -0.20335912492E+03 -0.30422568089E+03  0.42239169955E+03  0.10100000352E+00 0.  1.
</event>
<event>
 5   0  0.1541375E-04  0.1212722E+04  0.7818609E-02  0.9101794E-01
        3   -1    0    0  501    0  0.00000000000E+00  0.00000000000E+00  0.30671586995E+03  0.30671588658E+03  0.10100000352E+00 0.  1.
       -3   -1    0    0    0  501  0.00000000000E+00  0.00000000000E+00 -0.11987425146E+04  0.11987425189E+04  0.10100000352E+00 0. -1.
    10030    2    1    2    0    0  0.00000000000E+00  0.00000000000E+00 -0.89202664470E+03  0.15054584055E+04  0.12127215162E+04 0.  0.
        5    1    3    3  502    0 -0.27502351234E+02  0.17335357857E+02 -0.11976372241E+04  0.11980876030E+04  0.46999998093E+01 0. -1.
       -5    1    3    3    0  502  0.27502351234E+02 -0.17335357857E+02  0.30561057941E+03  0.30737080245E+03  0.46999998093E+01 0.  1.
</event>
<event>
 5   0  0.2315038E-04  0.1199482E+04  0.7818609E-02  0.9113310E-01
       -1   -1    0    0    0  501  0.00000000000E+00  0.00000000000E+00  0.42954756210E+03  0.42954756213E+03  0.50400001928E-02 0.  1.
        1   -1    0    0  501    0  0.00000000000E+00  0.00000000000E+00 -0.83736720597E+03  0.83736720598E+03  0.50400001928E-02 0. -1.
    10030    2    1    2    0    0  0.00000000000E+00  0.00000000000E+00 -0.40781964387E+03  0.12669147681E+04  0.11994816246E+04 0.  0.
        1    1    3    3  502    0 -0.57660597070E+03 -0.53813178572E+02 -0.39198171528E+02  0.58043673239E+03  0.50400001928E-02 0.  1.
       -1    1    3    3    0  502  0.57660597070E+03  0.53813178572E+02 -0.36862147234E+03  0.68647803572E+03  0.50400001928E-02 0. -1.
</event>
<event>
 5   0  0.3993723E-04  0.1201102E+04  0.7818609E-02  0.9111892E-01
       -2   -1    0    0    0  501  0.00000000000E+00  0.00000000000E+00  0.26435146150E+03  0.26435146151E+03  0.25500000920E-02 0. -1.
        2   -1    0    0  501    0  0.00000000000E+00  0.00000000000E+00 -0.13643268057E+04  0.13643268057E+04  0.25500000920E-02 0.  1.
    10030    2    1    2    0    0  0.00000000000E+00  0.00000000000E+00 -0.10999753442E+04  0.16286782672E+04  0.12011024687E+04 0.  0.
        3    1    3    3  502    0 -0.31956399973E+03 -0.35411479831E+03 -0.55204459096E+02  0.48017286763E+03  0.10100000352E+00 0. -1.
       -3    1    3    3    0  502  0.31956399973E+03  0.35411479831E+03 -0.10447708851E+04  0.11485053996E+04  0.10100000352E+00 0.  1.
</event>
<event>
 5   0  0.4024486E-04  0.1204222E+04  0.7818609E-02  0.9109169E-01
       -2   -1    0    0    0  501  0.00000000000E+00  0.00000000000E+00  0.15213771665E+03  0.15213771667E+03  0.25500000920E-02 0.  1.
        2   -1    0    0  501    0  0.00000000000E+00  0.00000000000E+00 -0.23829581110E+04  0.23829581110E+04  0.25500000920E-02 0. -1.
    10030    2    1    2    0    0  0.00000000000E+00  0.00000000000E+00 -0.22308203944E+04  0.25350958277E+04  0.12042222484E+04 0.  0.
        1    1    3    3  502    0 -0.15376611205E+03 -0.50037294498E+03 -0.17417502216E+04  0.18187113393E+04  0.50400001928E-02 0. -1.
       -1    1    3    3    0  502  0.15376611205E+03  0.50037294498E+03 -0.48907017280E+03  0.71638448840E+03  0.50400001928E-02 0.  1.
</event>
<event>
 5   0  0.2204090E-04  0.1196871E+04  0.7818609E-02  0.9115600E-01
       -1   -1    0    0    0  501  0.00000000000E+00  0.00000000000E+00  0.33047510032E+03  0.33047510036E+03  0.50400001928E-02 0.  1.
        1   -1    0    0  501    0  0.00000000000E+00  0.00000000000E+00 -0.10836665915E+04  0.10836665915E+04  0.50400001928E-02 0. -1.
    10030    2    1    2    0    0  0.00000000000E+00  0.00000000000E+00 -0.75319149116E+03  0.14141416919E+04  0.11968706289E+04 0.  0.
        2    1    3    3  502    0  0.13758882420E+03 -0.22267127663E+03 -0.10124443552E+04  0.10457326400E+04  0.25500000920E-02 0. -1.
       -2    1    3    3    0  502 -0.13758882420E+03  0.22267127663E+03  0.25925286403E+03  0.36840905186E+03  0.25500000920E-02 0.  1.
</event>
<event>
 5   0  0.3832662E-04  0.1199160E+04  0.7818609E-02  0.9113592E-01
        2   -1    0    0  501    0  0.00000000000E+00  0.00000000000E+00  0.99211736687E+03  0.99211736687E+03  0.25500000920E-02 0. -1.
       -2   -1    0    0    0  501  0.00000000000E+00  0.00000000000E+00 -0.36235270991E+03  0.36235270992E+03  0.25500000920E-02 0.  1.
    10030    2    1    2    0    0  0.00000000000E+00  0.00000000000E+00  0.62976465696E+03  0.13544700768E+04  0.11991604004E+04 0.  0.
        4    1    3    3  502    0  0.10349745276E+03  0.53267152722E+03  0.60295109569E+03  0.81117341878E+03  0.12699999809E+01 0. -1.
       -4    1    3    3    0  502 -0.10349745276E+03 -0.53267152722E+03  0.26813561269E+02  0.54329665801E+03  0.12699999809E+01 0.  1.
</event>
<event>
 5   0  0.3883890E-04  0.1198675E+04  0.7818609E-02  0.9114017E-01
        2   -1    0    0  501    0  0.00000000000E+00  0.00000000000E+00  0.10089121573E+04  0.10089121573E+04  0.25500000920E-02 0.  1.
       -2   -1    0    0    0  501  0.00000000000E+00  0.00000000000E+00 -0.35603230102E+03  0.35603230103E+03  0.25500000920E-02 0. -1.
    10030    2    1    2    0    0  0.00000000000E+00  0.00000000000E+00  0.65287985633E+03  0.13649444584E+04  0.11986747965E+04 0.  0.
        2    1    3    3  502    0  0.49128640036E+03 -0.33046252912E+03  0.43226968574E+03  0.73309268960E+03  0.25500000920E-02 0.  1.
       -2    1    3    3    0  502 -0.49128640036E+03  0.33046252912E+03  0.22061017058E+03  0.63185176877E+03  0.25500000920E-02 0. -1.
</event>
<event>
 5   0  0.2340731E-04  0.1201909E+04  0.7818609E-02  0.9111187E-01
       -1   -1    0    0    0  501  0.00000000000E+00  0.00000000000E+00  0.23824957276E+03  0.23824957281E+03  0.50400001928E-02 0. -1.
        1   -1    0    0  501    0  0.00000000000E+00  0.00000000000E+00 -0.15158315056E+04  0.15158315056E+04  0.50400001928E-02 0.  1.
    10030    2    1    2    0    0  0.00000000000E+00  0.00000000000E+00 -0.12775819328E+04  0.17540810784E+04  0.12019088295E+04 0.  0.
        3    1    3    3  502    0  0.35991445223E+03 -0.48124276611E+03 -0.63349155489E+03  0.87318072194E+03  0.10100000352E+00 0.  1.
       -3    1    3    3    0  502 -0.35991445223E+03  0.48124276611E+03 -0.64409037796E+03  0.88090035647E+03  0.10100000352E+00 0. -1.
</event>
<event>
 5   0  0.2304842E-04  0.1201132E+04  0.7818609E-02  0.9111866E-01
       -1   -1    0    0    0  501  0.00000000000E+00  0.00000000000E+00  0.35082606069E+03  0.35082606072E+03  0.50400001928E-02 0. -1.
        1   -1    0    0  501    0  0.00000000000E+00  0.00000000000E+00 -0.10280862703E+04  0.10280862703E+04  0.50400001928E-02 0.  1.
    10030    2    1    2    0    0  0.00000000000E+00  0.00000000000E+00 -0.67726020960E+03  0.13789123310E+04  0.12011318933E+04 0.  0.
        4    1    3    3  502    0  0.37063501779E+03 -0.19354866878E+03 -0.83353651550E+03  0.93253211160E+03  0.12699999809E+01 0.  1.
       -4    1    3    3    0  502 -0.37063501779E+03  0.19354866878E+03  0.15627630590E+03  0.44638021942E+03  0.12699999809E+01 0. -1.
</event>
<event>
 5   0  0.2244308E-04  0.1196962E+04  0.7818609E-02  0.9115520E-01
        1   -1    0    0  501    0  0.00000000000E+00  0.00000000000E+00  0.30392975053E+03  0.30392975057E+03  0.50400001928E-02 0. -1.
       -1   -1    0    0    0  501  0.00000000000E+00  0.00000000000E+00 -0.11784940480E+04  0.11784940480E+04  0.50400001928E-02 0.  1.
    10030    2    1    2    0    0  0.00000000000E+00  0.00000000000E+00 -0.87456429748E+03  0.14824237986E+04  0.11969618240E+04 0.  0.
        5    1    3    3  502    0  0.15883487919E+03 -0.13334432021E+03  0.25798132796E+03  0.33103728212E+03  0.46999998093E+01 0. -1.
       -5    1    3    3    0  502 -0.15883487919E+03  0.13334432021E+03 -0.11325456254E+04  0.11513865165E+04  0.46999998093E+01 0.  1.
</event>
<event>
 5   0  0.2304842E-04  0.1201968E+04  0.7818609E-02  0.9111136E-01
        1   -1    0    0  501    0  0.00000000000E+00  0.00000000000E+00  0.14906859398E+04  0.14906859398E+04  0.50400001928E-02 0.  1.
       -1   -1    0    0    0  501  0.00000000000E+00  0.00000000000E+00 -0.24229228233E+03  0.24229228239E+03  0.50400001928E-02 0. -1.
    10030    2    1    2    0    0  0.00000000000E+00  0.00000000000E+00  0.12483936574E+04  0.17329782222E+04  0.12019678842E+04 0.  0.
        4    1    3    3  502    0  0.53417451822E+02  0.59357617162E+03  0.51257265660E+03  0.78607788219E+03  0.12699999809E+01 0. -1.
       -4    1    3    3    0  502 -0.53417451822E+02 -0.59357617162E+03  0.73582100084E+03  0.94690033998E+03  0.12699999809E+01 0.  1.
</event>
<event>
 5   0  0.2315038E-04  0.1199966E+04  0.7818609E-02  0.9112886E-01
       -1   -1    0    0    0  501  0.00000000000E+00  0.00000000000E+00  0.31522691075E+03  0.31522691079E+03  0.50400001928E-02 0. -1.
        1   -1    0    0  501    0  0.00000000000E+00  0.00000000000E+00 -0.11419707014E+04  0.11419707015E+04  0.50400001928E-02 0.  1.
    10030    2    1    2    0    0  0.00000000000E+00  0.00000000000E+00 -0.82674379069E+03  0.14571976122E+04  0.11999664936E+04 0.  0.
        1    1    3    3  502    0 -0.50425946583E+03 -0.32430897590E+03 -0.44122234146E+03  0.74439980882E+03  0.50400001928E-02 0.  1.
       -1    1    3    3    0  502  0.50425946583E+03  0.32430897590E+03 -0.38552144923E+03  0.71279780343E+03  0.50400001928E-02 0. -1.
</event>
<event>
 5   0  0.4122956E-04  0.1200102E+04  0.7818609E-02  0.9112767E-01
       -2   -1    0    0    0  501  0.00000000000E+00  0.00000000000E+00  0.88892414194E+03  0.88892414194E+03  0.25500000920E-02 0.  1.
        2   -1    0    0  501    0  0.00000000000E+00  0.00000000000E+00 -0.40505305952E+03  0.40505305953E+03  0.25500000920E-02 0. -1.
    10030    2    1    2    0    0  0.00000000000E+00  0.00000000000E+00  0.48387108242E+03  0.12939772015E+04  0.12001024013E+04 0.  0.
        5    1    3    3  502    0  0.19846707043E+03 -0.31923938739E+03 -0.26234108536E+03  0.45841891276E+03  0.46999998093E+01 0. -1.
       -5    1    3    3    0  502 -0.19846707043E+03  0.31923938739E+03  0.74621216778E+03  0.83555828872E+03  0.46999998093E+01 0.  1.
</event>
<event>
 5   0  0.2304842E-04  0.1204894E+04  0.7818609E-02  0.9108584E-01
       -1   -1    0    0    0  501  0.00000000000E+00  0.00000000000E+00  0.28407350123E+03  0.28407350127E+03  0.50400001928E-02 0. -1.
        1   -1    0    0  501    0  0.00000000000E+00  0.00000000000E+00 -0.12776353591E+04  0.12776353591E+04  0.50400001928E-02 0.  1.
    10030    2    1    2    0    0  0.00000000000E+00  0.00000000000E+00 -0.99356185783E+03  0.15617088603E+04  0.12048939369E+04 0.  0.
        4    1    3    3  502    0  0.74101970934E+02  0.12276974776E+03 -0.12551902961E+04  0.12633557715E+04  0.12699999809E+01 0.  1.
       -4    1    3    3    0  502 -0.74101970934E+02 -0.12276974776E+03  0.26162843822E+03  0.29835308888E+03  0.12699999809E+01 0. -1.
</event>
<event>
 5   0  0.4122956E-04  0.1213124E+04  0.7818609E-02  0.9101446E-01
        2   -1    0    0  501    0  0.00000000000E+00  0.00000000000E+00  0.21451207201E+04  0.21451207201E+04  0.25500000920E-02 0.  1.
       -2   -1    0    0    0  501  0.00000000000E+00  0.00000000000E+00 -0.17151350472E+03  0.17151350474E+03  0.25500000920E-02 0. -1.
    10030    2    1    2    0    0  0.00000000000E+00  0.00000000000E+00  0.19736072153E+04  0.23166342248E+04  0.12131235267E+04 0.  0.
        5    1    3    3  502    0  0.60628540022E+03  0.12778404155E+02  0.10101769525E+04  0.11782295360E+04  0.46999998093E+01 0. -1.
       -5    1    3    3    0  502 -0.60628540022E+03 -0.12778404155E+02  0.96343026288E+03  0.11384046888E+04  0.46999998093E+01 0.  1.
</event>
<event>
 5   0  0.3993723E-04  0.1196584E+04  0.7818609E-02  0.9115852E-01
        2   -1    0    0  501    0  0.00000000000E+00  0.00000000000E+00  0.15574997568E+04  0.15574997568E+04  0.25500000920E-02 0.  1.
       -2   -1    0    0    0  501  0.00000000000E+00  0.00000000000E+00 -0.22982556823E+03  0.22982556824E+03  0.25500000920E-02 0. -1.
    10030    2    1    2    0    0  0.00000000000E+00  0.00000000000E+00  0.13276741885E+04  0.17873253250E+04  0.11965839154E+04 0.  0.
        3    1    3    3  502    0  0.54329292185E+03  0.25043254465E+03  0.67629827034E+03  0.90291916528E+03  0.10100000352E+00 0.  1.
       -3    1    3    3    0  502 -0.54329292185E+03 -0.25043254465E+03  0.65137591819E+03  0.88440615973E+03  0.10100000352E+00 0. -1.
</event>
<event>
 5   0  0.3993723E-04  0.1200044E+04  0.7818609E-02  0.9112818E-01
        2   -1    0    0  501    0  0.00000000000E+00  0.00000000000E+00  0.19331505627E+04  0.19331505627E+04  0.25500000920E-02 0.  1.
       -2   -1    0    0    0  501  0.00000000000E+00  0.00000000000E+00 -0.18623805960E+03  0.18623805962E+03  0.25500000920E-02 0. -1.
    10030    2    1    2    0    0  0.00000000000E+00  0.00000000000E+00  0.17469125031E+04  0.21193886223E+04  0.12000436821E+04 0.  0.
        3    1    3    3  502    0  0.21003892572E+03 -0.10942033223E+03  0.18471118348E+04  0.18622328802E+04  0.10100000352E+00 0.  1.
       -3    1    3    3    0  502 -0.21003892572E+03  0.10942033223E+03 -0.10019933175E+03  0.25715574212E+03  0.10100000352E+00 0. -1.
</event>
<event>
 5   0  0.2244308E-04  0.1198379E+04  0.7818609E-02  0.9114276E-01
       -1   -1    0    0    0  501  0.00000000000E+00  0.00000000000E+00  0.96693162032E+03  0.96693162033E+03  0.50400001928E-02 0. -1.
        1   -1    0    0  501    0  0.00000000000E+00  0.00000000000E+00 -0.37130672949E+03  0.37130672952E+03  0.50400001928E-02 0.  1.
    10030    2    1    2    0    0  0.00000000000E+00  0.00000000000E+00  0.59562489083E+03  0.13382383498E+04  0.11983792682E+04 0.  0.
        5    1    3    3  502    0  0.34826805654E+03  0.14423449690E+03 -0.22228039060E+03  0.43763556910E+03  0.46999998093E+01 0.  1.
       -5    1    3    3    0  502 -0.34826805654E+03 -0.14423449690E+03  0.81790528143E+03  0.90060278075E+03  0.46999998093E+01 0. -1.
</event>
<event>
 5   0  0.4122956E-04  0.1190158E+04  0.7818609E-02  0.9121515E-01
       -2   -1    0    0    0  501  0.00000000000E+00  0.00000000000E+00  0.46439145287E+03  0.46439145288E+03  0.25500000920E-02 0.  1.
        2   -1    0    0  501    0  0.00000000000E+00  0.00000000000E+00 -0.76254459326E+03  0.76254459326E+03  0.25500000920E-02 0. -1.
    10030    2    1    2    0    0  0.00000000000E+00  0.00000000000E+00 -0.29815314039E+03  0.12269360461E+04  0.11901582946E+04 0.  0.
        5    1    3    3  502    0  0.46320094253E+03  0.30081656196E+03  0.79242839453E+02  0.55798497714E+03  0.46999998093E+01 0.  1.
       -5    1    3    3    0  502 -0.46320094253E+03 -0.30081656196E+03 -0.37739597984E+03  0.66895106900E+03  0.46999998093E+01 0. -1.
</event>
<event>
 5   0  0.3993723E-04  0.1201146E+04  0.7818609E-02  0.9111854E-01
       -2   -1    0    0    0  501  0.00000000000E+00  0.00000000000E+00  0.22055845316E+03  0.22055845318E+03  0.25500000920E-02 0.  1.
        2   -1    0    0  501    0  0.00000000000E+00  0.00000000000E+00 -0.16353392864E+04  0.16353392864E+04  0.25500000920E-02 0. -1.
    10030    2    1    2    0    0  0.00000000000E+00  0.00000000000E+00 -0.14147808332E+04  0.18558977396E+04  0.12011459585E+04 0.  0.
        3    1    3    3  502    0  0.19931597434E+02 -0.57488128599E+03 -0.97412659398E+03  0.11312861675E+04  0.10100000352E+00 0.  1.
       -3    1    3    3    0  502 -0.19931597434E+02  0.57488128599E+03 -0.44065423927E+03  0.72461157205E+03  0.10100000352E+00 0. -1.
</event>
<event>
 5   0  0.2315038E-04  0.1199984E+04  0.7818609E-02  0.9112871E-01
        1   -1    0    0  501    0  0.00000000000E+00  0.00000000000E+00  0.11019874320E+04  0.11019874320E+04  0.50400001928E-02 0. -1.
       -1   -1    0    0    0  501  0.00000000000E+00  0.00000000000E+00 -0.32667380337E+03  0.32667380341E+03  0.50400001928E-02 0.  1.
    10030    2    1    2    0    0  0.00000000000E+00  0.00000000000E+00  0.77531362860E+03  0.14286612354E+04  0.11999840427E+04 0.  0.
        1    1    3    3  502    0 -0.77495148016E+02 -0.72310223883E+01 -0.32063805819E+03  0.32994931434E+03  0.50400001928E-02 0.  1.
       -1    1    3    3    0  502  0.77495148016E+02  0.72310223883E+01  0.10959516868E+04  0.10987119210E+04  0.50400001928E-02 0. -1.
</event>
<event>
 5   0  0.2340731E-04  0.1200377E+04  0.7818609E-02  0.9112526E-01
       -1   -1    0    0    0  501  0.00000000000E+00  0.00000000000E+00  0.97180161243E+03  0.97180161244E+03  0.50400001928E-02 0. -1.
        1   -1    0    0  501    0  0.00000000000E+00  0.00000000000E+00 -0.37067903076E+03  0.37067903079E+03  0.50400001928E-02 0.  1.
    10030    2    1    2    0    0  0.00000000000E+00  0.00000000000E+00  0.60112258167E+03  0.13424806432E+04  0.12003774070E+04 0.  0.
        3    1    3    3  502    0  0.24568034383E+03 -0.57881340316E+02  0.90955850107E+03  0.94393101335E+03  0.10100000352E+00 0. -1.
       -3    1    3    3    0  502 -0.24568034383E+03  0.57881340316E+02 -0.30843591940E+03  0.39854962988E+03  0.10100000352E+00 0.  1.
</event>
<event>
 5   0  0.2304842E-04  0.1197197E+04  0.7818609E-02  0.9115313E-01
        1   -1    0    0  501    0  0.00000000000E+00  0.00000000000E+00  0.20788249017E+04  0.20788249018E+04  0.50400001928E-02 0.  1.
       -1   -1    0    0    0  501  0.00000000000E+00  0.00000000000E+00 -0.17236670356E+03  0.17236670363E+03  0.50400001928E-02 0. -1.
    10030    2    1    2    0    0  0.00000000000E+00  0.00000000000E+00  0.19064581982E+04  0.22511916054E+04  0.11971970526E+04 0.  0.
        4    1    3    3  502    0  0.86393327082E+02  0.56152311730E+03  0.59870510070E+03  0.82536139280E+03  0.12699999809E+01 0. -1.
       -4    1    3    3    0  502 -0.86393327082E+02 -0.56152311730E+03  0.13077530975E+04  0.14258302126E+04  0.12699999809E+01 0.  1.
</event>
<event>
 5   0  0.1541375E-04  0.1196129E+04  0.7818609E-02  0.9116252E-01
        3   -1    0    0  501    0  0.00000000000E+00  0.00000000000E+00  0.24091366882E+03  0.24091368999E+03  0.10100000352E+00 0.  1.
       -3   -1    0    0    0  501  0.00000000000E+00  0.00000000000E+00 -0.14846860163E+04  0.14846860197E+04  0.10100000352E+00 0. -1.
    10030    2    1    2    0    0  0.00000000000E+00  0.00000000000E+00 -0.12437723474E+04  0.17255997097E+04  0.11961290507E+04 0.  0.
        5    1    3    3  502    0  0.20185416059E+03  0.54760832206E+03 -0.43357093155E+03  0.72706658513E+03  0.46999998093E+01 0.  1.
       -5    1    3    3    0  502 -0.20185416059E+03 -0.54760832206E+03 -0.81020141588E+03  0.99853312455E+03  0.46999998093E+01 0. -1.
</event>
<event>
 5   0  0.4024486E-04  0.1200712E+04  0.7818609E-02  0.9112234E-01
       -2   -1    0    0    0  501  0.00000000000E+00  0.00000000000E+00  0.13130935104E+04  0.13130935104E+04  0.25500000920E-02 0.  1.
        2   -1    0    0  501    0  0.00000000000E+00  0.00000000000E+00 -0.27448709724E+03  0.27448709725E+03  0.25500000920E-02 0. -1.
    10030    2    1    2    0    0  0.00000000000E+00  0.00000000000E+00  0.10386064131E+04  0.15875806076E+04  0.12007118323E+04 0.  0.
        1    1    3    3  502    0  0.13101783757E+03 -0.54986040360E+03  0.78675083069E+03  0.96875642286E+03  0.50400001928E-02 0.  1.
       -1    1    3    3    0  502 -0.13101783757E+03  0.54986040360E+03  0.25185558242E+03  0.61882418475E+03  0.50400001928E-02 0. -1.
</event>
<event>
 5   0  0.4122956E-04  0.1197321E+04  0.7818609E-02  0.9115205E-01
        2   -1    0    0  501    0  0.00000000000E+00  0.00000000000E+00  0.49261198894E+03  0.49261198894E+03  0.25500000920E-02 0. -1.
       -2   -1    0    0    0  501  0.00000000000E+00  0.00000000000E+00 -0.72753873180E+03  0.72753873181E+03  0.25500000920E-02 0.  1.
    10030    2    1    2    0    0  0.00000000000E+00  0.00000000000E+00 -0.23492674287E+03  0.12201507207E+04  0.11973208454E+04 0.  0.
        5    1    3    3  502    0 -0.24534196134E+03  0.33332653201E+03 -0.55822973280E+03  0.69494012657E+03  0.46999998093E+01 0. -1.
       -5    1    3    3    0  502  0.24534196134E+03 -0.33332653201E+03  0.32330298994E+03  0.52521059418E+03  0.46999998093E+01 0.  1.
</event>
<event>
 5   0  0.3883890E-04  0.1199642E+04  0.7818609E-02  0.9113170E-01
       -2   -1    0    0    0  501  0.00000000000E+00  0.00000000000E+00  0.32967678448E+03  0.32967678449E+03  0.25500000920E-02 0.  1.
        2   -1    0    0  501    0  0.00000000000E+00  0.00000000000E+00 -0.10913270702E+04  0.10913270702E+04  0.25500000920E-02 0. -1.
    10030    2    1    2    0    0  0.00000000000E+00  0.00000000000E+00 -0.76165028570E+03  0.14210038547E+04  0.11996419455E+04 0.  0.
        2    1    3    3  502    0  0.51150133809E+02 -0.16894904435E+03  0.29821268451E+03  0.34654136980E+03  0.25500000920E-02 0.  1.
       -2    1    3    3    0  502 -0.51150133809E+02  0.16894904435E+03 -0.10598629702E+04  0.10744624849E+04  0.25500000920E-02 0. -1.
</event>
<event>
 5   0  0.3993723E-04  0.1201063E+04  0.7818609E-02  0.9111927E-01
        2   -1    0    0  501    0  0.00000000000E+00  0.00000000000E+00  0.20661097904E+04  0.20661097904E+04  0.25500000920E-02 0.  1.
       -2   -1    0    0    0  501  0.00000000000E+00  0.00000000000E+00 -0.17454931423E+03  0.17454931425E+03  0.25500000920E-02 0. -1.
    10030    2    1    2    0    0  0.00000000000E+00  0.00000000000E+00  0.18915604762E+04  0.22406591047E+04  0.12010629410E+04 0.  0.
        3    1    3    3  502    0 -0.42778041837E+03  0.14359993961E+03  0.20653437798E+03  0.49625949712E+03  0.10100000352E+00 0. -1.
       -3    1    3    3    0  502  0.42778041837E+03 -0.14359993961E+03  0.16850260982E+04  0.17443996076E+04  0.10100000352E+00 0.  1.
</event>
<event>
 5   0  0.2204090E-04  0.1198919E+04  0.7818609E-02  0.9113803E-01
        1   -1    0    0  501    0  0.00000000000E+00  0.00000000000E+00  0.76474523053E+03  0.76474523055E+03  0.50400001928E-02 0. -1.
       -1   -1    0    0    0  501  0.00000000000E+00  0.00000000000E+00 -0.46989744086E+03  0.46989744089E+03  0.50400001928E-02 0.  1.
    10030    2    1    2    0    0  0.00000000000E+00  0.00000000000E+00  0.29484778967E+03  0.12346426714E+04  0.11989192246E+04 0.  0.
        2    1    3    3  502    0  0.37866503485E+03 -0.45323305149E+03  0.41678201275E+02  0.59206796911E+03  0.25500000920E-02 0.  1.
       -2    1    3    3    0  502 -0.37866503485E+03  0.45323305149E+03  0.25316958839E+03  0.64257470233E+03  0.25500000920E-02 0. -1.
</event>
<event>
 5   0  0.2315038E-04  0.1188544E+04  0.7818609E-02  0.9122943E-01
        1   -1    0    0  501    0  0.00000000000E+00  0.00000000000E+00  0.72491626134E+03  0.72491626136E+03  0.50400001928E-02 0.  1.
       -1   -1    0    0    0  501  0.00000000000E+00  0.00000000000E+00 -0.48717258292E+03  0.48717258295E+03  0.50400001928E-02 0. -1.
    10030    2    1    2    0    0  0.00000000000E+00  0.00000000000E+00  0.23774367842E+03  0.12120888443E+04  0.11885441977E+04 0.  0.
        1    1    3    3  502    0 -0.40681951165E+03 -0.16172113404E+03  0.52870780691E+03  0.68643119493E+03  0.50400001928E-02 0.  1.
       -1    1    3    3    0  502  0.40681951165E+03  0.16172113404E+03 -0.29096412850E+03  0.52565764938E+03  0.50400001928E-02 0. -1.
</event>
<event>
 5   0  0.3993723E-04  0.1200889E+04  0.7818609E-02  0.9112078E-01
        2   -1    0    0  501    0  0.00000000000E+00  0.00000000000E+00  0.14544784728E+04  0.14544784728E+04  0.25500000920E-02 0.  1.
       -2   -1    0    0    0  501  0.00000000000E+00  0.00000000000E+00 -0.24787844671E+03  0.24787844672E+03  0.25500000920E-02 0. -1.
    10030    2    1    2    0    0  0.00000000000E+00  0.00000000000E+00  0.12066000261E+04  0.17023569195E+04  0.12008894447E+04 0.  0.
        3    1    3    3  502    0 -0.52885936983E+03 -0.15015983272E+03  0.94556163364E+03  0.10937673526E+04  0.10100000352E+00 0.  1.
       -3    1    3    3    0  502  0.52885936983E+03  0.15015983272E+03  0.26103839243E+03  0.60858956690E+03  0.10100000352E+00 0. -1.
</event>
<event>
 5   0  0.4122956E-04  0.1201584E+04  0.7818609E-02  0.9111471E-01
       -2   -1    0    0    0  501  0.00000000000E+00  0.00000000000E+00  0.59964993155E+03  0.59964993155E+03  0.25500000920E-02 0. -1.
        2   -1    0    0  501    0  0.00000000000E+00  0.00000000000E+00 -0.60193615651E+03  0.60193615651E+03  0.25500000920E-02 0.  1.
    10030    2    1    2    0    0  0.00000000000E+00  0.00000000000E+00 -0.22862249616E+01  0.12015860881E+04  0.12015839131E+04 0.  0.
        5    1    3    3  502    0  0.39167629703E+03  0.32359318241E+03  0.31949123981E+03  0.60018298183E+03  0.46999998093E+01 0. -1.
       -5    1    3    3    0  502 -0.39167629703E+03 -0.32359318241E+03 -0.32177746477E+03  0.60140310624E+03  0.46999998093E+01 0.  1.
</event>
<event>
 5   0  0.2340731E-04  0.1198314E+04  0.7818609E-02  0.9114333E-01
       -1   -1    0    0    0  501  0.00000000000E+00  0.00000000000E+00  0.32550990319E+03  0.32550990322E+03  0.50400001928E-02 0. -1.
        1   -1    0    0  501    0  0.00000000000E+00  0.00000000000E+00 -0.11028519962E+04  0.11028519962E+04  0.50400001928E-02 0.  1.
    10030    2    1    2    0    0  0.00000000000E+00  0.00000000000E+00 -0.77734209299E+03  0.14283618994E+04  0.11983142268E+04 0.  0.
        3    1    3    3  502    0  0.46580108046E+03 -0.26941223003E+03 -0.70276441229E+03  0.88511661696E+03  0.10100000352E+00 0.  1.
       -3    1    3    3    0  502 -0.46580108046E+03  0.26941223003E+03 -0.74577680700E+02  0.54324528245E+03  0.10100000352E+00 0. -1.
</event>
<event>
 5   0  0.2204090E-04  0.1199339E+04  0.7818609E-02  0.9113435E-01
       -1   -1    0    0    0  501  0.00000000000E+00  0.00000000000E+00  0.40211304092E+03  0.40211304095E+03  0.50400001928E-02 0. -1.
        1   -1    0    0  501    0  0.00000000000E+00  0.00000000000E+00 -0.89428484916E+03  0.89428484918E+03  0.50400001928E-02 0.  1.
    10030    2    1    2    0    0  0.00000000000E+00  0.00000000000E+00 -0.49217180825E+03  0.12963978901E+04  0.11993391517E+04 0.  0.
        2    1    3    3  502    0 -0.56332551785E+03  0.77899475554E+02 -0.40426588108E+02  0.57012128217E+03  0.25500000920E-02 0. -1.
       -2    1    3    3    0  502  0.56332551785E+03 -0.77899475554E+02 -0.45174522014E+03  0.72627660796E+03  0.25500000920E-02 0.  1.
</event>
<event>
 5   0  0.2204090E-04  0.1204281E+04  0.7818609E-02  0.9109117E-01
        1   -1    0    0  501    0  0.00000000000E+00  0.00000000000E+00  0.88257350875E+03  0.88257350876E+03  0.50400001928E-02 0. -1.
       -1   -1    0    0    0  501  0.00000000000E+00  0.00000000000E+00 -0.41081384851E+03  0.41081384854E+03  0.50400001928E-02 0.  1.
    10030    2    1    2    0    0  0.00000000000E+00  0.00000000000E+00  0.47175966024E+03  0.12933873573E+04  0.12042813953E+04 0.  0.
        2    1    3    3  502    0 -0.16360308008E+03 -0.87190863598E+02 -0.37940097504E+03  0.42227161209E+03  0.25500000920E-02 0.  1.
       -2    1    3    3    0  502  0.16360308008E+03  0.87190863598E+02  0.85116063528E+03  0.87111574522E+03  0.25500000920E-02 0. -1.
</event>
<event>
 5   0  0.3832662E-04  0.1201388E+04  0.7818609E-02  0.9111642E-01
        2   -1    0    0  501    0  0.00000000000E+00  0.00000000000E+00  0.27261014875E+04  0.27261014875E+04  0.25500000920E-02 0.  1.
       -2   -1    0    0    0  501  0.00000000000E+00  0.00000000000E+00 -0.13236243646E+03  0.13236243649E+03  0.25500000920E-02 0. -1.
    10030    2    1    2    0    0  0.00000000000E+00  0.00000000000E+00  0.25937390510E+04  0.28584639239E+04  0.12013882552E+04 0.  0.
        4    1    3    3  502    0  0.16018669274E+03 -0.57737032439E+03  0.11954891433E+04  0.13372405067E+04  0.12699999809E+01 0. -1.
       -4    1    3    3    0  502 -0.16018669274E+03  0.57737032439E+03  0.13982499077E+04  0.15212234173E+04  0.12699999809E+01 0.  1.
</event>
<event>
 5   0  0.2244308E-04  0.1201154E+04  0.7818609E-02  0.9111847E-01
        1   -1    0    0  501    0  0.00000000000E+00  0.00000000000E+00  0.81599278771E+03  0.81599278773E+03  0.50400001928E-02 0. -1.
       -1   -1    0    0    0  501  0.00000000000E+00  0.00000000000E+00 -0.44202902508E+03  0.44202902511E+03  0.50400001928E-02 0.  1.
    10030    2    1    2    0    0  0.00000000000E+00  0.00000000000E+00  0.37396376263E+03  0.12580218128E+04  0.12011536062E+04 0.  0.
        5    1    3    3  502    0  0.42679899861E+03 -0.27419461210E+03  0.52365120189E+03  0.72909035226E+03  0.46999998093E+01 0. -1.
       -5    1    3    3    0  502 -0.42679899861E+03  0.27419461210E+03 -0.14968743926E+03  0.52893146058E+03  0.46999998093E+01 0.  1.
</event>
<event>
 5   0  0.4122956E-04  0.1199424E+04  0.7818609E-02  0.9113361E-01
        2   -1    0    0  501    0  0.00000000000E+00  0.00000000000E+00  0.68576705732E+03  0.68576705732E+03  0.25500000920E-02 0. -1.
       -2   -1    0    0    0  501  0.00000000000E+00  0.00000000000E+00 -0.52445591091E+03  0.52445591091E+03  0.25500000920E-02 0.  1.
    10030    2    1    2    0    0  0.00000000000E+00  0.00000000000E+00  0.16131114641E+03  0.12102229682E+04  0.11994241730E+04 0.  0.
        5    1    3    3  502    0  0.57426223370E+03  0.17175364695E+03  0.61615907033E+02  0.60257367872E+03  0.46999998093E+01 0. -1.
       -5    1    3    3    0  502 -0.57426223370E+03 -0.17175364695E+03  0.99695239378E+02  0.60764928951E+03  0.46999998093E+01 0.  1.
</event>
<event>
 5   0  0.2204090E-04  0.1191557E+04  0.7818609E-02  0.9120279E-01
        1   -1    0    0  501    0  0.00000000000E+00  0.00000000000E+00  0.70130225816E+03  0.70130225817E+03  0.50400001928E-02 0.  1.
       -1   -1    0    0    0  501  0.00000000000E+00  0.00000000000E+00 -0.50613285979E+03  0.50613285982E+03  0.50400001928E-02 0. -1.
    10030    2    1    2    0    0  0.00000000000E+00  0.00000000000E+00  0.19516939836E+03  0.12074351180E+04  0.11915571619E+04 0.  0.
        2    1    3    3  502    0  0.10592413030E+03 -0.29287076781E+03 -0.41707977109E+03  0.52052737053E+03  0.25500000920E-02 0. -1.
       -2    1    3    3    0  502 -0.10592413030E+03  0.29287076781E+03  0.61224916945E+03  0.68690774746E+03  0.25500000920E-02 0.  1.
</event>
<event>
 5   0  0.4024486E-04  0.1190389E+04  0.7818609E-02  0.9121311E-01
       -2   -1    0    0    0  501  0.00000000000E+00  0.00000000000E+00  0.45818227989E+03  0.45818227990E+03  0.25500000920E-02 0. -1.
        2   -1    0    0  501    0  0.00000000000E+00  0.00000000000E+00 -0.77317788339E+03  0.77317788340E+03  0.25500000920E-02 0.  1.
    10030    2    1    2    0    0  0.00000000000E+00  0.00000000000E+00 -0.31499560350E+03  0.12313601633E+04  0.11903888531E+04 0.  0.
        1    1    3    3  502    0  0.99691865005E+02 -0.75793420550E+02  0.44439977904E+03  0.46170799666E+03  0.50400001928E-02 0. -1.
       -1    1    3    3    0  502 -0.99691865005E+02  0.75793420550E+02 -0.75939538254E+03  0.76965216663E+03  0.50400001928E-02 0.  1.
</event>
<event>
 5   0  0.2244308E-04  0.1200719E+04  0.7818609E-02  0.9112227E-01
        1   -1    0    0  501    0  0.00000000000E+00  0.00000000000E+00  0.67227846018E+03  0.67227846020E+03  0.50400001928E-02 0.  1.
       -1   -1    0    0    0  501  0.00000000000E+00  0.00000000000E+00 -0.53613437015E+03  0.53613437017E+03  0.50400001928E-02 0. -1.
    10030    2    1    2    0    0  0.00000000000E+00  0.00000000000E+00  0.13614409003E+03  0.12084128304E+04  0.12007190993E+04 0.  0.
        5    1    3    3  502    0  0.47253615194E+03  0.36552771555E+03  0.84592925605E+01  0.59749023034E+03  0.46999998093E+01 0.  1.
       -5    1    3    3    0  502 -0.47253615194E+03 -0.36552771555E+03  0.12768479747E+03  0.61092260003E+03  0.46999998093E+01 0. -1.
</event>
<event>
 5   0  0.1541375E-04  0.1200379E+04  0.7818609E-02  0.9112525E-01
        4   -1    0    0  501    0  0.00000000000E+00  0.00000000000E+00  0.27981112531E+03  0.27981400742E+03  0.12699999809E+01 0.  1.
       -4   -1    0    0    0  501  0.00000000000E+00  0.00000000000E+00 -0.12873849591E+04  0.12873855855E+04  0.12699999809E+01 0. -1.
    10030    2    1    2    0    0  0.00000000000E+00  0.00000000000E+00 -0.10075738338E+04  0.15671995930E+04  0.12003789125E+04 0.  0.
        4    1    3    3  502    0 -0.39781743415E+01 -0.30706462294E+03 -0.11770464078E+04  0.12164474372E+04  0.12699999809E+01 0. -1.
       -4    1    3    3    0  502  0.39781743415E+01  0.30706462294E+03  0.16947257398E+03  0.35075215575E+03  0.12699999809E+01 0.  1.
</event>
<event>
 5   0  0.3883890E-04  0.1198289E+04  0.7818609E-02  0.9114355E-01
       -2   -1    0    0    0  501  0.00000000000E+00  0.00000000000E+00  0.83679131731E+03  0.83679131731E+03  0.25500000920E-02 0. -1.
        2   -1    0    0  501    0  0.00000000000E+00  0.00000000000E+00 -0.42898891398E+03  0.42898891398E+03  0.25500000920E-02 0.  1.
    10030    2    1    2    0    0  0.00000000000E+00  0.00000000000E+00  0.40780240333E+03  0.12657802313E+04  0.11982891111E+04 0.  0.
        2    1    3    3  502    0  0.20706180357E+03 -0.56216997646E+03  0.19541599523E+03  0.63015639656E+03  0.25500000920E-02 0.  1.
       -2    1    3    3    0  502 -0.20706180357E+03  0.56216997646E+03  0.21238640810E+03  0.63562383473E+03  0.25500000920E-02 0. -1.
</event>
<event>
 5   0  0.3883890E-04  0.1199506E+04  0.7818609E-02  0.9113289E-01
        2   -1    0    0  501    0  0.00000000000E+00  0.00000000000E+00  0.46580958459E+03  0.46580958460E+03  0.25500000920E-02 0. -1.
       -2   -1    0    0    0  501  0.00000000000E+00  0.00000000000E+00 -0.77221147067E+03  0.77221147067E+03  0.25500000920E-02 0.  1.
    10030    2    1    2    0    0  0.00000000000E+00  0.00000000000E+00 -0.30640188608E+03  0.12380210553E+04  0.11995057388E+04 0.  0.
        2    1    3    3  502    0  0.19085417726E+03  0.46506811192E+03 -0.49079669027E+03  0.70256320490E+03  0.25500000920E-02 0.  1.
       -2    1    3    3    0  502 -0.19085417726E+03 -0.46506811192E+03  0.18439480419E+03  0.53545785037E+03  0.25500000920E-02 0. -1.
</event>
<event>
 5   0  0.3832662E-04  0.1200066E+04  0.7818609E-02  0.9112799E-01
       -2   -1    0    0    0  501  0.00000000000E+00  0.00000000000E+00  0.24459665691E+03  0.24459665692E+03  0.25500000920E-02 0. -1.
        2   -1    0    0  501    0  0.00000000000E+00  0.00000000000E+00 -0.14719727699E+04  0.14719727699E+04  0.25500000920E-02 0.  1.
    10030    2    1    2    0    0  0.00000000000E+00  0.00000000000E+00 -0.12273761129E+04  0.17165694268E+04  0.12000660291E+04 0.  0.
        4    1    3    3  502    0 -0.26917482893E+03  0.48168540396E+03 -0.95085540682E+03  0.10993650597E+04  0.12699999809E+01 0.  1.
       -4    1    3    3    0  502  0.26917482893E+03 -0.48168540396E+03 -0.27652070613E+03  0.61720436707E+03  0.12699999809E+01 0. -1.
</event>
<event>
 5   0  0.3883890E-04  0.1199883E+04  0.7818609E-02  0.9112959E-01
       -2   -1    0    0    0  501  0.00000000000E+00  0.00000000000E+00  0.28537015128E+03  0.28537015129E+03  0.25500000920E-02 0. -1.
        2   -1    0    0  501    0  0.00000000000E+00  0.00000000000E+00 -0.12612744127E+04  0.12612744127E+04  0.25500000920E-02 0.  1.
    10030    2    1    2    0    0  0.00000000000E+00  0.00000000000E+00 -0.97590426141E+03  0.15466445640E+04  0.11998834443E+04 0.  0.
        2    1    3    3  502    0  0.11937464132E+03 -0.57670125481E+03 -0.63545867934E+03  0.86639620005E+03  0.25500000920E-02 0. -1.
       -2    1    3    3    0  502 -0.11937464132E+03  0.57670125481E+03 -0.34044558206E+03  0.68024836394E+03  0.25500000920E-02 0.  1.
</event>
<event>
 5   0  0.3883890E-04  0.1197970E+04  0.7818609E-02  0.9114636E-01
       -2   -1    0    0    0  501  0.00000000000E+00  0.00000000000E+00  0.80791761713E+03  0.80791761714E+03  0.25500000920E-02 0.  1.
        2   -1    0    0  501    0  0.00000000000E+00  0.00000000000E+00 -0.44408338698E+03  0.44408338699E+03  0.25500000920E-02 0. -1.
    10030    2    1    2    0    0  0.00000000000E+00  0.00000000000E+00  0.36383423015E+03  0.12520010041E+04  0.11979696020E+04 0.  0.
        2    1    3    3  502    0 -0.53325937537E+03  0.27101991347E+03  0.14944423370E+03  0.61656381171E+03  0.25500000920E-02 0.  1.
       -2    1    3    3    0  502  0.53325937537E+03 -0.27101991347E+03  0.21438999645E+03  0.63543719241E+03  0.25500000920E-02 0. -1.
</event>
<event>
 5   0  0.3993723E-04  0.1192843E+04  0.7818609E-02  0.9119144E-01
       -2   -1    0    0    0  501  0.00000000000E+00  0.00000000000E+00  0.43858758647E+03  0.43858758647E+03  0.25500000920E-02 0.  1.
        2   -1    0    0  501    0  0.00000000000E+00  0.00000000000E+00 -0.81105507937E+03  0.81105507937E+03  0.25500000920E-02 0. -1.
    10030    2    1    2    0    0  0.00000000000E+00  0.00000000000E+00 -0.37246749290E+03  0.12496426658E+04  0.11928431410E+04 0.  0.
        3    1    3    3  502    0 -0.78112172490E+02  0.57539542532E+03 -0.43598970220E+02  0.58230772567E+03  0.10100000352E+00 0.  1.
       -3    1    3    3    0  502  0.78112172490E+02 -0.57539542532E+03 -0.32886852268E+03  0.66733494018E+03  0.10100000352E+00 0. -1.
</event>
<event>
 5   0  0.2204090E-04  0.1199091E+04  0.7818609E-02  0.9113653E-01
       -1   -1    0    0    0  501  0.00000000000E+00  0.00000000000E+00  0.34732405616E+03  0.34732405619E+03  0.50400001928E-02 0. -1.
        1   -1    0    0  501    0  0.00000000000E+00  0.00000000000E+00 -0.10349260122E+04  0.10349260122E+04  0.50400001928E-02 0.  1.
    10030    2    1    2    0    0  0.00000000000E+00  0.00000000000E+00 -0.68760195603E+03  0.13822500684E+04  0.11990908229E+04 0.  0.
        2    1    3    3  502    0  0.52704321281E+03  0.27706783775E+03 -0.26299696748E+03  0.65092898214E+03  0.25500000920E-02 0. -1.
       -2    1    3    3    0  502 -0.52704321281E+03 -0.27706783775E+03 -0.42460498855E+03  0.73132108625E+03  0.25500000920E-02 0.  1.
</event>
<event>
 5   0  0.2315038E-04  0.1199799E+04  0.7818609E-02  0.9113032E-01
       -1   -1    0    0    0  501  0.00000000000E+00  0.00000000000E+00  0.27075061618E+03  0.27075061623E+03  0.50400001928E-02 0. -1.
        1   -1    0    0  501    0  0.00000000000E+00  0.00000000000E+00 -0.13291916875E+04  0.13291916875E+04  0.50400001928E-02 0.  1.
    10030    2    1    2    0    0  0.00000000000E+00  0.00000000000E+00 -0.10584410714E+04  0.15999423038E+04  0.11997990973E+04 0.  0.
        1    1    3    3  502    0 -0.51023844985E+03  0.30634187790E+03 -0.42862372090E+03  0.73342137684E+03  0.50400001928E-02 0. -1.
       -1    1    3    3    0  502  0.51023844985E+03 -0.30634187790E+03 -0.62981735046E+03  0.86652092694E+03  0.50400001928E-02 0.  1.
</event>
<event>
 5   0  0.2340731E-04  0.1196216E+04  0.7818609E-02  0.9116175E-01
        1   -1    0    0  501    0  0.00000000000E+00  0.00000000000E+00  0.97511439768E+03  0.97511439769E+03  0.50400001928E-02 0. -1.
       -1   -1    0    0    0  501  0.00000000000E+00  0.00000000000E+00 -0.36686254364E+03  0.36686254367E+03  0.50400001928E-02 0.  1.
    10030    2    1    2    0    0  0.00000000000E+00  0.00000000000E+00  0.60825185404E+03  0.13419769414E+04  0.11962156132E+04 0.  0.
        3    1    3    3  502    0  0.23606014864E+03  0.56468293464E+02  0.91737983963E+03  0.94894617461E+03  0.10100000352E+00 0. -1.
       -3    1    3    3    0  502 -0.23606014864E+03 -0.56468293464E+02 -0.30912798559E+03  0.39303076676E+03  0.10100000352E+00 0.  1.
</event>
<event>
 5   0  0.1541375E-04  0.1196639E+04  0.7818609E-02  0.9115804E-01
        3   -1    0    0  501    0  0.00000000000E+00  0.00000000000E+00  0.17938489221E+03  0.17938492064E+03  0.10100000352E+00 0. -1.
       -3   -1    0    0    0  501  0.00000000000E+00  0.00000000000E+00 -0.19956309770E+04  0.19956309795E+04  0.10100000352E+00 0.  1.
    10030    2    1    2    0    0  0.00000000000E+00  0.00000000000E+00 -0.18162460848E+04  0.21750159002E+04  0.11966387615E+04 0.  0.
        5    1    3    3  502    0 -0.12144722929E+03 -0.28236243018E+03  0.24869470038E+02  0.30841295696E+03  0.46999998093E+01 0. -1.
       -5    1    3    3    0  502  0.12144722929E+03  0.28236243018E+03 -0.18411155548E+04  0.18666029432E+04  0.46999998093E+01 0.  1.
</event>
<event>
 5   0  0.2204090E-04  0.1198693E+04  0.7818609E-02  0.9114001E-01
        1   -1    0    0  501    0  0.00000000000E+00  0.00000000000E+00  0.88592313170E+03  0.88592313171E+03  0.50400001928E-02 0. -1.
       -1   -1    0    0    0  501  0.00000000000E+00  0.00000000000E+00 -0.40547102728E+03  0.40547102731E+03  0.50400001928E-02 0.  1.
    10030    2    1    2    0    0  0.00000000000E+00  0.00000000000E+00  0.48045210442E+03  0.12913941590E+04  0.11986928920E+04 0.  0.
        2    1    3    3  502    0  0.58815030756E+03  0.74133827143E+02  0.14508109733E+03  0.61029921630E+03  0.25500000920E-02 0.  1.
       -2    1    3    3    0  502 -0.58815030756E+03 -0.74133827143E+02  0.33537100709E+03  0.68109494273E+03  0.25500000920E-02 0. -1.
</event>
<event>
 5   0  0.2315038E-04  0.1196400E+04  0.7818609E-02  0.9116014E-01
        1   -1    0    0  501    0  0.00000000000E+00  0.00000000000E+00  0.68174486515E+03  0.68174486517E+03  0.50400001928E-02 0.  1.
       -1   -1    0    0    0  501  0.00000000000E+00  0.00000000000E+00 -0.52489307503E+03  0.52489307505E+03  0.50400001928E-02 0. -1.
    10030    2    1    2    0    0  0.00000000000E+00  0.00000000000E+00  0.15685179012E+03  0.12066379402E+04  0.11963998641E+04 0.  0.
        1    1    3    3  502    0 -0.32693111658E+03 -0.21203043399E+03 -0.37933285538E+03  0.54381455950E+03  0.50400001928E-02 0. -1.
       -1    1    3    3    0  502  0.32693111658E+03  0.21203043399E+03  0.53618464550E+03  0.66282338072E+03  0.50400001928E-02 0.  1.
</event>
<event>
 5   0  0.3832662E-04  0.1202222E+04  0.7818609E-02  0.9110914E-01
        2   -1    0    0  501    0  0.00000000000E+00  0.00000000000E+00  0.11993679278E+04  0.11993679278E+04  0.25500000920E-02 0.  1.
       -2   -1    0    0    0  501  0.00000000000E+00  0.00000000000E+00 -0.30127049126E+03  0.30127049127E+03  0.25500000920E-02 0. -1.
    10030    2    1    2    0    0  0.00000000000E+00  0.00000000000E+00  0.89809743652E+03  0.15006384191E+04  0.12022215517E+04 0.  0.
        4    1    3    3  502    0  0.24195705201E+02 -0.51901347271E+03  0.82635882461E+03  0.97613059419E+03  0.12699999809E+01 0.  1.
       -4    1    3    3    0  502 -0.24195705201E+02  0.51901347271E+03  0.71738611914E+02  0.52450782487E+03  0.12699999809E+01 0. -1.
</event>
<event>
 5   0  0.3832662E-04  0.1205190E+04  0.7818609E-02  0.9108326E-01
       -2   -1    0    0    0  501  0.00000000000E+00  0.00000000000E+00  0.33330788336E+03  0.33330788337E+03  0.25500000920E-02 0.  1.
        2   -1    0    0  501    0  0.00000000000E+00  0.00000000000E+00 -0.10894450349E+04  0.10894450349E+04  0.25500000920E-02 0. -1.
    10030    2    1    2    0    0  0.00000000000E+00  0.00000000000E+00 -0.75613715156E+03  0.14227529183E+04  0.12051898085E+04 0.  0.
        4    1    3    3  502    0 -0.52593731391E+03  0.32825309393E+01 -0.30870347186E+02  0.52685427246E+03  0.12699999809E+01 0.  1.
       -4    1    3    3    0  502  0.52593731391E+03 -0.32825309393E+01 -0.72526680438E+03  0.89589864583E+03  0.12699999809E+01 0. -1.
</event>
<event>
 5   0  0.3883890E-04  0.1199832E+04  0.7818609E-02  0.9113004E-01
       -2   -1    0    0    0  501  0.00000000000E+00  0.00000000000E+00  0.25308458943E+03  0.25308458944E+03  0.25500000920E-02 0.  1.
        2   -1    0    0  501    0  0.00000000000E+00  0.00000000000E+00 -0.14220512944E+04  0.14220512944E+04  0.25500000920E-02 0. -1.
    10030    2    1    2    0    0  0.00000000000E+00  0.00000000000E+00 -0.11689667050E+04  0.16751358838E+04  0.11998321016E+04 0.  0.
        2    1    3    3  502    0  0.43407371597E+03  0.18214989845E+03 -0.11036917889E+04  0.11998892204E+04  0.25500000920E-02 0. -1.
       -2    1    3    3    0  502 -0.43407371597E+03 -0.18214989845E+03 -0.65274916065E+02  0.47524666341E+03  0.25500000920E-02 0.  1.
</event>
<event>
 5   0  0.2244308E-04  0.1200740E+04  0.7818609E-02  0.9112209E-01
       -1   -1    0    0    0  501  0.00000000000E+00  0.00000000000E+00  0.39289775212E+03  0.39289775215E+03  0.50400001928E-02 0.  1.
        1   -1    0    0  501    0  0.00000000000E+00  0.00000000000E+00 -0.91739972553E+03  0.91739972555E+03  0.50400001928E-02 0. -1.
    10030    2    1    2    0    0  0.00000000000E+00  0.00000000000E+00 -0.52450197341E+03  0.13102974777E+04  0.12007402550E+04 0.  0.
        5    1    3    3  502    0  0.49499844209E+03  0.33641956419E+03 -0.31367404170E+03  0.67573299111E+03  0.46999998093E+01 0.  1.
       -5    1    3    3    0  502 -0.49499844209E+03 -0.33641956419E+03 -0.21082793171E+03  0.63456448658E+03  0.46999998093E+01 0. -1.
</event>
<event>
 5   0  0.2304842E-04  0.1194044E+04  0.7818609E-02  0.9118086E-01
       -1   -1    0    0    0  501  0.00000000000E+00  0.00000000000E+00  0.30092103934E+03  0.30092103938E+03  0.50400001928E-02 0. -1.
        1   -1    0    0  501    0  0.00000000000E+00  0.00000000000E+00 -0.11844815728E+04  0.11844815728E+04  0.50400001928E-02 0.  1.
    10030    2    1    2    0    0  0.00000000000E+00  0.00000000000E+00 -0.88356053343E+03  0.14854026122E+04  0.11940442638E+04 0.  0.
        4    1    3    3  502    0 -0.79872929923E+02 -0.54608112623E+03 -0.72504739252E+03  0.91119680402E+03  0.12699999809E+01 0.  1.
       -4    1    3    3    0  502  0.79872929923E+02  0.54608112623E+03 -0.15851314091E+03  0.57420580814E+03  0.12699999809E+01 0. -1.
</event>
<event>
 5   0  0.2340731E-04  0.1203066E+04  0.7818609E-02  0.9110177E-01
       -1   -1    0    0    0  501  0.00000000000E+00  0.00000000000E+00  0.12004971950E+04  0.12004971951E+04  0.50400001928E-02 0.  1.
        1   -1    0    0  501    0  0.00000000000E+00  0.00000000000E+00 -0.30141025827E+03  0.30141025831E+03  0.50400001928E-02 0. -1.
    10030    2    1    2    0    0  0.00000000000E+00  0.00000000000E+00  0.89908693678E+03  0.15019074534E+04  0.12030663650E+04 0.  0.
        3    1    3    3  502    0 -0.58002433039E+03 -0.46143031968E+02  0.25904590065E+03  0.63691615782E+03  0.10100000352E+00 0. -1.
       -3    1    3    3    0  502  0.58002433039E+03  0.46143031968E+02  0.64004103613E+03  0.86499129555E+03  0.10100000352E+00 0.  1.
</event>
<event>
 5   0  0.1541375E-04  0.1199741E+04  0.7818609E-02  0.9113083E-01
        3   -1    0    0  501    0  0.00000000000E+00  0.00000000000E+00  0.37642946262E+03  0.37642947617E+03  0.10100000352E+00 0. -1.
       -3   -1    0    0    0  501  0.00000000000E+00  0.00000000000E+00 -0.95594169744E+03  0.95594170278E+03  0.10100000352E+00 0.  1.
    10030    2    1    2    0    0  0.00000000000E+00  0.00000000000E+00 -0.57951223482E+03  0.13323711789E+04  0.11997410255E+04 0.  0.
        3    1    3    3  502    0 -0.47488053983E+03  0.35208099264E+03 -0.17665408061E+03  0.61699208008E+03  0.10100000352E+00 0. -1.
       -3    1    3    3    0  502  0.47488053983E+03 -0.35208099264E+03 -0.40285815421E+03  0.71537909887E+03  0.10100000352E+00 0.  1.
</event>
<event>
 5   0  0.2304842E-04  0.1200863E+04  0.7818609E-02  0.9112101E-01
        1   -1    0    0  501    0  0.00000000000E+00  0.00000000000E+00  0.14009683258E+04  0.14009683258E+04  0.50400001928E-02 0.  1.
       -1   -1    0    0    0  501  0.00000000000E+00  0.00000000000E+00 -0.25733500074E+03  0.25733500079E+03  0.50400001928E-02 0. -1.
    10030    2    1    2    0    0  0.00000000000E+00  0.00000000000E+00  0.11436333250E+04  0.16583033266E+04  0.12008633315E+04 0.  0.
        4    1    3    3  502    0 -0.47873841343E+03 -0.33567141391E+03  0.38322643393E+03  0.69909218217E+03  0.12699999809E+01 0. -1.
       -4    1    3    3    0  502  0.47873841343E+03  0.33567141391E+03  0.76040689112E+03  0.95921114442E+03  0.12699999809E+01 0.  1.
</event>
<event>
 5   0  0.2204090E-04  0.1200224E+04  0.7818609E-02  0.9112660E-01
        1   -1    0    0  501    0  0.00000000000E+00  0.00000000000E+00  0.50523740853E+03  0.50523740855E+03  0.50400001928E-02 0. -1.
       -1   -1    0    0    0  501  0.00000000000E+00  0.00000000000E+00 -0.71280250788E+03  0.71280250790E+03  0.50400001928E-02 0.  1.
    10030    2    1    2    0    0  0.00000000000E+00  0.00000000000E+00 -0.20756509936E+03  0.12180399165E+04  0.12002241322E+04 0.  0.
        2    1    3    3  502    0 -0.82911805291E+02  0.56735834101E+03 -0.28351202281E+03  0.63964749797E+03  0.25500000920E-02 0.  1.
       -2    1    3    3    0  502  0.82911805291E+02 -0.56735834101E+03  0.75946923449E+02  0.57839241849E+03  0.25500000920E-02 0. -1.
</event>
<event>
 5   0  0.4024486E-04  0.1217479E+04  0.7818609E-02  0.9097693E-01
       -2   -1    0    0    0  501  0.00000000000E+00  0.00000000000E+00  0.13659366433E+03  0.13659366435E+03  0.25500000920E-02 0. -1.
        2   -1    0    0  501    0  0.00000000000E+00  0.00000000000E+00 -0.27128925400E+04  0.27128925400E+04  0.25500000920E-02 0.  1.
    10030    2    1    2    0    0  0.00000000000E+00  0.00000000000E+00 -0.25762988757E+04  0.28494862044E+04  0.12174792532E+04 0.  0.
        1    1    3    3  502    0 -0.17285849576E+03 -0.19249522488E+03  0.15156530588E+01  0.25872141076E+03  0.50400001928E-02 0. -1.
       -1    1    3    3    0  502  0.17285849576E+03  0.19249522488E+03 -0.25778145288E+04  0.25907647936E+04  0.50400001928E-02 0.  1.
</event>
<event>
 5   0  0.3883890E-04  0.1200861E+04  0.7818609E-02  0.9112103E-01
       -2   -1    0    0    0  501  0.00000000000E+00  0.00000000000E+00  0.29416584212E+03  0.29416584213E+03  0.25500000920E-02 0. -1.
        2   -1    0    0  501    0  0.00000000000E+00  0.00000000000E+00 -0.12255562314E+04  0.12255562314E+04  0.25500000920E-02 0.  1.
    10030    2    1    2    0    0  0.00000000000E+00  0.00000000000E+00 -0.93139038932E+03  0.15197220736E+04  0.12008609926E+04 0.  0.
        2    1    3    3  502    0  0.96797268043E+02 -0.35276317925E+03  0.13686742057E+03  0.39056915208E+03  0.25500000920E-02 0. -1.
       -2    1    3    3    0  502 -0.96797268043E+02  0.35276317925E+03 -0.10682578099E+04  0.11291529215E+04  0.25500000920E-02 0.  1.
</event>
<event>
 5   0  0.3993723E-04  0.1201496E+04  0.7818609E-02  0.9111548E-01
       -2   -1    0    0    0  501  0.00000000000E+00  0.00000000000E+00  0.10659918175E+04  0.10659918175E+04  0.25500000920E-02 0.  1.
        2   -1    0    0  501    0  0.00000000000E+00  0.00000000000E+00 -0.33855616921E+03  0.33855616922E+03  0.25500000920E-02 0. -1.
    10030    2    1    2    0    0  0.00000000000E+00  0.00000000000E+00  0.72743564831E+03  0.14045479867E+04  0.12014959112E+04 0.  0.
        3    1    3    3  502    0  0.52776142559E+03  0.15878419168E+03  0.64318828136E+03  0.84701577160E+03  0.10100000352E+00 0.  1.
       -3    1    3    3    0  502 -0.52776142559E+03 -0.15878419168E+03  0.84247366955E+02  0.55753221513E+03  0.10100000352E+00 0. -1.
</event>
<event>
 5   0  0.4122956E-04  0.1202032E+04  0.7818609E-02  0.9111080E-01
        2   -1    0    0  501    0  0.00000000000E+00  0.00000000000E+00  0.52387022402E+03  0.52387022403E+03  0.25500000920E-02 0. -1.
       -2   -1    0    0    0  501  0.00000000000E+00  0.00000000000E+00 -0.68952221051E+03  0.68952221051E+03  0.25500000920E-02 0.  1.
    10030    2    1    2    0    0  0.00000000000E+00  0.00000000000E+00 -0.16565198649E+03  0.12133924345E+04  0.12020318713E+04 0.  0.
        5    1    3    3  502    0  0.31505218756E+03  0.45198180462E+03 -0.32520492688E+03  0.63978571964E+03  0.46999998093E+01 0.  1.
       -5    1    3    3    0  502 -0.31505218756E+03 -0.45198180462E+03  0.15955294040E+03  0.57360671490E+03  0.46999998093E+01 0. -1.
</event>
<event>
 5   0  0.2244308E-04  0.1201969E+04  0.7818609E-02  0.9111134E-01
        1   -1    0    0  501    0  0.00000000000E+00  0.00000000000E+00  0.16599215480E+04  0.16599215480E+04  0.50400001928E-02 0.  1.
       -1   -1    0    0    0  501  0.00000000000E+00  0.00000000000E+00 -0.21759018839E+03  0.21759018845E+03  0.50400001928E-02 0. -1.
    10030    2    1    2    0    0  0.00000000000E+00  0.00000000000E+00  0.14423313596E+04  0.18775117365E+04  0.12019694545E+04 0.  0.
        5    1    3    3  502    0  0.46476216879E+03  0.32515939676E+03  0.41100134742E+03  0.70048319353E+03  0.46999998093E+01 0.  1.
       -5    1    3    3    0  502 -0.46476216879E+03 -0.32515939676E+03  0.10313300122E+04  0.11770285430E+04  0.46999998093E+01 0. -1.
</event>
<event>
 5   0  0.2204090E-04  0.1203707E+04  0.7818609E-02  0.9109618E-01
        1   -1    0    0  501    0  0.00000000000E+00  0.00000000000E+00  0.16603546486E+04  0.16603546486E+04  0.50400001928E-02 0.  1.
       -1   -1    0    0    0  501  0.00000000000E+00  0.00000000000E+00 -0.21816292249E+03  0.21816292255E+03  0.50400001928E-02 0. -1.
    10030    2    1    2    0    0  0.00000000000E+00  0.00000000000E+00  0.14421917261E+04  0.18785175711E+04  0.12037073109E+04 0.  0.
        2    1    3    3  502    0  0.77535628511E+02  0.50777409324E+03  0.12105940927E+04  0.13150605921E+04  0.25500000920E-02 0.  1.
       -2    1    3    3    0  502 -0.77535628511E+02 -0.50777409324E+03  0.23159763332E+03  0.56345697904E+03  0.25500000920E-02 0. -1.
</event>
<event>
 5   0  0.2244308E-04  0.1198563E+04  0.7818609E-02  0.9114115E-01
       -1   -1    0    0    0  501  0.00000000000E+00  0.00000000000E+00  0.53619040897E+03  0.53619040900E+03  0.50400001928E-02 0. -1.
        1   -1    0    0  501    0  0.00000000000E+00  0.00000000000E+00 -0.66979630292E+03  0.66979630294E+03  0.50400001928E-02 0.  1.
    10030    2    1    2    0    0  0.00000000000E+00  0.00000000000E+00 -0.13360589395E+03  0.12059867119E+04  0.11985630624E+04 0.  0.
        5    1    3    3  502    0  0.11829650046E+03  0.51159120171E+03 -0.35737639055E+03  0.63518469299E+03  0.46999998093E+01 0.  1.
       -5    1    3    3    0  502 -0.11829650046E+03 -0.51159120171E+03  0.22377049661E+03  0.57080201895E+03  0.46999998093E+01 0. -1.
</event>
<event>
 5   0  0.3883890E-04  0.1199445E+04  0.7818609E-02  0.9113342E-01
        2   -1    0    0  501    0  0.00000000000E+00  0.00000000000E+00  0.71101197623E+03  0.71101197624E+03  0.25500000920E-02 0. -1.
       -2   -1    0    0    0  501  0.00000000000E+00  0.00000000000E+00 -0.50585249052E+03  0.50585249053E+03  0.25500000920E-02 0.  1.
    10030    2    1    2    0    0  0.00000000000E+00  0.00000000000E+00  0.20515948571E+03  0.12168644668E+04  0.11994451700E+04 0.  0.
        2    1    3    3  502    0 -0.15362668708E+03 -0.30242465413E+02  0.68990994926E+03  0.70745424149E+03  0.25500000920E-02 0. -1.
       -2    1    3    3    0  502  0.15362668708E+03  0.30242465413E+02 -0.48475046355E+03  0.50941022528E+03  0.25500000920E-02 0.  1.
</event>
<event>
 5   0  0.4024486E-04  0.1199609E+04  0.7818609E-02  0.9113199E-01
       -2   -1    0    0    0  501  0.00000000000E+00  0.00000000000E+00  0.96101951678E+03  0.96101951679E+03  0.25500000920E-02 0. -1.
        2   -1    0    0  501    0  0.00000000000E+00  0.00000000000E+00 -0.37435799569E+03  0.37435799570E+03  0.25500000920E-02 0.  1.
    10030    2    1    2    0    0  0.00000000000E+00  0.00000000000E+00  0.58666152109E+03  0.13353775125E+04  0.11996088365E+04 0.  0.
        1    1    3    3  502    0 -0.36821560361E+03  0.42110057277E+03  0.52367263480E+02  0.56182804615E+03  0.50400001928E-02 0.  1.
       -1    1    3    3    0  502  0.36821560361E+03 -0.42110057277E+03  0.53429425761E+03  0.77354946634E+03  0.50400001928E-02 0. -1.
</event>
<event>
 5   0  0.4024486E-04  0.1200018E+04  0.7818609E-02  0.9112841E-01
        2   -1    0    0  501    0  0.00000000000E+00  0.00000000000E+00  0.59936193066E+03  0.59936193066E+03  0.25500000920E-02 0. -1.
       -2   -1    0    0    0  501  0.00000000000E+00  0.00000000000E+00 -0.60065673381E+03  0.60065673381E+03  0.25500000920E-02 0.  1.
    10030    2    1    2    0    0  0.00000000000E+00  0.00000000000E+00 -0.12948031508E+01  0.12000186645E+04  0.12000179659E+04 0.  0.
        1    1    3    3  502    0 -0.25888038723E+03 -0.20476256043E+03 -0.50171058209E+03  0.60054997232E+03  0.50400001928E-02 0.  1.
       -1    1    3    3    0  502  0.25888038723E+03  0.20476256043E+03  0.50041577893E+03  0.59946869216E+03  0.50400001928E-02 0. -1.
</event>
<event>
 5   0  0.3993723E-04  0.1197485E+04  0.7818609E-02  0.9115061E-01
       -2   -1    0    0    0  501  0.00000000000E+00  0.00000000000E+00  0.57335862446E+03  0.57335862447E+03  0.25500000920E-02 0.  1.
        2   -1    0    0  501    0  0.00000000000E+00  0.00000000000E+00 -0.62524967846E+03  0.62524967846E+03  0.25500000920E-02 0. -1.
    10030    2    1    2    0    0  0.00000000000E+00  0.00000000000E+00 -0.51891053993E+02  0.11986083029E+04  0.11974845228E+04 0.  0.
        3    1    3    3  502    0  0.49171068422E+03 -0.24190142812E+03 -0.26741160741E+03  0.60975788300E+03  0.10100000352E+00 0. -1.
       -3    1    3    3    0  502 -0.49171068422E+03  0.24190142812E+03  0.21552055341E+03  0.58885041993E+03  0.10100000352E+00 0.  1.
</event>
<event>
 5   0  0.2304842E-04  0.1200909E+04  0.7818609E-02  0.9112061E-01
       -1   -1    0    0    0  501  0.00000000000E+00  0.00000000000E+00  0.26366798265E+03  0.26366798270E+03  0.50400001928E-02 0.  1.
        1   -1    0    0  501    0  0.00000000000E+00  0.00000000000E+00 -0.13674221990E+04  0.13674221990E+04  0.50400001928E-02 0. -1.
    10030    2    1    2    0    0  0.00000000000E+00  0.00000000000E+00 -0.11037542163E+04  0.16310901817E+04  0.12009087437E+04 0.  0.
        4    1    3    3  502    0  0.18860256421E+03  0.56759843499E+03 -0.47994398539E+03  0.76686814554E+03  0.12699999809E+01 0. -1.
       -4    1    3    3    0  502 -0.18860256421E+03 -0.56759843499E+03 -0.62381023094E+03  0.86422203614E+03  0.12699999809E+01 0.  1.
</event>
<event>
 5   0  0.4024486E-04  0.1194773E+04  0.7818609E-02  0.9117444E-01
        2   -1    0    0  501    0  0.00000000000E+00  0.00000000000E+00  0.13442311462E+04  0.13442311462E+04  0.25500000920E-02 0. -1.
       -2   -1    0    0    0  501  0.00000000000E+00  0.00000000000E+00 -0.26548320961E+03  0.26548320963E+03  0.25500000920E-02 0.  1.
    10030    2    1    2    0    0  0.00000000000E+00  0.00000000000E+00  0.10787479366E+04  0.16097143558E+04  0.11947732825E+04 0.  0.
        1    1    3    3  502    0  0.57094273113E+03 -0.13674983743E+02  0.77547095084E+03  0.96307725704E+03  0.50400001928E-02 0. -1.
       -1    1    3    3    0  502 -0.57094273113E+03  0.13674983743E+02  0.30327698574E+03  0.64663709878E+03  0.50400001928E-02 0.  1.
</event>
<event>
 5   0  0.2204090E-04  0.1200456E+04  0.7818609E-02  0.9112457E-01
        1   -1    0    0  501    0  0.00000000000E+00  0.00000000000E+00  0.86139483619E+03  0.86139483620E+03  0.50400001928E-02 0.  1.
       -1   -1    0    0    0  501  0.00000000000E+00  0.00000000000E+00 -0.41824483984E+03  0.41824483987E+03  0.50400001928E-02 0. -1.
    10030    2    1    2    0    0  0.00000000000E+00  0.00000000000E+00  0.44314999634E+03  0.12796396761E+04  0.12004564887E+04 0.  0.
        2    1    3    3  502    0 -0.15942236925E+03 -0.43324008749E+03 -0.18734499736E+03  0.49820739985E+03  0.25500000920E-02 0. -1.
       -2    1    3    3    0  502  0.15942236925E+03  0.43324008749E+03  0.63049499371E+03  0.78143227622E+03  0.25500000920E-02 0.  1.
</event>
<event>
 5   0  0.4122956E-04  0.1199646E+04  0.7818609E-02  0.9113166E-01
       -2   -1    0    0    0  501  0.00000000000E+00  0.00000000000E+00  0.67284015302E+03  0.67284015302E+03  0.25500000920E-02 0.  1.
        2   -1    0    0  501    0  0.00000000000E+00  0.00000000000E+00 -0.53472970017E+03  0.53472970018E+03  0.25500000920E-02 0. -1.
    10030    2    1    2    0    0  0.00000000000E+00  0.00000000000E+00  0.13811045285E+03  0.12075698532E+04  0.11996459699E+04 0.  0.
        5    1    3    3  502    0 -0.37812787128E+03 -0.36382113876E+03  0.36152386527E+03  0.63723473163E+03  0.46999998093E+01 0.  1.
       -5    1    3    3    0  502  0.37812787128E+03  0.36382113876E+03 -0.22341341242E+03  0.57033512157E+03  0.46999998093E+01 0. -1.
</event>
<event>
 5   0  0.3993723E-04  0.1196082E+04  0.7818609E-02  0.9116293E-01
       -2   -1    0    0    0  501  0.00000000000E+00  0.00000000000E+00  0.30182399734E+03  0.30182399735E+03  0.25500000920E-02 0. -1.
        2   -1    0    0  501    0  0.00000000000E+00  0.00000000000E+00 -0.11849726188E+04  0.11849726188E+04  0.25500000920E-02 0.  1.
    10030    2    1    2    0    0  0.00000000000E+00  0.00000000000E+00 -0.88314862148E+03  0.14867966162E+04  0.11960822255E+04 0.  0.
        3    1    3    3  502    0 -0.46453916180E+03 -0.28632030650E+03 -0.13740085542E+03  0.56272102860E+03  0.10100000352E+00 0. -1.
       -3    1    3    3    0  502  0.46453916180E+03  0.28632030650E+03 -0.74574776607E+03  0.92407558757E+03  0.10100000352E+00 0.  1.
</event>
<event>
 5   0  0.2204090E-04  0.1200307E+04  0.7818609E-02  0.9112588E-01
       -1   -1    0    0    0  501  0.00000000000E+00  0.00000000000E+00  0.44728134896E+03  0.44728134899E+03  0.50400001928E-02 0.  1.
        1   -1    0    0  501    0  0.00000000000E+00  0.00000000000E+00 -0.80527394392E+03  0.80527394393E+03  0.50400001928E-02 0. -1.
    10030    2    1    2    0    0  0.00000000000E+00  0.00000000000E+00 -0.35799259496E+03  0.12525552929E+04  0.12003066541E+04 0.  0.
        2    1    3    3  502    0 -0.37310632571E+03  0.20604191330E+03  0.26191484089E+03  0.50026091613E+03  0.25500000920E-02 0.  1.
       -2    1    3    3    0  502  0.37310632571E+03 -0.20604191330E+03 -0.61990743585E+03  0.75229437679E+03  0.25500000920E-02 0. -1.
</event>
<event>
 5   0  0.2204090E-04  0.1200399E+04  0.7818609E-02  0.9112507E-01
       -1   -1    0    0    0  501  0.00000000000E+00  0.00000000000E+00  0.11559675022E+04  0.11559675022E+04  0.50400001928E-02 0.  1.
        1   -1    0    0  501    0  0.00000000000E+00  0.00000000000E+00 -0.31163470913E+03  0.31163470917E+03  0.50400001928E-02 0. -1.
    10030    2    1    2    0    0  0.00000000000E+00  0.00000000000E+00  0.84433279306E+03  0.14676022114E+04  0.12003992608E+04 0.  0.
        2    1    3    3  502    0  0.18696873271E+03 -0.41725172592E+03  0.89753941621E+03  0.10072900841E+04  0.25500000920E-02 0.  1.
       -2    1    3    3    0  502 -0.18696873271E+03  0.41725172592E+03 -0.53206623149E+02  0.46031212731E+03  0.25500000920E-02 0. -1.
</event>
<event>
 5   0  0.1541375E-04  0.1196540E+04  0.7818609E-02  0.9115890E-01
       -3   -1    0    0    0  501  0.00000000000E+00  0.00000000000E+00  0.11088639102E+04  0.11088639148E+04  0.10100000352E+00 0.  1.
        3   -1    0    0  501    0  0.00000000000E+00  0.00000000000E+00 -0.32278728547E+03  0.32278730127E+03  0.10100000352E+00 0. -1.
    10030    2    1    2    0    0  0.00000000000E+00  0.00000000000E+00  0.78607662474E+03  0.14316512161E+04  0.11965403230E+04 0.  0.
        5    1    3    3  502    0 -0.18474511253E+03  0.50946898779E+03  0.89837427455E+02  0.54934712113E+03  0.46999998093E+01 0. -1.
       -5    1    3    3    0  502  0.18474511253E+03 -0.50946898779E+03  0.69623919728E+03  0.88230409495E+03  0.46999998093E+01 0.  1.
</event>
<event>
 5   0  0.2244308E-04  0.1203310E+04  0.7818609E-02  0.9109964E-01
       -1   -1    0    0    0  501  0.00000000000E+00  0.00000000000E+00  0.32762532083E+03  0.32762532086E+03  0.50400001928E-02 0.  1.
        1   -1    0    0  501    0  0.00000000000E+00  0.00000000000E+00 -0.11048863279E+04  0.11048863279E+04  0.50400001928E-02 0. -1.
    10030    2    1    2    0    0  0.00000000000E+00  0.00000000000E+00 -0.77726100704E+03  0.14325116487E+04  0.12033099978E+04 0.  0.
        5    1    3    3  502    0  0.40505532562E+03 -0.25959657963E+03 -0.81869799900E+03  0.94960449900E+03  0.46999998093E+01 0. -1.
       -5    1    3    3    0  502 -0.40505532562E+03  0.25959657963E+03  0.41436991959E+02  0.48290714974E+03  0.46999998093E+01 0.  1.
</event>
<event>
 5   0  0.3883890E-04  0.1202221E+04  0.7818609E-02  0.9110915E-01
        2   -1    0    0  501    0  0.00000000000E+00  0.00000000000E+00  0.10125854108E+04  0.10125854108E+04  0.25500000920E-02 0.  1.
       -2   -1    0    0    0  501  0.00000000000E+00  0.00000000000E+00 -0.35684269468E+03  0.35684269469E+03  0.25500000920E-02 0. -1.
    10030    2    1    2    0    0  0.00000000000E+00  0.00000000000E+00  0.65574271612E+03  0.13694281055E+04  0.12022207894E+04 0.  0.
        2    1    3    3  502    0 -0.23973207601E+03  0.33133717533E+03 -0.17394297491E+03  0.44442316608E+03  0.25500000920E-02 0. -1.
       -2    1    3    3    0  502  0.23973207601E+03 -0.33133717533E+03  0.82968569103E+03  0.92500493941E+03  0.25500000920E-02 0.  1.
</event>
<event>
 5   0  0.3883890E-04  0.1199355E+04  0.7818609E-02  0.9113421E-01
       -2   -1    0    0    0  501  0.00000000000E+00  0.00000000000E+00  0.64589610870E+03  0.64589610871E+03  0.25500000920E-02 0.  1.
        2   -1    0    0  501    0  0.00000000000E+00  0.00000000000E+00 -0.55676626604E+03  0.55676626605E+03  0.25500000920E-02 0. -1.
    10030    2    1    2    0    0  0.00000000000E+00  0.00000000000E+00  0.89129842663E+02  0.12026623748E+04  0.11993551012E+04 0.  0.
        2    1    3    3  502    0  0.29441700767E+03  0.29448810265E+03  0.47727373782E+03  0.63339942992E+03  0.25500000920E-02 0.  1.
       -2    1    3    3    0  502 -0.29441700767E+03 -0.29448810265E+03 -0.38814389515E+03  0.56926294483E+03  0.25500000920E-02 0. -1.
</event>
<event>
 5   0  0.2340731E-04  0.1196841E+04  0.7818609E-02  0.9115626E-01
       -1   -1    0    0    0  501  0.00000000000E+00  0.00000000000E+00  0.65988931724E+03  0.65988931726E+03  0.50400001928E-02 0.  1.
        1   -1    0    0  501    0  0.00000000000E+00  0.00000000000E+00 -0.54267737582E+03  0.54267737584E+03  0.50400001928E-02 0. -1.
    10030    2    1    2    0    0  0.00000000000E+00  0.00000000000E+00  0.11721194142E+03  0.12025666931E+04  0.11968408466E+04 0.  0.
        3    1    3    3  502    0  0.55971004126E+03 -0.20810479690E+03  0.97831899852E+02  0.60510662499E+03  0.10100000352E+00 0.  1.
       -3    1    3    3    0  502 -0.55971004126E+03  0.20810479690E+03  0.19380041565E+02  0.59746006811E+03  0.10100000352E+00 0. -1.
</event>
<event>
 5   0  0.3832662E-04  0.1181257E+04  0.7818609E-02  0.9129423E-01
       -2   -1    0    0    0  501  0.00000000000E+00  0.00000000000E+00  0.25276555171E+03  0.25276555172E+03  0.25500000920E-02 0.  1.
        2   -1    0    0  501    0  0.00000000000E+00  0.00000000000E+00 -0.13801001416E+04  0.13801001416E+04  0.25500000920E-02 0. -1.
    10030    2    1    2    0    0  0.00000000000E+00  0.00000000000E+00 -0.11273345899E+04  0.16328656934E+04  0.11812565745E+04 0.  0.
        4    1    3    3  502    0  0.20005418002E+03  0.53143633876E+03 -0.33909403675E+03  0.66138690323E+03  0.12699999809E+01 0.  1.
       -4    1    3    3    0  502 -0.20005418002E+03 -0.53143633876E+03 -0.78824055318E+03  0.97147879013E+03  0.12699999809E+01 0. -1.
</event>
<event>
 5   0  0.2315038E-04  0.1201549E+04  0.7818609E-02  0.9111501E-01
       -1   -1    0    0    0  501  0.00000000000E+00  0.00000000000E+00  0.59587709145E+03  0.59587709147E+03  0.50400001928E-02 0.  1.
        1   -1    0    0  501    0  0.00000000000E+00  0.00000000000E+00 -0.60571255666E+03  0.60571255668E+03  0.50400001928E-02 0. -1.
    10030    2    1    2    0    0  0.00000000000E+00  0.00000000000E+00 -0.98354652138E+01  0.12015896481E+04  0.12015493940E+04 0.  0.
        1    1    3    3  502    0  0.51215225197E+03  0.31208219543E+03 -0.40061627750E+02  0.60108249013E+03  0.50400001928E-02 0. -1.
       -1    1    3    3    0  502 -0.51215225197E+03 -0.31208219543E+03  0.30226162536E+02  0.60050715802E+03  0.50400001928E-02 0.  1.
</event>
<event>
 5   0  0.3883890E-04  0.1235174E+04  0.7818609E-02  0.9082614E-01
       -2   -1    0    0    0  501  0.00000000000E+00  0.00000000000E+00  0.46354064627E+03  0.46354064628E+03  0.25500000920E-02 0.  1.
        2   -1    0    0  501    0  0.00000000000E+00  0.00000000000E+00 -0.82282730030E+03  0.82282730031E+03  0.25500000920E-02 0. -1.
    10030    2    1    2    0    0  0.00000000000E+00  0.00000000000E+00 -0.35928665403E+03  0.12863679466E+04  0.12351743174E+04 0.  0.
        2    1    3    3  502    0  0.10121845547E+03  0.31908495862E+03  0.36085988387E+03  0.49221970942E+03  0.25500000920E-02 0.  1.
       -2    1    3    3    0  502 -0.10121845547E+03 -0.31908495862E+03 -0.72014653790E+03  0.79414823717E+03  0.25500000920E-02 0. -1.
</event>
<event>
 5   0  0.2340731E-04  0.1206731E+04  0.7818609E-02  0.9106985E-01
        1   -1    0    0  501    0  0.00000000000E+00  0.00000000000E+00  0.12269052949E+04  0.12269052949E+04  0.50400001928E-02 0. -1.
       -1   -1    0    0    0  501  0.00000000000E+00  0.00000000000E+00 -0.29672228646E+03  0.29672228650E+03  0.50400001928E-02 0.  1.
    10030    2    1    2    0    0  0.00000000000E+00  0.00000000000E+00  0.93018300843E+03  0.15236275814E+04  0.12067313610E+04 0.  0.
        3    1    3    3  502    0 -0.70796438000E+01 -0.20007802197E+03 -0.25356244853E+03  0.32307160466E+03  0.10100000352E+00 0.  1.
       -3    1    3    3    0  502  0.70796438000E+01  0.20007802197E+03  0.11837454570E+04  0.12005559768E+04  0.10100000352E+00 0. -1.
</event>
<event>
 5   0  0.4024486E-04  0.1199785E+04  0.7818609E-02  0.9113045E-01
        2   -1    0    0  501    0  0.00000000000E+00  0.00000000000E+00  0.98837805061E+03  0.98837805061E+03  0.25500000920E-02 0.  1.
       -2   -1    0    0    0  501  0.00000000000E+00  0.00000000000E+00 -0.36410238910E+03  0.36410238911E+03  0.25500000920E-02 0. -1.
    10030    2    1    2    0    0  0.00000000000E+00  0.00000000000E+00  0.62427566151E+03  0.13524804397E+04  0.11997846633E+04 0.  0.
        1    1    3    3  502    0  0.36378427297E+03  0.43861285559E+03  0.10079189300E+03  0.57868751505E+03  0.50400001928E-02 0. -1.
       -1    1    3    3    0  502 -0.36378427297E+03 -0.43861285559E+03  0.52348376851E+03  0.77379292467E+03  0.50400001928E-02 0.  1.
</event>
<event>
 5   0  0.4122956E-04  0.1202875E+04  0.7818609E-02  0.9110343E-01
       -2   -1    0    0    0  501  0.00000000000E+00  0.00000000000E+00  0.50378702673E+03  0.50378702674E+03  0.25500000920E-02 0. -1.
        2   -1    0    0  501    0  0.00000000000E+00  0.00000000000E+00 -0.71801626479E+03  0.71801626479E+03  0.25500000920E-02 0.  1.
    10030    2    1    2    0    0  0.00000000000E+00  0.00000000000E+00 -0.21422923805E+03  0.12218032915E+04  0.12028753538E+04 0.  0.
        5    1    3    3  502    0 -0.78546880249E+02 -0.18293370356E+03  0.46932837489E+03  0.50982895737E+03  0.46999998093E+01 0. -1.
       -5    1    3    3    0  502  0.78546880249E+02  0.18293370356E+03 -0.68355761294E+03  0.71197433416E+03  0.46999998093E+01 0.  1.
</event>
<event>
 5   0  0.2315038E-04  0.1194200E+04  0.7818609E-02  0.9117948E-01
       -1   -1    0    0    0  501  0.00000000000E+00  0.00000000000E+00  0.21015070360E+03  0.21015070366E+03  0.50400001928E-02 0.  1.
        1   -1    0    0  501    0  0.00000000000E+00  0.00000000000E+00 -0.16965372766E+04  0.16965372766E+04  0.50400001928E-02 0. -1.
    10030    2    1    2    0    0  0.00000000000E+00  0.00000000000E+00 -0.14863865730E+04  0.19066879803E+04  0.11942001548E+04 0.  0.
        1    1    3    3  502    0  0.31662232495E+03  0.49250193893E+03 -0.55617254111E+03  0.80754922576E+03  0.50400001928E-02 0.  1.
       -1    1    3    3    0  502 -0.31662232495E+03 -0.49250193893E+03 -0.93021403189E+03  0.10991387545E+04  0.50400001928E-02 0. -1.
</event>
<event>
 5   0  0.2204090E-04  0.1198523E+04  0.7818609E-02  0.9114151E-01
       -1   -1    0    0    0  501  0.00000000000E+00  0.00000000000E+00  0.41664988044E+03  0.41664988047E+03  0.50400001928E-02 0.  1.
        1   -1    0    0  501    0  0.00000000000E+00  0.00000000000E+00 -0.86190878316E+03  0.86190878318E+03  0.50400001928E-02 0. -1.
    10030    2    1    2    0    0  0.00000000000E+00  0.00000000000E+00 -0.44525890272E+03  0.12785586637E+04  0.11985227432E+04 0.  0.
        2    1    3    3  502    0 -0.16635349939E+02 -0.31063121308E+03 -0.76903029337E+03  0.82956378750E+03  0.25500000920E-02 0. -1.
       -2    1    3    3    0  502  0.16635349939E+02  0.31063121308E+03  0.32377139065E+03  0.44899487615E+03  0.25500000920E-02 0.  1.
</event>
<event>
 5   0  0.2304842E-04  0.1194305E+04  0.7818609E-02  0.9117856E-01
       -1   -1    0    0    0  501  0.00000000000E+00  0.00000000000E+00  0.97554435497E+03  0.97554435499E+03  0.50400001928E-02 0. -1.
        1   -1    0    0  501    0  0.00000000000E+00  0.00000000000E+00 -0.36553041695E+03  0.36553041699E+03  0.50400001928E-02 0.  1.
    10030    2    1    2    0    0  0.00000000000E+00  0.00000000000E+00  0.61001393802E+03  0.13410747720E+04  0.11943050446E+04 0.  0.
        4    1    3    3  502    0 -0.75703070185E+02  0.27916094755E+03  0.89163330942E+03  0.93737578422E+03  0.12699999809E+01 0. -1.
       -4    1    3    3    0  502  0.75703070185E+02 -0.27916094755E+03 -0.28161937140E+03  0.40369898776E+03  0.12699999809E+01 0.  1.
</event>
<event>
 5   0  0.3883890E-04  0.1201039E+04  0.7818609E-02  0.9111948E-01
       -2   -1    0    0    0  501  0.00000000000E+00  0.00000000000E+00  0.60437224723E+03  0.60437224723E+03  0.25500000920E-02 0. -1.
        2   -1    0    0  501    0  0.00000000000E+00  0.00000000000E+00 -0.59669114539E+03  0.59669114540E+03  0.25500000920E-02 0.  1.
    10030    2    1    2    0    0  0.00000000000E+00  0.00000000000E+00  0.76811018318E+01  0.12010633926E+04  0.12010388311E+04 0.  0.
        2    1    3    3  502    0  0.47678364232E+03  0.25932451412E+03 -0.25317000298E+03  0.59888804932E+03  0.25500000920E-02 0.  1.
       -2    1    3    3    0  502 -0.47678364232E+03 -0.25932451412E+03  0.26085110481E+03  0.60217534331E+03  0.25500000920E-02 0. -1.
</event>
<event>
 5   0  0.3883890E-04  0.1200715E+04  0.7818609E-02  0.9112231E-01
        2   -1    0    0  501    0  0.00000000000E+00  0.00000000000E+00  0.11907724095E+04  0.11907724095E+04  0.25500000920E-02 0. -1.
       -2   -1    0    0    0  501  0.00000000000E+00  0.00000000000E+00 -0.30268509935E+03  0.30268509936E+03  0.25500000920E-02 0.  1.
    10030    2    1    2    0    0  0.00000000000E+00  0.00000000000E+00  0.88808731018E+03  0.14934575089E+04  0.12007148955E+04 0.  0.
        2    1    3    3  502    0  0.58317790037E+03 -0.14209772851E+03  0.45880451258E+03  0.75550632605E+03  0.25500000920E-02 0.  1.
       -2    1    3    3    0  502 -0.58317790037E+03  0.14209772851E+03  0.42928279760E+03  0.73795118284E+03  0.25500000920E-02 0. -1.
</event>
<event>
 5   0  0.3832662E-04  0.1198410E+04  0.7818609E-02  0.9114249E-01
        2   -1    0    0  501    0  0.00000000000E+00  0.00000000000E+00  0.90047596216E+03  0.90047596216E+03  0.25500000920E-02 0.  1.
       -2   -1    0    0    0  501  0.00000000000E+00  0.00000000000E+00 -0.39873000515E+03  0.39873000515E+03  0.25500000920E-02 0. -1.
    10030    2    1    2    0    0  0.00000000000E+00  0.00000000000E+00  0.50174595701E+03  0.12992059673E+04  0.11984102554E+04 0.  0.
        4    1    3    3  502    0  0.47196287624E+03 -0.33789019562E+03  0.89612413710E+02  0.58732507050E+03  0.12699999809E+01 0. -1.
       -4    1    3    3    0  502 -0.47196287624E+03  0.33789019562E+03  0.41213354330E+03  0.71188089682E+03  0.12699999809E+01 0.  1.
</event>
<event>
 5   0  0.4122956E-04  0.1198107E+04  0.7818609E-02  0.9114515E-01
       -2   -1    0    0    0  501  0.00000000000E+00  0.00000000000E+00  0.17766241101E+03  0.17766241103E+03  0.25500000920E-02 0.  1.
        2   -1    0    0  501    0  0.00000000000E+00  0.00000000000E+00 -0.20199274248E+04  0.20199274248E+04  0.25500000920E-02 0. -1.
    10030    2    1    2    0    0  0.00000000000E+00  0.00000000000E+00 -0.18422650138E+04  0.21975898359E+04  0.11981071344E+04 0.  0.
        5    1    3    3  502    0 -0.53799632333E+03  0.21562245169E+03 -0.11987606803E+04  0.13315338314E+04  0.46999998093E+01 0. -1.
       -5    1    3    3    0  502  0.53799632333E+03 -0.21562245169E+03 -0.64350433355E+03  0.86605600447E+03  0.46999998093E+01 0.  1.
</event>
<event>
 5   0  0.3883890E-04  0.1199072E+04  0.7818609E-02  0.9113670E-01
        2   -1    0    0  501    0  0.00000000000E+00  0.00000000000E+00  0.15045200177E+04  0.15045200177E+04  0.25500000920E-02 0. -1.
       -2   -1    0    0    0  501  0.00000000000E+00  0.00000000000E+00 -0.23890888155E+03  0.23890888157E+03  0.25500000920E-02 0.  1.
    10030    2    1    2    0    0  0.00000000000E+00  0.00000000000E+00  0.12656111361E+04  0.17434288993E+04  0.11990716321E+04 0.  0.
        2    1    3    3  502    0 -0.64242329351E+02 -0.35523464351E+03  0.13287824996E+04  0.13769464986E+04  0.25500000920E-02 0. -1.
       -2    1    3    3    0  502  0.64242329351E+02  0.35523464351E+03 -0.63171363435E+02  0.36648240066E+03  0.25500000920E-02 0.  1.
</event>
<event>
 5   0  0.3832662E-04  0.1199981E+04  0.7818609E-02  0.9112874E-01
        2   -1    0    0  501    0  0.00000000000E+00  0.00000000000E+00  0.71121482786E+03  0.71121482786E+03  0.25500000920E-02 0. -1.
       -2   -1    0    0    0  501  0.00000000000E+00  0.00000000000E+00 -0.50615977503E+03  0.50615977504E+03  0.25500000920E-02 0.  1.
    10030    2    1    2    0    0  0.00000000000E+00  0.00000000000E+00  0.20505505282E+03  0.12173746029E+04  0.11999805620E+04 0.  0.
        4    1    3    3  502    0  0.23306236531E+03  0.10265029991E+03 -0.44860731024E+03  0.51585393465E+03  0.12699999809E+01 0.  1.
       -4    1    3    3    0  502 -0.23306236531E+03 -0.10265029991E+03  0.65366236306E+03  0.70152066825E+03  0.12699999809E+01 0. -1.
</event>
<event>
 5   0  0.3832662E-04  0.1200197E+04  0.7818609E-02  0.9112684E-01
       -2   -1    0    0    0  501  0.00000000000E+00  0.00000000000E+00  0.36373150313E+03  0.36373150314E+03  0.25500000920E-02 0.  1.
        2   -1    0    0  501    0  0.00000000000E+00  0.00000000000E+00 -0.99006619718E+03  0.99006619718E+03  0.25500000920E-02 0. -1.
    10030    2    1    2    0    0  0.00000000000E+00  0.00000000000E+00 -0.62633469405E+03  0.13537977003E+04  0.12001970940E+04 0.  0.
        4    1    3    3  502    0 -0.20592954314E+02 -0.32071560118E+03 -0.88481382516E+03  0.94137117265E+03  0.12699999809E+01 0. -1.
       -4    1    3    3    0  502  0.20592954314E+02  0.32071560118E+03  0.25847913111E+03  0.41242652767E+03  0.12699999809E+01 0.  1.
</event>
<event>
 5   0  0.3832662E-04  0.1197713E+04  0.7818609E-02  0.9114861E-01
       -2   -1    0    0    0  501  0.00000000000E+00  0.00000000000E+00  0.33163156118E+03  0.33163156119E+03  0.25500000920E-02 0. -1.
        2   -1    0    0  501    0  0.00000000000E+00  0.00000000000E+00 -0.10814074982E+04  0.10814074982E+04  0.25500000920E-02 0.  1.
    10030    2    1    2    0    0  0.00000000000E+00  0.00000000000E+00 -0.74977593704E+03  0.14130390594E+04  0.11977125814E+04 0.  0.
        4    1    3    3  502    0  0.36480710726E+03  0.34777573836E+03 -0.75644295187E+03  0.90897730557E+03  0.12699999809E+01 0. -1.
       -4    1    3    3    0  502 -0.36480710726E+03 -0.34777573836E+03  0.66670148339E+01  0.50406175385E+03  0.12699999809E+01 0.  1.
</event>
<event>
 5   0  0.4122956E-04  0.1203753E+04  0.7818609E-02  0.9109578E-01
       -2   -1    0    0    0  501  0.00000000000E+00  0.00000000000E+00  0.42221036084E+03  0.42221036084E+03  0.25500000920E-02 0. -1.
        2   -1    0    0  501    0  0.00000000000E+00  0.00000000000E+00 -0.85799667466E+03  0.85799667466E+03  0.25500000920E-02 0.  1.
    10030    2    1    2    0    0  0.00000000000E+00  0.00000000000E+00 -0.43578631382E+03  0.12802070355E+04  0.12037526085E+04 0.  0.
        5    1    3    3  502    0 -0.49687049084E+02 -0.57141606857E+03 -0.23972140857E+02  0.57409222238E+03  0.46999998093E+01 0. -1.
       -5    1    3    3    0  502  0.49687049084E+02  0.57141606857E+03 -0.41181417296E+03  0.70611481312E+03  0.46999998093E+01 0.  1.
</event>
<event>
 5   0  0.2204090E-04  0.1198900E+04  0.7818609E-02  0.9113820E-01
        1   -1    0    0  501    0  0.00000000000E+00  0.00000000000E+00  0.13820549175E+04  0.13820549175E+04  0.50400001928E-02 0. -1.
       -1   -1    0    0    0  501  0.00000000000E+00  0.00000000000E+00 -0.26000419073E+03  0.26000419078E+03  0.50400001928E-02 0.  1.
    10030    2    1    2    0    0  0.00000000000E+00  0.00000000000E+00  0.11220507267E+04  0.16420591083E+04  0.11988996128E+04 0.  0.
        2    1    3    3  502    0 -0.51997167066E+03  0.17694266995E+03  0.88991212084E+03  0.10457642323E+04  0.25500000920E-02 0.  1.
       -2    1    3    3    0  502  0.51997167066E+03 -0.17694266995E+03  0.23213860591E+03  0.59629487596E+03  0.25500000920E-02 0. -1.
</event>
<event>
 5   0  0.4122956E-04  0.1199816E+04  0.7818609E-02  0.9113018E-01
        2   -1    0    0  501    0  0.00000000000E+00  0.00000000000E+00  0.87403993536E+03  0.87403993536E+03  0.25500000920E-02 0. -1.
       -2   -1    0    0    0  501  0.00000000000E+00  0.00000000000E+00 -0.41175412308E+03  0.41175412308E+03  0.25500000920E-02 0.  1.
    10030    2    1    2    0    0  0.00000000000E+00  0.00000000000E+00  0.46228581228E+03  0.12857940584E+04  0.11998158977E+04 0.  0.
        5    1    3    3  502    0 -0.52099239334E+03  0.27367266759E+03  0.10645380018E+03  0.59806714045E+03  0.46999998093E+01 0.  1.
       -5    1    3    3    0  502  0.52099239334E+03 -0.27367266759E+03  0.35583201210E+03  0.68772691800E+03  0.46999998093E+01 0. -1.
</event>
<event>
 5   0  0.3993723E-04  0.1201932E+04  0.7818609E-02  0.9111167E-01
        2   -1    0    0  501    0  0.00000000000E+00  0.00000000000E+00  0.17423627379E+04  0.17423627379E+04  0.25500000920E-02 0. -1.
       -2   -1    0    0    0  501  0.00000000000E+00  0.00000000000E+00 -0.20728196566E+03  0.20728196568E+03  0.25500000920E-02 0.  1.
    10030    2    1    2    0    0  0.00000000000E+00  0.00000000000E+00  0.15350807722E+04  0.19496447036E+04  0.12019323995E+04 0.  0.
        3    1    3    3  502    0 -0.13159013689E+03 -0.43879007175E+02  0.17160398057E+04  0.17216369990E+04  0.10100000352E+00 0. -1.
       -3    1    3    3    0  502  0.13159013689E+03  0.43879007175E+02 -0.18095903341E+03  0.22800770463E+03  0.10100000352E+00 0.  1.
</event>
<event>
 5   0  0.4122956E-04  0.1200296E+04  0.7818609E-02  0.9112598E-01
       -2   -1    0    0    0  501  0.00000000000E+00  0.00000000000E+00  0.34216487329E+03  0.34216487330E+03  0.25500000920E-02 0.  1.
        2   -1    0    0  501    0  0.00000000000E+00  0.00000000000E+00 -0.10526428289E+04  0.10526428289E+04  0.25500000920E-02 0. -1.
    10030    2    1    2    0    0  0.00000000000E+00  0.00000000000E+00 -0.71047795560E+03  0.13948077022E+04  0.12002956305E+04 0.  0.
        5    1    3    3  502    0  0.41286158048E+03  0.16010120271E+03 -0.82593264880E+03  0.93716269137E+03  0.46999998093E+01 0. -1.
       -5    1    3    3    0  502 -0.41286158048E+03 -0.16010120271E+03  0.11545469321E+03  0.45764501082E+03  0.46999998093E+01 0.  1.
</event>
<event>
 5   0  0.2304842E-04  0.1199327E+04  0.7818609E-02  0.9113446E-01
        1   -1    0    0  501    0  0.00000000000E+00  0.00000000000E+00  0.21213595472E+04  0.21213595473E+04  0.50400001928E-02 0.  1.
       -1   -1    0    0    0  501  0.00000000000E+00  0.00000000000E+00 -0.16951215117E+03  0.16951215125E+03  0.50400001928E-02 0. -1.
    10030    2    1    2    0    0  0.00000000000E+00  0.00000000000E+00  0.19518473961E+04  0.22908716985E+04  0.11993268451E+04 0.  0.
        4    1    3    3  502    0  0.39483255442E+03 -0.38409827648E+03  0.52321704660E+03  0.75972489941E+03  0.12699999809E+01 0. -1.
       -4    1    3    3    0  502 -0.39483255442E+03  0.38409827648E+03  0.14286303495E+04  0.15311467991E+04  0.12699999809E+01 0.  1.
</event>
<event>
 5   0  0.2244308E-04  0.1200492E+04  0.7818609E-02  0.9112426E-01
       -1   -1    0    0    0  501  0.00000000000E+00  0.00000000000E+00  0.20852645409E+03  0.20852645415E+03  0.50400001928E-02 0.  1.
        1   -1    0    0  501    0  0.00000000000E+00  0.00000000000E+00 -0.17278170211E+04  0.17278170212E+04  0.50400001928E-02 0. -1.
    10030    2    1    2    0    0  0.00000000000E+00  0.00000000000E+00 -0.15192905671E+04  0.19363434753E+04  0.12004924936E+04 0.  0.
        5    1    3    3  502    0  0.26476896032E+03 -0.31892696968E+03 -0.59435050403E+02  0.41877395997E+03  0.46999998093E+01 0.  1.
       -5    1    3    3    0  502 -0.26476896032E+03  0.31892696968E+03 -0.14598555167E+04  0.15175695153E+04  0.46999998093E+01 0. -1.
</event>
<event>
 5   0  0.2244308E-04  0.1197610E+04  0.7818609E-02  0.9114951E-01
        1   -1    0    0  501    0  0.00000000000E+00  0.00000000000E+00  0.56370007313E+03  0.56370007315E+03  0.50400001928E-02 0.  1.
       -1   -1    0    0    0  501  0.00000000000E+00  0.00000000000E+00 -0.63609590844E+03  0.63609590846E+03  0.50400001928E-02 0. -1.
    10030    2    1    2    0    0  0.00000000000E+00  0.00000000000E+00 -0.72395835310E+02  0.11997959816E+04  0.11976098031E+04 0.  0.
        5    1    3    3  502    0  0.53977456473E+03 -0.10928893339E+03  0.19927277072E+03  0.58568966086E+03  0.46999998093E+01 0.  1.
       -5    1    3    3    0  502 -0.53977456473E+03  0.10928893339E+03 -0.27166860603E+03  0.61410632076E+03  0.46999998093E+01 0. -1.
</event>
<event>
 5   0  0.1541375E-04  0.1200410E+04  0.7818609E-02  0.9112498E-01
        3   -1    0    0  501    0  0.00000000000E+00  0.00000000000E+00  0.11988372446E+04  0.11988372489E+04  0.10100000352E+00 0.  1.
       -3   -1    0    0    0  501  0.00000000000E+00  0.00000000000E+00 -0.30049627016E+03  0.30049628714E+03  0.10100000352E+00 0. -1.
    10030    2    1    2    0    0  0.00000000000E+00  0.00000000000E+00  0.89834097444E+03  0.14993335360E+04  0.12004101573E+04 0.  0.
        3    1    3    3  502    0  0.32953891724E+03 -0.49571753768E+03  0.35311500756E+03  0.69211414803E+03  0.10100000352E+00 0. -1.
       -3    1    3    3    0  502 -0.32953891724E+03  0.49571753768E+03  0.54522596687E+03  0.80721938796E+03  0.10100000352E+00 0.  1.
</event>
<event>
 5   0  0.4024486E-04  0.1198495E+04  0.7818609E-02  0.9114175E-01
        2   -1    0    0  501    0  0.00000000000E+00  0.00000000000E+00  0.11058855494E+04  0.11058855494E+04  0.25500000920E-02 0. -1.
       -2   -1    0    0    0  501  0.00000000000E+00  0.00000000000E+00 -0.32471488365E+03  0.32471488366E+03  0.25500000920E-02 0.  1.
    10030    2    1    2    0    0  0.00000000000E+00  0.00000000000E+00  0.78117066572E+03  0.14306004330E+04  0.11984948853E+04 0.  0.
        1    1    3    3  502    0 -0.41380936040E+03  0.41589703695E+03  0.24493401209E+03  0.63576819865E+03  0.50400001928E-02 0.  1.
       -1    1    3    3    0  502  0.41380936040E+03 -0.41589703695E+03  0.53623665363E+03  0.79483223439E+03  0.50400001928E-02 0. -1.
</event>
<event>
 5   0  0.4024486E-04  0.1199974E+04  0.7818609E-02  0.9112879E-01
        2   -1    0    0  501    0  0.00000000000E+00  0.00000000000E+00  0.52642281175E+03  0.52642281176E+03  0.25500000920E-02 0. -1.
       -2   -1    0    0    0  501  0.00000000000E+00  0.00000000000E+00 -0.68383186451E+03  0.68383186451E+03  0.25500000920E-02 0.  1.
    10030    2    1    2    0    0  0.00000000000E+00  0.00000000000E+00 -0.15740905276E+03  0.12102546763E+04  0.11999744879E+04 0.  0.
        1    1    3    3  502    0 -0.28257483469E+03  0.47150617875E+03 -0.32121839851E+03  0.63666935953E+03  0.50400001928E-02 0.  1.
       -1    1    3    3    0  502  0.28257483469E+03 -0.47150617875E+03  0.16380934575E+03  0.57358531674E+03  0.50400001928E-02 0. -1.
</event>
<event>
 5   0  0.2304842E-04  0.1198554E+04  0.7818609E-02  0.9114123E-01
       -1   -1    0    0    0  501  0.00000000000E+00  0.00000000000E+00  0.54322797916E+03  0.54322797919E+03  0.50400001928E-02 0. -1.
        1   -1    0    0  501    0  0.00000000000E+00  0.00000000000E+00 -0.66110894970E+03  0.66110894971E+03  0.50400001928E-02 0.  1.
    10030    2    1    2    0    0  0.00000000000E+00  0.00000000000E+00 -0.11788097053E+03  0.12043369289E+04  0.11985539267E+04 0.  0.
        4    1    3    3  502    0  0.28907636438E+03  0.23108260280E+03  0.41467964498E+03  0.55581034051E+03  0.12699999809E+01 0. -1.
       -4    1    3    3    0  502 -0.28907636438E+03 -0.23108260280E+03 -0.53256061551E+03  0.64852658839E+03  0.12699999809E+01 0.  1.
</event>
<event>
 5   0  0.3883890E-04  0.1195974E+04  0.7818609E-02  0.9116388E-01
        2   -1    0    0  501    0  0.00000000000E+00  0.00000000000E+00  0.64232737980E+03  0.64232737980E+03  0.25500000920E-02 0.  1.
       -2   -1    0    0    0  501  0.00000000000E+00  0.00000000000E+00 -0.55670706071E+03  0.55670706072E+03  0.25500000920E-02 0. -1.
    10030    2    1    2    0    0  0.00000000000E+00  0.00000000000E+00  0.85620319086E+02  0.11990344405E+04  0.11959735576E+04 0.  0.
        2    1    3    3  502    0 -0.64728170943E+02 -0.48602432040E+03 -0.30037984021E+03  0.57501080385E+03  0.25500000920E-02 0. -1.
       -2    1    3    3    0  502  0.64728170943E+02  0.48602432040E+03  0.38600015930E+03  0.62402363667E+03  0.25500000920E-02 0.  1.
</event>
<event>
 5   0  0.2244308E-04  0.1201051E+04  0.7818609E-02  0.9111937E-01
        1   -1    0    0  501    0  0.00000000000E+00  0.00000000000E+00  0.31812952999E+03  0.31812953003E+03  0.50400001928E-02 0.  1.
       -1   -1    0    0    0  501  0.00000000000E+00  0.00000000000E+00 -0.11335985405E+04  0.11335985406E+04  0.50400001928E-02 0. -1.
    10030    2    1    2    0    0  0.00000000000E+00  0.00000000000E+00 -0.81546901056E+03  0.14517280706E+04  0.12010514909E+04 0.  0.
        5    1    3    3  502    0 -0.17660506996E+02 -0.50984665245E+03 -0.24830349977E+02  0.51077797407E+03  0.46999998093E+01 0.  1.
       -5    1    3    3    0  502  0.17660506996E+02  0.50984665245E+03 -0.79063866058E+03  0.94095009651E+03  0.46999998093E+01 0. -1.
</event>
<event>
 5   0  0.4122956E-04  0.1200201E+04  0.7818609E-02  0.9112680E-01
       -2   -1    0    0    0  501  0.00000000000E+00  0.00000000000E+00  0.13868719301E+03  0.13868719304E+03  0.25500000920E-02 0.  1.
        2   -1    0    0  501    0  0.00000000000E+00  0.00000000000E+00 -0.25966402054E+04  0.25966402054E+04  0.25500000920E-02 0. -1.
    10030    2    1    2    0    0  0.00000000000E+00  0.00000000000E+00 -0.24579530124E+04  0.27353273985E+04  0.12002012188E+04 0.  0.
        5    1    3    3  502    0 -0.99945239566E+02  0.18927365124E+03 -0.25066419183E+04  0.25157681456E+04  0.46999998093E+01 0. -1.
       -5    1    3    3    0  502  0.99945239566E+02 -0.18927365124E+03  0.48688905858E+02  0.21955925287E+03  0.46999998093E+01 0.  1.
</event>
<event>
 5   0  0.4122956E-04  0.1200836E+04  0.7818609E-02  0.9112125E-01
       -2   -1    0    0    0  501  0.00000000000E+00  0.00000000000E+00  0.31100209505E+03  0.31100209506E+03  0.25500000920E-02 0. -1.
        2   -1    0    0  501    0  0.00000000000E+00  0.00000000000E+00 -0.11591618068E+04  0.11591618068E+04  0.25500000920E-02 0.  1.
    10030    2    1    2    0    0  0.00000000000E+00  0.00000000000E+00 -0.84815971179E+03  0.14701639019E+04  0.12008359596E+04 0.  0.
        5    1    3    3  502    0  0.20414357019E+03 -0.76338903282E+02 -0.11089978623E+04  0.11302214712E+04  0.46999998093E+01 0.  1.
       -5    1    3    3    0  502 -0.20414357019E+03  0.76338903282E+02  0.26083815053E+03  0.33994243068E+03  0.46999998093E+01 0. -1.
</event>
<event>
 5   0  0.2315038E-04  0.1208797E+04  0.7818609E-02  0.9105191E-01
       -1   -1    0    0    0  501  0.00000000000E+00  0.00000000000E+00  0.91948954021E+03  0.91948954023E+03  0.50400001928E-02 0. -1.
        1   -1    0    0  501    0  0.00000000000E+00  0.00000000000E+00 -0.39728327022E+03  0.39728327025E+03  0.50400001928E-02 0.  1.
    10030    2    1    2    0    0  0.00000000000E+00  0.00000000000E+00  0.52220627000E+03  0.13167728105E+04  0.12087974379E+04 0.  0.
        1    1    3    3  502    0  0.34471388909E+03  0.41416889787E+03  0.55929621475E+03  0.77664393203E+03  0.50400001928E-02 0. -1.
       -1    1    3    3    0  502 -0.34471388909E+03 -0.41416889787E+03 -0.37089944759E+02  0.54012887844E+03  0.50400001928E-02 0.  1.
</event>
<event>
 5   0  0.2304842E-04  0.1198845E+04  0.7818609E-02  0.9113868E-01
        1   -1    0    0  501    0  0.00000000000E+00  0.00000000000E+00  0.34544113007E+03  0.34544113011E+03  0.50400001928E-02 0. -1.
       -1   -1    0    0    0  501  0.00000000000E+00  0.00000000000E+00 -0.10401412529E+04  0.10401412530E+04  0.50400001928E-02 0.  1.
    10030    2    1    2    0    0  0.00000000000E+00  0.00000000000E+00 -0.69470012287E+03  0.13855823831E+04  0.11988453943E+04 0.  0.
        4    1    3    3  502    0  0.12268824439E+03  0.24527159444E+03  0.26867910124E+03  0.38392790038E+03  0.12699999809E+01 0. -1.
       -4    1    3    3    0  502 -0.12268824439E+03 -0.24527159444E+03 -0.96337922411E+03  0.10016544827E+04  0.12699999809E+01 0.  1.
</event>
<event>
 5   0  0.3993723E-04  0.1197511E+04  0.7818609E-02  0.9115038E-01
        2   -1    0    0  501    0  0.00000000000E+00  0.00000000000E+00  0.97849237845E+03  0.97849237846E+03  0.25500000920E-02 0.  1.
       -2   -1    0    0    0  501  0.00000000000E+00  0.00000000000E+00 -0.36638818112E+03  0.36638818112E+03  0.25500000920E-02 0. -1.
    10030    2    1    2    0    0  0.00000000000E+00  0.00000000000E+00  0.61210419734E+03  0.13448805596E+04  0.11975108230E+04 0.  0.
        3    1    3    3  502    0 -0.49653220623E+03 -0.33451299433E+03  0.29700761044E+03  0.66832380330E+03  0.10100000352E+00 0.  1.
       -3    1    3    3    0  502  0.49653220623E+03  0.33451299433E+03  0.31509658690E+03  0.67655675628E+03  0.10100000352E+00 0. -1.
</event>
<event>
 5   0  0.4024486E-04  0.1200827E+04  0.7818609E-02  0.9112133E-01
        2   -1    0    0  501    0  0.00000000000E+00  0.00000000000E+00  0.11139150325E+04  0.11139150325E+04  0.25500000920E-02 0. -1.
       -2   -1    0    0    0  501  0.00000000000E+00  0.00000000000E+00 -0.32362999393E+03  0.32362999394E+03  0.25500000920E-02 0.  1.
    10030    2    1    2    0    0  0.00000000000E+00  0.00000000000E+00  0.79028503854E+03  0.14375450264E+04  0.12008269071E+04 0.  0.
        1    1    3    3  502    0 -0.28731737583E+03  0.21042066235E+02 -0.23548703143E+03  0.37208626016E+03  0.50400001928E-02 0.  1.
       -1    1    3    3    0  502  0.28731737583E+03 -0.21042066235E+02  0.10257720700E+04  0.10654587662E+04  0.50400001928E-02 0. -1.
</event>
<event>
 5   0  0.4122956E-04  0.1203067E+04  0.7818609E-02  0.9110176E-01
        2   -1    0    0  501    0  0.00000000000E+00  0.00000000000E+00  0.57350056566E+03  0.57350056567E+03  0.25500000920E-02 0. -1.
       -2   -1    0    0    0  501  0.00000000000E+00  0.00000000000E+00 -0.63093702648E+03  0.63093702649E+03  0.25500000920E-02 0.  1.
    10030    2    1    2    0    0  0.00000000000E+00  0.00000000000E+00 -0.57436460823E+02  0.12044375922E+04  0.12030673158E+04 0.  0.
        5    1    3    3  502    0 -0.13997895270E+03 -0.14678630726E+03  0.53821319485E+03  0.57518332757E+03  0.46999998093E+01 0. -1.
       -5    1    3    3    0  502  0.13997895270E+03  0.14678630726E+03 -0.59564965568E+03  0.62925426459E+03  0.46999998093E+01 0.  1.
</event>
<event>
 5   0  0.4122956E-04  0.1200498E+04  0.7818609E-02  0.9112421E-01
       -2   -1    0    0    0  501  0.00000000000E+00  0.00000000000E+00  0.46404423007E+03  0.46404423008E+03  0.25500000920E-02 0.  1.
        2   -1    0    0  501    0  0.00000000000E+00  0.00000000000E+00 -0.77643197612E+03  0.77643197613E+03  0.25500000920E-02 0. -1.
    10030    2    1    2    0    0  0.00000000000E+00  0.00000000000E+00 -0.31238774605E+03  0.12404762062E+04  0.12004978610E+04 0.  0.
        5    1    3    3  502    0  0.45441762968E+02 -0.23221103332E+03 -0.72618845077E+03  0.76377920491E+03  0.46999998093E+01 0. -1.
       -5    1    3    3    0  502 -0.45441762968E+02  0.23221103332E+03  0.41380070472E+03  0.47669700130E+03  0.46999998093E+01 0.  1.
</event>
<event>
 5   0  0.3993723E-04  0.1200288E+04  0.7818609E-02  0.9112605E-01
        2   -1    0    0  501    0  0.00000000000E+00  0.00000000000E+00  0.28789505748E+03  0.28789505749E+03  0.25500000920E-02 0. -1.
       -2   -1    0    0    0  501  0.00000000000E+00  0.00000000000E+00 -0.12510551407E+04  0.12510551407E+04  0.25500000920E-02 0.  1.
    10030    2    1    2    0    0  0.00000000000E+00  0.00000000000E+00 -0.96316008318E+03  0.15389501982E+04  0.12002876183E+04 0.  0.
        3    1    3    3  502    0  0.39757584498E+02  0.33083134780E+02 -0.12481921897E+04  0.12492633478E+04  0.10100000352E+00 0.  1.
       -3    1    3    3    0  502 -0.39757584498E+02 -0.33083134780E+02  0.28503210655E+03  0.28968685040E+03  0.10100000352E+00 0. -1.
</event>
<event>
 5   0  0.3832662E-04  0.1199651E+04  0.7818609E-02  0.9113162E-01
       -2   -1    0    0    0  501  0.00000000000E+00  0.00000000000E+00  0.15277423398E+04  0.15277423398E+04  0.25500000920E-02 0. -1.
        2   -1    0    0  501    0  0.00000000000E+00  0.00000000000E+00 -0.23550489885E+03  0.23550489886E+03  0.25500000920E-02 0.  1.
    10030    2    1    2    0    0  0.00000000000E+00  0.00000000000E+00  0.12922374409E+04  0.17632472386E+04  0.11996512914E+04 0.  0.
        4    1    3    3  502    0  0.11326324868E+03 -0.54577907932E+03  0.32047985304E+03  0.64297147373E+03  0.12699999809E+01 0.  1.
       -4    1    3    3    0  502 -0.11326324868E+03  0.54577907932E+03  0.97175758788E+03  0.11202757649E+04  0.12699999809E+01 0. -1.
</event>
<event>
 5   0  0.2244308E-04  0.1202457E+04  0.7818609E-02  0.9110709E-01
       -1   -1    0    0    0  501  0.00000000000E+00  0.00000000000E+00  0.59902985767E+03  0.59902985769E+03  0.50400001928E-02 0. -1.
        1   -1    0    0  501    0  0.00000000000E+00  0.00000000000E+00 -0.60343501737E+03  0.60343501739E+03  0.50400001928E-02 0.  1.
    10030    2    1    2    0    0  0.00000000000E+00  0.00000000000E+00 -0.44051596970E+01  0.12024648751E+04  0.12024568060E+04 0.  0.
        5    1    3    3  502    0  0.24732967073E+03  0.12121754439E+03  0.53220520113E+03  0.59927466591E+03  0.46999998093E+01 0. -1.
       -5    1    3    3    0  502 -0.24732967073E+03 -0.12121754439E+03 -0.53661036083E+03  0.60319020917E+03  0.46999998093E+01 0.  1.
</event>
<event>
 5   0  0.3993723E-04  0.1201294E+04  0.7818609E-02  0.9111724E-01
       -2   -1    0    0    0  501  0.00000000000E+00  0.00000000000E+00  0.41621244834E+03  0.41621244835E+03  0.25500000920E-02 0.  1.
        2   -1    0    0  501    0  0.00000000000E+00  0.00000000000E+00 -0.86680968313E+03  0.86680968313E+03  0.25500000920E-02 0. -1.
    10030    2    1    2    0    0  0.00000000000E+00  0.00000000000E+00 -0.45059723478E+03  0.12830221315E+04  0.12012942695E+04 0.  0.
        3    1    3    3  502    0  0.55129449379E+03  0.77439773522E+02 -0.46615000352E+03  0.72609804668E+03  0.10100000352E+00 0. -1.
       -3    1    3    3    0  502 -0.55129449379E+03 -0.77439773522E+02  0.15552768743E+02  0.55692408480E+03  0.10100000352E+00 0.  1.
</event>
<event>
 5   0  0.3832662E-04  0.1197774E+04  0.7818609E-02  0.9114807E-01
        2   -1    0    0  501    0  0.00000000000E+00  0.00000000000E+00  0.35879906403E+03  0.35879906404E+03  0.25500000920E-02 0. -1.
       -2   -1    0    0    0  501  0.00000000000E+00  0.00000000000E+00 -0.99962832395E+03  0.99962832395E+03  0.25500000920E-02 0.  1.
    10030    2    1    2    0    0  0.00000000000E+00  0.00000000000E+00 -0.64082925992E+03  0.13584273880E+04  0.11977741140E+04 0.  0.
        4    1    3    3  502    0 -0.44829630781E+03 -0.20926409944E+03  0.62347696037E+02  0.49864806328E+03  0.12699999809E+01 0. -1.
       -4    1    3    3    0  502  0.44829630781E+03  0.20926409944E+03 -0.70317695596E+03  0.85977932471E+03  0.12699999809E+01 0.  1.
</event>
<event>
 5   0  0.4024486E-04  0.1199813E+04  0.7818609E-02  0.9113020E-01
        2   -1    0    0  501    0  0.00000000000E+00  0.00000000000E+00  0.10166279795E+04  0.10166279795E+04  0.25500000920E-02 0. -1.
       -2   -1    0    0    0  501  0.00000000000E+00  0.00000000000E+00 -0.35400136331E+03  0.35400136332E+03  0.25500000920E-02 0.  1.
    10030    2    1    2    0    0  0.00000000000E+00  0.00000000000E+00  0.66262661616E+03  0.13706293428E+04  0.11998128033E+04 0.  0.
        1    1    3    3  502    0 -0.50571973867E+03 -0.68654138635E+02  0.69151640635E+03  0.85945377136E+03  0.50400001928E-02 0.  1.
       -1    1    3    3    0  502  0.50571973867E+03  0.68654138635E+02 -0.28889790185E+02  0.51117557143E+03  0.50400001928E-02 0. -1.
</event>
<event>
 5   0  0.2304842E-04  0.1199596E+04  0.7818609E-02  0.9113211E-01
        1   -1    0    0  501    0  0.00000000000E+00  0.00000000000E+00  0.57437154071E+03  0.57437154073E+03  0.50400001928E-02 0.  1.
       -1   -1    0    0    0  501  0.00000000000E+00  0.00000000000E+00 -0.62634958786E+03  0.62634958788E+03  0.50400001928E-02 0. -1.
    10030    2    1    2    0    0  0.00000000000E+00  0.00000000000E+00 -0.51978047151E+02  0.12007211286E+04  0.11995955616E+04 0.  0.
        4    1    3    3  502    0 -0.50848972918E+03  0.23193599848E+03  0.19192986894E+03  0.59092706789E+03  0.12699999809E+01 0.  1.
       -4    1    3    3    0  502  0.50848972918E+03 -0.23193599848E+03 -0.24390791609E+03  0.60979406073E+03  0.12699999809E+01 0. -1.
</event>
<event>
 5   0  0.3993723E-04  0.1199688E+04  0.7818609E-02  0.9113130E-01
        2   -1    0    0  501    0  0.00000000000E+00  0.00000000000E+00  0.85507453862E+03  0.85507453862E+03  0.25500000920E-02 0. -1.
       -2   -1    0    0    0  501  0.00000000000E+00  0.00000000000E+00 -0.42079676697E+03  0.42079676698E+03  0.25500000920E-02 0.  1.
    10030    2    1    2    0    0  0.00000000000E+00  0.00000000000E+00  0.43427777164E+03  0.12758713056E+04  0.11996876283E+04 0.  0.
        3    1    3    3  502    0 -0.20933767965E+03  0.18892328673E+02  0.81462823996E+03  0.84130753220E+03  0.10100000352E+00 0. -1.
       -3    1    3    3    0  502  0.20933767965E+03 -0.18892328673E+02 -0.38035046831E+03  0.43456377340E+03  0.10100000352E+00 0.  1.
</event>
<event>
 5   0  0.4122956E-04  0.1200132E+04  0.7818609E-02  0.9112741E-01
       -2   -1    0    0    0  501  0.00000000000E+00  0.00000000000E+00  0.29154575868E+03  0.29154575869E+03  0.25500000920E-02 0.  1.
        2   -1    0    0  501    0  0.00000000000E+00  0.00000000000E+00 -0.12350687648E+04  0.12350687648E+04  0.25500000920E-02 0. -1.
    10030    2    1    2    0    0  0.00000000000E+00  0.00000000000E+00 -0.94352300613E+03  0.15266145235E+04  0.12001317596E+04 0.  0.
        5    1    3    3  502    0  0.84394816483E+02  0.10095630382E+03  0.27294358398E+03  0.30304281936E+03  0.46999998093E+01 0.  1.
       -5    1    3    3    0  502 -0.84394816483E+02 -0.10095630382E+03 -0.12164665901E+04  0.12235717041E+04  0.46999998093E+01 0. -1.
</event>
<event>
 5   0  0.2340731E-04  0.1199997E+04  0.7818609E-02  0.9112860E-01
        1   -1    0    0  501    0  0.00000000000E+00  0.00000000000E+00  0.82985480357E+03  0.82985480358E+03  0.50400001928E-02 0.  1.
       -1   -1    0    0    0  501  0.00000000000E+00  0.00000000000E+00 -0.43380833468E+03  0.43380833471E+03  0.50400001928E-02 0. -1.
    10030    2    1    2    0    0  0.00000000000E+00  0.00000000000E+00  0.39604646889E+03  0.12636631383E+04  0.11999965506E+04 0.  0.
        3    1    3    3  502    0  0.62778214756E+02  0.59558274114E+03  0.15950363939E+03  0.61975908785E+03  0.10100000352E+00 0.  1.
       -3    1    3    3    0  502 -0.62778214756E+02 -0.59558274114E+03  0.23654282950E+03  0.64390405044E+03  0.10100000352E+00 0. -1.
</event>
<event>
 5   0  0.1541375E-04  0.1200262E+04  0.7818609E-02  0.9112627E-01
       -3   -1    0    0    0  501  0.00000000000E+00  0.00000000000E+00  0.15498881026E+03  0.15498884317E+03  0.10100000352E+00 0.  1.
        3   -1    0    0  501    0  0.00000000000E+00  0.00000000000E+00 -0.23237631830E+04  0.23237631852E+04  0.10100000352E+00 0. -1.
    10030    2    1    2    0    0  0.00000000000E+00  0.00000000000E+00 -0.21687743728E+04  0.24787520284E+04  0.12002621956E+04 0.  0.
        4    1    3    3  502    0 -0.94931116143E+02  0.53459674269E+03 -0.55645252676E+03  0.77746165278E+03  0.12699999809E+01 0.  1.
       -4    1    3    3    0  502  0.94931116143E+02 -0.53459674269E+03 -0.16123218460E+04  0.17012903756E+04  0.12699999809E+01 0. -1.
</event>
<event>
 5   0  0.2304842E-04  0.1197927E+04  0.7818609E-02  0.9114673E-01
       -1   -1    0    0    0  501  0.00000000000E+00  0.00000000000E+00  0.32193639906E+03  0.32193639910E+03  0.50400001928E-02 0. -1.
        1   -1    0    0  501    0  0.00000000000E+00  0.00000000000E+00 -0.11143723838E+04  0.11143723838E+04  0.50400001928E-02 0.  1.
    10030    2    1    2    0    0  0.00000000000E+00  0.00000000000E+00 -0.79243598476E+03  0.14363087829E+04  0.11979265962E+04 0.  0.
        4    1    3    3  502    0 -0.56854230461E+03 -0.69536060381E+02 -0.60622988931E+03  0.83402152695E+03  0.12699999809E+01 0.  1.
       -4    1    3    3    0  502  0.56854230461E+03  0.69536060381E+02 -0.18620609545E+03  0.60228725598E+03  0.12699999809E+01 0. -1.
</event>
<event>
 5   0  0.3832662E-04  0.1199926E+04  0.7818609E-02  0.9112922E-01
        2   -1    0    0  501    0  0.00000000000E+00  0.00000000000E+00  0.13051646645E+04  0.13051646645E+04  0.25500000920E-02 0. -1.
       -2   -1    0    0    0  501  0.00000000000E+00  0.00000000000E+00 -0.27579313633E+03  0.27579313634E+03  0.25500000920E-02 0.  1.
    10030    2    1    2    0    0  0.00000000000E+00  0.00000000000E+00  0.10293715282E+04  0.15809578009E+04  0.11999257582E+04 0.  0.
        4    1    3    3  502    0  0.60157152196E+00  0.59893501577E+03  0.56090006857E+03  0.82056932359E+03  0.12699999809E+01 0. -1.
       -4    1    3    3    0  502 -0.60157152196E+00 -0.59893501577E+03  0.46847145964E+03  0.76038847729E+03  0.12699999809E+01 0.  1.
</event>
<event>
 5   0  0.2340731E-04  0.1199554E+04  0.7818609E-02  0.9113247E-01
        1   -1    0    0  501    0  0.00000000000E+00  0.00000000000E+00  0.13788759078E+04  0.13788759078E+04  0.50400001928E-02 0. -1.
       -1   -1    0    0    0  501  0.00000000000E+00  0.00000000000E+00 -0.26088805786E+03  0.26088805791E+03  0.50400001928E-02 0.  1.
    10030    2    1    2    0    0  0.00000000000E+00  0.00000000000E+00  0.11179878500E+04  0.16397639658E+04  0.11995536798E+04 0.  0.
        3    1    3    3  502    0 -0.28733851298E+03 -0.46488393663E+03  0.22123198031E+03  0.58959655264E+03  0.10100000352E+00 0.  1.
       -3    1    3    3    0  502  0.28733851298E+03  0.46488393663E+03  0.89675586967E+03  0.10501674131E+04  0.10100000352E+00 0. -1.
</event>
<event>
 5   0  0.4122956E-04  0.1195678E+04  0.7818609E-02  0.9116648E-01
       -2   -1    0    0    0  501  0.00000000000E+00  0.00000000000E+00  0.36086115974E+03  0.36086115975E+03  0.25500000920E-02 0. -1.
        2   -1    0    0  501    0  0.00000000000E+00  0.00000000000E+00 -0.99044076916E+03  0.99044076916E+03  0.25500000920E-02 0.  1.
    10030    2    1    2    0    0  0.00000000000E+00  0.00000000000E+00 -0.62957960942E+03  0.13513019289E+04  0.11956782253E+04 0.  0.
        5    1    3    3  502    0 -0.54874025375E+03 -0.23174744024E+03 -0.37204722315E+03  0.70232753641E+03  0.46999998093E+01 0. -1.
       -5    1    3    3    0  502  0.54874025375E+03  0.23174744024E+03 -0.25753238627E+03  0.64897439250E+03  0.46999998093E+01 0.  1.
</event>
<event>
 5   0  0.3883890E-04  0.1200170E+04  0.7818609E-02  0.9112708E-01
        2   -1    0    0  501    0  0.00000000000E+00  0.00000000000E+00  0.51874643719E+03  0.51874643720E+03  0.25500000920E-02 0. -1.
       -2   -1    0    0    0  501  0.00000000000E+00  0.00000000000E+00 -0.69417758264E+03  0.69417758264E+03  0.25500000920E-02 0.  1.
    10030    2    1    2    0    0  0.00000000000E+00  0.00000000000E+00 -0.17543114545E+03  0.12129240198E+04  0.12001702342E+04 0.  0.
        2    1    3    3  502    0 -0.35623775085E+03  0.18302080203E+03 -0.53934267226E+03  0.67178305072E+03  0.25500000920E-02 0.  1.
       -2    1    3    3    0  502  0.35623775085E+03 -0.18302080203E+03  0.36391152682E+03  0.54114096912E+03  0.25500000920E-02 0. -1.
</event>
<event>
 5   0  0.4122956E-04  0.1209159E+04  0.7818609E-02  0.9104878E-01
        2   -1    0    0  501    0  0.00000000000E+00  0.00000000000E+00  0.42891560062E+03  0.42891560063E+03  0.25500000920E-02 0.  1.
       -2   -1    0    0    0  501  0.00000000000E+00  0.00000000000E+00 -0.85218662907E+03  0.85218662908E+03  0.25500000920E-02 0. -1.
    10030    2    1    2    0    0  0.00000000000E+00  0.00000000000E+00 -0.42327102845E+03  0.12811022297E+04  0.12091586163E+04 0.  0.
        5    1    3    3  502    0  0.10067056854E+03  0.11636730101E+03  0.40780279950E+03  0.43589118527E+03  0.46999998093E+01 0.  1.
       -5    1    3    3    0  502 -0.10067056854E+03 -0.11636730101E+03 -0.83107382796E+03  0.84521104443E+03  0.46999998093E+01 0. -1.
</event>
<event>
 5   0  0.2340731E-04  0.1199310E+04  0.7818609E-02  0.9113460E-01
        1   -1    0    0  501    0  0.00000000000E+00  0.00000000000E+00  0.85431920315E+03  0.85431920316E+03  0.50400001928E-02 0. -1.
       -1   -1    0    0    0  501  0.00000000000E+00  0.00000000000E+00 -0.42090404443E+03  0.42090404446E+03  0.50400001928E-02 0.  1.
    10030    2    1    2    0    0  0.00000000000E+00  0.00000000000E+00  0.43341515872E+03  0.12752232476E+04  0.11993104817E+04 0.  0.
        3    1    3    3  502    0  0.10930325182E+03 -0.56450566269E+03  0.35720330047E+02  0.57609877299E+03  0.10100000352E+00 0.  1.
       -3    1    3    3    0  502 -0.10930325182E+03  0.56450566269E+03  0.39769482867E+03  0.69912447463E+03  0.10100000352E+00 0. -1.
</event>
<event>
 5   0  0.2204090E-04  0.1198327E+04  0.7818609E-02  0.9114322E-01
        1   -1    0    0  501    0  0.00000000000E+00  0.00000000000E+00  0.10057291692E+04  0.10057291692E+04  0.50400001928E-02 0.  1.
       -1   -1    0    0    0  501  0.00000000000E+00  0.00000000000E+00 -0.35695208018E+03  0.35695208022E+03  0.50400001928E-02 0. -1.
    10030    2    1    2    0    0  0.00000000000E+00  0.00000000000E+00  0.64877708900E+03  0.13626812494E+04  0.11983273661E+04 0.  0.
        2    1    3    3  502    0 -0.24755507640E+03  0.78052287525E+02 -0.28969651384E+03  0.38897267973E+03  0.25500000920E-02 0. -1.
       -2    1    3    3    0  502  0.24755507640E+03 -0.78052287525E+02  0.93847360284E+03  0.97370856968E+03  0.25500000920E-02 0.  1.
</event>
<event>
 5   0  0.3993723E-04  0.1200826E+04  0.7818609E-02  0.9112134E-01
        2   -1    0    0  501    0  0.00000000000E+00  0.00000000000E+00  0.17151232402E+04  0.17151232402E+04  0.25500000920E-02 0. -1.
       -2   -1    0    0    0  501  0.00000000000E+00  0.00000000000E+00 -0.21018647262E+03  0.21018647264E+03  0.25500000920E-02 0.  1.
    10030    2    1    2    0    0  0.00000000000E+00  0.00000000000E+00  0.15049367676E+04  0.19253097129E+04  0.12008258891E+04 0.  0.
        3    1    3    3  502    0  0.59093355006E+02  0.16041227879E+03  0.16752791279E+04  0.16839787084E+04  0.10100000352E+00 0. -1.
       -3    1    3    3    0  502 -0.59093355006E+02 -0.16041227879E+03 -0.17034236031E+03  0.24133100445E+03  0.10100000352E+00 0.  1.
</event>
<event>
 5   0  0.2204090E-04  0.1199203E+04  0.7818609E-02  0.9113554E-01
       -1   -1    0    0    0  501  0.00000000000E+00  0.00000000000E+00  0.18356543881E+03  0.18356543887E+03  0.50400001928E-02 0.  1.
        1   -1    0    0  501    0  0.00000000000E+00  0.00000000000E+00 -0.19585492224E+04  0.19585492224E+04  0.50400001928E-02 0. -1.
    10030    2    1    2    0    0  0.00000000000E+00  0.00000000000E+00 -0.17749837836E+04  0.21421146613E+04  0.11992029812E+04 0.  0.
        2    1    3    3  502    0 -0.23856704281E+03 -0.26177367392E+03 -0.17517316917E+04  0.17871775541E+04  0.25500000920E-02 0. -1.
       -2    1    3    3    0  502  0.23856704281E+03  0.26177367392E+03 -0.23252091932E+02  0.35493710719E+03  0.25500000920E-02 0.  1.
</event>
<event>
 5   0  0.3832662E-04  0.1200766E+04  0.7818609E-02  0.9112187E-01
       -2   -1    0    0    0  501  0.00000000000E+00  0.00000000000E+00  0.53950535645E+03  0.53950535646E+03  0.25500000920E-02 0. -1.
        2   -1    0    0  501    0  0.00000000000E+00  0.00000000000E+00 -0.66812966170E+03  0.66812966170E+03  0.25500000920E-02 0.  1.
    10030    2    1    2    0    0  0.00000000000E+00  0.00000000000E+00 -0.12862430524E+03  0.12076350182E+04  0.12007656412E+04 0.  0.
        4    1    3    3  502    0 -0.20389709596E+03 -0.51484815278E+03  0.16899616188E+03  0.57896801448E+03  0.12699999809E+01 0. -1.
       -4    1    3    3    0  502  0.20389709596E+03  0.51484815278E+03 -0.29762046712E+03  0.62866700368E+03  0.12699999809E+01 0.  1.
</event>
<event>
 5   0  0.2304842E-04  0.1200824E+04  0.7818609E-02  0.9112135E-01
       -1   -1    0    0    0  501  0.00000000000E+00  0.00000000000E+00  0.67547719234E+03  0.67547719236E+03  0.50400001928E-02 0. -1.
        1   -1    0    0  501    0  0.00000000000E+00  0.00000000000E+00 -0.53368917734E+03  0.53368917737E+03  0.50400001928E-02 0.  1.
    10030    2    1    2    0    0  0.00000000000E+00  0.00000000000E+00  0.14178801500E+03  0.12091663697E+04  0.12008244953E+04 0.  0.
        4    1    3    3  502    0 -0.17947279663E+03  0.39099272697E+03  0.49262017332E+03  0.65403520191E+03  0.12699999809E+01 0. -1.
       -4    1    3    3    0  502  0.17947279663E+03 -0.39099272697E+03 -0.35083215832E+03  0.55513116782E+03  0.12699999809E+01 0.  1.
</event>
<event>
 5   0  0.2315038E-04  0.1196903E+04  0.7818609E-02  0.9115572E-01
        1   -1    0    0  501    0  0.00000000000E+00  0.00000000000E+00  0.53843736388E+03  0.53843736390E+03  0.50400001928E-02 0.  1.
       -1   -1    0    0    0  501  0.00000000000E+00  0.00000000000E+00 -0.66515460269E+03  0.66515460271E+03  0.50400001928E-02 0. -1.
    10030    2    1    2    0    0  0.00000000000E+00  0.00000000000E+00 -0.12671723881E+03  0.12035919666E+04  0.11969028212E+04 0.  0.
        1    1    3    3  502    0 -0.25063339427E+03  0.34037892146E+03  0.36264700384E+03  0.55694502235E+03  0.50400001928E-02 0.  1.
       -1    1    3    3    0  502  0.25063339427E+03 -0.34037892146E+03 -0.48936424266E+03  0.64664694426E+03  0.50400001928E-02 0. -1.
</event>
<event>
 5   0  0.2244308E-04  0.1199791E+04  0.7818609E-02  0.9113040E-01
        1   -1    0    0  501    0  0.00000000000E+00  0.00000000000E+00  0.75379666539E+03  0.75379666541E+03  0.50400001928E-02 0. -1.
       -1   -1    0    0    0  501  0.00000000000E+00  0.00000000000E+00 -0.47741567871E+03  0.47741567874E+03  0.50400001928E-02 0.  1.
    10030    2    1    2    0    0  0.00000000000E+00  0.00000000000E+00  0.27638098668E+03  0.12312123441E+04  0.11997905595E+04 0.  0.
        5    1    3    3  502    0  0.50165053793E+02 -0.24302797823E+03 -0.42225655143E+03  0.48979772973E+03  0.46999998093E+01 0.  1.
       -5    1    3    3    0  502 -0.50165053793E+02  0.24302797823E+03  0.69863753811E+03  0.74141461442E+03  0.46999998093E+01 0. -1.
</event>
<event>
 5   0  0.2340731E-04  0.1199589E+04  0.7818609E-02  0.9113216E-01
       -1   -1    0    0    0  501  0.00000000000E+00  0.00000000000E+00  0.51244170350E+03  0.51244170353E+03  0.50400001928E-02 0.  1.
        1   -1    0    0  501    0  0.00000000000E+00  0.00000000000E+00 -0.70203784816E+03  0.70203784818E+03  0.50400001928E-02 0. -1.
    10030    2    1    2    0    0  0.00000000000E+00  0.00000000000E+00 -0.18959614466E+03  0.12144795517E+04  0.11995890477E+04 0.  0.
        3    1    3    3  502    0 -0.34559688568E+02  0.41064773297E+03  0.34641835412E+03  0.53836012012E+03  0.10100000352E+00 0.  1.
       -3    1    3    3    0  502  0.34559688568E+02 -0.41064773297E+03 -0.53601449878E+03  0.67611943159E+03  0.10100000352E+00 0. -1.
</event>
<event>
 5   0  0.3883890E-04  0.1199012E+04  0.7818609E-02  0.9113722E-01
       -2   -1    0    0    0  501  0.00000000000E+00  0.00000000000E+00  0.10588048283E+04  0.10588048283E+04  0.25500000920E-02 0.  1.
        2   -1    0    0  501    0  0.00000000000E+00  0.00000000000E+00 -0.33944631714E+03  0.33944631715E+03  0.25500000920E-02 0. -1.
    10030    2    1    2    0    0  0.00000000000E+00  0.00000000000E+00  0.71935851120E+03  0.13982511455E+04  0.11990119258E+04 0.  0.
        2    1    3    3  502    0 -0.11349697423E+03  0.59178454610E+02  0.10426840846E+04  0.10505111865E+04  0.25500000920E-02 0.  1.
       -2    1    3    3    0  502  0.11349697423E+03 -0.59178454610E+02 -0.32332557342E+03  0.34773995899E+03  0.25500000920E-02 0. -1.
</event>
<event>
 5   0  0.2304842E-04  0.1199802E+04  0.7818609E-02  0.9113030E-01
       -1   -1    0    0    0  501  0.00000000000E+00  0.00000000000E+00  0.10790604053E+03  0.10790604065E+03  0.50400001928E-02 0.  1.
        1   -1    0    0  501    0  0.00000000000E+00  0.00000000000E+00 -0.33351354124E+04  0.33351354124E+04  0.50400001928E-02 0. -1.
    10030    2    1    2    0    0  0.00000000000E+00  0.00000000000E+00 -0.32272293719E+04  0.34430414531E+04  0.11998020790E+04 0.  0.
        4    1    3    3  502    0 -0.58957170441E+02  0.21662660929E+03 -0.17196906991E+02  0.22516745393E+03  0.12699999809E+01 0.  1.
       -4    1    3    3    0  502  0.58957170441E+02 -0.21662660929E+03 -0.32100324649E+04  0.32178739992E+04  0.12699999809E+01 0. -1.
</event>
<event>
 5   0  0.3993723E-04  0.1209542E+04  0.7818609E-02  0.9104545E-01
        2   -1    0    0  501    0  0.00000000000E+00  0.00000000000E+00  0.52427746614E+03  0.52427746615E+03  0.25500000920E-02 0. -1.
       -2   -1    0    0    0  501  0.00000000000E+00  0.00000000000E+00 -0.69762312482E+03  0.69762312483E+03  0.25500000920E-02 0.  1.
    10030    2    1    2    0    0  0.00000000000E+00  0.00000000000E+00 -0.17334565868E+03  0.12219005910E+04  0.12095422013E+04 0.  0.
        3    1    3    3  502    0  0.28725851262E+03 -0.19933727898E+03 -0.58516703431E+03  0.68166947424E+03  0.10100000352E+00 0.  1.
       -3    1    3    3    0  502 -0.28725851262E+03  0.19933727898E+03  0.41182137562E+03  0.54023111673E+03  0.10100000352E+00 0. -1.
</event>
<event>
 5   0  0.1541375E-04  0.1206696E+04  0.7818609E-02  0.9107016E-01
       -3   -1    0    0    0  501  0.00000000000E+00  0.00000000000E+00  0.89110884454E+03  0.89110885026E+03  0.10100000352E+00 0. -1.
        3   -1    0    0  501    0  0.00000000000E+00  0.00000000000E+00 -0.40851220887E+03  0.40851222136E+03  0.10100000352E+00 0.  1.
    10030    2    1    2    0    0  0.00000000000E+00  0.00000000000E+00  0.48259663567E+03  0.12996210716E+04  0.12066960748E+04 0.  0.
        1    1    3    3  502    0 -0.25870803984E+03  0.44314405371E+03 -0.10050932827E+03  0.52288490829E+03  0.50400001928E-02 0.  1.
       -1    1    3    3    0  502  0.25870803984E+03 -0.44314405371E+03  0.58310596394E+03  0.77673616333E+03  0.50400001928E-02 0. -1.
</event>
<event>
 5   0  0.3832662E-04  0.1204392E+04  0.7818609E-02  0.9109021E-01
        2   -1    0    0  501    0  0.00000000000E+00  0.00000000000E+00  0.14416892102E+04  0.14416892102E+04  0.25500000920E-02 0. -1.
       -2   -1    0    0    0  501  0.00000000000E+00  0.00000000000E+00 -0.25153834541E+03  0.25153834542E+03  0.25500000920E-02 0.  1.
    10030    2    1    2    0    0  0.00000000000E+00  0.00000000000E+00  0.11901508648E+04  0.16932275556E+04  0.12043921596E+04 0.  0.
        4    1    3    3  502    0 -0.29137158369E+03  0.43553287625E+03  0.17790111708E+03  0.55338657956E+03  0.12699999809E+01 0.  1.
       -4    1    3    3    0  502  0.29137158369E+03 -0.43553287625E+03  0.10122497477E+04  0.11398409761E+04  0.12699999809E+01 0. -1.
</event>
<event>
 5   0  0.2315038E-04  0.1195737E+04  0.7818609E-02  0.9116596E-01
        1   -1    0    0  501    0  0.00000000000E+00  0.00000000000E+00  0.11058743961E+04  0.11058743961E+04  0.50400001928E-02 0. -1.
       -1   -1    0    0    0  501  0.00000000000E+00  0.00000000000E+00 -0.32322533548E+03  0.32322533552E+03  0.50400001928E-02 0.  1.
    10030    2    1    2    0    0  0.00000000000E+00  0.00000000000E+00  0.78264906061E+03  0.14290997316E+04  0.11957367983E+04 0.  0.
        1    1    3    3  502    0  0.76391971056E+02  0.75761592687E+02  0.10942091851E+04  0.10994859222E+04  0.50400001928E-02 0. -1.
       -1    1    3    3    0  502 -0.76391971056E+02 -0.75761592687E+02 -0.31156012453E+03  0.32961380946E+03  0.50400001928E-02 0.  1.
</event>
<event>
 5   0  0.4122956E-04  0.1199777E+04  0.7818609E-02  0.9113052E-01
        2   -1    0    0  501    0  0.00000000000E+00  0.00000000000E+00  0.74980318671E+03  0.74980318671E+03  0.25500000920E-02 0.  1.
       -2   -1    0    0    0  501  0.00000000000E+00  0.00000000000E+00 -0.47994741486E+03  0.47994741486E+03  0.25500000920E-02 0. -1.
    10030    2    1    2    0    0  0.00000000000E+00  0.00000000000E+00  0.26985577185E+03  0.12297506016E+04  0.11997768144E+04 0.  0.
        5    1    3    3  502    0 -0.14992499165E+03  0.25141509549E+03 -0.40175310724E+03  0.49710632921E+03  0.46999998093E+01 0. -1.
       -5    1    3    3    0  502  0.14992499165E+03 -0.25141509549E+03  0.67160887909E+03  0.73264427237E+03  0.46999998093E+01 0.  1.
</event>
<event>
 5   0  0.1541375E-04  0.1187635E+04  0.7818609E-02  0.9123749E-01
        3   -1    0    0  501    0  0.00000000000E+00  0.00000000000E+00  0.49904430306E+03  0.49904431328E+03  0.10100000352E+00 0. -1.
       -3   -1    0    0    0  501  0.00000000000E+00  0.00000000000E+00 -0.70658894901E+03  0.70658895623E+03  0.10100000352E+00 0.  1.
    10030    2    1    2    0    0  0.00000000000E+00  0.00000000000E+00 -0.20754464595E+03  0.12056332695E+04  0.11876349610E+04 0.  0.
        4    1    3    3  502    0 -0.41320415880E+02  0.25104982631E+03 -0.64845198787E+03  0.69658092533E+03  0.12699999809E+01 0.  1.
       -4    1    3    3    0  502  0.41320415880E+02 -0.25104982631E+03  0.44090734192E+03  0.50905234418E+03  0.12699999809E+01 0. -1.
</event>
<event>
 5   0  0.4024486E-04  0.1203086E+04  0.7818609E-02  0.9110160E-01
       -2   -1    0    0    0  501  0.00000000000E+00  0.00000000000E+00  0.82419401886E+03  0.82419401886E+03  0.25500000920E-02 0. -1.
        2   -1    0    0  501    0  0.00000000000E+00  0.00000000000E+00 -0.43903956914E+03  0.43903956914E+03  0.25500000920E-02 0.  1.
    10030    2    1    2    0    0  0.00000000000E+00  0.00000000000E+00  0.38515444972E+03  0.12632335880E+04  0.12030856776E+04 0.  0.
        1    1    3    3  502    0 -0.30150257733E+03 -0.46618586734E+03  0.43571555404E+03  0.70574861750E+03  0.50400001928E-02 0. -1.
       -1    1    3    3    0  502  0.30150257733E+03  0.46618586734E+03 -0.50561104312E+02  0.55748497051E+03  0.50400001928E-02 0.  1.
</event>
<event>
 5   0  0.3993723E-04  0.1200155E+04  0.7818609E-02  0.9112721E-01
        2   -1    0    0  501    0  0.00000000000E+00  0.00000000000E+00  0.11173365443E+04  0.11173365443E+04  0.25500000920E-02 0.  1.
       -2   -1    0    0    0  501  0.00000000000E+00  0.00000000000E+00 -0.32227821834E+03  0.32227821835E+03  0.25500000920E-02 0. -1.
    10030    2    1    2    0    0  0.00000000000E+00  0.00000000000E+00  0.79505832596E+03  0.14396147627E+04  0.12001553746E+04 0.  0.
        3    1    3    3  502    0 -0.24729509063E+03 -0.18698846491E+03  0.10138248446E+04  0.10601699739E+04  0.10100000352E+00 0.  1.
       -3    1    3    3    0  502  0.24729509063E+03  0.18698846491E+03 -0.21876651861E+03  0.37944478877E+03  0.10100000352E+00 0. -1.
</event>
<event>
 5   0  0.2315038E-04  0.1202226E+04  0.7818609E-02  0.9110911E-01
        1   -1    0    0  501    0  0.00000000000E+00  0.00000000000E+00  0.66956740129E+03  0.66956740131E+03  0.50400001928E-02 0.  1.
       -1   -1    0    0    0  501  0.00000000000E+00  0.00000000000E+00 -0.53965684350E+03  0.53965684352E+03  0.50400001928E-02 0. -1.
    10030    2    1    2    0    0  0.00000000000E+00  0.00000000000E+00  0.12991055779E+03  0.12092242448E+04  0.12022256532E+04 0.  0.
        1    1    3    3  502    0  0.33146804416E+03 -0.28373592463E+03 -0.35092417358E+03  0.55993295568E+03  0.50400001928E-02 0. -1.
       -1    1    3    3    0  502 -0.33146804416E+03  0.28373592463E+03  0.48083473138E+03  0.64929128914E+03  0.50400001928E-02 0.  1.
</event>
<event>
 5   0  0.1541375E-04  0.1199933E+04  0.7818609E-02  0.9112915E-01
        4   -1    0    0  501    0  0.00000000000E+00  0.00000000000E+00  0.44530443869E+03  0.44530624970E+03  0.12699999809E+01 0.  1.
       -4   -1    0    0    0  501  0.00000000000E+00  0.00000000000E+00 -0.80834149748E+03  0.80834249513E+03  0.12699999809E+01 0. -1.
    10030    2    1    2    0    0  0.00000000000E+00  0.00000000000E+00 -0.36303705878E+03  0.12536487448E+04  0.11999330270E+04 0.  0.
        3    1    3    3  502    0 -0.14079486530E+02 -0.27035777484E+03  0.37786369275E+03  0.46483603437E+03  0.10100000352E+00 0.  1.
       -3    1    3    3    0  502  0.14079486530E+02  0.27035777484E+03 -0.74090075153E+03  0.78881271046E+03  0.10100000352E+00 0. -1.
</event>
<event>
 5   0  0.4024486E-04  0.1200267E+04  0.7818609E-02  0.9112623E-01
        2   -1    0    0  501    0  0.00000000000E+00  0.00000000000E+00  0.67798131638E+03  0.67798131638E+03  0.25500000920E-02 0. -1.
       -2   -1    0    0    0  501  0.00000000000E+00  0.00000000000E+00 -0.53122416498E+03  0.53122416499E+03  0.25500000920E-02 0.  1.
    10030    2    1    2    0    0  0.00000000000E+00  0.00000000000E+00  0.14675715139E+03  0.12092054814E+04  0.12002667348E+04 0.  0.
        1    1    3    3  502    0  0.54652803695E+03 -0.30370715803E+02 -0.17451239104E+03  0.57451705823E+03  0.50400001928E-02 0.  1.
       -1    1    3    3    0  502 -0.54652803695E+03  0.30370715803E+02  0.32126954243E+03  0.63468842314E+03  0.50400001928E-02 0. -1.
</event>
<event>
 5   0  0.3993723E-04  0.1211174E+04  0.7818609E-02  0.9103132E-01
        2   -1    0    0  501    0  0.00000000000E+00  0.00000000000E+00  0.91784356329E+03  0.91784356329E+03  0.25500000920E-02 0. -1.
       -2   -1    0    0    0  501  0.00000000000E+00  0.00000000000E+00 -0.39956235440E+03  0.39956235441E+03  0.25500000920E-02 0.  1.
    10030    2    1    2    0    0  0.00000000000E+00  0.00000000000E+00  0.51828120889E+03  0.13174059177E+04  0.12111741991E+04 0.  0.
        3    1    3    3  502    0 -0.89835388261E+02 -0.59145088741E+03  0.36147308007E+03  0.69896162056E+03  0.10100000352E+00 0.  1.
       -3    1    3    3    0  502  0.89835388261E+02  0.59145088741E+03  0.15680812882E+03  0.61844429714E+03  0.10100000352E+00 0. -1.
</event>
<event>
 5   0  0.2244308E-04  0.1197077E+04  0.7818609E-02  0.9115419E-01
        1   -1    0    0  501    0  0.00000000000E+00  0.00000000000E+00  0.14754401395E+04  0.14754401395E+04  0.50400001928E-02 0. -1.
       -1   -1    0    0    0  501  0.00000000000E+00  0.00000000000E+00 -0.24280790901E+03  0.24280790907E+03  0.50400001928E-02 0.  1.
    10030    2    1    2    0    0  0.00000000000E+00  0.00000000000E+00  0.12326322305E+04  0.17182480486E+04  0.11970773329E+04 0.  0.
        5    1    3    3  502    0 -0.42011950479E+03  0.42004505442E+03  0.51193605256E+03  0.78424413161E+03  0.46999998093E+01 0. -1.
       -5    1    3    3    0  502  0.42011950479E+03 -0.42004505442E+03  0.72069617796E+03  0.93400391700E+03  0.46999998093E+01 0.  1.
</event>
<event>
 5   0  0.3993723E-04  0.1202721E+04  0.7818609E-02  0.9110478E-01
       -2   -1    0    0    0  501  0.00000000000E+00  0.00000000000E+00  0.20764280915E+03  0.20764280916E+03  0.25500000920E-02 0. -1.
        2   -1    0    0  501    0  0.00000000000E+00  0.00000000000E+00 -0.17416175134E+04  0.17416175134E+04  0.25500000920E-02 0.  1.
    10030    2    1    2    0    0  0.00000000000E+00  0.00000000000E+00 -0.15339747043E+04  0.19492603226E+04  0.12027208370E+04 0.  0.
        3    1    3    3  502    0  0.38133702183E+03  0.39044416279E+03 -0.11762597420E+04  0.12967079700E+04  0.10100000352E+00 0.  1.
       -3    1    3    3    0  502 -0.38133702183E+03 -0.39044416279E+03 -0.35771496224E+03  0.65255235260E+03  0.10100000352E+00 0. -1.
</event>
<event>
 5   0  0.2204090E-04  0.1199097E+04  0.7818609E-02  0.9113647E-01
        1   -1    0    0  501    0  0.00000000000E+00  0.00000000000E+00  0.53535882322E+03  0.53535882324E+03  0.50400001928E-02 0. -1.
       -1   -1    0    0    0  501  0.00000000000E+00  0.00000000000E+00 -0.67143464864E+03  0.67143464866E+03  0.50400001928E-02 0.  1.
    10030    2    1    2    0    0  0.00000000000E+00  0.00000000000E+00 -0.13607582543E+03  0.12067934719E+04  0.11990970993E+04 0.  0.
        2    1    3    3  502    0 -0.38770422997E+03 -0.26646538555E+03 -0.44209550137E+03  0.64557478573E+03  0.25500000920E-02 0.  1.
       -2    1    3    3    0  502  0.38770422997E+03  0.26646538555E+03  0.30601967594E+03  0.56121868617E+03  0.25500000920E-02 0. -1.
</event>
<event>
 5   0  0.2304842E-04  0.1200971E+04  0.7818609E-02  0.9112007E-01
        1   -1    0    0  501    0  0.00000000000E+00  0.00000000000E+00  0.83832256699E+03  0.83832256701E+03  0.50400001928E-02 0. -1.
       -1   -1    0    0    0  501  0.00000000000E+00  0.00000000000E+00 -0.43012404033E+03  0.43012404036E+03  0.50400001928E-02 0.  1.
    10030    2    1    2    0    0  0.00000000000E+00  0.00000000000E+00  0.40819852666E+03  0.12684466074E+04  0.12009707567E+04 0.  0.
        4    1    3    3  502    0  0.21083569020E+03  0.13785020111E+03  0.77981832128E+03  0.81949532843E+03  0.12699999809E+01 0. -1.
       -4    1    3    3    0  502 -0.21083569020E+03 -0.13785020111E+03 -0.37161979462E+03  0.44895127894E+03  0.12699999809E+01 0.  1.
</event>
<event>
 5   0  0.3993723E-04  0.1196155E+04  0.7818609E-02  0.9116229E-01
       -2   -1    0    0    0  501  0.00000000000E+00  0.00000000000E+00  0.10399445305E+04  0.10399445305E+04  0.25500000920E-02 0. -1.
        2   -1    0    0  501    0  0.00000000000E+00  0.00000000000E+00 -0.34395723123E+03  0.34395723124E+03  0.25500000920E-02 0.  1.
    10030    2    1    2    0    0  0.00000000000E+00  0.00000000000E+00  0.69598729929E+03  0.13839017618E+04  0.11961545742E+04 0.  0.
        3    1    3    3  502    0 -0.44090968516E+03 -0.85515507296E+02 -0.10894242642E+03  0.46215010000E+03  0.10100000352E+00 0.  1.
       -3    1    3    3    0  502  0.44090968516E+03  0.85515507296E+02  0.80492972571E+03  0.92175166177E+03  0.10100000352E+00 0. -1.
</event>
<event>
 5   0  0.2340731E-04  0.1198737E+04  0.7818609E-02  0.9113963E-01
        1   -1    0    0  501    0  0.00000000000E+00  0.00000000000E+00  0.47726291642E+03  0.47726291644E+03  0.50400001928E-02 0.  1.
       -1   -1    0    0    0  501  0.00000000000E+00  0.00000000000E+00 -0.75271407916E+03  0.75271407918E+03  0.50400001928E-02 0. -1.
    10030    2    1    2    0    0  0.00000000000E+00  0.00000000000E+00 -0.27545116274E+03  0.12299769956E+04  0.11987368630E+04 0.  0.
        3    1    3    3  502    0  0.23711026807E+03 -0.17722858091E+03  0.39701976168E+03  0.49523322837E+03  0.10100000352E+00 0.  1.
       -3    1    3    3    0  502 -0.23711026807E+03  0.17722858091E+03 -0.67247092442E+03  0.73474376725E+03  0.10100000352E+00 0. -1.
</event>
<event>
 5   0  0.2315038E-04  0.1200072E+04  0.7818609E-02  0.9112793E-01
        1   -1    0    0  501    0  0.00000000000E+00  0.00000000000E+00  0.54604160913E+03  0.54604160915E+03  0.50400001928E-02 0.  1.
       -1   -1    0    0    0  501  0.00000000000E+00  0.00000000000E+00 -0.65936970977E+03  0.65936970979E+03  0.50400001928E-02 0. -1.
    10030    2    1    2    0    0  0.00000000000E+00  0.00000000000E+00 -0.11332810064E+03  0.12054113189E+04  0.12000721601E+04 0.  0.
        1    1    3    3  502    0  0.34784103864E+03 -0.36852535837E+03 -0.37940177630E+03  0.63304820970E+03  0.50400001928E-02 0. -1.
       -1    1    3    3    0  502 -0.34784103864E+03  0.36852535837E+03  0.26607367566E+03  0.57236310924E+03  0.50400001928E-02 0.  1.
</event>
<event>
 5   0  0.2304842E-04  0.1197808E+04  0.7818609E-02  0.9114778E-01
        1   -1    0    0  501    0  0.00000000000E+00  0.00000000000E+00  0.10493649495E+04  0.10493649495E+04  0.50400001928E-02 0.  1.
       -1   -1    0    0    0  501  0.00000000000E+00  0.00000000000E+00 -0.34181232047E+03  0.34181232051E+03  0.50400001928E-02 0. -1.
    10030    2    1    2    0    0  0.00000000000E+00  0.00000000000E+00  0.70755262905E+03  0.13911772700E+04  0.11978077783E+04 0.  0.
        4    1    3    3  502    0 -0.16660937792E+03 -0.48750306203E+03  0.70847354741E+03  0.87598761440E+03  0.12699999809E+01 0.  1.
       -4    1    3    3    0  502  0.16660937792E+03  0.48750306203E+03 -0.92091836065E+00  0.51518965565E+03  0.12699999809E+01 0. -1.
</event>
<event>
 5   0  0.3883890E-04  0.1199874E+04  0.7818609E-02  0.9112967E-01
       -2   -1    0    0    0  501  0.00000000000E+00  0.00000000000E+00  0.11223538596E+04  0.11223538596E+04  0.25500000920E-02 0. -1.
        2   -1    0    0  501    0  0.00000000000E+00  0.00000000000E+00 -0.32068702548E+03  0.32068702549E+03  0.25500000920E-02 0.  1.
    10030    2    1    2    0    0  0.00000000000E+00  0.00000000000E+00  0.80166683412E+03  0.14430408851E+04  0.11998738613E+04 0.  0.
        2    1    3    3  502    0 -0.57335795615E+02  0.17995520729E+03  0.10856670467E+04  0.11019728701E+04  0.25500000920E-02 0. -1.
       -2    1    3    3    0  502  0.57335795615E+02 -0.17995520729E+03 -0.28400021260E+03  0.34106801499E+03  0.25500000920E-02 0.  1.
</event>
<event>
 5   0  0.3883890E-04  0.1209780E+04  0.7818609E-02  0.9104339E-01
       -2   -1    0    0    0  501  0.00000000000E+00  0.00000000000E+00  0.23446967558E+03  0.23446967559E+03  0.25500000920E-02 0. -1.
        2   -1    0    0  501    0  0.00000000000E+00  0.00000000000E+00 -0.15605078687E+04  0.15605078687E+04  0.25500000920E-02 0.  1.
    10030    2    1    2    0    0  0.00000000000E+00  0.00000000000E+00 -0.13260381931E+04  0.17949775443E+04  0.12097797712E+04 0.  0.
        2    1    3    3  502    0 -0.66028522307E+02 -0.12844412023E+03  0.20851367238E+03  0.25364465174E+03  0.25500000920E-02 0. -1.
       -2    1    3    3    0  502  0.66028522307E+02  0.12844412023E+03 -0.15345518655E+04  0.15413328926E+04  0.25500000920E-02 0.  1.
</event>
<event>
 5   0  0.3883890E-04  0.1196894E+04  0.7818609E-02  0.9115579E-01
        2   -1    0    0  501    0  0.00000000000E+00  0.00000000000E+00  0.66911366964E+03  0.66911366964E+03  0.25500000920E-02 0. -1.
       -2   -1    0    0    0  501  0.00000000000E+00  0.00000000000E+00 -0.53524386817E+03  0.53524386817E+03  0.25500000920E-02 0.  1.
    10030    2    1    2    0    0  0.00000000000E+00  0.00000000000E+00  0.13386980147E+03  0.12043575378E+04  0.11968942957E+04 0.  0.
        2    1    3    3  502    0  0.41918037866E+02  0.49831968683E+03  0.39770849058E+03  0.63894575331E+03  0.25500000920E-02 0. -1.
       -2    1    3    3    0  502 -0.41918037866E+02 -0.49831968683E+03 -0.26383868911E+03  0.56541178451E+03  0.25500000920E-02 0.  1.
</event>
<event>
 5   0  0.1541375E-04  0.1199730E+04  0.7818609E-02  0.9113093E-01
       -4   -1    0    0    0  501  0.00000000000E+00  0.00000000000E+00  0.13446028814E+04  0.13446034811E+04  0.12699999809E+01 0.  1.
        4   -1    0    0  501    0  0.00000000000E+00  0.00000000000E+00 -0.26761434597E+03  0.26761735943E+03  0.12699999809E+01 0. -1.
    10030    2    1    2    0    0  0.00000000000E+00  0.00000000000E+00  0.10769885354E+04  0.16122208406E+04  0.11997298585E+04 0.  0.
        5    1    3    3  502    0  0.25779122046E+03  0.25700049227E+03  0.11791881820E+04  0.12341038955E+04  0.46999998093E+01 0.  1.
       -5    1    3    3    0  502 -0.25779122046E+03 -0.25700049227E+03 -0.10219964659E+03  0.37811694505E+03  0.46999998093E+01 0. -1.
</event>
<event>
 5   0  0.2304842E-04  0.1200590E+04  0.7818609E-02  0.9112341E-01
        1   -1    0    0  501    0  0.00000000000E+00  0.00000000000E+00  0.79534528537E+03  0.79534528539E+03  0.50400001928E-02 0. -1.
       -1   -1    0    0    0  501  0.00000000000E+00  0.00000000000E+00 -0.45307845630E+03  0.45307845633E+03  0.50400001928E-02 0.  1.
    10030    2    1    2    0    0  0.00000000000E+00  0.00000000000E+00  0.34226682907E+03  0.12484237417E+04  0.12005895454E+04 0.  0.
        4    1    3    3  502    0  0.55097275259E+03 -0.15534198921E+03  0.35902601487E+03  0.67572435206E+03  0.12699999809E+01 0. -1.
       -4    1    3    3    0  502 -0.55097275259E+03  0.15534198921E+03 -0.16759185809E+02  0.57269938966E+03  0.12699999809E+01 0.  1.
</event>
<event>
 5   0  0.2340731E-04  0.1200150E+04  0.7818609E-02  0.9112725E-01
        1   -1    0    0  501    0  0.00000000000E+00  0.00000000000E+00  0.30880147672E+03  0.30880147676E+03  0.50400001928E-02 0. -1.
       -1   -1    0    0    0  501  0.00000000000E+00  0.00000000000E+00 -0.11660893383E+04  0.11660893383E+04  0.50400001928E-02 0.  1.
    10030    2    1    2    0    0  0.00000000000E+00  0.00000000000E+00 -0.85728786154E+03  0.14748908150E+04  0.12001501734E+04 0.  0.
        3    1    3    3  502    0 -0.46386677407E+03  0.36034381214E+03 -0.27778130563E+03  0.64975573179E+03  0.10100000352E+00 0.  1.
       -3    1    3    3    0  502  0.46386677407E+03 -0.36034381214E+03 -0.57950655591E+03  0.82513508323E+03  0.10100000352E+00 0. -1.
</event>
<event>
 5   0  0.4122956E-04  0.1201015E+04  0.7818609E-02  0.9111969E-01
        2   -1    0    0  501    0  0.00000000000E+00  0.00000000000E+00  0.22133819603E+04  0.22133819603E+04  0.25500000920E-02 0. -1.
       -2   -1    0    0    0  501  0.00000000000E+00  0.00000000000E+00 -0.16292229281E+03  0.16292229283E+03  0.25500000920E-02 0.  1.
    10030    2    1    2    0    0  0.00000000000E+00  0.00000000000E+00  0.20504596674E+04  0.23763042531E+04  0.12010150105E+04 0.  0.
        5    1    3    3  502    0  0.27805206857E+03  0.75672006477E+02 -0.17141924970E+02  0.28871290410E+03  0.46999998093E+01 0.  1.
       -5    1    3    3    0  502 -0.27805206857E+03 -0.75672006477E+02  0.20676015924E+04  0.20875913490E+04  0.46999998093E+01 0. -1.
</event>
<event>
 5   0  0.2204090E-04  0.1205232E+04  0.7818609E-02  0.9108289E-01
        1   -1    0    0  501    0  0.00000000000E+00  0.00000000000E+00  0.14110369440E+04  0.14110369441E+04  0.50400001928E-02 0.  1.
       -1   -1    0    0    0  501  0.00000000000E+00  0.00000000000E+00 -0.25736113291E+03  0.25736113296E+03  0.50400001928E-02 0. -1.
    10030    2    1    2    0    0  0.00000000000E+00  0.00000000000E+00  0.11536758111E+04  0.16683980770E+04  0.12052320383E+04 0.  0.
        2    1    3    3  502    0  0.23171656473E+02  0.31358204821E+03  0.12884730945E+04  0.13262856185E+04  0.25500000920E-02 0.  1.
       -2    1    3    3    0  502 -0.23171656473E+02 -0.31358204821E+03 -0.13479728340E+03  0.34211245847E+03  0.25500000920E-02 0. -1.
</event>
<event>
 5   0  0.3993723E-04  0.1203379E+04  0.7818609E-02  0.9109904E-01
       -2   -1    0    0    0  501  0.00000000000E+00  0.00000000000E+00  0.26544360623E+03  0.26544360624E+03  0.25500000920E-02 0.  1.
        2   -1    0    0  501    0  0.00000000000E+00  0.00000000000E+00 -0.13638680756E+04  0.13638680756E+04  0.25500000920E-02 0. -1.
    10030    2    1    2    0    0  0.00000000000E+00  0.00000000000E+00 -0.10984244694E+04  0.16293116819E+04  0.12033786776E+04 0.  0.
        3    1    3    3  502    0 -0.65320052309E+02 -0.32164092249E+03 -0.12319972310E+04  0.12749654034E+04  0.10100000352E+00 0. -1.
       -3    1    3    3    0  502  0.65320052309E+02  0.32164092249E+03  0.13357276163E+03  0.35434627853E+03  0.10100000352E+00 0.  1.
</event>
<event>
 5   0  0.2304842E-04  0.1200302E+04  0.7818609E-02  0.9112592E-01
       -1   -1    0    0    0  501  0.00000000000E+00  0.00000000000E+00  0.27813913338E+03  0.27813913342E+03  0.50400001928E-02 0. -1.
        1   -1    0    0  501    0  0.00000000000E+00  0.00000000000E+00 -0.12949675175E+04  0.12949675175E+04  0.50400001928E-02 0.  1.
    10030    2    1    2    0    0  0.00000000000E+00  0.00000000000E+00 -0.10168283841E+04  0.15731066509E+04  0.12003018672E+04 0.  0.
        4    1    3    3  502    0 -0.47585560995E+03  0.11360746275E+03 -0.52836107489E+02  0.49207568957E+03  0.12699999809E+01 0. -1.
       -4    1    3    3    0  502  0.47585560995E+03 -0.11360746275E+03 -0.96399227660E+03  0.10810309613E+04  0.12699999809E+01 0.  1.
</event>
<event>
 5   0  0.2244308E-04  0.1184462E+04  0.7818609E-02  0.9126566E-01
       -1   -1    0    0    0  501  0.00000000000E+00  0.00000000000E+00  0.19797643680E+03  0.19797643686E+03  0.50400001928E-02 0. -1.
        1   -1    0    0  501    0  0.00000000000E+00  0.00000000000E+00 -0.17716141012E+04  0.17716141012E+04  0.50400001928E-02 0.  1.
    10030    2    1    2    0    0  0.00000000000E+00  0.00000000000E+00 -0.15736376644E+04  0.19695905380E+04  0.11844624894E+04 0.  0.
        5    1    3    3  502    0 -0.11371506017E+03 -0.50119658029E+03 -0.29751337823E+03  0.59385640287E+03  0.46999998093E+01 0.  1.
       -5    1    3    3    0  502  0.11371506017E+03  0.50119658029E+03 -0.12761242861E+04  0.13757341352E+04  0.46999998093E+01 0. -1.
</event>
<event>
 5   0  0.2340731E-04  0.1196596E+04  0.7818609E-02  0.9115841E-01
       -1   -1    0    0    0  501  0.00000000000E+00  0.00000000000E+00  0.61593719880E+03  0.61593719883E+03  0.50400001928E-02 0. -1.
        1   -1    0    0  501    0  0.00000000000E+00  0.00000000000E+00 -0.58116386428E+03  0.58116386430E+03  0.50400001928E-02 0.  1.
    10030    2    1    2    0    0  0.00000000000E+00  0.00000000000E+00  0.34773334526E+02  0.11971010631E+04  0.11965959095E+04 0.  0.
        3    1    3    3  502    0 -0.56743319257E+02 -0.55281483323E+03 -0.20437420350E+03  0.59210883238E+03  0.10100000352E+00 0.  1.
       -3    1    3    3    0  502  0.56743319257E+02  0.55281483323E+03  0.23914753803E+03  0.60499223075E+03  0.10100000352E+00 0. -1.
</event>
<event>
 5   0  0.2315038E-04  0.1203065E+04  0.7818609E-02  0.9110178E-01
       -1   -1    0    0    0  501  0.00000000000E+00  0.00000000000E+00  0.33475237663E+03  0.33475237666E+03  0.50400001928E-02 0.  1.
        1   -1    0    0  501    0  0.00000000000E+00  0.00000000000E+00 -0.10809228301E+04  0.10809228301E+04  0.50400001928E-02 0. -1.
    10030    2    1    2    0    0  0.00000000000E+00  0.00000000000E+00 -0.74617045348E+03  0.14156752068E+04  0.12030652291E+04 0.  0.
        1    1    3    3  502    0  0.12059150961E+02  0.93662225637E+02  0.32597518686E+03  0.33937863531E+03  0.50400001928E-02 0.  1.
       -1    1    3    3    0  502 -0.12059150961E+02 -0.93662225637E+02 -0.10721456403E+04  0.10762965715E+04  0.50400001928E-02 0. -1.
</event>
<event>
 5   0  0.3832662E-04  0.1199616E+04  0.7818609E-02  0.9113192E-01
        2   -1    0    0  501    0  0.00000000000E+00  0.00000000000E+00  0.34768645285E+03  0.34768645286E+03  0.25500000920E-02 0.  1.
       -2   -1    0    0    0  501  0.00000000000E+00  0.00000000000E+00 -0.10347535979E+04  0.10347535979E+04  0.25500000920E-02 0. -1.
    10030    2    1    2    0    0  0.00000000000E+00  0.00000000000E+00 -0.68706714506E+03  0.13824400508E+04  0.11996162854E+04 0.  0.
        4    1    3    3  502    0 -0.71912329526E+02 -0.50119514112E+03 -0.71409885875E+03  0.87538948223E+03  0.12699999809E+01 0. -1.
       -4    1    3    3    0  502  0.71912329526E+02  0.50119514112E+03  0.27031713691E+02  0.50705056855E+03  0.12699999809E+01 0.  1.
</event>
<event>
 5   0  0.3883890E-04  0.1202040E+04  0.7818609E-02  0.9111073E-01
       -2   -1    0    0    0  501  0.00000000000E+00  0.00000000000E+00  0.51541457034E+03  0.51541457034E+03  0.25500000920E-02 0. -1.
        2   -1    0    0  501    0  0.00000000000E+00  0.00000000000E+00 -0.70084344936E+03  0.70084344936E+03  0.25500000920E-02 0.  1.
    10030    2    1    2    0    0  0.00000000000E+00  0.00000000000E+00 -0.18542887902E+03  0.12162580197E+04  0.12020398085E+04 0.  0.
        2    1    3    3  502    0 -0.23181699396E+03  0.13119142457E+03 -0.63785864029E+03  0.69124087955E+03  0.25500000920E-02 0.  1.
       -2    1    3    3    0  502  0.23181699396E+03 -0.13119142457E+03  0.45242976126E+03  0.52501714015E+03  0.25500000920E-02 0. -1.
</event>
<event>
 5   0  0.2340731E-04  0.1198579E+04  0.7818609E-02  0.9114101E-01
       -1   -1    0    0    0  501  0.00000000000E+00  0.00000000000E+00  0.85673648669E+03  0.85673648670E+03  0.50400001928E-02 0.  1.
        1   -1    0    0  501    0  0.00000000000E+00  0.00000000000E+00 -0.41920444610E+03  0.41920444613E+03  0.50400001928E-02 0. -1.
    10030    2    1    2    0    0  0.00000000000E+00  0.00000000000E+00  0.43753204058E+03  0.12759409328E+04  0.11985787323E+04 0.  0.
        3    1    3    3  502    0  0.11661701829E+03 -0.58370134042E+03  0.29283379895E+03  0.66336899820E+03  0.10100000352E+00 0.  1.
       -3    1    3    3    0  502 -0.11661701829E+03  0.58370134042E+03  0.14469824163E+03  0.61257193463E+03  0.10100000352E+00 0. -1.
</event>
<event>
 5   0  0.3993723E-04  0.1201258E+04  0.7818609E-02  0.9111756E-01
        2   -1    0    0  501    0  0.00000000000E+00  0.00000000000E+00  0.98975264548E+03  0.98975264548E+03  0.25500000920E-02 0.  1.
       -2   -1    0    0    0  501  0.00000000000E+00  0.00000000000E+00 -0.36449006514E+03  0.36449006515E+03  0.25500000920E-02 0. -1.
    10030    2    1    2    0    0  0.00000000000E+00  0.00000000000E+00  0.62526258034E+03  0.13542427106E+04  0.12012576846E+04 0.  0.
        3    1    3    3  502    0  0.23312812093E+03 -0.53127327229E+03  0.48784323792E+03  0.75801783989E+03  0.10100000352E+00 0.  1.
       -3    1    3    3    0  502 -0.23312812093E+03  0.53127327229E+03  0.13741934242E+03  0.59622487074E+03  0.10100000352E+00 0. -1.
</event>
<event>
 5   0  0.2315038E-04  0.1200454E+04  0.7818609E-02  0.9112459E-01
        1   -1    0    0  501    0  0.00000000000E+00  0.00000000000E+00  0.70168462723E+03  0.70168462724E+03  0.50400001928E-02 0.  1.
       -1   -1    0    0    0  501  0.00000000000E+00  0.00000000000E+00 -0.51343955544E+03  0.51343955546E+03  0.50400001928E-02 0. -1.
    10030    2    1    2    0    0  0.00000000000E+00  0.00000000000E+00  0.18824507179E+03  0.12151241827E+04  0.12004543191E+04 0.  0.
        1    1    3    3  502    0  0.32268701732E+03  0.28451884832E+03  0.51780020865E+03  0.67319755072E+03  0.50400001928E-02 0.  1.
       -1    1    3    3    0  502 -0.32268701732E+03 -0.28451884832E+03 -0.32955513686E+03  0.54192663198E+03  0.50400001928E-02 0. -1.
</event>
<event>
 5   0  0.2304842E-04  0.1200523E+04  0.7818609E-02  0.9112399E-01
        1   -1    0    0  501    0  0.00000000000E+00  0.00000000000E+00  0.34550774935E+03  0.34550774939E+03  0.50400001928E-02 0.  1.
       -1   -1    0    0    0  501  0.00000000000E+00  0.00000000000E+00 -0.10428530449E+04  0.10428530449E+04  0.50400001928E-02 0. -1.
    10030    2    1    2    0    0  0.00000000000E+00  0.00000000000E+00 -0.69734529554E+03  0.13883607943E+04  0.12005229002E+04 0.  0.
        4    1    3    3  502    0  0.48105557196E+03 -0.25160887656E+03 -0.52494478996E+02  0.54541614690E+03  0.12699999809E+01 0.  1.
       -4    1    3    3    0  502 -0.48105557196E+03  0.25160887656E+03 -0.64485081654E+03  0.84294464740E+03  0.12699999809E+01 0. -1.
</event>
<event>
 5   0  0.2244308E-04  0.1197940E+04  0.7818609E-02  0.9114662E-01
        1   -1    0    0  501    0  0.00000000000E+00  0.00000000000E+00  0.11620712662E+04  0.11620712662E+04  0.50400001928E-02 0.  1.
       -1   -1    0    0    0  501  0.00000000000E+00  0.00000000000E+00 -0.30872871976E+03  0.30872871980E+03  0.50400001928E-02 0. -1.
    10030    2    1    2    0    0  0.00000000000E+00  0.00000000000E+00  0.85334254642E+03  0.14707999860E+04  0.11979395215E+04 0.  0.
        5    1    3    3  502    0 -0.70996751365E+02 -0.45135972063E+03  0.90214924434E+03  0.10112672669E+04  0.46999998093E+01 0.  1.
       -5    1    3    3    0  502  0.70996751365E+02  0.45135972063E+03 -0.48806697923E+02  0.45953271905E+03  0.46999998093E+01 0. -1.
</event>
<event>
 5   0  0.3993723E-04  0.1199838E+04  0.7818609E-02  0.9112998E-01
        2   -1    0    0  501    0  0.00000000000E+00  0.00000000000E+00  0.10537466493E+04  0.10537466493E+04  0.25500000920E-02 0. -1.
       -2   -1    0    0    0  501  0.00000000000E+00  0.00000000000E+00 -0.34154579834E+03  0.34154579835E+03  0.25500000920E-02 0.  1.
    10030    2    1    2    0    0  0.00000000000E+00  0.00000000000E+00  0.71220085096E+03  0.13952924477E+04  0.11998378900E+04 0.  0.
        3    1    3    3  502    0 -0.55149363017E+03 -0.93730538354E+02  0.60813645224E+03  0.82629328490E+03  0.10100000352E+00 0. -1.
       -3    1    3    3    0  502  0.55149363017E+03  0.93730538354E+02  0.10406439872E+03  0.56899916276E+03  0.10100000352E+00 0.  1.
</event>
<event>
 5   0  0.2315038E-04  0.1200412E+04  0.7818609E-02  0.9112496E-01
        1   -1    0    0  501    0  0.00000000000E+00  0.00000000000E+00  0.14817601922E+04  0.14817601922E+04  0.50400001928E-02 0.  1.
       -1   -1    0    0    0  501  0.00000000000E+00  0.00000000000E+00 -0.24312130829E+03  0.24312130835E+03  0.50400001928E-02 0. -1.
    10030    2    1    2    0    0  0.00000000000E+00  0.00000000000E+00  0.12386388839E+04  0.17248815005E+04  0.12004123900E+04 0.  0.
        1    1    3    3  502    0 -0.29342193779E+03  0.49010004811E+03  0.35455004826E+03  0.67230962173E+03  0.50400001928E-02 0.  1.
       -1    1    3    3    0  502  0.29342193779E+03 -0.49010004811E+03  0.88408883560E+03  0.10525718788E+04  0.50400001928E-02 0. -1.
</event>
<event>
 5   0  0.4024486E-04  0.1202179E+04  0.7818609E-02  0.9110952E-01
       -2   -1    0    0    0  501  0.00000000000E+00  0.00000000000E+00  0.39883520361E+03  0.39883520361E+03  0.25500000920E-02 0.  1.
        2   -1    0    0  501    0  0.00000000000E+00  0.00000000000E+00 -0.90590890089E+03  0.90590890090E+03  0.25500000920E-02 0. -1.
    10030    2    1    2    0    0  0.00000000000E+00  0.00000000000E+00 -0.50707369729E+03  0.13047441045E+04  0.12021786239E+04 0.  0.
        1    1    3    3  502    0 -0.22269981472E+03 -0.34078850795E+02  0.35127927013E+03  0.41731726683E+03  0.50400001928E-02 0.  1.
       -1    1    3    3    0  502  0.22269981472E+03  0.34078850795E+02 -0.85835296742E+03  0.88742683768E+03  0.50400001928E-02 0. -1.
</event>
<event>
 5   0  0.2304842E-04  0.1200632E+04  0.7818609E-02  0.9112304E-01
        1   -1    0    0  501    0  0.00000000000E+00  0.00000000000E+00  0.44032312761E+03  0.44032312764E+03  0.50400001928E-02 0.  1.
       -1   -1    0    0    0  501  0.00000000000E+00  0.00000000000E+00 -0.81844270188E+03  0.81844270190E+03  0.50400001928E-02 0. -1.
    10030    2    1    2    0    0  0.00000000000E+00  0.00000000000E+00 -0.37811957427E+03  0.12587658295E+04  0.12006319174E+04 0.  0.
        4    1    3    3  502    0 -0.14067676167E+03  0.30879697371E+03 -0.70824669516E+03  0.78534101915E+03  0.12699999809E+01 0. -1.
       -4    1    3    3    0  502  0.14067676167E+03 -0.30879697371E+03  0.33012712090E+03  0.47342481039E+03  0.12699999809E+01 0.  1.
</event>
<event>
 5   0  0.2244308E-04  0.1198540E+04  0.7818609E-02  0.9114136E-01
       -1   -1    0    0    0  501  0.00000000000E+00  0.00000000000E+00  0.41798211740E+03  0.41798211743E+03  0.50400001928E-02 0. -1.
        1   -1    0    0  501    0  0.00000000000E+00  0.00000000000E+00 -0.85918610183E+03  0.85918610185E+03  0.50400001928E-02 0.  1.
    10030    2    1    2    0    0  0.00000000000E+00  0.00000000000E+00 -0.44120398443E+03  0.12771682193E+04  0.11985398218E+04 0.  0.
        5    1    3    3  502    0 -0.48962453661E+03 -0.20070415708E+03  0.79073278082E+02  0.53505982733E+03  0.46999998093E+01 0. -1.
       -5    1    3    3    0  502  0.48962453661E+03  0.20070415708E+03 -0.52027726251E+03  0.74210839195E+03  0.46999998093E+01 0.  1.
</event>
<event>
 5   0  0.1541375E-04  0.1202956E+04  0.7818609E-02  0.9110273E-01
       -3   -1    0    0    0  501  0.00000000000E+00  0.00000000000E+00  0.12201184684E+04  0.12201184726E+04  0.10100000352E+00 0. -1.
        3   -1    0    0  501    0  0.00000000000E+00  0.00000000000E+00 -0.29650865705E+03  0.29650867426E+03  0.10100000352E+00 0.  1.
    10030    2    1    2    0    0  0.00000000000E+00  0.00000000000E+00  0.92360981137E+03  0.15166271469E+04  0.12029558674E+04 0.  0.
        5    1    3    3  502    0  0.60144014809E+03 -0.96927154326E+00  0.45583481409E+03  0.75467785111E+03  0.46999998093E+01 0. -1.
       -5    1    3    3    0  502 -0.60144014809E+03  0.96927154326E+00  0.46777499727E+03  0.76194929575E+03  0.46999998093E+01 0.  1.
</event>
<event>
 5   0  0.2204090E-04  0.1199074E+04  0.7818609E-02  0.9113667E-01
        1   -1    0    0  501    0  0.00000000000E+00  0.00000000000E+00  0.65006866260E+03  0.65006866261E+03  0.50400001928E-02 0.  1.
       -1   -1    0    0    0  501  0.00000000000E+00  0.00000000000E+00 -0.55293366444E+03  0.55293366447E+03  0.50400001928E-02 0. -1.
    10030    2    1    2    0    0  0.00000000000E+00  0.00000000000E+00  0.97134998150E+02  0.12030023271E+04  0.11990743893E+04 0.  0.
        2    1    3    3  502    0 -0.11279159772E+03 -0.70242679532E+02  0.63510974523E+03  0.64886082255E+03  0.25500000920E-02 0.  1.
       -2    1    3    3    0  502  0.11279159772E+03  0.70242679532E+02 -0.53797474708E+03  0.55414150453E+03  0.25500000920E-02 0. -1.
</event>
<event>
 5   0  0.2204090E-04  0.1200772E+04  0.7818609E-02  0.9112181E-01
       -1   -1    0    0    0  501  0.00000000000E+00  0.00000000000E+00  0.28894105167E+03  0.28894105171E+03  0.50400001928E-02 0.  1.
        1   -1    0    0  501    0  0.00000000000E+00  0.00000000000E+00 -0.12475319238E+04  0.12475319238E+04  0.50400001928E-02 0. -1.
    10030    2    1    2    0    0  0.00000000000E+00  0.00000000000E+00 -0.95859087216E+03  0.15364729755E+04  0.12007717287E+04 0.  0.
        2    1    3    3  502    0 -0.25730236144E+03  0.53896305887E+03 -0.40065121291E+03  0.71917110512E+03  0.25500000920E-02 0.  1.
       -2    1    3    3    0  502  0.25730236144E+03 -0.53896305887E+03 -0.55793965925E+03  0.81730187042E+03  0.25500000920E-02 0. -1.
</event>
<event>
 5   0  0.2244308E-04  0.1199819E+04  0.7818609E-02  0.9113015E-01
       -1   -1    0    0    0  501  0.00000000000E+00  0.00000000000E+00  0.24161800260E+03  0.24161800266E+03  0.50400001928E-02 0. -1.
        1   -1    0    0  501    0  0.00000000000E+00  0.00000000000E+00 -0.14895053895E+04  0.14895053895E+04  0.50400001928E-02 0.  1.
    10030    2    1    2    0    0  0.00000000000E+00  0.00000000000E+00 -0.12478873869E+04  0.17311233922E+04  0.11998188482E+04 0.  0.
        5    1    3    3  502    0  0.22042493116E+03  0.42999911991E+02  0.17864995412E+03  0.28700877829E+03  0.46999998093E+01 0. -1.
       -5    1    3    3    0  502 -0.22042493116E+03 -0.42999911991E+02 -0.14265373411E+04  0.14441146139E+04  0.46999998093E+01 0.  1.
</event>
<event>
 5   0  0.3883890E-04  0.1203803E+04  0.7818609E-02  0.9109534E-01
        2   -1    0    0  501    0  0.00000000000E+00  0.00000000000E+00  0.15851064839E+04  0.15851064839E+04  0.25500000920E-02 0.  1.
       -2   -1    0    0    0  501  0.00000000000E+00  0.00000000000E+00 -0.22855595135E+03  0.22855595136E+03  0.25500000920E-02 0. -1.
    10030    2    1    2    0    0  0.00000000000E+00  0.00000000000E+00  0.13565505326E+04  0.18136624353E+04  0.12038031740E+04 0.  0.
        2    1    3    3  502    0  0.32634673674E+03 -0.18299238364E+03 -0.32067377703E+02  0.37552193248E+03  0.25500000920E-02 0. -1.
       -2    1    3    3    0  502 -0.32634673674E+03  0.18299238364E+03  0.13886179103E+04  0.14381405028E+04  0.25500000920E-02 0.  1.
</event>
<event>
 5   0  0.2304842E-04  0.1195845E+04  0.7818609E-02  0.9116501E-01
       -1   -1    0    0    0  501  0.00000000000E+00  0.00000000000E+00  0.39312501019E+03  0.39312501022E+03  0.50400001928E-02 0. -1.
        1   -1    0    0  501    0  0.00000000000E+00  0.00000000000E+00 -0.90940911705E+03  0.90940911706E+03  0.50400001928E-02 0.  1.
    10030    2    1    2    0    0  0.00000000000E+00  0.00000000000E+00 -0.51628410686E+03  0.13025341273E+04  0.11958452549E+04 0.  0.
        4    1    3    3  502    0 -0.44058656661E+03 -0.15669418317E+03  0.14771382864E+03  0.49039838681E+03  0.12699999809E+01 0. -1.
       -4    1    3    3    0  502  0.44058656661E+03  0.15669418317E+03 -0.66399793550E+03  0.81213574048E+03  0.12699999809E+01 0.  1.
</event>
<event>
 5   0  0.2315038E-04  0.1196624E+04  0.7818609E-02  0.9115817E-01
        1   -1    0    0  501    0  0.00000000000E+00  0.00000000000E+00  0.11469284500E+04  0.11469284500E+04  0.50400001928E-02 0. -1.
       -1   -1    0    0    0  501  0.00000000000E+00  0.00000000000E+00 -0.31211804954E+03  0.31211804958E+03  0.50400001928E-02 0.  1.
    10030    2    1    2    0    0  0.00000000000E+00  0.00000000000E+00  0.83481040041E+03  0.14590464995E+04  0.11966237016E+04 0.  0.
        1    1    3    3  502    0 -0.20815883598E+02 -0.47119854898E+03  0.86626047603E+03  0.98634100894E+03  0.50400001928E-02 0. -1.
       -1    1    3    3    0  502  0.20815883598E+02  0.47119854898E+03 -0.31450075617E+02  0.47270549060E+03  0.50400001928E-02 0.  1.
</event>
<event>
 5   0  0.2315038E-04  0.1199906E+04  0.7818609E-02  0.9112939E-01
        1   -1    0    0  501    0  0.00000000000E+00  0.00000000000E+00  0.12499218974E+04  0.12499218974E+04  0.50400001928E-02 0. -1.
       -1   -1    0    0    0  501  0.00000000000E+00  0.00000000000E+00 -0.28797280425E+03  0.28797280430E+03  0.50400001928E-02 0.  1.
    10030    2    1    2    0    0  0.00000000000E+00  0.00000000000E+00  0.96194909311E+03  0.15378947017E+04  0.11999058528E+04 0.  0.
        1    1    3    3  502    0 -0.29966960559E+03 -0.32104043277E+03  0.10048580829E+04  0.10966351257E+04  0.50400001928E-02 0. -1.
       -1    1    3    3    0  502  0.29966960559E+03  0.32104043277E+03 -0.42908989814E+02  0.44125957601E+03  0.50400001928E-02 0.  1.
</event>
<event>
 5   0  0.1541375E-04  0.1199578E+04  0.7818609E-02  0.9113226E-01
        3   -1    0    0  501    0  0.00000000000E+00  0.00000000000E+00  0.26442318152E+03  0.26442320080E+03  0.10100000352E+00 0. -1.
       -3   -1    0    0    0  501  0.00000000000E+00  0.00000000000E+00 -0.13604965756E+04  0.13604965793E+04  0.10100000352E+00 0.  1.
    10030    2    1    2    0    0  0.00000000000E+00  0.00000000000E+00 -0.10960733940E+04  0.16249197801E+04  0.11995780119E+04 0.  0.
        1    1    3    3  502    0 -0.86609906777E+02 -0.44140533741E+03 -0.10614850289E+02  0.44994735572E+03  0.50400001928E-02 0. -1.
       -1    1    3    3    0  502  0.86609906777E+02  0.44140533741E+03 -0.10854585438E+04  0.11749724244E+04  0.50400001928E-02 0.  1.
</event>
<event>
 5   0  0.3832662E-04  0.1200370E+04  0.7818609E-02  0.9112533E-01
       -2   -1    0    0    0  501  0.00000000000E+00  0.00000000000E+00  0.23250167844E+03  0.23250167846E+03  0.25500000920E-02 0. -1.
        2   -1    0    0  501    0  0.00000000000E+00  0.00000000000E+00 -0.15493299863E+04  0.15493299863E+04  0.25500000920E-02 0.  1.
    10030    2    1    2    0    0  0.00000000000E+00  0.00000000000E+00 -0.13168283079E+04  0.17818316648E+04  0.12003696469E+04 0.  0.
        4    1    3    3  502    0  0.44424934335E+03  0.27266502947E+03 -0.11000494887E+04  0.12172979043E+04  0.12699999809E+01 0.  1.
       -4    1    3    3    0  502 -0.44424934335E+03 -0.27266502947E+03 -0.21677881918E+03  0.56453376047E+03  0.12699999809E+01 0. -1.
</event>
<event>
 5   0  0.2315038E-04  0.1203771E+04  0.7818609E-02  0.9109563E-01
       -1   -1    0    0    0  501  0.00000000000E+00  0.00000000000E+00  0.38018451582E+03  0.38018451586E+03  0.50400001928E-02 0.  1.
        1   -1    0    0  501    0  0.00000000000E+00  0.00000000000E+00 -0.95286857422E+03  0.95286857423E+03  0.50400001928E-02 0. -1.
    10030    2    1    2    0    0  0.00000000000E+00  0.00000000000E+00 -0.57268405840E+03  0.13330530901E+04  0.12037705389E+04 0.  0.
        1    1    3    3  502    0  0.33907082955E+03 -0.27866236988E+03  0.16977171477E+03  0.47057855773E+03  0.50400001928E-02 0.  1.
       -1    1    3    3    0  502 -0.33907082955E+03  0.27866236988E+03 -0.74245577316E+03  0.86247453236E+03  0.50400001928E-02 0. -1.
</event>
<event>
 5   0  0.3832662E-04  0.1200444E+04  0.7818609E-02  0.9112468E-01
        2   -1    0    0  501    0  0.00000000000E+00  0.00000000000E+00  0.62217720751E+03  0.62217720752E+03  0.25500000920E-02 0. -1.
       -2   -1    0    0    0  501  0.00000000000E+00  0.00000000000E+00 -0.57904138818E+03  0.57904138819E+03  0.25500000920E-02 0.  1.
    10030    2    1    2    0    0  0.00000000000E+00  0.00000000000E+00  0.43135819330E+02  0.12012185957E+04  0.12004438412E+04 0.  0.
        4    1    3    3  502    0  0.31280008514E+03 -0.17745752505E+02 -0.49072533288E+03  0.58221282211E+03  0.12699999809E+01 0.  1.
       -4    1    3    3    0  502 -0.31280008514E+03  0.17745752505E+02  0.53386115221E+03  0.61900577359E+03  0.12699999809E+01 0. -1.
</event>
<event>
 5   0  0.3993723E-04  0.1199804E+04  0.7818609E-02  0.9113028E-01
       -2   -1    0    0    0  501  0.00000000000E+00  0.00000000000E+00  0.26459881502E+03  0.26459881504E+03  0.25500000920E-02 0.  1.
        2   -1    0    0  501    0  0.00000000000E+00  0.00000000000E+00 -0.13601058690E+04  0.13601058690E+04  0.25500000920E-02 0. -1.
    10030    2    1    2    0    0  0.00000000000E+00  0.00000000000E+00 -0.10955070539E+04  0.16247046840E+04  0.11998039861E+04 0.  0.
        3    1    3    3  502    0  0.15527488885E+03  0.49134360936E+03 -0.96370557957E+03  0.10928207940E+04  0.10100000352E+00 0. -1.
       -3    1    3    3    0  502 -0.15527488885E+03 -0.49134360936E+03 -0.13180147438E+03  0.53188388998E+03  0.10100000352E+00 0.  1.
</event>
<event>
 5   0  0.4024486E-04  0.1199435E+04  0.7818609E-02  0.9113351E-01
        2   -1    0    0  501    0  0.00000000000E+00  0.00000000000E+00  0.90159881394E+03  0.90159881394E+03  0.25500000920E-02 0.  1.
       -2   -1    0    0    0  501  0.00000000000E+00  0.00000000000E+00 -0.39891484778E+03  0.39891484779E+03  0.25500000920E-02 0. -1.
    10030    2    1    2    0    0  0.00000000000E+00  0.00000000000E+00  0.50268396616E+03  0.13005136617E+04  0.11994351231E+04 0.  0.
        1    1    3    3  502    0 -0.30320066280E+03  0.34648657045E+03  0.66801504371E+03  0.81131232215E+03  0.50400001928E-02 0.  1.
       -1    1    3    3    0  502  0.30320066280E+03 -0.34648657045E+03 -0.16533107755E+03  0.48920133959E+03  0.50400001928E-02 0. -1.
</event>
<event>
 5   0  0.3832662E-04  0.1198715E+04  0.7818609E-02  0.9113982E-01
       -2   -1    0    0    0  501  0.00000000000E+00  0.00000000000E+00  0.24488091327E+03  0.24488091328E+03  0.25500000920E-02 0.  1.
        2   -1    0    0  501    0  0.00000000000E+00  0.00000000000E+00 -0.14669551996E+04  0.14669551996E+04  0.25500000920E-02 0. -1.
    10030    2    1    2    0    0  0.00000000000E+00  0.00000000000E+00 -0.12220742863E+04  0.17118361129E+04  0.11987148602E+04 0.  0.
        4    1    3    3  502    0  0.15296711524E+03  0.54514584020E+03 -0.89176904932E+03  0.10563316599E+04  0.12699999809E+01 0. -1.
       -4    1    3    3    0  502 -0.15296711524E+03 -0.54514584020E+03 -0.33030523702E+03  0.65550445302E+03  0.12699999809E+01 0.  1.
</event>
<event>
 5   0  0.2315038E-04  0.1201230E+04  0.7818609E-02  0.9111780E-01
        1   -1    0    0  501    0  0.00000000000E+00  0.00000000000E+00  0.12317149216E+04  0.12317149216E+04  0.50400001928E-02 0. -1.
       -1   -1    0    0    0  501  0.00000000000E+00  0.00000000000E+00 -0.29287496850E+03  0.29287496854E+03  0.50400001928E-02 0.  1.
    10030    2    1    2    0    0  0.00000000000E+00  0.00000000000E+00  0.93883995306E+03  0.15245898901E+04  0.12012301510E+04 0.  0.
        1    1    3    3  502    0 -0.24797780177E+03  0.46270524165E+03  0.83977432573E+03  0.99035854568E+03  0.50400001928E-02 0.  1.
       -1    1    3    3    0  502  0.24797780177E+03 -0.46270524165E+03  0.99065627329E+02  0.53423134443E+03  0.50400001928E-02 0. -1.
</event>
<event>
 5   0  0.3993723E-04  0.1203684E+04  0.7818609E-02  0.9109638E-01
       -2   -1    0    0    0  501  0.00000000000E+00  0.00000000000E+00  0.51813235319E+03  0.51813235320E+03  0.25500000920E-02 0. -1.
        2   -1    0    0  501    0  0.00000000000E+00  0.00000000000E+00 -0.69907583898E+03  0.69907583899E+03  0.25500000920E-02 0.  1.
    10030    2    1    2    0    0  0.00000000000E+00  0.00000000000E+00 -0.18094348579E+03  0.12172081922E+04  0.12036840275E+04 0.  0.
        3    1    3    3  502    0  0.48474059232E+03 -0.18273334684E+03  0.21931791807E+03  0.56255246624E+03  0.10100000352E+00 0. -1.
       -3    1    3    3    0  502 -0.48474059232E+03  0.18273334684E+03 -0.40026140385E+03  0.65465572594E+03  0.10100000352E+00 0.  1.
</event>
<event>
 5   0  0.2315038E-04  0.1204259E+04  0.7818609E-02  0.9109137E-01
        1   -1    0    0  501    0  0.00000000000E+00  0.00000000000E+00  0.54279139695E+03  0.54279139697E+03  0.50400001928E-02 0.  1.
       -1   -1    0    0    0  501  0.00000000000E+00  0.00000000000E+00 -0.66795472232E+03  0.66795472233E+03  0.50400001928E-02 0. -1.
    10030    2    1    2    0    0  0.00000000000E+00  0.00000000000E+00 -0.12516332537E+03  0.12107461193E+04  0.12042592360E+04 0.  0.
        1    1    3    3  502    0 -0.53593575223E+03  0.18646662689E+03  0.13990615565E+03  0.58444047248E+03  0.50400001928E-02 0.  1.
       -1    1    3    3    0  502  0.53593575223E+03 -0.18646662689E+03 -0.26506948102E+03  0.62630564683E+03  0.50400001928E-02 0. -1.
</event>
<event>
 5   0  0.3832662E-04  0.1200322E+04  0.7818609E-02  0.9112575E-01
        2   -1    0    0  501    0  0.00000000000E+00  0.00000000000E+00  0.11458000188E+04  0.11458000188E+04  0.25500000920E-02 0.  1.
       -2   -1    0    0    0  501  0.00000000000E+00  0.00000000000E+00 -0.31435966660E+03  0.31435966661E+03  0.25500000920E-02 0. -1.
    10030    2    1    2    0    0  0.00000000000E+00  0.00000000000E+00  0.83144035219E+03  0.14601596854E+04  0.12003221433E+04 0.  0.
        4    1    3    3  502    0 -0.59027048986E+03 -0.10265112176E+03  0.45847354081E+03  0.75442435308E+03  0.12699999809E+01 0.  1.
       -4    1    3    3    0  502  0.59027048986E+03  0.10265112176E+03  0.37296681137E+03  0.70573533232E+03  0.12699999809E+01 0. -1.
</event>
<event>
 5   0  0.3883890E-04  0.1199189E+04  0.7818609E-02  0.9113566E-01
       -2   -1    0    0    0  501  0.00000000000E+00  0.00000000000E+00  0.12013592881E+03  0.12013592884E+03  0.25500000920E-02 0.  1.
        2   -1    0    0  501    0  0.00000000000E+00  0.00000000000E+00 -0.29925577204E+04  0.29925577204E+04  0.25500000920E-02 0. -1.
    10030    2    1    2    0    0  0.00000000000E+00  0.00000000000E+00 -0.28724217916E+04  0.31126936492E+04  0.11991892283E+04 0.  0.
        2    1    3    3  502    0 -0.44016216966E+03  0.18526102937E+02 -0.38048094828E+03  0.58210970109E+03  0.25500000920E-02 0.  1.
       -2    1    3    3    0  502  0.44016216966E+03 -0.18526102937E+02 -0.24919408433E+04  0.25305839482E+04  0.25500000920E-02 0. -1.
</event>
<event>
 5   0  0.4024486E-04  0.1199766E+04  0.7818609E-02  0.9113061E-01
        2   -1    0    0  501    0  0.00000000000E+00  0.00000000000E+00  0.65517161258E+03  0.65517161258E+03  0.25500000920E-02 0.  1.
       -2   -1    0    0    0  501  0.00000000000E+00  0.00000000000E+00 -0.54926047761E+03  0.54926047762E+03  0.25500000920E-02 0. -1.
    10030    2    1    2    0    0  0.00000000000E+00  0.00000000000E+00  0.10591113497E+03  0.12044320902E+04  0.11997664320E+04 0.  0.
        1    1    3    3  502    0  0.13969806077E+03  0.14556635407E+03  0.62009033916E+03  0.65208675831E+03  0.50400001928E-02 0.  1.
       -1    1    3    3    0  502 -0.13969806077E+03 -0.14556635407E+03 -0.51417920419E+03  0.55234533190E+03  0.50400001928E-02 0. -1.
</event>
<event>
 5   0  0.4024486E-04  0.1198795E+04  0.7818609E-02  0.9113912E-01
       -2   -1    0    0    0  501  0.00000000000E+00  0.00000000000E+00  0.45468301347E+03  0.45468301347E+03  0.25500000920E-02 0.  1.
        2   -1    0    0  501    0  0.00000000000E+00  0.00000000000E+00 -0.79017159497E+03  0.79017159497E+03  0.25500000920E-02 0. -1.
    10030    2    1    2    0    0  0.00000000000E+00  0.00000000000E+00 -0.33548858150E+03  0.12448546084E+04  0.11987953987E+04 0.  0.
        1    1    3    3  502    0  0.11125220978E+03 -0.23821870690E+03 -0.72709815699E+03  0.77317329003E+03  0.50400001928E-02 0. -1.
       -1    1    3    3    0  502 -0.11125220978E+03  0.23821870690E+03  0.39160957549E+03  0.47168131841E+03  0.50400001928E-02 0.  1.
</event>
<event>
 5   0  0.1541375E-04  0.1201643E+04  0.7818609E-02  0.9111420E-01
       -3   -1    0    0    0  501  0.00000000000E+00  0.00000000000E+00  0.94404933107E+03  0.94404933648E+03  0.10100000352E+00 0.  1.
        3   -1    0    0  501    0  0.00000000000E+00  0.00000000000E+00 -0.38238073022E+03  0.38238074356E+03  0.10100000352E+00 0. -1.
    10030    2    1    2    0    0  0.00000000000E+00  0.00000000000E+00  0.56166860086E+03  0.13264300800E+04  0.12016426840E+04 0.  0.
        3    1    3    3  502    0 -0.32339196057E+03 -0.35603288652E+03  0.67828755826E+03  0.83151416003E+03  0.10100000352E+00 0.  1.
       -3    1    3    3    0  502  0.32339196057E+03  0.35603288652E+03 -0.11661895740E+03  0.49491592000E+03  0.10100000352E+00 0. -1.
</event>
<event>
 5   0  0.3883890E-04  0.1194608E+04  0.7818609E-02  0.9117589E-01
       -2   -1    0    0    0  501  0.00000000000E+00  0.00000000000E+00  0.28380458850E+03  0.28380458851E+03  0.25500000920E-02 0.  1.
        2   -1    0    0  501    0  0.00000000000E+00  0.00000000000E+00 -0.12571045308E+04  0.12571045308E+04  0.25500000920E-02 0. -1.
    10030    2    1    2    0    0  0.00000000000E+00  0.00000000000E+00 -0.97329994225E+03  0.15409091193E+04  0.11946079425E+04 0.  0.
        2    1    3    3  502    0  0.24013005843E+03  0.52085617463E+02 -0.11888943847E+04  0.12140202694E+04  0.25500000920E-02 0. -1.
       -2    1    3    3    0  502 -0.24013005843E+03 -0.52085617463E+02  0.21559444249E+03  0.32688884984E+03  0.25500000920E-02 0.  1.
</event>
<event>
 5   0  0.2204090E-04  0.1203559E+04  0.7818609E-02  0.9109747E-01
       -1   -1    0    0    0  501  0.00000000000E+00  0.00000000000E+00  0.29739857709E+03  0.29739857714E+03  0.50400001928E-02 0. -1.
        1   -1    0    0  501    0  0.00000000000E+00  0.00000000000E+00 -0.12176872623E+04  0.12176872623E+04  0.50400001928E-02 0.  1.
    10030    2    1    2    0    0  0.00000000000E+00  0.00000000000E+00 -0.92028868523E+03  0.15150858395E+04  0.12035588215E+04 0.  0.
        2    1    3    3  502    0 -0.29359066647E+03  0.52509824498E+03 -0.44169418528E+03  0.74633598308E+03  0.25500000920E-02 0.  1.
       -2    1    3    3    0  502  0.29359066647E+03 -0.52509824498E+03 -0.47859449995E+03  0.76874985639E+03  0.25500000920E-02 0. -1.
</event>
<event>
 5   0  0.2204090E-04  0.1198157E+04  0.7818609E-02  0.9114471E-01
       -1   -1    0    0    0  501  0.00000000000E+00  0.00000000000E+00  0.43369393049E+03  0.43369393052E+03  0.50400001928E-02 0.  1.
        1   -1    0    0  501    0  0.00000000000E+00  0.00000000000E+00 -0.82753107851E+03  0.82753107853E+03  0.50400001928E-02 0. -1.
    10030    2    1    2    0    0  0.00000000000E+00  0.00000000000E+00 -0.39383714802E+03  0.12612250090E+04  0.11981572619E+04 0.  0.
        2    1    3    3  502    0 -0.17627334668E+03 -0.30882613661E+03  0.31058943414E+03  0.47213522640E+03  0.25500000920E-02 0.  1.
       -2    1    3    3    0  502  0.17627334668E+03  0.30882613661E+03 -0.70442658216E+03  0.78908978264E+03  0.25500000920E-02 0. -1.
</event>
<event>
 5   0  0.2304842E-04  0.1199403E+04  0.7818609E-02  0.9113379E-01
        1   -1    0    0  501    0  0.00000000000E+00  0.00000000000E+00  0.87681132781E+03  0.87681132782E+03  0.50400001928E-02 0.  1.
       -1   -1    0    0    0  501  0.00000000000E+00  0.00000000000E+00 -0.41017005362E+03  0.41017005365E+03  0.50400001928E-02 0. -1.
    10030    2    1    2    0    0  0.00000000000E+00  0.00000000000E+00  0.46664127419E+03  0.12869813815E+04  0.11994027670E+04 0.  0.
        4    1    3    3  502    0  0.47096231753E+03  0.36390321578E+03  0.15440392560E+03  0.61487660561E+03  0.12699999809E+01 0.  1.
       -4    1    3    3    0  502 -0.47096231753E+03 -0.36390321578E+03  0.31223734859E+03  0.67210477586E+03  0.12699999809E+01 0. -1.
</event>
<event>
 5   0  0.2244308E-04  0.1199440E+04  0.7818609E-02  0.9113347E-01
       -1   -1    0    0    0  501  0.00000000000E+00  0.00000000000E+00  0.40214912982E+03  0.40214912985E+03  0.50400001928E-02 0. -1.
        1   -1    0    0  501    0  0.00000000000E+00  0.00000000000E+00 -0.89435472477E+03  0.89435472479E+03  0.50400001928E-02 0.  1.
    10030    2    1    2    0    0  0.00000000000E+00  0.00000000000E+00 -0.49220559495E+03  0.12965038546E+04  0.11994398265E+04 0.  0.
        5    1    3    3  502    0 -0.72269791348E+02 -0.23417838498E+03 -0.83773438551E+03  0.87285934113E+03  0.46999998093E+01 0.  1.
       -5    1    3    3    0  502  0.72269791348E+02  0.23417838498E+03  0.34552879055E+03  0.42364451352E+03  0.46999998093E+01 0. -1.
</event>
<event>
 5   0  0.2244308E-04  0.1188553E+04  0.7818609E-02  0.9122935E-01
        1   -1    0    0  501    0  0.00000000000E+00  0.00000000000E+00  0.21505815504E+03  0.21505815510E+03  0.50400001928E-02 0.  1.
       -1   -1    0    0    0  501  0.00000000000E+00  0.00000000000E+00 -0.16421819313E+04  0.16421819313E+04  0.50400001928E-02 0. -1.
    10030    2    1    2    0    0  0.00000000000E+00  0.00000000000E+00 -0.14271237763E+04  0.18572400864E+04  0.11885530976E+04 0.  0.
        5    1    3    3  502    0 -0.16023158238E+02 -0.56812622077E+03 -0.98474664858E+03  0.11370014056E+04  0.46999998093E+01 0. -1.
       -5    1    3    3    0  502  0.16023158238E+02  0.56812622077E+03 -0.44237712771E+03  0.72023868089E+03  0.46999998093E+01 0.  1.
</event>
<event>
 5   0  0.3993723E-04  0.1199768E+04  0.7818609E-02  0.9113060E-01
       -2   -1    0    0    0  501  0.00000000000E+00  0.00000000000E+00  0.25556289485E+03  0.25556289486E+03  0.25500000920E-02 0.  1.
        2   -1    0    0  501    0  0.00000000000E+00  0.00000000000E+00 -0.14081095172E+04  0.14081095172E+04  0.25500000920E-02 0. -1.
    10030    2    1    2    0    0  0.00000000000E+00  0.00000000000E+00 -0.11525466223E+04  0.16636724121E+04  0.11997675516E+04 0.  0.
        3    1    3    3  502    0 -0.52535649104E+03 -0.23968925316E+03 -0.80162258654E+03  0.98795200400E+03  0.10100000352E+00 0. -1.
       -3    1    3    3    0  502  0.52535649104E+03  0.23968925316E+03 -0.35092403580E+03  0.67572040805E+03  0.10100000352E+00 0.  1.
</event>
<event>
 5   0  0.3993723E-04  0.1200369E+04  0.7818609E-02  0.9112533E-01
       -2   -1    0    0    0  501  0.00000000000E+00  0.00000000000E+00  0.71641988855E+03  0.71641988856E+03  0.25500000920E-02 0.  1.
        2   -1    0    0  501    0  0.00000000000E+00  0.00000000000E+00 -0.50280789564E+03  0.50280789564E+03  0.25500000920E-02 0. -1.
    10030    2    1    2    0    0  0.00000000000E+00  0.00000000000E+00  0.21361199291E+03  0.12192277842E+04  0.12003692375E+04 0.  0.
        3    1    3    3  502    0 -0.17511669061E+02 -0.56151010810E+03  0.32136222873E+03  0.64720472210E+03  0.10100000352E+00 0.  1.
       -3    1    3    3    0  502  0.17511669061E+02  0.56151010810E+03 -0.10775023582E+03  0.57202306210E+03  0.10100000352E+00 0. -1.
</event>
<event>
 5   0  0.2244308E-04  0.1192790E+04  0.7818609E-02  0.9119191E-01
        1   -1    0    0  501    0  0.00000000000E+00  0.00000000000E+00  0.91133147967E+03  0.91133147969E+03  0.50400001928E-02 0.  1.
       -1   -1    0    0    0  501  0.00000000000E+00  0.00000000000E+00 -0.39029404866E+03  0.39029404869E+03  0.50400001928E-02 0. -1.
    10030    2    1    2    0    0  0.00000000000E+00  0.00000000000E+00  0.52103743101E+03  0.13016255284E+04  0.11927904307E+04 0.  0.
        5    1    3    3  502    0  0.25027372266E+03 -0.43625584971E+03  0.61024340174E+03  0.79080667803E+03  0.46999998093E+01 0.  1.
       -5    1    3    3    0  502 -0.25027372266E+03  0.43625584971E+03 -0.89205970725E+02  0.51081885035E+03  0.46999998093E+01 0. -1.
</event>
<event>
 5   0  0.4024486E-04  0.1200021E+04  0.7818609E-02  0.9112838E-01
        2   -1    0    0  501    0  0.00000000000E+00  0.00000000000E+00  0.13397045113E+04  0.13397045113E+04  0.25500000920E-02 0. -1.
       -2   -1    0    0    0  501  0.00000000000E+00  0.00000000000E+00 -0.26872525260E+03  0.26872525261E+03  0.25500000920E-02 0.  1.
    10030    2    1    2    0    0  0.00000000000E+00  0.00000000000E+00  0.10709792587E+04  0.16084297639E+04  0.12000207218E+04 0.  0.
        1    1    3    3  502    0  0.35259825777E+03  0.35381861037E+03  0.98103619948E+03  0.11008838109E+04  0.50400001928E-02 0. -1.
       -1    1    3    3    0  502 -0.35259825777E+03 -0.35381861037E+03  0.89943059179E+02  0.50754595295E+03  0.50400001928E-02 0.  1.
</event>
<event>
 5   0  0.2204090E-04  0.1198540E+04  0.7818609E-02  0.9114135E-01
        1   -1    0    0  501    0  0.00000000000E+00  0.00000000000E+00  0.94185696969E+03  0.94185696970E+03  0.50400001928E-02 0.  1.
       -1   -1    0    0    0  501  0.00000000000E+00  0.00000000000E+00 -0.38129413130E+03  0.38129413134E+03  0.50400001928E-02 0. -1.
    10030    2    1    2    0    0  0.00000000000E+00  0.00000000000E+00  0.56056283839E+03  0.13231511010E+04  0.11985400037E+04 0.  0.
        2    1    3    3  502    0  0.62547186694E+02 -0.18104353134E+03  0.90715276371E+03  0.92715427385E+03  0.25500000920E-02 0.  1.
       -2    1    3    3    0  502 -0.62547186694E+02  0.18104353134E+03 -0.34658992532E+03  0.39599682719E+03  0.25500000920E-02 0. -1.
</event>
<event>
 5   0  0.3993723E-04  0.1199331E+04  0.7818609E-02  0.9113442E-01
        2   -1    0    0  501    0  0.00000000000E+00  0.00000000000E+00  0.18391434194E+04  0.18391434194E+04  0.25500000920E-02 0.  1.
       -2   -1    0    0    0  501  0.00000000000E+00  0.00000000000E+00 -0.19552516484E+03  0.19552516486E+03  0.25500000920E-02 0. -1.
    10030    2    1    2    0    0  0.00000000000E+00  0.00000000000E+00  0.16436182546E+04  0.20346685843E+04  0.11993311807E+04 0.  0.
        3    1    3    3  502    0 -0.49265702455E+03  0.26617543244E+02  0.24355456466E+03  0.55021656973E+03  0.10100000352E+00 0. -1.
       -3    1    3    3    0  502  0.49265702455E+03 -0.26617543244E+02  0.14000636899E+04  0.14844520146E+04  0.10100000352E+00 0.  1.
</event>
<event>
 5   0  0.3832662E-04  0.1212554E+04  0.7818609E-02  0.9101938E-01
        2   -1    0    0  501    0  0.00000000000E+00  0.00000000000E+00  0.68950639089E+03  0.68950639089E+03  0.25500000920E-02 0.  1.
       -2   -1    0    0    0  501  0.00000000000E+00  0.00000000000E+00 -0.53309417893E+03  0.53309417894E+03  0.25500000920E-02 0. -1.
    10030    2    1    2    0    0  0.00000000000E+00  0.00000000000E+00  0.15641221195E+03  0.12226005698E+04  0.12125540703E+04 0.  0.
        4    1    3    3  502    0 -0.35299166838E+03 -0.28877194020E+03 -0.32457568099E+03  0.55977078968E+03  0.12699999809E+01 0. -1.
       -4    1    3    3    0  502  0.35299166838E+03  0.28877194020E+03  0.48098789294E+03  0.66282978015E+03  0.12699999809E+01 0.  1.
</event>
<event>
 5   0  0.4122956E-04  0.1201387E+04  0.7818609E-02  0.9111643E-01
        2   -1    0    0  501    0  0.00000000000E+00  0.00000000000E+00  0.37580759030E+03  0.37580759031E+03  0.25500000920E-02 0.  1.
       -2   -1    0    0    0  501  0.00000000000E+00  0.00000000000E+00 -0.96015349569E+03  0.96015349570E+03  0.25500000920E-02 0. -1.
    10030    2    1    2    0    0  0.00000000000E+00  0.00000000000E+00 -0.58434590539E+03  0.13359610860E+04  0.12013874838E+04 0.  0.
        5    1    3    3  502    0 -0.21719845352E+03 -0.40401980187E+03  0.13908784711E+03  0.47934819049E+03  0.46999998093E+01 0.  1.
       -5    1    3    3    0  502  0.21719845352E+03  0.40401980187E+03 -0.72343375250E+03  0.85661289552E+03  0.46999998093E+01 0. -1.
</event>
<event>
 5   0  0.2315038E-04  0.1196761E+04  0.7818609E-02  0.9115697E-01
       -1   -1    0    0    0  501  0.00000000000E+00  0.00000000000E+00  0.30436029142E+03  0.30436029146E+03  0.50400001928E-02 0.  1.
        1   -1    0    0  501    0  0.00000000000E+00  0.00000000000E+00 -0.11764311768E+04  0.11764311768E+04  0.50400001928E-02 0. -1.
    10030    2    1    2    0    0  0.00000000000E+00  0.00000000000E+00 -0.87207088540E+03  0.14807914683E+04  0.11967605205E+04 0.  0.
        1    1    3    3  502    0 -0.41114013959E+03 -0.99494953869E+02 -0.95971172314E+03  0.10488002917E+04  0.50400001928E-02 0. -1.
       -1    1    3    3    0  502  0.41114013959E+03  0.99494953869E+02  0.87640837743E+02  0.43199117664E+03  0.50400001928E-02 0.  1.
</event>
<event>
 5   0  0.2315038E-04  0.1189781E+04  0.7818609E-02  0.9121848E-01
       -1   -1    0    0    0  501  0.00000000000E+00  0.00000000000E+00  0.11683849733E+04  0.11683849733E+04  0.50400001928E-02 0.  1.
        1   -1    0    0  501    0  0.00000000000E+00  0.00000000000E+00 -0.30289240632E+03  0.30289240636E+03  0.50400001928E-02 0. -1.
    10030    2    1    2    0    0  0.00000000000E+00  0.00000000000E+00  0.86549256700E+03  0.14712773797E+04  0.11897813852E+04 0.  0.
        1    1    3    3  502    0 -0.73858873882E+02  0.36146718690E+02 -0.29583074640E+03  0.30704649332E+03  0.50400001928E-02 0. -1.
       -1    1    3    3    0  502  0.73858873882E+02 -0.36146718690E+02  0.11613233134E+04  0.11642308864E+04  0.50400001928E-02 0.  1.
</event>
<event>
 5   0  0.2304842E-04  0.1198501E+04  0.7818609E-02  0.9114170E-01
       -1   -1    0    0    0  501  0.00000000000E+00  0.00000000000E+00  0.83776865674E+03  0.83776865676E+03  0.50400001928E-02 0.  1.
        1   -1    0    0  501    0  0.00000000000E+00  0.00000000000E+00 -0.42863998546E+03  0.42863998549E+03  0.50400001928E-02 0. -1.
    10030    2    1    2    0    0  0.00000000000E+00  0.00000000000E+00  0.40912867128E+03  0.12664086422E+04  0.11985009718E+04 0.  0.
        4    1    3    3  502    0 -0.52864207196E+03  0.26693974650E+03  0.30129503138E+03  0.66445434556E+03  0.12699999809E+01 0. -1.
       -4    1    3    3    0  502  0.52864207196E+03 -0.26693974650E+03  0.10783363991E+03  0.60195429668E+03  0.12699999809E+01 0.  1.
</event>
<event>
 5   0  0.2244308E-04  0.1202832E+04  0.7818609E-02  0.9110381E-01
       -1   -1    0    0    0  501  0.00000000000E+00  0.00000000000E+00  0.37958394198E+03  0.37958394201E+03  0.50400001928E-02 0. -1.
        1   -1    0    0  501    0  0.00000000000E+00  0.00000000000E+00 -0.95288848566E+03  0.95288848568E+03  0.50400001928E-02 0.  1.
    10030    2    1    2    0    0  0.00000000000E+00  0.00000000000E+00 -0.57330454369E+03  0.13324724277E+04  0.12028319379E+04 0.  0.
        5    1    3    3  502    0 -0.24344732937E+03 -0.54447391189E+03 -0.37217854275E+03  0.70303442347E+03  0.46999998093E+01 0.  1.
       -5    1    3    3    0  502  0.24344732937E+03  0.54447391189E+03 -0.20112600094E+03  0.62943800422E+03  0.46999998093E+01 0. -1.
</event>
<event>
 5   0  0.3993723E-04  0.1202373E+04  0.7818609E-02  0.9110782E-01
       -2   -1    0    0    0  501  0.00000000000E+00  0.00000000000E+00  0.11236771302E+04  0.11236771302E+04  0.25500000920E-02 0. -1.
        2   -1    0    0  501    0  0.00000000000E+00  0.00000000000E+00 -0.32164492108E+03  0.32164492109E+03  0.25500000920E-02 0.  1.
    10030    2    1    2    0    0  0.00000000000E+00  0.00000000000E+00  0.80203220911E+03  0.14453220513E+04  0.12023727240E+04 0.  0.
        3    1    3    3  502    0  0.59144421111E+03 -0.26837929384E+02  0.27552616092E+03  0.65302465870E+03  0.10100000352E+00 0.  1.
       -3    1    3    3    0  502 -0.59144421111E+03  0.26837929384E+02  0.52650604820E+03  0.79229739259E+03  0.10100000352E+00 0. -1.
</event>
<event>
 5   0  0.2204090E-04  0.1201089E+04  0.7818609E-02  0.9111904E-01
       -1   -1    0    0    0  501  0.00000000000E+00  0.00000000000E+00  0.31323549133E+03  0.31323549137E+03  0.50400001928E-02 0. -1.
        1   -1    0    0  501    0  0.00000000000E+00  0.00000000000E+00 -0.11513810491E+04  0.11513810491E+04  0.50400001928E-02 0.  1.
    10030    2    1    2    0    0  0.00000000000E+00  0.00000000000E+00 -0.83814555780E+03  0.14646165405E+04  0.12010885207E+04 0.  0.
        2    1    3    3  502    0  0.51752549836E+03  0.29662913250E+03 -0.50383630385E+03  0.78081528211E+03  0.25500000920E-02 0.  1.
       -2    1    3    3    0  502 -0.51752549836E+03 -0.29662913250E+03 -0.33430925395E+03  0.68380125839E+03  0.25500000920E-02 0. -1.
</event>
<event>
 5   0  0.2304842E-04  0.1199101E+04  0.7818609E-02  0.9113644E-01
       -1   -1    0    0    0  501  0.00000000000E+00  0.00000000000E+00  0.60331375381E+03  0.60331375383E+03  0.50400001928E-02 0. -1.
        1   -1    0    0  501    0  0.00000000000E+00  0.00000000000E+00 -0.59581040343E+03  0.59581040345E+03  0.50400001928E-02 0.  1.
    10030    2    1    2    0    0  0.00000000000E+00  0.00000000000E+00  0.75033503865E+01  0.11991241573E+04  0.11991006815E+04 0.  0.
        4    1    3    3  502    0  0.29535816568E+03 -0.50518084163E+01 -0.51798359249E+03  0.59629739375E+03  0.12699999809E+01 0.  1.
       -4    1    3    3    0  502 -0.29535816568E+03  0.50518084163E+01  0.52548694288E+03  0.60282676354E+03  0.12699999809E+01 0. -1.
</event>
<event>
 5   0  0.2340731E-04  0.1197213E+04  0.7818609E-02  0.9115300E-01
       -1   -1    0    0    0  501  0.00000000000E+00  0.00000000000E+00  0.32506792150E+03  0.32506792154E+03  0.50400001928E-02 0.  1.
        1   -1    0    0  501    0  0.00000000000E+00  0.00000000000E+00 -0.11023226417E+04  0.11023226417E+04  0.50400001928E-02 0. -1.
    10030    2    1    2    0    0  0.00000000000E+00  0.00000000000E+00 -0.77725472023E+03  0.14273905633E+04  0.11972129802E+04 0.  0.
        3    1    3    3  502    0  0.20687005932E+03  0.22458880642E+03 -0.10024906374E+04  0.10479612787E+04  0.10100000352E+00 0. -1.
       -3    1    3    3    0  502 -0.20687005932E+03 -0.22458880642E+03  0.22523591716E+03  0.37942928457E+03  0.10100000352E+00 0.  1.
</event>
<event>
 5   0  0.2304842E-04  0.1201244E+04  0.7818609E-02  0.9111769E-01
        1   -1    0    0  501    0  0.00000000000E+00  0.00000000000E+00  0.56399792451E+03  0.56399792454E+03  0.50400001928E-02 0. -1.
       -1   -1    0    0    0  501  0.00000000000E+00  0.00000000000E+00 -0.63962388684E+03  0.63962388686E+03  0.50400001928E-02 0.  1.
    10030    2    1    2    0    0  0.00000000000E+00  0.00000000000E+00 -0.75625962325E+02  0.12036218114E+04  0.12012435967E+04 0.  0.
        4    1    3    3  502    0  0.42099343389E+03  0.14013120029E+03  0.36780040343E+03  0.57632540664E+03  0.12699999809E+01 0. -1.
       -4    1    3    3    0  502 -0.42099343389E+03 -0.14013120029E+03 -0.44342636575E+03  0.62729640476E+03  0.12699999809E+01 0.  1.
</event>
<event>
 5   0  0.3883890E-04  0.1199811E+04  0.7818609E-02  0.9113022E-01
       -2   -1    0    0    0  501  0.00000000000E+00  0.00000000000E+00  0.15097322055E+03  0.15097322058E+03  0.25500000920E-02 0.  1.
        2   -1    0    0  501    0  0.00000000000E+00  0.00000000000E+00 -0.23837759209E+04  0.23837759209E+04  0.25500000920E-02 0. -1.
    10030    2    1    2    0    0  0.00000000000E+00  0.00000000000E+00 -0.22328027003E+04  0.25347491415E+04  0.11998105315E+04 0.  0.
        2    1    3    3  502    0  0.13163490864E+03 -0.34843361190E+03 -0.12290028615E+03  0.39222214550E+03  0.25500000920E-02 0.  1.
       -2    1    3    3    0  502 -0.13163490864E+03  0.34843361190E+03 -0.21099024142E+04  0.21425269960E+04  0.25500000920E-02 0. -1.
</event>
<event>
 5   0  0.4122956E-04  0.1199142E+04  0.7818609E-02  0.9113608E-01
        2   -1    0    0  501    0  0.00000000000E+00  0.00000000000E+00  0.98867768041E+03  0.98867768041E+03  0.25500000920E-02 0.  1.
       -2   -1    0    0    0  501  0.00000000000E+00  0.00000000000E+00 -0.36360229934E+03  0.36360229935E+03  0.25500000920E-02 0. -1.
    10030    2    1    2    0    0  0.00000000000E+00  0.00000000000E+00  0.62507538106E+03  0.13522799798E+04  0.11991421566E+04 0.  0.
        5    1    3    3  502    0 -0.14550933010E+03  0.28258599721E+03  0.88582469501E+03  0.94113510786E+03  0.46999998093E+01 0.  1.
       -5    1    3    3    0  502  0.14550933010E+03 -0.28258599721E+03 -0.26074931395E+03  0.41114487190E+03  0.46999998093E+01 0. -1.
</event>
<event>
 5   0  0.3993723E-04  0.1197017E+04  0.7818609E-02  0.9115471E-01
       -2   -1    0    0    0  501  0.00000000000E+00  0.00000000000E+00  0.44314614497E+03  0.44314614497E+03  0.25500000920E-02 0. -1.
        2   -1    0    0  501    0  0.00000000000E+00  0.00000000000E+00 -0.80833945384E+03  0.80833945385E+03  0.25500000920E-02 0.  1.
    10030    2    1    2    0    0  0.00000000000E+00  0.00000000000E+00 -0.36519330888E+03  0.12514855988E+04  0.11970171474E+04 0.  0.
        3    1    3    3  502    0 -0.58045767327E+03  0.34189425723E+02 -0.34324961371E+02  0.58247595698E+03  0.10100000352E+00 0. -1.
       -3    1    3    3    0  502  0.58045767327E+03 -0.34189425723E+02 -0.33086834750E+03  0.66900964184E+03  0.10100000352E+00 0.  1.
</event>
<event>
 5   0  0.4122956E-04  0.1200282E+04  0.7818609E-02  0.9112610E-01
        2   -1    0    0  501    0  0.00000000000E+00  0.00000000000E+00  0.23997199592E+04  0.23997199592E+04  0.25500000920E-02 0.  1.
       -2   -1    0    0    0  501  0.00000000000E+00  0.00000000000E+00 -0.15008797587E+03  0.15008797590E+03  0.25500000920E-02 0. -1.
    10030    2    1    2    0    0  0.00000000000E+00  0.00000000000E+00  0.22496319834E+04  0.25498079351E+04  0.12002818192E+04 0.  0.
        5    1    3    3  502    0 -0.35963854055E+03 -0.40659307466E+03  0.16684531413E+04  0.17545414737E+04  0.46999998093E+01 0.  1.
       -5    1    3    3    0  502  0.35963854055E+03  0.40659307466E+03  0.58117884203E+03  0.79526646140E+03  0.46999998093E+01 0. -1.
</event>
<event>
 5   0  0.2304842E-04  0.1199042E+04  0.7818609E-02  0.9113695E-01
        1   -1    0    0  501    0  0.00000000000E+00  0.00000000000E+00  0.40250603824E+03  0.40250603827E+03  0.50400001928E-02 0.  1.
       -1   -1    0    0    0  501  0.00000000000E+00  0.00000000000E+00 -0.89296902913E+03  0.89296902915E+03  0.50400001928E-02 0. -1.
    10030    2    1    2    0    0  0.00000000000E+00  0.00000000000E+00 -0.49046299090E+03  0.12954750674E+04  0.11990419946E+04 0.  0.
        4    1    3    3  502    0  0.28493826624E+03  0.52198709676E+03 -0.16320831036E+03  0.61668380084E+03  0.12699999809E+01 0.  1.
       -4    1    3    3    0  502 -0.28493826624E+03 -0.52198709676E+03 -0.32725468054E+03  0.67879126658E+03  0.12699999809E+01 0. -1.
</event>
<event>
 5   0  0.2340731E-04  0.1198923E+04  0.7818609E-02  0.9113800E-01
        1   -1    0    0  501    0  0.00000000000E+00  0.00000000000E+00  0.86357604733E+03  0.86357604735E+03  0.50400001928E-02 0.  1.
       -1   -1    0    0    0  501  0.00000000000E+00  0.00000000000E+00 -0.41612326893E+03  0.41612326896E+03  0.50400001928E-02 0. -1.
    10030    2    1    2    0    0  0.00000000000E+00  0.00000000000E+00  0.44745277840E+03  0.12796993163E+04  0.11989229964E+04 0.  0.
        3    1    3    3  502    0 -0.17406770061E+03  0.46816454509E+03 -0.13008271221E+03  0.51613867118E+03  0.10100000352E+00 0.  1.
       -3    1    3    3    0  502  0.17406770061E+03 -0.46816454509E+03  0.57753549061E+03  0.76356064513E+03  0.10100000352E+00 0. -1.
</event>
<event>
 5   0  0.2340731E-04  0.1196849E+04  0.7818609E-02  0.9115619E-01
       -1   -1    0    0    0  501  0.00000000000E+00  0.00000000000E+00  0.30840972755E+03  0.30840972759E+03  0.50400001928E-02 0.  1.
        1   -1    0    0  501    0  0.00000000000E+00  0.00000000000E+00 -0.11611568908E+04  0.11611568908E+04  0.50400001928E-02 0. -1.
    10030    2    1    2    0    0  0.00000000000E+00  0.00000000000E+00 -0.85274716327E+03  0.14695666184E+04  0.11968493312E+04 0.  0.
        3    1    3    3  502    0  0.18371976645E+03  0.56149835960E+03 -0.54336711650E+03  0.80267128634E+03  0.10100000352E+00 0.  1.
       -3    1    3    3    0  502 -0.18371976645E+03 -0.56149835960E+03 -0.30938004677E+03  0.66689533209E+03  0.10100000352E+00 0. -1.
</event>
<event>
 5   0  0.2244308E-04  0.1198274E+04  0.7818609E-02  0.9114369E-01
       -1   -1    0    0    0  501  0.00000000000E+00  0.00000000000E+00  0.30784300670E+03  0.30784300674E+03  0.50400001928E-02 0. -1.
        1   -1    0    0  501    0  0.00000000000E+00  0.00000000000E+00 -0.11660648595E+04  0.11660648595E+04  0.50400001928E-02 0.  1.
    10030    2    1    2    0    0  0.00000000000E+00  0.00000000000E+00 -0.85822185281E+03  0.14739078663E+04  0.11982736121E+04 0.  0.
        5    1    3    3  502    0 -0.32205892324E+03  0.31613040392E+03  0.55591857968E+02  0.45472291232E+03  0.46999998093E+01 0. -1.
       -5    1    3    3    0  502  0.32205892324E+03 -0.31613040392E+03 -0.91381371078E+03  0.10191849539E+04  0.46999998093E+01 0.  1.
</event>
<event>
 5   0  0.3883890E-04  0.1199888E+04  0.7818609E-02  0.9112954E-01
        2   -1    0    0  501    0  0.00000000000E+00  0.00000000000E+00  0.87155533538E+03  0.87155533539E+03  0.25500000920E-02 0. -1.
       -2   -1    0    0    0  501  0.00000000000E+00  0.00000000000E+00 -0.41297767835E+03  0.41297767835E+03  0.25500000920E-02 0.  1.
    10030    2    1    2    0    0  0.00000000000E+00  0.00000000000E+00  0.45857765704E+03  0.12845330137E+04  0.11998881597E+04 0.  0.
        2    1    3    3  502    0  0.50697533339E+03  0.13920602654E+03 -0.80116140110E+02  0.53180908455E+03  0.25500000920E-02 0.  1.
       -2    1    3    3    0  502 -0.50697533339E+03 -0.13920602654E+03  0.53869379715E+03  0.75272392920E+03  0.25500000920E-02 0. -1.
</event>
<event>
 5   0  0.3993723E-04  0.1199493E+04  0.7818609E-02  0.9113300E-01
        2   -1    0    0  501    0  0.00000000000E+00  0.00000000000E+00  0.68419871739E+03  0.68419871740E+03  0.25500000920E-02 0. -1.
       -2   -1    0    0    0  501  0.00000000000E+00  0.00000000000E+00 -0.52571835708E+03  0.52571835709E+03  0.25500000920E-02 0.  1.
    10030    2    1    2    0    0  0.00000000000E+00  0.00000000000E+00  0.15848036031E+03  0.12099170745E+04  0.11994929356E+04 0.  0.
        3    1    3    3  502    0  0.14629813090E+03 -0.53801378086E+03 -0.14366407882E+03  0.57576153852E+03  0.10100000352E+00 0.  1.
       -3    1    3    3    0  502 -0.14629813090E+03  0.53801378086E+03  0.30214443913E+03  0.63415553596E+03  0.10100000352E+00 0. -1.
</event>
<event>
 5   0  0.3993723E-04  0.1199624E+04  0.7818609E-02  0.9113186E-01
       -2   -1    0    0    0  501  0.00000000000E+00  0.00000000000E+00  0.73009286509E+03  0.73009286510E+03  0.25500000920E-02 0.  1.
        2   -1    0    0  501    0  0.00000000000E+00  0.00000000000E+00 -0.49277905023E+03  0.49277905023E+03  0.25500000920E-02 0. -1.
    10030    2    1    2    0    0  0.00000000000E+00  0.00000000000E+00  0.23731381487E+03  0.12228719153E+04  0.11996240555E+04 0.  0.
        3    1    3    3  502    0 -0.53723756265E+03  0.43550377143E+02 -0.14960379576E+03  0.55937656366E+03  0.10100000352E+00 0. -1.
       -3    1    3    3    0  502  0.53723756265E+03 -0.43550377143E+02  0.38691761063E+03  0.66349535167E+03  0.10100000352E+00 0.  1.
</event>
<event>
 5   0  0.2204090E-04  0.1202447E+04  0.7818609E-02  0.9110717E-01
       -1   -1    0    0    0  501  0.00000000000E+00  0.00000000000E+00  0.31043728497E+03  0.31043728501E+03  0.50400001928E-02 0. -1.
        1   -1    0    0  501    0  0.00000000000E+00  0.00000000000E+00 -0.11643886266E+04  0.11643886266E+04  0.50400001928E-02 0.  1.
    10030    2    1    2    0    0  0.00000000000E+00  0.00000000000E+00 -0.85395134165E+03  0.14748259116E+04  0.12024469118E+04 0.  0.
        2    1    3    3  502    0 -0.30206352621E+03 -0.46286893533E+03 -0.71717059788E+03  0.90544115857E+03  0.25500000920E-02 0.  1.
       -2    1    3    3    0  502  0.30206352621E+03  0.46286893533E+03 -0.13678074377E+03  0.56938475307E+03  0.25500000920E-02 0. -1.
</event>
<event>
 5   0  0.3832662E-04  0.1204212E+04  0.7818609E-02  0.9109177E-01
        2   -1    0    0  501    0  0.00000000000E+00  0.00000000000E+00  0.49465510140E+03  0.49465510141E+03  0.25500000920E-02 0.  1.
       -2   -1    0    0    0  501  0.00000000000E+00  0.00000000000E+00 -0.73289830294E+03  0.73289830295E+03  0.25500000920E-02 0. -1.
    10030    2    1    2    0    0  0.00000000000E+00  0.00000000000E+00 -0.23824320154E+03  0.12275534044E+04  0.12042124138E+04 0.  0.
        4    1    3    3  502    0  0.50092594933E+03 -0.58726144243E+02  0.21612161909E+03  0.54871279725E+03  0.12699999809E+01 0.  1.
       -4    1    3    3    0  502 -0.50092594933E+03  0.58726144243E+02 -0.45436482063E+03  0.67884060710E+03  0.12699999809E+01 0. -1.
</event>
<event>
 5   0  0.4024486E-04  0.1211647E+04  0.7818609E-02  0.9102722E-01
        2   -1    0    0  501    0  0.00000000000E+00  0.00000000000E+00  0.80604556313E+03  0.80604556314E+03  0.25500000920E-02 0.  1.
       -2   -1    0    0    0  501  0.00000000000E+00  0.00000000000E+00 -0.45533696605E+03  0.45533696606E+03  0.25500000920E-02 0. -1.
    10030    2    1    2    0    0  0.00000000000E+00  0.00000000000E+00  0.35070859708E+03  0.12613825292E+04  0.12116473765E+04 0.  0.
        1    1    3    3  502    0 -0.31820312132E+03 -0.55914073638E+02 -0.35816883866E+03  0.48235311449E+03  0.50400001928E-02 0. -1.
       -1    1    3    3    0  502  0.31820312132E+03  0.55914073638E+02  0.70887743574E+03  0.77902941470E+03  0.50400001928E-02 0.  1.
</event>
<event>
 5   0  0.3993723E-04  0.1228041E+04  0.7818609E-02  0.9088661E-01
       -2   -1    0    0    0  501  0.00000000000E+00  0.00000000000E+00  0.22385741176E+03  0.22385741177E+03  0.25500000920E-02 0. -1.
        2   -1    0    0  501    0  0.00000000000E+00  0.00000000000E+00 -0.16842014434E+04  0.16842014434E+04  0.25500000920E-02 0.  1.
    10030    2    1    2    0    0  0.00000000000E+00  0.00000000000E+00 -0.14603440317E+04  0.19080588552E+04  0.12280406769E+04 0.  0.
        3    1    3    3  502    0  0.52742952691E+03 -0.31333629439E+03 -0.69027299477E+03  0.92349247790E+03  0.10100000352E+00 0.  1.
       -3    1    3    3    0  502 -0.52742952691E+03  0.31333629439E+03 -0.77007103691E+03  0.98456637731E+03  0.10100000352E+00 0. -1.
</event>
<event>
 5   0  0.1541375E-04  0.1201429E+04  0.7818609E-02  0.9111607E-01
       -3   -1    0    0    0  501  0.00000000000E+00  0.00000000000E+00  0.31402991466E+03  0.31402993090E+03  0.10100000352E+00 0. -1.
        3   -1    0    0  501    0  0.00000000000E+00  0.00000000000E+00 -0.11491193206E+04  0.11491193251E+04  0.10100000352E+00 0.  1.
    10030    2    1    2    0    0  0.00000000000E+00  0.00000000000E+00 -0.83508940598E+03  0.14631492560E+04  0.12014289115E+04 0.  0.
        3    1    3    3  502    0  0.53038671733E+03  0.21243757011E+03 -0.64347981073E+03  0.86052662256E+03  0.10100000352E+00 0.  1.
       -3    1    3    3    0  502 -0.53038671733E+03 -0.21243757011E+03 -0.19160959525E+03  0.60262263342E+03  0.10100000352E+00 0. -1.
</event>
<event>
 5   0  0.3993723E-04  0.1204869E+04  0.7818609E-02  0.9108606E-01
        2   -1    0    0  501    0  0.00000000000E+00  0.00000000000E+00  0.12246603766E+04  0.12246603766E+04  0.25500000920E-02 0. -1.
       -2   -1    0    0    0  501  0.00000000000E+00  0.00000000000E+00 -0.29634923470E+03  0.29634923472E+03  0.25500000920E-02 0.  1.
    10030    2    1    2    0    0  0.00000000000E+00  0.00000000000E+00  0.92831114193E+03  0.15210096114E+04  0.12048687321E+04 0.  0.
        3    1    3    3  502    0 -0.90399619651E+02 -0.52251711878E+03  0.10325677743E+03  0.54023902389E+03  0.10100000352E+00 0.  1.
       -3    1    3    3    0  502  0.90399619651E+02  0.52251711878E+03  0.82505436450E+03  0.98077058746E+03  0.10100000352E+00 0. -1.
</event>
<event>
 5   0  0.4122956E-04  0.1201774E+04  0.7818609E-02  0.9111305E-01
       -2   -1    0    0    0  501  0.00000000000E+00  0.00000000000E+00  0.25401303534E+03  0.25401303535E+03  0.25500000920E-02 0.  1.
        2   -1    0    0  501    0  0.00000000000E+00  0.00000000000E+00 -0.14214428205E+04  0.14214428205E+04  0.25500000920E-02 0. -1.
    10030    2    1    2    0    0  0.00000000000E+00  0.00000000000E+00 -0.11674297852E+04  0.16754558559E+04  0.12017736982E+04 0.  0.
        5    1    3    3  502    0  0.12353565571E+03  0.17111505873E+02 -0.14031742914E+04  0.14087136131E+04  0.46999998093E+01 0. -1.
       -5    1    3    3    0  502 -0.12353565571E+03 -0.17111505873E+02  0.23574450619E+03  0.26674224274E+03  0.46999998093E+01 0.  1.
</event>
<event>
 5   0  0.2340731E-04  0.1196595E+04  0.7818609E-02  0.9115842E-01
        1   -1    0    0  501    0  0.00000000000E+00  0.00000000000E+00  0.19571527595E+04  0.19571527595E+04  0.50400001928E-02 0. -1.
       -1   -1    0    0    0  501  0.00000000000E+00  0.00000000000E+00 -0.18289831695E+03  0.18289831702E+03  0.50400001928E-02 0.  1.
    10030    2    1    2    0    0  0.00000000000E+00  0.00000000000E+00  0.17742544426E+04  0.21400510765E+04  0.11965950791E+04 0.  0.
        3    1    3    3  502    0  0.10879175451E+02  0.27105710271E+03 -0.66587595545E+02  0.27932817163E+03  0.10100000352E+00 0.  1.
       -3    1    3    3    0  502 -0.10879175451E+02 -0.27105710271E+03  0.18408420381E+04  0.18607229049E+04  0.10100000352E+00 0. -1.
</event>
<event>
 5   0  0.1541375E-04  0.1200322E+04  0.7818609E-02  0.9112575E-01
        3   -1    0    0  501    0  0.00000000000E+00  0.00000000000E+00  0.87539483083E+03  0.87539483665E+03  0.10100000352E+00 0. -1.
       -3   -1    0    0    0  501  0.00000000000E+00  0.00000000000E+00 -0.41146341083E+03  0.41146342322E+03  0.10100000352E+00 0.  1.
    10030    2    1    2    0    0  0.00000000000E+00  0.00000000000E+00  0.46393142000E+03  0.12868582599E+04  0.12003215480E+04 0.  0.
        1    1    3    3  502    0  0.25894433580E+03 -0.22464976028E+03  0.76009965711E+03  0.83382922268E+03  0.50400001928E-02 0. -1.
       -1    1    3    3    0  502 -0.25894433580E+03  0.22464976028E+03 -0.29616823711E+03  0.45302903719E+03  0.50400001928E-02 0.  1.
</event>
<event>
 5   0  0.2204090E-04  0.1198646E+04  0.7818609E-02  0.9114043E-01
        1   -1    0    0  501    0  0.00000000000E+00  0.00000000000E+00  0.12913912002E+04  0.12913912002E+04  0.50400001928E-02 0. -1.
       -1   -1    0    0    0  501  0.00000000000E+00  0.00000000000E+00 -0.27814038220E+03  0.27814038225E+03  0.50400001928E-02 0.  1.
    10030    2    1    2    0    0  0.00000000000E+00  0.00000000000E+00  0.10132508180E+04  0.15695315824E+04  0.11986459728E+04 0.  0.
        2    1    3    3  502    0  0.42852416284E+03  0.33656779717E+03  0.17985428351E+03  0.57381042474E+03  0.25500000920E-02 0.  1.
       -2    1    3    3    0  502 -0.42852416284E+03 -0.33656779717E+03  0.83339653447E+03  0.99572115770E+03  0.25500000920E-02 0. -1.
</event>
<event>
 5   0  0.2304842E-04  0.1199891E+04  0.7818609E-02  0.9112952E-01
        1   -1    0    0  501    0  0.00000000000E+00  0.00000000000E+00  0.80411003519E+03  0.80411003521E+03  0.50400001928E-02 0. -1.
       -1   -1    0    0    0  501  0.00000000000E+00  0.00000000000E+00 -0.44761846190E+03  0.44761846193E+03  0.50400001928E-02 0.  1.
    10030    2    1    2    0    0  0.00000000000E+00  0.00000000000E+00  0.35649157329E+03  0.12517284971E+04  0.11998908237E+04 0.  0.
        4    1    3    3  502    0 -0.31250861016E+03 -0.45304987366E+03  0.42734412807E+03  0.69680731637E+03  0.12699999809E+01 0. -1.
       -4    1    3    3    0  502  0.31250861016E+03  0.45304987366E+03 -0.70852554774E+02  0.55492118077E+03  0.12699999809E+01 0.  1.
</event>
<event>
 5   0  0.3993723E-04  0.1202752E+04  0.7818609E-02  0.9110451E-01
        2   -1    0    0  501    0  0.00000000000E+00  0.00000000000E+00  0.17751198233E+04  0.17751198233E+04  0.25500000920E-02 0.  1.
       -2   -1    0    0    0  501  0.00000000000E+00  0.00000000000E+00 -0.20373458904E+03  0.20373458905E+03  0.25500000920E-02 0. -1.
    10030    2    1    2    0    0  0.00000000000E+00  0.00000000000E+00  0.15713852342E+04  0.19788544123E+04  0.12027523564E+04 0.  0.
        3    1    3    3  502    0 -0.56793990685E+03  0.17344137492E+03  0.62947279858E+03  0.86537486830E+03  0.10100000352E+00 0.  1.
       -3    1    3    3    0  502  0.56793990685E+03 -0.17344137492E+03  0.94191243563E+03  0.11134795440E+04  0.10100000352E+00 0. -1.
</event>
<event>
 5   0  0.3993723E-04  0.1219250E+04  0.7818609E-02  0.9096172E-01
        2   -1    0    0  501    0  0.00000000000E+00  0.00000000000E+00  0.52381691941E+03  0.52381691941E+03  0.25500000920E-02 0. -1.
       -2   -1    0    0    0  501  0.00000000000E+00  0.00000000000E+00 -0.70948980928E+03  0.70948980929E+03  0.25500000920E-02 0.  1.
    10030    2    1    2    0    0  0.00000000000E+00  0.00000000000E+00 -0.18567288988E+03  0.12333067287E+04  0.12192502061E+04 0.  0.
        3    1    3    3  502    0 -0.59775433446E+03 -0.73897311213E+02  0.24391489931E+01  0.60230973478E+03  0.10100000352E+00 0.  1.
       -3    1    3    3    0  502  0.59775433446E+03  0.73897311213E+02 -0.18811203887E+03  0.63099699392E+03  0.10100000352E+00 0. -1.
</event>
<event>
 5   0  0.4024486E-04  0.1198212E+04  0.7818609E-02  0.9114423E-01
       -2   -1    0    0    0  501  0.00000000000E+00  0.00000000000E+00  0.44134254015E+03  0.44134254016E+03  0.25500000920E-02 0.  1.
        2   -1    0    0  501    0  0.00000000000E+00  0.00000000000E+00 -0.81326452166E+03  0.81326452166E+03  0.25500000920E-02 0. -1.
    10030    2    1    2    0    0  0.00000000000E+00  0.00000000000E+00 -0.37192198151E+03  0.12546070618E+04  0.11982123849E+04 0.  0.
        1    1    3    3  502    0  0.95977666200E+01 -0.25615402511E+02  0.44068832191E+03  0.44153647988E+03  0.50400001928E-02 0.  1.
       -1    1    3    3    0  502 -0.95977666200E+01  0.25615402511E+02 -0.81261030342E+03  0.81307058194E+03  0.50400001928E-02 0. -1.
</event>
<event>
 5   0  0.2315038E-04  0.1202494E+04  0.7818609E-02  0.9110676E-01
       -1   -1    0    0    0  501  0.00000000000E+00  0.00000000000E+00  0.39755980244E+03  0.39755980247E+03  0.50400001928E-02 0. -1.
        1   -1    0    0  501    0  0.00000000000E+00  0.00000000000E+00 -0.90929266823E+03  0.90929266825E+03  0.50400001928E-02 0.  1.
    10030    2    1    2    0    0  0.00000000000E+00  0.00000000000E+00 -0.51173286580E+03  0.13068524707E+04  0.12024944300E+04 0.  0.
        1    1    3    3  502    0 -0.16352396800E+03  0.27123028159E+03 -0.81128915336E+03  0.87091678371E+03  0.50400001928E-02 0.  1.
       -1    1    3    3    0  502  0.16352396800E+03 -0.27123028159E+03  0.29955628756E+03  0.43593568701E+03  0.50400001928E-02 0. -1.
</event>
<event>
 5   0  0.3883890E-04  0.1197627E+04  0.7818609E-02  0.9114936E-01
        2   -1    0    0  501    0  0.00000000000E+00  0.00000000000E+00  0.93520696165E+03  0.93520696166E+03  0.25500000920E-02 0.  1.
       -2   -1    0    0    0  501  0.00000000000E+00  0.00000000000E+00 -0.38342038922E+03  0.38342038923E+03  0.25500000920E-02 0. -1.
    10030    2    1    2    0    0  0.00000000000E+00  0.00000000000E+00  0.55178657243E+03  0.13186273509E+04  0.11976266818E+04 0.  0.
        2    1    3    3  502    0  0.18235178699E+03  0.48853894987E+03  0.60000690005E+03  0.79494072727E+03  0.25500000920E-02 0.  1.
       -2    1    3    3    0  502 -0.18235178699E+03 -0.48853894987E+03 -0.48220327617E+02  0.52368662362E+03  0.25500000920E-02 0. -1.
</event>
<event>
 5   0  0.3993723E-04  0.1199472E+04  0.7818609E-02  0.9113319E-01
       -2   -1    0    0    0  501  0.00000000000E+00  0.00000000000E+00  0.16011403823E+03  0.16011403825E+03  0.25500000920E-02 0.  1.
        2   -1    0    0  501    0  0.00000000000E+00  0.00000000000E+00 -0.22464182086E+04  0.22464182086E+04  0.25500000920E-02 0. -1.
    10030    2    1    2    0    0  0.00000000000E+00  0.00000000000E+00 -0.20863041704E+04  0.24065322468E+04  0.11994717020E+04 0.  0.
        3    1    3    3  502    0 -0.35607372661E+03 -0.18975055200E+02 -0.20106396781E+04  0.20420138288E+04  0.10100000352E+00 0. -1.
       -3    1    3    3    0  502  0.35607372661E+03  0.18975055200E+02 -0.75664492225E+02  0.36451841804E+03  0.10100000352E+00 0.  1.
</event>
<event>
 5   0  0.2315038E-04  0.1200017E+04  0.7818609E-02  0.9112842E-01
       -1   -1    0    0    0  501  0.00000000000E+00  0.00000000000E+00  0.12028401323E+03  0.12028401333E+03  0.50400001928E-02 0. -1.
        1   -1    0    0  501    0  0.00000000000E+00  0.00000000000E+00 -0.29930007709E+04  0.29930007709E+04  0.50400001928E-02 0.  1.
    10030    2    1    2    0    0  0.00000000000E+00  0.00000000000E+00 -0.28727167576E+04  0.31132847842E+04  0.12000169073E+04 0.  0.
        1    1    3    3  502    0  0.47251584428E+03  0.36130921944E+03 -0.16405495887E+04  0.17450554513E+04  0.50400001928E-02 0.  1.
       -1    1    3    3    0  502 -0.47251584428E+03 -0.36130921944E+03 -0.12321671689E+04  0.13682293329E+04  0.50400001928E-02 0. -1.
</event>
<event>
 5   0  0.3832662E-04  0.1204967E+04  0.7818609E-02  0.9108520E-01
        2   -1    0    0  501    0  0.00000000000E+00  0.00000000000E+00  0.21627464716E+04  0.21627464716E+04  0.25500000920E-02 0.  1.
       -2   -1    0    0    0  501  0.00000000000E+00  0.00000000000E+00 -0.16783577942E+03  0.16783577944E+03  0.25500000920E-02 0. -1.
    10030    2    1    2    0    0  0.00000000000E+00  0.00000000000E+00  0.19949106922E+04  0.23305822511E+04  0.12049667875E+04 0.  0.
        4    1    3    3  502    0 -0.55866614903E+02 -0.21303924429E+03  0.20820922431E+04  0.20937087954E+04  0.12699999809E+01 0.  1.
       -4    1    3    3    0  502  0.55866614903E+02  0.21303924429E+03 -0.87181550911E+02  0.23687345564E+03  0.12699999809E+01 0. -1.
</event>
<event>
 5   0  0.2244308E-04  0.1200806E+04  0.7818609E-02  0.9112151E-01
        1   -1    0    0  501    0  0.00000000000E+00  0.00000000000E+00  0.16201263606E+04  0.16201263606E+04  0.50400001928E-02 0.  1.
       -1   -1    0    0    0  501  0.00000000000E+00  0.00000000000E+00 -0.22250344305E+03  0.22250344310E+03  0.50400001928E-02 0. -1.
    10030    2    1    2    0    0  0.00000000000E+00  0.00000000000E+00  0.13976229175E+04  0.18426298037E+04  0.12008058852E+04 0.  0.
        5    1    3    3  502    0 -0.33366538868E+03  0.31964968956E+03  0.11057133858E+03  0.47513853406E+03  0.46999998093E+01 0. -1.
       -5    1    3    3    0  502  0.33366538868E+03 -0.31964968956E+03  0.12870515790E+04  0.13674912696E+04  0.46999998093E+01 0.  1.
</event>
<event>
 5   0  0.4122956E-04  0.1197889E+04  0.7818609E-02  0.9114706E-01
       -2   -1    0    0    0  501  0.00000000000E+00  0.00000000000E+00  0.37075743985E+03  0.37075743986E+03  0.25500000920E-02 0. -1.
        2   -1    0    0  501    0  0.00000000000E+00  0.00000000000E+00 -0.96757192421E+03  0.96757192421E+03  0.25500000920E-02 0.  1.
    10030    2    1    2    0    0  0.00000000000E+00  0.00000000000E+00 -0.59681448436E+03  0.13383293641E+04  0.11978889590E+04 0.  0.
        5    1    3    3  502    0  0.41088378695E+02  0.12379866433E+03  0.35467471520E+03  0.37792936874E+03  0.46999998093E+01 0. -1.
       -5    1    3    3    0  502 -0.41088378695E+02 -0.12379866433E+03 -0.95148919956E+03  0.96039999533E+03  0.46999998093E+01 0.  1.
</event>
<event>
 5   0  0.3832662E-04  0.1198448E+04  0.7818609E-02  0.9114216E-01
        2   -1    0    0  501    0  0.00000000000E+00  0.00000000000E+00  0.74405095203E+03  0.74405095203E+03  0.25500000920E-02 0. -1.
       -2   -1    0    0    0  501  0.00000000000E+00  0.00000000000E+00 -0.48258706420E+03  0.48258706420E+03  0.25500000920E-02 0.  1.
    10030    2    1    2    0    0  0.00000000000E+00  0.00000000000E+00  0.26146388783E+03  0.12266380162E+04  0.11984479372E+04 0.  0.
        4    1    3    3  502    0 -0.59899122860E+03 -0.57880011336E-01  0.14777462867E+03  0.61695173966E+03  0.12699999809E+01 0. -1.
       -4    1    3    3    0  502  0.59899122860E+03  0.57880011336E-01  0.11368925916E+03  0.60968627657E+03  0.12699999809E+01 0.  1.
</event>
<event>
 5   0  0.3993723E-04  0.1199473E+04  0.7818609E-02  0.9113318E-01
       -2   -1    0    0    0  501  0.00000000000E+00  0.00000000000E+00  0.25535547388E+03  0.25535547389E+03  0.25500000920E-02 0. -1.
        2   -1    0    0  501    0  0.00000000000E+00  0.00000000000E+00 -0.14085618937E+04  0.14085618937E+04  0.25500000920E-02 0.  1.
    10030    2    1    2    0    0  0.00000000000E+00  0.00000000000E+00 -0.11532064198E+04  0.16639173676E+04  0.11994732008E+04 0.  0.
        3    1    3    3  502    0  0.40179918221E+03 -0.44309366699E+03 -0.51598689044E+03  0.78994750577E+03  0.10100000352E+00 0. -1.
       -3    1    3    3    0  502 -0.40179918221E+03  0.44309366699E+03 -0.63721952936E+03  0.87396986181E+03  0.10100000352E+00 0.  1.
</event>
<event>
 5   0  0.3993723E-04  0.1200451E+04  0.7818609E-02  0.9112462E-01
        2   -1    0    0  501    0  0.00000000000E+00  0.00000000000E+00  0.57370280888E+03  0.57370280888E+03  0.25500000920E-02 0. -1.
       -2   -1    0    0    0  501  0.00000000000E+00  0.00000000000E+00 -0.62797441704E+03  0.62797441704E+03  0.25500000920E-02 0.  1.
    10030    2    1    2    0    0  0.00000000000E+00  0.00000000000E+00 -0.54271608159E+02  0.12016772259E+04  0.12004510602E+04 0.  0.
        3    1    3    3  502    0  0.28255725382E+03  0.30558734851E+03  0.40579693091E+03  0.58128597832E+03  0.10100000352E+00 0. -1.
       -3    1    3    3    0  502 -0.28255725382E+03 -0.30558734851E+03 -0.46006853907E+03  0.62039124760E+03  0.10100000352E+00 0.  1.
</event>
<event>
 5   0  0.3883890E-04  0.1201909E+04  0.7818609E-02  0.9111187E-01
       -2   -1    0    0    0  501  0.00000000000E+00  0.00000000000E+00  0.30027905573E+03  0.30027905574E+03  0.25500000920E-02 0.  1.
        2   -1    0    0  501    0  0.00000000000E+00  0.00000000000E+00 -0.12027026964E+04  0.12027026964E+04  0.25500000920E-02 0. -1.
    10030    2    1    2    0    0  0.00000000000E+00  0.00000000000E+00 -0.90242364068E+03  0.15029817522E+04  0.12019091979E+04 0.  0.
        2    1    3    3  502    0  0.44717904305E+03  0.37842468032E+03 -0.61885326678E+03  0.85214652556E+03  0.25500000920E-02 0. -1.
       -2    1    3    3    0  502 -0.44717904305E+03 -0.37842468032E+03 -0.28357037390E+03  0.65083522660E+03  0.25500000920E-02 0.  1.
</event>
<event>
 5   0  0.3993723E-04  0.1204433E+04  0.7818609E-02  0.9108985E-01
       -2   -1    0    0    0  501  0.00000000000E+00  0.00000000000E+00  0.83263297588E+03  0.83263297589E+03  0.25500000920E-02 0. -1.
        2   -1    0    0  501    0  0.00000000000E+00  0.00000000000E+00 -0.43556364888E+03  0.43556364888E+03  0.25500000920E-02 0.  1.
    10030    2    1    2    0    0  0.00000000000E+00  0.00000000000E+00  0.39706932700E+03  0.12681966248E+04  0.12044329075E+04 0.  0.
        3    1    3    3  502    0  0.40022265451E+03  0.28879404280E+03 -0.16482068116E+03  0.52033262389E+03  0.10100000352E+00 0.  1.
       -3    1    3    3    0  502 -0.40022265451E+03 -0.28879404280E+03  0.56189000817E+03  0.74786400088E+03  0.10100000352E+00 0. -1.
</event>
<event>
 5   0  0.1541375E-04  0.1219276E+04  0.7818609E-02  0.9096149E-01
        3   -1    0    0  501    0  0.00000000000E+00  0.00000000000E+00  0.35068261576E+03  0.35068263030E+03  0.10100000352E+00 0. -1.
       -3   -1    0    0    0  501  0.00000000000E+00  0.00000000000E+00 -0.10598148846E+04  0.10598148894E+04  0.10100000352E+00 0.  1.
    10030    2    1    2    0    0  0.00000000000E+00  0.00000000000E+00 -0.70913226882E+03  0.14104975197E+04  0.12192762929E+04 0.  0.
        1    1    3    3  502    0  0.31807361892E+03  0.18744841270E+03 -0.91577970136E+03  0.98740072713E+03  0.50400001928E-02 0.  1.
       -1    1    3    3    0  502 -0.31807361892E+03 -0.18744841270E+03  0.20664743254E+03  0.42309679257E+03  0.50400001928E-02 0. -1.
</event>
<event>
 5   0  0.2244308E-04  0.1198811E+04  0.7818609E-02  0.9113898E-01
        1   -1    0    0  501    0  0.00000000000E+00  0.00000000000E+00  0.90172248177E+03  0.90172248178E+03  0.50400001928E-02 0. -1.
       -1   -1    0    0    0  501  0.00000000000E+00  0.00000000000E+00 -0.39844501311E+03  0.39844501314E+03  0.50400001928E-02 0.  1.
    10030    2    1    2    0    0  0.00000000000E+00  0.00000000000E+00  0.50327746866E+03  0.13001674949E+04  0.11988107876E+04 0.  0.
        5    1    3    3  502    0 -0.33245513160E+03  0.43422137679E+03  0.51771813735E+03  0.75307952988E+03  0.46999998093E+01 0. -1.
       -5    1    3    3    0  502  0.33245513160E+03 -0.43422137679E+03 -0.14440668691E+02  0.54708796504E+03  0.46999998093E+01 0.  1.
</event>
<event>
 5   0  0.4024486E-04  0.1197143E+04  0.7818609E-02  0.9115361E-01
       -2   -1    0    0    0  501  0.00000000000E+00  0.00000000000E+00  0.25047543329E+03  0.25047543331E+03  0.25500000920E-02 0.  1.
        2   -1    0    0  501    0  0.00000000000E+00  0.00000000000E+00 -0.14304303898E+04  0.14304303898E+04  0.25500000920E-02 0. -1.
    10030    2    1    2    0    0  0.00000000000E+00  0.00000000000E+00 -0.11799549565E+04  0.16809058231E+04  0.11971427178E+04 0.  0.
        1    1    3    3  502    0 -0.23384194395E+03 -0.51803909350E+03 -0.85356343659E+03  0.10254838358E+04  0.50400001928E-02 0. -1.
       -1    1    3    3    0  502  0.23384194395E+03  0.51803909350E+03 -0.32639151988E+03  0.65542198729E+03  0.50400001928E-02 0.  1.
</event>
<event>
 5   0  0.2315038E-04  0.1200202E+04  0.7818609E-02  0.9112680E-01
        1   -1    0    0  501    0  0.00000000000E+00  0.00000000000E+00  0.79628205530E+03  0.79628205531E+03  0.50400001928E-02 0.  1.
       -1   -1    0    0    0  501  0.00000000000E+00  0.00000000000E+00 -0.45225312848E+03  0.45225312851E+03  0.50400001928E-02 0. -1.
    10030    2    1    2    0    0  0.00000000000E+00  0.00000000000E+00  0.34402892681E+03  0.12485351838E+04  0.12002017342E+04 0.  0.
        1    1    3    3  502    0 -0.45959878734E+02  0.62692584352E+02 -0.44699350576E+03  0.45370239673E+03  0.50400001928E-02 0. -1.
       -1    1    3    3    0  502  0.45959878734E+02 -0.62692584352E+02  0.79102243257E+03  0.79483278709E+03  0.50400001928E-02 0.  1.
</event>
<event>
 5   0  0.3832662E-04  0.1199472E+04  0.7818609E-02  0.9113318E-01
        2   -1    0    0  501    0  0.00000000000E+00  0.00000000000E+00  0.14240263019E+04  0.14240263019E+04  0.25500000920E-02 0. -1.
       -2   -1    0    0    0  501  0.00000000000E+00  0.00000000000E+00 -0.25258207286E+03  0.25258207287E+03  0.25500000920E-02 0.  1.
    10030    2    1    2    0    0  0.00000000000E+00  0.00000000000E+00  0.11714442290E+04  0.16766083748E+04  0.11994724093E+04 0.  0.
        4    1    3    3  502    0 -0.67034351116E+01 -0.56973544673E+03  0.84736807886E+03  0.10211159039E+04  0.12699999809E+01 0. -1.
       -4    1    3    3    0  502  0.67034351116E+01  0.56973544673E+03  0.32407615017E+03  0.65549247083E+03  0.12699999809E+01 0.  1.
</event>
<event>
 5   0  0.3832662E-04  0.1200107E+04  0.7818609E-02  0.9112763E-01
       -2   -1    0    0    0  501  0.00000000000E+00  0.00000000000E+00  0.15728998818E+03  0.15728998820E+03  0.25500000920E-02 0.  1.
        2   -1    0    0  501    0  0.00000000000E+00  0.00000000000E+00 -0.22891729723E+04  0.22891729723E+04  0.25500000920E-02 0. -1.
    10030    2    1    2    0    0  0.00000000000E+00  0.00000000000E+00 -0.21318829841E+04  0.24464629605E+04  0.12001066449E+04 0.  0.
        4    1    3    3  502    0  0.58337551832E+03  0.71807077031E+02 -0.81980016526E+03  0.10087403906E+04  0.12699999809E+01 0. -1.
       -4    1    3    3    0  502 -0.58337551832E+03 -0.71807077031E+02 -0.13120828188E+04  0.14377225699E+04  0.12699999809E+01 0.  1.
</event>
<event>
 5   0  0.1541375E-04  0.1200678E+04  0.7818609E-02  0.9112263E-01
        3   -1    0    0  501    0  0.00000000000E+00  0.00000000000E+00  0.26150452524E+04  0.26150452543E+04  0.10100000352E+00 0.  1.
       -3   -1    0    0    0  501  0.00000000000E+00  0.00000000000E+00 -0.13782051040E+03  0.13782054741E+03  0.10100000352E+00 0. -1.
    10030    2    1    2    0    0  0.00000000000E+00  0.00000000000E+00  0.24772247420E+04  0.27528658017E+04  0.12006780168E+04 0.  0.
        2    1    3    3  502    0 -0.99471699182E+02  0.53095514048E+03  0.63810658068E+03  0.83605501521E+03  0.25500000920E-02 0. -1.
       -2    1    3    3    0  502  0.99471699182E+02 -0.53095514048E+03  0.18391181613E+04  0.19168107865E+04  0.25500000920E-02 0.  1.
</event>
<event>
 5   0  0.3832662E-04  0.1185517E+04  0.7818609E-02  0.9125628E-01
        2   -1    0    0  501    0  0.00000000000E+00  0.00000000000E+00  0.12484116037E+04  0.12484116037E+04  0.25500000920E-02 0. -1.
       -2   -1    0    0    0  501  0.00000000000E+00  0.00000000000E+00 -0.28144792267E+03  0.28144792268E+03  0.25500000920E-02 0.  1.
    10030    2    1    2    0    0  0.00000000000E+00  0.00000000000E+00  0.96696368103E+03  0.15298595264E+04  0.11855173597E+04 0.  0.
        4    1    3    3  502    0 -0.14043810645E+03  0.57374685118E+03  0.54739438284E+03  0.80532635264E+03  0.12699999809E+01 0.  1.
       -4    1    3    3    0  502  0.14043810645E+03 -0.57374685118E+03  0.41956929819E+03  0.72453317375E+03  0.12699999809E+01 0. -1.
</event>
<event>
 5   0  0.4024486E-04  0.1200586E+04  0.7818609E-02  0.9112344E-01
       -2   -1    0    0    0  501  0.00000000000E+00  0.00000000000E+00  0.33647461630E+03  0.33647461631E+03  0.25500000920E-02 0. -1.
        2   -1    0    0  501    0  0.00000000000E+00  0.00000000000E+00 -0.10709618625E+04  0.10709618625E+04  0.25500000920E-02 0.  1.
    10030    2    1    2    0    0  0.00000000000E+00  0.00000000000E+00 -0.73448724624E+03  0.14074364788E+04  0.12005856600E+04 0.  0.
        1    1    3    3  502    0 -0.52570277677E+03 -0.28456032615E+03 -0.43159691194E+03  0.73730175854E+03  0.50400001928E-02 0. -1.
       -1    1    3    3    0  502  0.52570277677E+03  0.28456032615E+03 -0.30289033430E+03  0.67013472030E+03  0.50400001928E-02 0.  1.
</event>
<event>
 5   0  0.2304842E-04  0.1200367E+04  0.7818609E-02  0.9112536E-01
        1   -1    0    0  501    0  0.00000000000E+00  0.00000000000E+00  0.39002837507E+03  0.39002837510E+03  0.50400001928E-02 0.  1.
       -1   -1    0    0    0  501  0.00000000000E+00  0.00000000000E+00 -0.92357378119E+03  0.92357378120E+03  0.50400001928E-02 0. -1.
    10030    2    1    2    0    0  0.00000000000E+00  0.00000000000E+00 -0.53354540612E+03  0.13136021563E+04  0.12003665793E+04 0.  0.
        4    1    3    3  502    0  0.40461936103E+03 -0.32112820979E+03 -0.60117768476E+03  0.79262625240E+03  0.12699999809E+01 0. -1.
       -4    1    3    3    0  502 -0.40461936103E+03  0.32112820979E+03  0.67632278632E+02  0.52097590391E+03  0.12699999809E+01 0.  1.
</event>
<event>
 5   0  0.1541375E-04  0.1202271E+04  0.7818609E-02  0.9110871E-01
       -3   -1    0    0    0  501  0.00000000000E+00  0.00000000000E+00  0.96250582089E+03  0.96250582619E+03  0.10100000352E+00 0.  1.
        3   -1    0    0  501    0  0.00000000000E+00  0.00000000000E+00 -0.37544085134E+03  0.37544086492E+03  0.10100000352E+00 0. -1.
    10030    2    1    2    0    0  0.00000000000E+00  0.00000000000E+00  0.58706496956E+03  0.13379466911E+04  0.12022712131E+04 0.  0.
        2    1    3    3  502    0 -0.25299767732E+03 -0.20424070801E+03 -0.26913575477E+03  0.42208547243E+03  0.25500000920E-02 0. -1.
       -2    1    3    3    0  502  0.25299767732E+03  0.20424070801E+03  0.85620072433E+03  0.91586121868E+03  0.25500000920E-02 0.  1.
</event>
<event>
 5   0  0.2340731E-04  0.1179721E+04  0.7818609E-02  0.9130794E-01
        1   -1    0    0  501    0  0.00000000000E+00  0.00000000000E+00  0.80053588229E+03  0.80053588231E+03  0.50400001928E-02 0. -1.
       -1   -1    0    0    0  501  0.00000000000E+00  0.00000000000E+00 -0.43462789555E+03  0.43462789558E+03  0.50400001928E-02 0.  1.
    10030    2    1    2    0    0  0.00000000000E+00  0.00000000000E+00  0.36590798674E+03  0.12351637779E+04  0.11797206887E+04 0.  0.
        3    1    3    3  502    0  0.36688239442E+03 -0.24301306935E+03  0.59419478528E+03  0.73940888300E+03  0.10100000352E+00 0. -1.
       -3    1    3    3    0  502 -0.36688239442E+03  0.24301306935E+03 -0.22828679853E+03  0.49575489488E+03  0.10100000352E+00 0.  1.
</event>
<event>
 5   0  0.3832662E-04  0.1189573E+04  0.7818609E-02  0.9122032E-01
       -2   -1    0    0    0  501  0.00000000000E+00  0.00000000000E+00  0.13503515597E+03  0.13503515600E+03  0.25500000920E-02 0. -1.
        2   -1    0    0  501    0  0.00000000000E+00  0.00000000000E+00 -0.26198442037E+04  0.26198442037E+04  0.25500000920E-02 0.  1.
    10030    2    1    2    0    0  0.00000000000E+00  0.00000000000E+00 -0.24848090478E+04  0.27548793597E+04  0.11895731515E+04 0.  0.
        4    1    3    3  502    0 -0.32831073377E+02  0.37675632093E+03 -0.23055467367E+04  0.23363583999E+04  0.12699999809E+01 0.  1.
       -4    1    3    3    0  502  0.32831073377E+02 -0.37675632093E+03 -0.17926231103E+03  0.41852095981E+03  0.12699999809E+01 0. -1.
</event>
<event>
 5   0  0.4024486E-04  0.1204549E+04  0.7818609E-02  0.9108884E-01
       -2   -1    0    0    0  501  0.00000000000E+00  0.00000000000E+00  0.31468782837E+03  0.31468782838E+03  0.25500000920E-02 0. -1.
        2   -1    0    0  501    0  0.00000000000E+00  0.00000000000E+00 -0.11526803167E+04  0.11526803167E+04  0.25500000920E-02 0.  1.
    10030    2    1    2    0    0  0.00000000000E+00  0.00000000000E+00 -0.83799248830E+03  0.14673681451E+04  0.12045488212E+04 0.  0.
        1    1    3    3  502    0 -0.73153341648E+02 -0.40998259356E+03 -0.94900973092E+03  0.10363670237E+04  0.50400001928E-02 0.  1.
       -1    1    3    3    0  502  0.73153341648E+02  0.40998259356E+03  0.11101724262E+03  0.43100112134E+03  0.50400001928E-02 0. -1.
</event>
<event>
 5   0  0.3883890E-04  0.1200024E+04  0.7818609E-02  0.9112835E-01
       -2   -1    0    0    0  501  0.00000000000E+00  0.00000000000E+00  0.16055307756E+03  0.16055307758E+03  0.25500000920E-02 0. -1.
        2   -1    0    0  501    0  0.00000000000E+00  0.00000000000E+00 -0.22423393545E+04  0.22423393545E+04  0.25500000920E-02 0.  1.
    10030    2    1    2    0    0  0.00000000000E+00  0.00000000000E+00 -0.20817862769E+04  0.24028924320E+04  0.12000241403E+04 0.  0.
        2    1    3    3  502    0  0.30805908988E+03 -0.42269740223E+03 -0.45217935086E+03  0.69140412355E+03  0.25500000920E-02 0. -1.
       -2    1    3    3    0  502 -0.30805908988E+03  0.42269740223E+03 -0.16296069260E+04  0.17114883085E+04  0.25500000920E-02 0.  1.
</event>
<event>
 5   0  0.4122956E-04  0.1197986E+04  0.7818609E-02  0.9114621E-01
        2   -1    0    0  501    0  0.00000000000E+00  0.00000000000E+00  0.49681277565E+03  0.49681277566E+03  0.25500000920E-02 0. -1.
       -2   -1    0    0    0  501  0.00000000000E+00  0.00000000000E+00 -0.72218869555E+03  0.72218869556E+03  0.25500000920E-02 0.  1.
    10030    2    1    2    0    0  0.00000000000E+00  0.00000000000E+00 -0.22537591990E+03  0.12190014712E+04  0.11979859271E+04 0.  0.
        5    1    3    3  502    0  0.55193477309E+02  0.49628604487E+03 -0.44928434373E+03  0.67173258801E+03  0.46999998093E+01 0.  1.
       -5    1    3    3    0  502 -0.55193477309E+02 -0.49628604487E+03  0.22390842383E+03  0.54726888321E+03  0.46999998093E+01 0. -1.
</event>
<event>
 5   0  0.3883890E-04  0.1198740E+04  0.7818609E-02  0.9113960E-01
        2   -1    0    0  501    0  0.00000000000E+00  0.00000000000E+00  0.98056691237E+03  0.98056691237E+03  0.25500000920E-02 0. -1.
       -2   -1    0    0    0  501  0.00000000000E+00  0.00000000000E+00 -0.36636417836E+03  0.36636417837E+03  0.25500000920E-02 0.  1.
    10030    2    1    2    0    0  0.00000000000E+00  0.00000000000E+00  0.61420273400E+03  0.13469310907E+04  0.11987403241E+04 0.  0.
        2    1    3    3  502    0  0.42116728335E+02  0.44145166940E+03 -0.14597225243E+03  0.46686324947E+03  0.25500000920E-02 0.  1.
       -2    1    3    3    0  502 -0.42116728335E+02 -0.44145166940E+03  0.76017498643E+03  0.88006784126E+03  0.25500000920E-02 0. -1.
</event>
<event>
 5   0  0.2340731E-04  0.1199476E+04  0.7818609E-02  0.9113316E-01
        1   -1    0    0  501    0  0.00000000000E+00  0.00000000000E+00  0.12612676393E+04  0.12612676393E+04  0.50400001928E-02 0. -1.
       -1   -1    0    0    0  501  0.00000000000E+00  0.00000000000E+00 -0.28517777130E+03  0.28517777134E+03  0.50400001928E-02 0.  1.
    10030    2    1    2    0    0  0.00000000000E+00  0.00000000000E+00  0.97608986802E+03  0.15464454107E+04  0.11994757095E+04 0.  0.
        3    1    3    3  502    0 -0.34346115513E+03 -0.76664080841E+02 -0.13807020714E+03  0.37802954736E+03  0.10100000352E+00 0.  1.
       -3    1    3    3    0  502  0.34346115513E+03  0.76664080841E+02  0.11141600752E+04  0.11684158633E+04  0.10100000352E+00 0. -1.
</event>
<event>
 5   0  0.4024486E-04  0.1201738E+04  0.7818609E-02  0.9111337E-01
        2   -1    0    0  501    0  0.00000000000E+00  0.00000000000E+00  0.88839289861E+03  0.88839289861E+03  0.25500000920E-02 0.  1.
       -2   -1    0    0    0  501  0.00000000000E+00  0.00000000000E+00 -0.40640061731E+03  0.40640061732E+03  0.25500000920E-02 0. -1.
    10030    2    1    2    0    0  0.00000000000E+00  0.00000000000E+00  0.48199228130E+03  0.12947935159E+04  0.12017377791E+04 0.  0.
        1    1    3    3  502    0 -0.25552404933E+03  0.51495516165E+03  0.52608163738E+02  0.57726854861E+03  0.50400001928E-02 0. -1.
       -1    1    3    3    0  502  0.25552404933E+03 -0.51495516165E+03  0.42938411756E+03  0.71752496733E+03  0.50400001928E-02 0.  1.
</event>
<event>
 5   0  0.2204090E-04  0.1199017E+04  0.7818609E-02  0.9113717E-01
       -1   -1    0    0    0  501  0.00000000000E+00  0.00000000000E+00  0.14759010036E+03  0.14759010045E+03  0.50400001928E-02 0.  1.
        1   -1    0    0  501    0  0.00000000000E+00  0.00000000000E+00 -0.24351949817E+04  0.24351949817E+04  0.50400001928E-02 0. -1.
    10030    2    1    2    0    0  0.00000000000E+00  0.00000000000E+00 -0.22876048813E+04  0.25827850821E+04  0.11990173841E+04 0.  0.
        2    1    3    3  502    0 -0.65494813054E+02 -0.14350687672E+03 -0.23896884185E+04  0.23948892525E+04  0.25500000920E-02 0. -1.
       -2    1    3    3    0  502  0.65494813054E+02  0.14350687672E+03  0.10208353722E+03  0.18789582960E+03  0.25500000920E-02 0.  1.
</event>
<event>
 5   0  0.2304842E-04  0.1197815E+04  0.7818609E-02  0.9114771E-01
        1   -1    0    0  501    0  0.00000000000E+00  0.00000000000E+00  0.11822446706E+04  0.11822446706E+04  0.50400001928E-02 0. -1.
       -1   -1    0    0    0  501  0.00000000000E+00  0.00000000000E+00 -0.30339764358E+03  0.30339764362E+03  0.50400001928E-02 0.  1.
    10030    2    1    2    0    0  0.00000000000E+00  0.00000000000E+00  0.87884702701E+03  0.14856423142E+04  0.11978150896E+04 0.  0.
        4    1    3    3  502    0 -0.73750112980E+01 -0.16688094564E+03  0.11527648320E+04  0.11648055682E+04  0.12699999809E+01 0. -1.
       -4    1    3    3    0  502  0.73750112980E+01  0.16688094564E+03 -0.27391780501E+03  0.32083674604E+03  0.12699999809E+01 0.  1.
</event>
<event>
 5   0  0.3993723E-04  0.1207959E+04  0.7818609E-02  0.9105919E-01
       -2   -1    0    0    0  501  0.00000000000E+00  0.00000000000E+00  0.78161101897E+03  0.78161101897E+03  0.25500000920E-02 0. -1.
        2   -1    0    0  501    0  0.00000000000E+00  0.00000000000E+00 -0.46671703009E+03  0.46671703009E+03  0.25500000920E-02 0.  1.
    10030    2    1    2    0    0  0.00000000000E+00  0.00000000000E+00  0.31489398888E+03  0.12483280491E+04  0.12079588958E+04 0.  0.
        3    1    3    3  502    0 -0.86222143384E+02  0.56276323493E+03 -0.50920802364E+02  0.57160270723E+03  0.10100000352E+00 0.  1.
       -3    1    3    3    0  502  0.86222143384E+02 -0.56276323493E+03  0.36581479124E+03  0.67672534184E+03  0.10100000352E+00 0. -1.
</event>
<event>
 5   0  0.4122956E-04  0.1199966E+04  0.7818609E-02  0.9112886E-01
       -2   -1    0    0    0  501  0.00000000000E+00  0.00000000000E+00  0.79356464319E+03  0.79356464320E+03  0.25500000920E-02 0. -1.
        2   -1    0    0  501    0  0.00000000000E+00  0.00000000000E+00 -0.45362363194E+03  0.45362363195E+03  0.25500000920E-02 0.  1.
    10030    2    1    2    0    0  0.00000000000E+00  0.00000000000E+00  0.33994101125E+03  0.12471882751E+04  0.11999661256E+04 0.  0.
        5    1    3    3  502    0 -0.50245761663E+03 -0.32603829866E+03  0.20586893236E+03  0.63337882504E+03  0.46999998093E+01 0. -1.
       -5    1    3    3    0  502  0.50245761663E+03  0.32603829866E+03  0.13407207889E+03  0.61380945011E+03  0.46999998093E+01 0.  1.
</event>
<event>
 5   0  0.1541375E-04  0.1200238E+04  0.7818609E-02  0.9112648E-01
       -3   -1    0    0    0  501  0.00000000000E+00  0.00000000000E+00  0.10603019694E+04  0.10603019742E+04  0.10100000352E+00 0.  1.
        3   -1    0    0  501    0  0.00000000000E+00  0.00000000000E+00 -0.33966054798E+03  0.33966056300E+03  0.10100000352E+00 0. -1.
    10030    2    1    2    0    0  0.00000000000E+00  0.00000000000E+00  0.72064142140E+03  0.13999625372E+04  0.12002379128E+04 0.  0.
        3    1    3    3  502    0  0.52622726152E+03 -0.13901888359E+03  0.65468654540E+02  0.54820391798E+03  0.10100000352E+00 0.  1.
       -3    1    3    3    0  502 -0.52622726152E+03  0.13901888359E+03  0.65517276686E+03  0.85175861921E+03  0.10100000352E+00 0. -1.
</event>
<event>
 5   0  0.1541375E-04  0.1200754E+04  0.7818609E-02  0.9112197E-01
       -3   -1    0    0    0  501  0.00000000000E+00  0.00000000000E+00  0.66737431243E+03  0.66737432007E+03  0.10100000352E+00 0. -1.
        3   -1    0    0  501    0  0.00000000000E+00  0.00000000000E+00 -0.54010505978E+03  0.54010506922E+03  0.10100000352E+00 0.  1.
    10030    2    1    2    0    0  0.00000000000E+00  0.00000000000E+00  0.12726925265E+03  0.12074793893E+04  0.12007535188E+04 0.  0.
        2    1    3    3  502    0  0.33683111613E+03 -0.82342759670E+02  0.55649905702E+03  0.65568798322E+03  0.25500000920E-02 0. -1.
       -2    1    3    3    0  502 -0.33683111613E+03  0.82342759670E+02 -0.42922980436E+03  0.55179140608E+03  0.25500000920E-02 0.  1.
</event>
<event>
 5   0  0.4122956E-04  0.1200505E+04  0.7818609E-02  0.9112415E-01
        2   -1    0    0  501    0  0.00000000000E+00  0.00000000000E+00  0.56515513592E+03  0.56515513593E+03  0.25500000920E-02 0. -1.
       -2   -1    0    0    0  501  0.00000000000E+00  0.00000000000E+00 -0.63752904050E+03  0.63752904051E+03  0.25500000920E-02 0.  1.
    10030    2    1    2    0    0  0.00000000000E+00  0.00000000000E+00 -0.72373904580E+02  0.12026841764E+04  0.12005045798E+04 0.  0.
        5    1    3    3  502    0  0.51158838881E+03  0.25806056567E+03 -0.21529293475E+03  0.61212014578E+03  0.46999998093E+01 0. -1.
       -5    1    3    3    0  502 -0.51158838881E+03 -0.25806056567E+03  0.14291903017E+03  0.59056403065E+03  0.46999998093E+01 0.  1.
</event>
<event>
 5   0  0.4024486E-04  0.1199620E+04  0.7818609E-02  0.9113189E-01
       -2   -1    0    0    0  501  0.00000000000E+00  0.00000000000E+00  0.19849967017E+03  0.19849967018E+03  0.25500000920E-02 0. -1.
        2   -1    0    0  501    0  0.00000000000E+00  0.00000000000E+00 -0.18124576414E+04  0.18124576414E+04  0.25500000920E-02 0.  1.
    10030    2    1    2    0    0  0.00000000000E+00  0.00000000000E+00 -0.16139579713E+04  0.20109573116E+04  0.11996203467E+04 0.  0.
        1    1    3    3  502    0 -0.43007474794E+03 -0.13360537440E+03 -0.14711044713E+04  0.15384937602E+04  0.50400001928E-02 0.  1.
       -1    1    3    3    0  502  0.43007474794E+03  0.13360537440E+03 -0.14285349999E+03  0.47246355137E+03  0.50400001928E-02 0. -1.
</event>
<event>
 5   0  0.2304842E-04  0.1199681E+04  0.7818609E-02  0.9113136E-01
       -1   -1    0    0    0  501  0.00000000000E+00  0.00000000000E+00  0.13481571443E+03  0.13481571453E+03  0.50400001928E-02 0. -1.
        1   -1    0    0  501    0  0.00000000000E+00  0.00000000000E+00 -0.26688902631E+04  0.26688902631E+04  0.50400001928E-02 0.  1.
    10030    2    1    2    0    0  0.00000000000E+00  0.00000000000E+00 -0.25340745487E+04  0.28037059777E+04  0.11996805370E+04 0.  0.
        4    1    3    3  502    0  0.39767048124E+02  0.20138665116E+03 -0.25842444568E+04  0.25923848146E+04  0.12699999809E+01 0.  1.
       -4    1    3    3    0  502 -0.39767048124E+02 -0.20138665116E+03  0.50169908125E+02  0.21132116308E+03  0.12699999809E+01 0. -1.
</event>
<event>
 5   0  0.2244308E-04  0.1197912E+04  0.7818609E-02  0.9114686E-01
        1   -1    0    0  501    0  0.00000000000E+00  0.00000000000E+00  0.91142014626E+03  0.91142014628E+03  0.50400001928E-02 0. -1.
       -1   -1    0    0    0  501  0.00000000000E+00  0.00000000000E+00 -0.39361455878E+03  0.39361455881E+03  0.50400001928E-02 0.  1.
    10030    2    1    2    0    0  0.00000000000E+00  0.00000000000E+00  0.51780558749E+03  0.13050347051E+04  0.11979119146E+04 0.  0.
        5    1    3    3  502    0  0.40471928946E+03 -0.19041685385E+03 -0.17505191572E+03  0.48033482560E+03  0.46999998093E+01 0.  1.
       -5    1    3    3    0  502 -0.40471928946E+03  0.19041685385E+03  0.69285750320E+03  0.82469987949E+03  0.46999998093E+01 0. -1.
</event>
<event>
 5   0  0.4122956E-04  0.1200966E+04  0.7818609E-02  0.9112012E-01
        2   -1    0    0  501    0  0.00000000000E+00  0.00000000000E+00  0.20382145284E+04  0.20382145284E+04  0.25500000920E-02 0.  1.
       -2   -1    0    0    0  501  0.00000000000E+00  0.00000000000E+00 -0.17690958078E+03  0.17690958080E+03  0.25500000920E-02 0. -1.
    10030    2    1    2    0    0  0.00000000000E+00  0.00000000000E+00  0.18613049476E+04  0.22151241092E+04  0.12009657410E+04 0.  0.
        5    1    3    3  502    0  0.49951145698E+03  0.19750032933E+02  0.31709593071E+03  0.59200817454E+03  0.46999998093E+01 0. -1.
       -5    1    3    3    0  502 -0.49951145698E+03 -0.19750032933E+02  0.15442090169E+04  0.16231159346E+04  0.46999998093E+01 0.  1.
</event>
<event>
 5   0  0.3883890E-04  0.1201399E+04  0.7818609E-02  0.9111633E-01
        2   -1    0    0  501    0  0.00000000000E+00  0.00000000000E+00  0.54699372682E+03  0.54699372683E+03  0.25500000920E-02 0.  1.
       -2   -1    0    0    0  501  0.00000000000E+00  0.00000000000E+00 -0.65967876050E+03  0.65967876051E+03  0.25500000920E-02 0. -1.
    10030    2    1    2    0    0  0.00000000000E+00  0.00000000000E+00 -0.11268503368E+03  0.12066724873E+04  0.12013994235E+04 0.  0.
        2    1    3    3  502    0 -0.12109148994E+03 -0.46714108816E+01 -0.64727437531E+03  0.65852037778E+03  0.25500000920E-02 0. -1.
       -2    1    3    3    0  502  0.12109148994E+03  0.46714108816E+01  0.53458934163E+03  0.54815210955E+03  0.25500000920E-02 0.  1.
</event>
<event>
 5   0  0.3993723E-04  0.1198783E+04  0.7818609E-02  0.9113922E-01
       -2   -1    0    0    0  501  0.00000000000E+00  0.00000000000E+00  0.24427331961E+03  0.24427331962E+03  0.25500000920E-02 0. -1.
        2   -1    0    0  501    0  0.00000000000E+00  0.00000000000E+00 -0.14707712673E+04  0.14707712673E+04  0.25500000920E-02 0.  1.
    10030    2    1    2    0    0  0.00000000000E+00  0.00000000000E+00 -0.12264979477E+04  0.17150445869E+04  0.11987830160E+04 0.  0.
        3    1    3    3  502    0 -0.16089392577E+03 -0.23111968269E+03 -0.13702356939E+04  0.13988742010E+04  0.10100000352E+00 0.  1.
       -3    1    3    3    0  502  0.16089392577E+03  0.23111968269E+03  0.14373774621E+03  0.31617038597E+03  0.10100000352E+00 0. -1.
</event>
<event>
 5   0  0.2315038E-04  0.1200233E+04  0.7818609E-02  0.9112652E-01
       -1   -1    0    0    0  501  0.00000000000E+00  0.00000000000E+00  0.26515981501E+03  0.26515981506E+03  0.50400001928E-02 0.  1.
        1   -1    0    0  501    0  0.00000000000E+00  0.00000000000E+00 -0.13581994833E+04  0.13581994833E+04  0.50400001928E-02 0. -1.
    10030    2    1    2    0    0  0.00000000000E+00  0.00000000000E+00 -0.10930396683E+04  0.16233592984E+04  0.12002331836E+04 0.  0.
        1    1    3    3  502    0 -0.16606192407E+03 -0.56446619548E+03 -0.38682154090E+03  0.70415165483E+03  0.50400001928E-02 0.  1.
       -1    1    3    3    0  502  0.16606192407E+03  0.56446619548E+03 -0.70621812739E+03  0.91920764354E+03  0.50400001928E-02 0. -1.
</event>
<event>
 5   0  0.3993723E-04  0.1200461E+04  0.7818609E-02  0.9112453E-01
        2   -1    0    0  501    0  0.00000000000E+00  0.00000000000E+00  0.14780505732E+04  0.14780505732E+04  0.25500000920E-02 0. -1.
       -2   -1    0    0    0  501  0.00000000000E+00  0.00000000000E+00 -0.24375138785E+03  0.24375138786E+03  0.25500000920E-02 0.  1.
    10030    2    1    2    0    0  0.00000000000E+00  0.00000000000E+00  0.12342991853E+04  0.17218019610E+04  0.12004613755E+04 0.  0.
        3    1    3    3  502    0  0.32786854658E+02 -0.37956128892E+03 -0.48109258960E+02  0.38400033970E+03  0.10100000352E+00 0.  1.
       -3    1    3    3    0  502 -0.32786854658E+02  0.37956128892E+03  0.12824084443E+04  0.13378016213E+04  0.10100000352E+00 0. -1.
</event>
<event>
 5   0  0.4122956E-04  0.1212809E+04  0.7818609E-02  0.9101718E-01
       -2   -1    0    0    0  501  0.00000000000E+00  0.00000000000E+00  0.67102075466E+03  0.67102075466E+03  0.25500000920E-02 0.  1.
        2   -1    0    0  501    0  0.00000000000E+00  0.00000000000E+00 -0.54801030129E+03  0.54801030130E+03  0.25500000920E-02 0. -1.
    10030    2    1    2    0    0  0.00000000000E+00  0.00000000000E+00  0.12301045336E+03  0.12190310560E+04  0.12128087829E+04 0.  0.
        5    1    3    3  502    0  0.50696711507E+03 -0.77624848777E+01  0.39581996616E+03  0.64325068794E+03  0.46999998093E+01 0.  1.
       -5    1    3    3    0  502 -0.50696711507E+03  0.77624848777E+01 -0.27280951279E+03  0.57578036802E+03  0.46999998093E+01 0. -1.
</event>
<event>
 5   0  0.2304842E-04  0.1211462E+04  0.7818609E-02  0.9102882E-01
       -1   -1    0    0    0  501  0.00000000000E+00  0.00000000000E+00  0.31671295398E+03  0.31671295402E+03  0.50400001928E-02 0. -1.
        1   -1    0    0  501    0  0.00000000000E+00  0.00000000000E+00 -0.11584944761E+04  0.11584944761E+04  0.50400001928E-02 0.  1.
    10030    2    1    2    0    0  0.00000000000E+00  0.00000000000E+00 -0.84178152210E+03  0.14752074301E+04  0.12114622697E+04 0.  0.
        4    1    3    3  502    0  0.23370544247E+03 -0.54043393213E+03 -0.24772973075E+03  0.63879472544E+03  0.12699999809E+01 0.  1.
       -4    1    3    3    0  502 -0.23370544247E+03  0.54043393213E+03 -0.59405179134E+03  0.83641270467E+03  0.12699999809E+01 0. -1.
</event>
<event>
 5   0  0.2204090E-04  0.1201364E+04  0.7818609E-02  0.9111664E-01
       -1   -1    0    0    0  501  0.00000000000E+00  0.00000000000E+00  0.41787556580E+03  0.41787556583E+03  0.50400001928E-02 0.  1.
        1   -1    0    0  501    0  0.00000000000E+00  0.00000000000E+00 -0.86345985168E+03  0.86345985170E+03  0.50400001928E-02 0. -1.
    10030    2    1    2    0    0  0.00000000000E+00  0.00000000000E+00 -0.44558428589E+03  0.12813354175E+04  0.12013638485E+04 0.  0.
        2    1    3    3  502    0  0.31209717626E+03 -0.41823678853E+03  0.94486296080E+02  0.53033415773E+03  0.25500000920E-02 0. -1.
       -2    1    3    3    0  502 -0.31209717626E+03  0.41823678853E+03 -0.54007058197E+03  0.75100125980E+03  0.25500000920E-02 0.  1.
</event>
<event>
 5   0  0.3832662E-04  0.1197389E+04  0.7818609E-02  0.9115145E-01
       -2   -1    0    0    0  501  0.00000000000E+00  0.00000000000E+00  0.13417734633E+03  0.13417734636E+03  0.25500000920E-02 0. -1.
        2   -1    0    0  501    0  0.00000000000E+00  0.00000000000E+00 -0.26713514980E+04  0.26713514980E+04  0.25500000920E-02 0.  1.
    10030    2    1    2    0    0  0.00000000000E+00  0.00000000000E+00 -0.25371741517E+04  0.28055288444E+04  0.11973885838E+04 0.  0.
        4    1    3    3  502    0 -0.45771825000E+02  0.41246913365E+03 -0.25752437643E+03  0.48841198135E+03  0.12699999809E+01 0. -1.
       -4    1    3    3    0  502  0.45771825000E+02 -0.41246913365E+03 -0.22796497752E+04  0.23171168630E+04  0.12699999809E+01 0.  1.
</event>
<event>
 5   0  0.3832662E-04  0.1199012E+04  0.7818609E-02  0.9113722E-01
        2   -1    0    0  501    0  0.00000000000E+00  0.00000000000E+00  0.66904813486E+03  0.66904813487E+03  0.25500000920E-02 0. -1.
       -2   -1    0    0    0  501  0.00000000000E+00  0.00000000000E+00 -0.53719216749E+03  0.53719216750E+03  0.25500000920E-02 0.  1.
    10030    2    1    2    0    0  0.00000000000E+00  0.00000000000E+00  0.13185596737E+03  0.12062403024E+04  0.11990119561E+04 0.  0.
        4    1    3    3  502    0 -0.43391342401E+03  0.59260544816E+02  0.47780195115E+03  0.64814272281E+03  0.12699999809E+01 0. -1.
       -4    1    3    3    0  502  0.43391342401E+03 -0.59260544816E+02 -0.34594598378E+03  0.55809757955E+03  0.12699999809E+01 0.  1.
</event>
<event>
 5   0  0.3883890E-04  0.1198522E+04  0.7818609E-02  0.9114151E-01
        2   -1    0    0  501    0  0.00000000000E+00  0.00000000000E+00  0.13196367724E+04  0.13196367724E+04  0.25500000920E-02 0.  1.
       -2   -1    0    0    0  501  0.00000000000E+00  0.00000000000E+00 -0.27213064488E+03  0.27213064489E+03  0.25500000920E-02 0. -1.
    10030    2    1    2    0    0  0.00000000000E+00  0.00000000000E+00  0.10475061275E+04  0.15917674173E+04  0.11985217660E+04 0.  0.
        2    1    3    3  502    0 -0.18805503697E+03 -0.49342260580E+03  0.90006291918E+03  0.10435247114E+04  0.25500000920E-02 0.  1.
       -2    1    3    3    0  502  0.18805503697E+03  0.49342260580E+03  0.14744320832E+03  0.54824270587E+03  0.25500000920E-02 0. -1.
</event>
<event>
 5   0  0.4024486E-04  0.1201765E+04  0.7818609E-02  0.9111313E-01
       -2   -1    0    0    0  501  0.00000000000E+00  0.00000000000E+00  0.21513506810E+03  0.21513506812E+03  0.25500000920E-02 0.  1.
        2   -1    0    0  501    0  0.00000000000E+00  0.00000000000E+00 -0.16782927707E+04  0.16782927707E+04  0.25500000920E-02 0. -1.
    10030    2    1    2    0    0  0.00000000000E+00  0.00000000000E+00 -0.14631577026E+04  0.18934278388E+04  0.12017647516E+04 0.  0.
        1    1    3    3  502    0 -0.37920426152E+03  0.44106993929E+03 -0.96906793392E+03  0.11302350304E+04  0.50400001928E-02 0. -1.
       -1    1    3    3    0  502  0.37920426152E+03 -0.44106993929E+03 -0.49408976865E+03  0.76319280841E+03  0.50400001928E-02 0.  1.
</event>
<event>
 5   0  0.3832662E-04  0.1199494E+04  0.7818609E-02  0.9113300E-01
       -2   -1    0    0    0  501  0.00000000000E+00  0.00000000000E+00  0.40377175557E+03  0.40377175558E+03  0.25500000920E-02 0.  1.
        2   -1    0    0  501    0  0.00000000000E+00  0.00000000000E+00 -0.89084063428E+03  0.89084063429E+03  0.25500000920E-02 0. -1.
    10030    2    1    2    0    0  0.00000000000E+00  0.00000000000E+00 -0.48706887871E+03  0.12946123899E+04  0.11994937046E+04 0.  0.
        4    1    3    3  502    0  0.52025579568E+03 -0.98153208777E+02  0.60580022678E+02  0.53288994866E+03  0.12699999809E+01 0.  1.
       -4    1    3    3    0  502 -0.52025579568E+03  0.98153208777E+02 -0.54764890139E+03  0.76172244120E+03  0.12699999809E+01 0. -1.
</event>
<event>
 5   0  0.3993723E-04  0.1199375E+04  0.7818609E-02  0.9113404E-01
        2   -1    0    0  501    0  0.00000000000E+00  0.00000000000E+00  0.50464139292E+03  0.50464139293E+03  0.25500000920E-02 0. -1.
       -2   -1    0    0    0  501  0.00000000000E+00  0.00000000000E+00 -0.71263526386E+03  0.71263526386E+03  0.25500000920E-02 0.  1.
    10030    2    1    2    0    0  0.00000000000E+00  0.00000000000E+00 -0.20799387094E+03  0.12172766568E+04  0.11993752577E+04 0.  0.
        3    1    3    3  502    0 -0.89113888798E+02 -0.49193758532E+03  0.23212792862E+03  0.55120527798E+03  0.10100000352E+00 0. -1.
       -3    1    3    3    0  502  0.89113888798E+02  0.49193758532E+03 -0.44012179956E+03  0.66607137881E+03  0.10100000352E+00 0.  1.
</event>
<event>
 5   0  0.2315038E-04  0.1200866E+04  0.7818609E-02  0.9112099E-01
       -1   -1    0    0    0  501  0.00000000000E+00  0.00000000000E+00  0.16331187732E+03  0.16331187740E+03  0.50400001928E-02 0.  1.
        1   -1    0    0  501    0  0.00000000000E+00  0.00000000000E+00 -0.22075526732E+04  0.22075526732E+04  0.50400001928E-02 0. -1.
    10030    2    1    2    0    0  0.00000000000E+00  0.00000000000E+00 -0.20442407958E+04  0.23708645506E+04  0.12008656402E+04 0.  0.
        1    1    3    3  502    0 -0.65457222518E+02  0.46583342957E+03 -0.28542969060E+03  0.55023226040E+03  0.50400001928E-02 0. -1.
       -1    1    3    3    0  502  0.65457222518E+02 -0.46583342957E+03 -0.17588111052E+04  0.18206322902E+04  0.50400001928E-02 0.  1.
</event>
<event>
 5   0  0.2315038E-04  0.1200512E+04  0.7818609E-02  0.9112409E-01
       -1   -1    0    0    0  501  0.00000000000E+00  0.00000000000E+00  0.31282212020E+03  0.31282212024E+03  0.50400001928E-02 0.  1.
        1   -1    0    0  501    0  0.00000000000E+00  0.00000000000E+00 -0.11517954416E+04  0.11517954416E+04  0.50400001928E-02 0. -1.
    10030    2    1    2    0    0  0.00000000000E+00  0.00000000000E+00 -0.83897332138E+03  0.14646175618E+04  0.12005117111E+04 0.  0.
        1    1    3    3  502    0  0.39276706911E+03 -0.12891331276E+03  0.11148775381E+03  0.42815199644E+03  0.50400001928E-02 0.  1.
       -1    1    3    3    0  502 -0.39276706911E+03  0.12891331276E+03 -0.95046107519E+03  0.10364655654E+04  0.50400001928E-02 0. -1.
</event>
<event>
 5   0  0.2304842E-04  0.1199662E+04  0.7818609E-02  0.9113152E-01
        1   -1    0    0  501    0  0.00000000000E+00  0.00000000000E+00  0.69576384782E+03  0.69576384784E+03  0.50400001928E-02 0. -1.
       -1   -1    0    0    0  501  0.00000000000E+00  0.00000000000E+00 -0.51712559008E+03  0.51712559011E+03  0.50400001928E-02 0.  1.
    10030    2    1    2    0    0  0.00000000000E+00  0.00000000000E+00  0.17863825774E+03  0.12128894379E+04  0.11996621031E+04 0.  0.
        4    1    3    3  502    0 -0.39507691091E+03  0.38308331493E+03 -0.15196911051E+03  0.57090701096E+03  0.12699999809E+01 0.  1.
       -4    1    3    3    0  502  0.39507691091E+03 -0.38308331493E+03  0.33060736825E+03  0.64198242698E+03  0.12699999809E+01 0. -1.
</event>
<event>
 5   0  0.2315038E-04  0.1196692E+04  0.7818609E-02  0.9115757E-01
        1   -1    0    0  501    0  0.00000000000E+00  0.00000000000E+00  0.40175454049E+03  0.40175454053E+03  0.50400001928E-02 0. -1.
       -1   -1    0    0    0  501  0.00000000000E+00  0.00000000000E+00 -0.89113645100E+03  0.89113645101E+03  0.50400001928E-02 0.  1.
    10030    2    1    2    0    0  0.00000000000E+00  0.00000000000E+00 -0.48938191050E+03  0.12928909915E+04  0.11966923003E+04 0.  0.
        1    1    3    3  502    0 -0.36669441662E+03 -0.43021055002E+03 -0.32780229075E+02  0.56623357016E+03  0.50400001928E-02 0. -1.
       -1    1    3    3    0  502  0.36669441662E+03  0.43021055002E+03 -0.45660168143E+03  0.72665742138E+03  0.50400001928E-02 0.  1.
</event>
<event>
 5   0  0.4024486E-04  0.1199864E+04  0.7818609E-02  0.9112976E-01
       -2   -1    0    0    0  501  0.00000000000E+00  0.00000000000E+00  0.20839197117E+03  0.20839197119E+03  0.25500000920E-02 0.  1.
        2   -1    0    0  501    0  0.00000000000E+00  0.00000000000E+00 -0.17271222093E+04  0.17271222093E+04  0.25500000920E-02 0. -1.
    10030    2    1    2    0    0  0.00000000000E+00  0.00000000000E+00 -0.15187302381E+04  0.19355141805E+04  0.11998639951E+04 0.  0.
        1    1    3    3  502    0  0.35385540546E+03 -0.28791285044E+03 -0.13084978637E+03  0.47458310552E+03  0.50400001928E-02 0.  1.
       -1    1    3    3    0  502 -0.35385540546E+03  0.28791285044E+03 -0.13878804517E+04  0.14609310749E+04  0.50400001928E-02 0. -1.
</event>
<event>
 5   0  0.3832662E-04  0.1193602E+04  0.7818609E-02  0.9118476E-01
       -2   -1    0    0    0  501  0.00000000000E+00  0.00000000000E+00  0.63021838142E+03  0.63021838143E+03  0.25500000920E-02 0. -1.
        2   -1    0    0  501    0  0.00000000000E+00  0.00000000000E+00 -0.56515520376E+03  0.56515520376E+03  0.25500000920E-02 0.  1.
    10030    2    1    2    0    0  0.00000000000E+00  0.00000000000E+00  0.65063177664E+02  0.11953735852E+04  0.11936016048E+04 0.  0.
        4    1    3    3  502    0  0.45343171959E+03  0.37323342905E+03  0.13883089854E+03  0.60347257451E+03  0.12699999809E+01 0. -1.
       -4    1    3    3    0  502 -0.45343171959E+03 -0.37323342905E+03 -0.73767720873E+02  0.59190101068E+03  0.12699999809E+01 0.  1.
</event>
<event>
 5   0  0.3883890E-04  0.1190475E+04  0.7818609E-02  0.9121234E-01
       -2   -1    0    0    0  501  0.00000000000E+00  0.00000000000E+00  0.35238145853E+03  0.35238145854E+03  0.25500000920E-02 0. -1.
        2   -1    0    0  501    0  0.00000000000E+00  0.00000000000E+00 -0.10054670861E+04  0.10054670861E+04  0.25500000920E-02 0.  1.
    10030    2    1    2    0    0  0.00000000000E+00  0.00000000000E+00 -0.65308562757E+03  0.13578485447E+04  0.11904754652E+04 0.  0.
        2    1    3    3  502    0  0.43073059795E+03  0.19931777055E+03 -0.73628669026E+03  0.87599915064E+03  0.25500000920E-02 0.  1.
       -2    1    3    3    0  502 -0.43073059795E+03 -0.19931777055E+03  0.83201062686E+02  0.48184939401E+03  0.25500000920E-02 0. -1.
</event>
<event>
 5   0  0.2244308E-04  0.1198109E+04  0.7818609E-02  0.9114514E-01
        1   -1    0    0  501    0  0.00000000000E+00  0.00000000000E+00  0.11610573932E+04  0.11610573932E+04  0.50400001928E-02 0. -1.
       -1   -1    0    0    0  501  0.00000000000E+00  0.00000000000E+00 -0.30908560498E+03  0.30908560502E+03  0.50400001928E-02 0.  1.
    10030    2    1    2    0    0  0.00000000000E+00  0.00000000000E+00  0.85197178817E+03  0.14701429982E+04  0.11981087210E+04 0.  0.
        5    1    3    3  502    0 -0.48561310101E+03 -0.13280614205E+03  0.82432762227E+03  0.96591701200E+03  0.46999998093E+01 0. -1.
       -5    1    3    3    0  502  0.48561310101E+03  0.13280614205E+03  0.27644165900E+02  0.50422598618E+03  0.46999998093E+01 0.  1.
</event>
<event>
 5   0  0.2340731E-04  0.1167746E+04  0.7818609E-02  0.9141566E-01
        1   -1    0    0  501    0  0.00000000000E+00  0.00000000000E+00  0.50933736385E+03  0.50933736387E+03  0.50400001928E-02 0. -1.
       -1   -1    0    0    0  501  0.00000000000E+00  0.00000000000E+00 -0.66931651875E+03  0.66931651877E+03  0.50400001928E-02 0.  1.
    10030    2    1    2    0    0  0.00000000000E+00  0.00000000000E+00 -0.15997915491E+03  0.11786538826E+04  0.11677463959E+04 0.  0.
        3    1    3    3  502    0 -0.15820616774E+03 -0.45120005333E+03 -0.41822747097E+03  0.63523610359E+03  0.10100000352E+00 0.  1.
       -3    1    3    3    0  502  0.15820616774E+03  0.45120005333E+03  0.25824831606E+03  0.54341777905E+03  0.10100000352E+00 0. -1.
</event>
<event>
 5   0  0.4024486E-04  0.1228199E+04  0.7818609E-02  0.9088526E-01
        2   -1    0    0  501    0  0.00000000000E+00  0.00000000000E+00  0.59742990174E+03  0.59742990174E+03  0.25500000920E-02 0. -1.
       -2   -1    0    0    0  501  0.00000000000E+00  0.00000000000E+00 -0.63123429687E+03  0.63123429687E+03  0.25500000920E-02 0.  1.
    10030    2    1    2    0    0  0.00000000000E+00  0.00000000000E+00 -0.33804395130E+02  0.12286641986E+04  0.12281990783E+04 0.  0.
        1    1    3    3  502    0  0.58700959744E+03  0.19622041448E+02  0.16247815049E+03  0.60939678486E+03  0.50400001928E-02 0.  1.
       -1    1    3    3    0  502 -0.58700959744E+03 -0.19622041448E+02 -0.19628254562E+03  0.61926741375E+03  0.50400001928E-02 0. -1.
</event>
<event>
 5   0  0.2304842E-04  0.1199948E+04  0.7818609E-02  0.9112902E-01
       -1   -1    0    0    0  501  0.00000000000E+00  0.00000000000E+00  0.43993588245E+03  0.43993588248E+03  0.50400001928E-02 0.  1.
        1   -1    0    0  501    0  0.00000000000E+00  0.00000000000E+00 -0.81823056173E+03  0.81823056175E+03  0.50400001928E-02 0. -1.
    10030    2    1    2    0    0  0.00000000000E+00  0.00000000000E+00 -0.37829467928E+03  0.12581664442E+04  0.11999483060E+04 0.  0.
        4    1    3    3  502    0 -0.58159142737E+03  0.42620567181E+02 -0.33706733021E+03  0.67355853430E+03  0.12699999809E+01 0.  1.
       -4    1    3    3    0  502  0.58159142737E+03 -0.42620567181E+02 -0.41227349069E+02  0.58460790993E+03  0.12699999809E+01 0. -1.
</event>
<event>
 5   0  0.2340731E-04  0.1198894E+04  0.7818609E-02  0.9113825E-01
       -1   -1    0    0    0  501  0.00000000000E+00  0.00000000000E+00  0.50970314625E+03  0.50970314627E+03  0.50400001928E-02 0. -1.
        1   -1    0    0  501    0  0.00000000000E+00  0.00000000000E+00 -0.70499269896E+03  0.70499269898E+03  0.50400001928E-02 0.  1.
    10030    2    1    2    0    0  0.00000000000E+00  0.00000000000E+00 -0.19528955271E+03  0.12146958453E+04  0.11988944854E+04 0.  0.
        3    1    3    3  502    0  0.10957821813E+03  0.40327094606E+03  0.33778943987E+03  0.53734212352E+03  0.10100000352E+00 0. -1.
       -3    1    3    3    0  502 -0.10957821813E+03 -0.40327094606E+03 -0.53307899258E+03  0.67735372174E+03  0.10100000352E+00 0.  1.
</event>
<event>
 5   0  0.2315038E-04  0.1199654E+04  0.7818609E-02  0.9113159E-01
        1   -1    0    0  501    0  0.00000000000E+00  0.00000000000E+00  0.66841286902E+03  0.66841286904E+03  0.50400001928E-02 0. -1.
       -1   -1    0    0    0  501  0.00000000000E+00  0.00000000000E+00 -0.53827891432E+03  0.53827891435E+03  0.50400001928E-02 0.  1.
    10030    2    1    2    0    0  0.00000000000E+00  0.00000000000E+00  0.13013395470E+03  0.12066917834E+04  0.11996542060E+04 0.  0.
        1    1    3    3  502    0  0.30948485626E+03  0.50671413771E+03 -0.20593983410E+02  0.59410790753E+03  0.50400001928E-02 0. -1.
       -1    1    3    3    0  502 -0.30948485626E+03 -0.50671413771E+03  0.15072793811E+03  0.61258387586E+03  0.50400001928E-02 0.  1.
</event>
<event>
 5   0  0.1541375E-04  0.1200743E+04  0.7818609E-02  0.9112207E-01
        3   -1    0    0  501    0  0.00000000000E+00  0.00000000000E+00  0.37545457063E+03  0.37545458421E+03  0.10100000352E+00 0.  1.
       -3   -1    0    0    0  501  0.00000000000E+00  0.00000000000E+00 -0.96002461450E+03  0.96002461981E+03  0.10100000352E+00 0. -1.
    10030    2    1    2    0    0  0.00000000000E+00  0.00000000000E+00 -0.58457004387E+03  0.13354792040E+04  0.12007425070E+04 0.  0.
        3    1    3    3  502    0  0.38224971628E+03 -0.43509034242E+03 -0.11633342834E+03  0.59072153204E+03  0.10100000352E+00 0. -1.
       -3    1    3    3    0  502 -0.38224971628E+03  0.43509034242E+03 -0.46823661553E+03  0.74475767199E+03  0.10100000352E+00 0.  1.
</event>
<event>
 5   0  0.2244308E-04  0.1200504E+04  0.7818609E-02  0.9112415E-01
        1   -1    0    0  501    0  0.00000000000E+00  0.00000000000E+00  0.49199049266E+03  0.49199049268E+03  0.50400001928E-02 0. -1.
       -1   -1    0    0    0  501  0.00000000000E+00  0.00000000000E+00 -0.73233638643E+03  0.73233638644E+03  0.50400001928E-02 0.  1.
    10030    2    1    2    0    0  0.00000000000E+00  0.00000000000E+00 -0.24034589377E+03  0.12243268791E+04  0.12005041267E+04 0.  0.
        5    1    3    3  502    0  0.24226772291E+03 -0.23975971334E+03  0.38369817298E+03  0.51324920619E+03  0.46999998093E+01 0. -1.
       -5    1    3    3    0  502 -0.24226772291E+03  0.23975971334E+03 -0.62404406675E+03  0.71107767294E+03  0.46999998093E+01 0.  1.
</event>
<event>
 5   0  0.2340731E-04  0.1197665E+04  0.7818609E-02  0.9114903E-01
        1   -1    0    0  501    0  0.00000000000E+00  0.00000000000E+00  0.10402761744E+04  0.10402761744E+04  0.50400001928E-02 0. -1.
       -1   -1    0    0    0  501  0.00000000000E+00  0.00000000000E+00 -0.34471659199E+03  0.34471659202E+03  0.50400001928E-02 0.  1.
    10030    2    1    2    0    0  0.00000000000E+00  0.00000000000E+00  0.69555958241E+03  0.13849927664E+04  0.11976651579E+04 0.  0.
        3    1    3    3  502    0  0.11892135150E+03  0.36825361242E+03 -0.18069790633E+03  0.42708869624E+03  0.10100000352E+00 0.  1.
       -3    1    3    3    0  502 -0.11892135150E+03 -0.36825361242E+03  0.87625748874E+03  0.95790407019E+03  0.10100000352E+00 0. -1.
</event>
<event>
 5   0  0.3832662E-04  0.1199647E+04  0.7818609E-02  0.9113166E-01
        2   -1    0    0  501    0  0.00000000000E+00  0.00000000000E+00  0.12766977189E+04  0.12766977189E+04  0.25500000920E-02 0.  1.
       -2   -1    0    0    0  501  0.00000000000E+00  0.00000000000E+00 -0.28181161286E+03  0.28181161288E+03  0.25500000920E-02 0. -1.
    10030    2    1    2    0    0  0.00000000000E+00  0.00000000000E+00  0.99488610607E+03  0.15585093318E+04  0.11996470203E+04 0.  0.
        4    1    3    3  502    0  0.49838746174E+03 -0.29792667673E+03  0.30198287063E+03  0.65448119436E+03  0.12699999809E+01 0. -1.
       -4    1    3    3    0  502 -0.49838746174E+03  0.29792667673E+03  0.69290323544E+03  0.90402813745E+03  0.12699999809E+01 0.  1.
</event>
<event>
 5   0  0.4024486E-04  0.1190822E+04  0.7818609E-02  0.9120928E-01
       -2   -1    0    0    0  501  0.00000000000E+00  0.00000000000E+00  0.26101670435E+03  0.26101670437E+03  0.25500000920E-02 0.  1.
        2   -1    0    0  501    0  0.00000000000E+00  0.00000000000E+00 -0.13582044879E+04  0.13582044879E+04  0.25500000920E-02 0. -1.
    10030    2    1    2    0    0  0.00000000000E+00  0.00000000000E+00 -0.10971877836E+04  0.16192211923E+04  0.11908216647E+04 0.  0.
        1    1    3    3  502    0  0.44588665682E+03  0.20224769771E+03 -0.10092968182E+04  0.11217838960E+04  0.50400001928E-02 0. -1.
       -1    1    3    3    0  502 -0.44588665682E+03 -0.20224769771E+03 -0.87890965352E+02  0.49743729633E+03  0.50400001928E-02 0.  1.
</event>
<event>
 5   0  0.2304842E-04  0.1200218E+04  0.7818609E-02  0.9112666E-01
       -1   -1    0    0    0  501  0.00000000000E+00  0.00000000000E+00  0.27868779344E+03  0.27868779348E+03  0.50400001928E-02 0. -1.
        1   -1    0    0  501    0  0.00000000000E+00  0.00000000000E+00 -0.12922378517E+04  0.12922378517E+04  0.50400001928E-02 0.  1.
    10030    2    1    2    0    0  0.00000000000E+00  0.00000000000E+00 -0.10135500583E+04  0.15709256452E+04  0.12002181727E+04 0.  0.
        4    1    3    3  502    0 -0.41165041135E+03 -0.31017526066E+03 -0.90905634258E+03  0.10450118661E+04  0.12699999809E+01 0.  1.
       -4    1    3    3    0  502  0.41165041135E+03  0.31017526066E+03 -0.10449371569E+03  0.52591377906E+03  0.12699999809E+01 0. -1.
</event>
<event>
 5   0  0.4122956E-04  0.1200518E+04  0.7818609E-02  0.9112403E-01
        2   -1    0    0  501    0  0.00000000000E+00  0.00000000000E+00  0.40727393187E+03  0.40727393188E+03  0.25500000920E-02 0. -1.
       -2   -1    0    0    0  501  0.00000000000E+00  0.00000000000E+00 -0.88468905405E+03  0.88468905405E+03  0.25500000920E-02 0.  1.
    10030    2    1    2    0    0  0.00000000000E+00  0.00000000000E+00 -0.47741512217E+03  0.12919629859E+04  0.12005178708E+04 0.  0.
        5    1    3    3  502    0 -0.32353416947E+03 -0.46270506570E+03 -0.19426283656E+02  0.56495115464E+03  0.46999998093E+01 0. -1.
       -5    1    3    3    0  502  0.32353416947E+03  0.46270506570E+03 -0.45798883852E+03  0.72701183129E+03  0.46999998093E+01 0.  1.
</event>
<event>
 5   0  0.2304842E-04  0.1199346E+04  0.7818609E-02  0.9113429E-01
       -1   -1    0    0    0  501  0.00000000000E+00  0.00000000000E+00  0.57130885062E+03  0.57130885064E+03  0.50400001928E-02 0.  1.
        1   -1    0    0  501    0  0.00000000000E+00  0.00000000000E+00 -0.62944588226E+03  0.62944588228E+03  0.50400001928E-02 0. -1.
    10030    2    1    2    0    0  0.00000000000E+00  0.00000000000E+00 -0.58137031642E+02  0.12007547329E+04  0.11993464946E+04 0.  0.
        4    1    3    3  502    0  0.59005419087E+03  0.80543139849E+02 -0.99544671745E+02  0.60378961577E+03  0.12699999809E+01 0.  1.
       -4    1    3    3    0  502 -0.59005419087E+03 -0.80543139849E+02  0.41407640103E+02  0.59696511715E+03  0.12699999809E+01 0. -1.
</event>
<event>
 5   0  0.2315038E-04  0.1203194E+04  0.7818609E-02  0.9110065E-01
       -1   -1    0    0    0  501  0.00000000000E+00  0.00000000000E+00  0.53560558577E+03  0.53560558580E+03  0.50400001928E-02 0.  1.
        1   -1    0    0  501    0  0.00000000000E+00  0.00000000000E+00 -0.67571924787E+03  0.67571924789E+03  0.50400001928E-02 0. -1.
    10030    2    1    2    0    0  0.00000000000E+00  0.00000000000E+00 -0.14011366209E+03  0.12113248337E+04  0.12031940884E+04 0.  0.
        1    1    3    3  502    0  0.55309429664E+01  0.21707429602E+03 -0.63488928305E+03  0.67099645534E+03  0.50400001928E-02 0. -1.
       -1    1    3    3    0  502 -0.55309429664E+01 -0.21707429602E+03  0.49477562096E+03  0.54032837834E+03  0.50400001928E-02 0.  1.
</event>
<event>
 5   0  0.2315038E-04  0.1199487E+04  0.7818609E-02  0.9113306E-01
       -1   -1    0    0    0  501  0.00000000000E+00  0.00000000000E+00  0.33847947710E+03  0.33847947714E+03  0.50400001928E-02 0.  1.
        1   -1    0    0  501    0  0.00000000000E+00  0.00000000000E+00 -0.10626702246E+04  0.10626702246E+04  0.50400001928E-02 0. -1.
    10030    2    1    2    0    0  0.00000000000E+00  0.00000000000E+00 -0.72419074748E+03  0.14011497017E+04  0.11994866602E+04 0.  0.
        1    1    3    3  502    0  0.39154700533E+03 -0.36060762854E+03 -0.68485545950E+03  0.86739490405E+03  0.50400001928E-02 0. -1.
       -1    1    3    3    0  502 -0.39154700533E+03  0.36060762854E+03 -0.39335287978E+02  0.53375479768E+03  0.50400001928E-02 0.  1.
</event>
<event>
 5   0  0.2340731E-04  0.1200461E+04  0.7818609E-02  0.9112453E-01
       -1   -1    0    0    0  501  0.00000000000E+00  0.00000000000E+00  0.86698787825E+03  0.86698787826E+03  0.50400001928E-02 0. -1.
        1   -1    0    0  501    0  0.00000000000E+00  0.00000000000E+00 -0.41554970615E+03  0.41554970618E+03  0.50400001928E-02 0.  1.
    10030    2    1    2    0    0  0.00000000000E+00  0.00000000000E+00  0.45143817210E+03  0.12825375844E+04  0.12004608416E+04 0.  0.
        3    1    3    3  502    0 -0.31051684155E+03  0.71178917155E+02  0.76921382586E+03  0.83257255974E+03  0.10100000352E+00 0. -1.
       -3    1    3    3    0  502  0.31051684155E+03 -0.71178917155E+02 -0.31777565376E+03  0.44996502470E+03  0.10100000352E+00 0.  1.
</event>
<event>
 5   0  0.4122956E-04  0.1199670E+04  0.7818609E-02  0.9113145E-01
        2   -1    0    0  501    0  0.00000000000E+00  0.00000000000E+00  0.10841652326E+04  0.10841652326E+04  0.25500000920E-02 0. -1.
       -2   -1    0    0    0  501  0.00000000000E+00  0.00000000000E+00 -0.33187012304E+03  0.33187012305E+03  0.25500000920E-02 0.  1.
    10030    2    1    2    0    0  0.00000000000E+00  0.00000000000E+00  0.75229510956E+03  0.14160353557E+04  0.11996700365E+04 0.  0.
        5    1    3    3  502    0  0.58789335640E+03  0.11467847232E+03  0.33863144287E+03  0.68808654588E+03  0.46999998093E+01 0. -1.
       -5    1    3    3    0  502 -0.58789335640E+03 -0.11467847232E+03  0.41366366669E+03  0.72794880977E+03  0.46999998093E+01 0.  1.
</event>
<event>
 5   0  0.4024486E-04  0.1200613E+04  0.7818609E-02  0.9112320E-01
        2   -1    0    0  501    0  0.00000000000E+00  0.00000000000E+00  0.12771889865E+04  0.12771889865E+04  0.25500000920E-02 0. -1.
       -2   -1    0    0    0  501  0.00000000000E+00  0.00000000000E+00 -0.28215720835E+03  0.28215720836E+03  0.25500000920E-02 0.  1.
    10030    2    1    2    0    0  0.00000000000E+00  0.00000000000E+00  0.99503177818E+03  0.15593461949E+04  0.12006133082E+04 0.  0.
        1    1    3    3  502    0 -0.20454695812E+03 -0.45574517093E+03  0.65143269957E+02  0.50377253254E+03  0.50400001928E-02 0.  1.
       -1    1    3    3    0  502  0.20454695812E+03  0.45574517093E+03  0.92988850822E+03  0.10555736624E+04  0.50400001928E-02 0. -1.
</event>
<event>
 5   0  0.2304842E-04  0.1205152E+04  0.7818609E-02  0.9108359E-01
       -1   -1    0    0    0  501  0.00000000000E+00  0.00000000000E+00  0.52699366510E+03  0.52699366513E+03  0.50400001928E-02 0.  1.
        1   -1    0    0  501    0  0.00000000000E+00  0.00000000000E+00 -0.68899902408E+03  0.68899902410E+03  0.50400001928E-02 0. -1.
    10030    2    1    2    0    0  0.00000000000E+00  0.00000000000E+00 -0.16200535898E+03  0.12159926892E+04  0.12051524733E+04 0.  0.
        4    1    3    3  502    0 -0.21835780049E+03 -0.41171804639E+02 -0.64614905137E+03  0.68329016970E+03  0.12699999809E+01 0. -1.
       -4    1    3    3    0  502  0.21835780049E+03  0.41171804639E+02  0.48414369239E+03  0.53270251953E+03  0.12699999809E+01 0.  1.
</event>
<event>
 5   0  0.2340731E-04  0.1199410E+04  0.7818609E-02  0.9113373E-01
       -1   -1    0    0    0  501  0.00000000000E+00  0.00000000000E+00  0.41692748902E+03  0.41692748905E+03  0.50400001928E-02 0. -1.
        1   -1    0    0  501    0  0.00000000000E+00  0.00000000000E+00 -0.86261107263E+03  0.86261107264E+03  0.50400001928E-02 0.  1.
    10030    2    1    2    0    0  0.00000000000E+00  0.00000000000E+00 -0.44568358360E+03  0.12795385617E+04  0.11994103027E+04 0.  0.
        3    1    3    3  502    0  0.53783338791E+03  0.24345004603E+03 -0.33530555183E+03  0.67894219294E+03  0.10100000352E+00 0. -1.
       -3    1    3    3    0  502 -0.53783338791E+03 -0.24345004603E+03 -0.11037803178E+03  0.60059636876E+03  0.10100000352E+00 0.  1.
</event>
<event>
 5   0  0.4122956E-04  0.1198137E+04  0.7818609E-02  0.9114489E-01
       -2   -1    0    0    0  501  0.00000000000E+00  0.00000000000E+00  0.64019370092E+03  0.64019370093E+03  0.25500000920E-02 0. -1.
        2   -1    0    0  501    0  0.00000000000E+00  0.00000000000E+00 -0.56058512945E+03  0.56058512945E+03  0.25500000920E-02 0.  1.
    10030    2    1    2    0    0  0.00000000000E+00  0.00000000000E+00  0.79608571478E+02  0.12007788304E+04  0.11981370017E+04 0.  0.
        5    1    3    3  502    0 -0.15431698929E+02 -0.12129517489E+03  0.62753602903E+03  0.63935452959E+03  0.46999998093E+01 0. -1.
       -5    1    3    3    0  502  0.15431698929E+02  0.12129517489E+03 -0.54792745755E+03  0.56142430079E+03  0.46999998093E+01 0.  1.
</event>
<event>
 5   0  0.2340731E-04  0.1199289E+04  0.7818609E-02  0.9113479E-01
        1   -1    0    0  501    0  0.00000000000E+00  0.00000000000E+00  0.89366549181E+03  0.89366549182E+03  0.50400001928E-02 0.  1.
       -1   -1    0    0    0  501  0.00000000000E+00  0.00000000000E+00 -0.40235827541E+03  0.40235827544E+03  0.50400001928E-02 0. -1.
    10030    2    1    2    0    0  0.00000000000E+00  0.00000000000E+00  0.49130721640E+03  0.12960237673E+04  0.11992892997E+04 0.  0.
        3    1    3    3  502    0  0.83473693071E+02 -0.10354416351E+02  0.88725857974E+03  0.89123670756E+03  0.10100000352E+00 0.  1.
       -3    1    3    3    0  502 -0.83473693071E+02  0.10354416351E+02 -0.39595136334E+03  0.40478705970E+03  0.10100000352E+00 0. -1.
</event>
<event>
 5   0  0.2315038E-04  0.1204193E+04  0.7818609E-02  0.9109194E-01
       -1   -1    0    0    0  501  0.00000000000E+00  0.00000000000E+00  0.34029186595E+03  0.34029186599E+03  0.50400001928E-02 0. -1.
        1   -1    0    0  501    0  0.00000000000E+00  0.00000000000E+00 -0.10653217106E+04  0.10653217106E+04  0.50400001928E-02 0.  1.
    10030    2    1    2    0    0  0.00000000000E+00  0.00000000000E+00 -0.72502984461E+03  0.14056135766E+04  0.12041931951E+04 0.  0.
        1    1    3    3  502    0  0.24227723058E+03 -0.20866189998E+01  0.28087804886E+03  0.37093811990E+03  0.50400001928E-02 0. -1.
       -1    1    3    3    0  502 -0.24227723058E+03  0.20866189998E+01 -0.10059078935E+04  0.10346754567E+04  0.50400001928E-02 0.  1.
</event>
<event>
 5   0  0.3832662E-04  0.1198253E+04  0.7818609E-02  0.9114387E-01
       -2   -1    0    0    0  501  0.00000000000E+00  0.00000000000E+00  0.29496760925E+03  0.29496760926E+03  0.25500000920E-02 0. -1.
        2   -1    0    0  501    0  0.00000000000E+00  0.00000000000E+00 -0.12169224118E+04  0.12169224118E+04  0.25500000920E-02 0.  1.
    10030    2    1    2    0    0  0.00000000000E+00  0.00000000000E+00 -0.92195480259E+03  0.15118900211E+04  0.11982532194E+04 0.  0.
        4    1    3    3  502    0 -0.89415129867E+02 -0.54345833558E+03 -0.75851670892E+03  0.93738532023E+03  0.12699999809E+01 0.  1.
       -4    1    3    3    0  502  0.89415129867E+02  0.54345833558E+03 -0.16343809367E+03  0.57450470087E+03  0.12699999809E+01 0. -1.
</event>
<event>
 5   0  0.3883890E-04  0.1199384E+04  0.7818609E-02  0.9113396E-01
        2   -1    0    0  501    0  0.00000000000E+00  0.00000000000E+00  0.14535907909E+04  0.14535907909E+04  0.25500000920E-02 0. -1.
       -2   -1    0    0    0  501  0.00000000000E+00  0.00000000000E+00 -0.24740814319E+03  0.24740814320E+03  0.25500000920E-02 0.  1.
    10030    2    1    2    0    0  0.00000000000E+00  0.00000000000E+00  0.12061826477E+04  0.17009989341E+04  0.11993835059E+04 0.  0.
        2    1    3    3  502    0  0.22288711907E+03  0.18941837498E+03  0.13455605714E+04  0.13769862889E+04  0.25500000920E-02 0. -1.
       -2    1    3    3    0  502 -0.22288711907E+03 -0.18941837498E+03 -0.13937792367E+03  0.32401264518E+03  0.25500000920E-02 0.  1.
</event>
<event>
 5   0  0.2204090E-04  0.1198061E+04  0.7818609E-02  0.9114556E-01
        1   -1    0    0  501    0  0.00000000000E+00  0.00000000000E+00  0.12763315451E+04  0.12763315451E+04  0.50400001928E-02 0.  1.
       -1   -1    0    0    0  501  0.00000000000E+00  0.00000000000E+00 -0.28114748927E+03  0.28114748932E+03  0.50400001928E-02 0. -1.
    10030    2    1    2    0    0  0.00000000000E+00  0.00000000000E+00  0.99518405584E+03  0.15574790344E+04  0.11980607821E+04 0.  0.
        2    1    3    3  502    0 -0.56694937214E+03  0.12230029276E+03  0.69236855012E+03  0.90319608136E+03  0.25500000920E-02 0.  1.
       -2    1    3    3    0  502  0.56694937214E+03 -0.12230029276E+03  0.30281550571E+03  0.65428295308E+03  0.25500000920E-02 0. -1.
</event>
<event>
 5   0  0.3883890E-04  0.1198125E+04  0.7818609E-02  0.9114499E-01
       -2   -1    0    0    0  501  0.00000000000E+00  0.00000000000E+00  0.69755325241E+03  0.69755325241E+03  0.25500000920E-02 0.  1.
        2   -1    0    0  501    0  0.00000000000E+00  0.00000000000E+00 -0.51447812063E+03  0.51447812063E+03  0.25500000920E-02 0. -1.
    10030    2    1    2    0    0  0.00000000000E+00  0.00000000000E+00  0.18307513178E+03  0.12120313730E+04  0.11981250124E+04 0.  0.
        2    1    3    3  502    0  0.19629700939E+03  0.35539513011E+03  0.53714738751E+03  0.67332423862E+03  0.25500000920E-02 0.  1.
       -2    1    3    3    0  502 -0.19629700939E+03 -0.35539513011E+03 -0.35407225573E+03  0.53870713443E+03  0.25500000920E-02 0. -1.
</event>
<event>
 5   0  0.2204090E-04  0.1221472E+04  0.7818609E-02  0.9094267E-01
       -1   -1    0    0    0  501  0.00000000000E+00  0.00000000000E+00  0.11075327692E+04  0.11075327693E+04  0.50400001928E-02 0. -1.
        1   -1    0    0  501    0  0.00000000000E+00  0.00000000000E+00 -0.33678333406E+03  0.33678333410E+03  0.50400001928E-02 0.  1.
    10030    2    1    2    0    0  0.00000000000E+00  0.00000000000E+00  0.77074943518E+03  0.14443161033E+04  0.12214721915E+04 0.  0.
        2    1    3    3  502    0  0.51809390206E+03  0.32206019858E+03  0.41993988878E+03  0.74060351947E+03  0.25500000920E-02 0.  1.
       -2    1    3    3    0  502 -0.51809390206E+03 -0.32206019858E+03  0.35080954640E+03  0.70371258388E+03  0.25500000920E-02 0. -1.
</event>
<event>
 5   0  0.2244308E-04  0.1206155E+04  0.7818609E-02  0.9107486E-01
        1   -1    0    0  501    0  0.00000000000E+00  0.00000000000E+00  0.73470667046E+03  0.73470667048E+03  0.50400001928E-02 0.  1.
       -1   -1    0    0    0  501  0.00000000000E+00  0.00000000000E+00 -0.49503050774E+03  0.49503050777E+03  0.50400001928E-02 0. -1.
    10030    2    1    2    0    0  0.00000000000E+00  0.00000000000E+00  0.23967616272E+03  0.12297371782E+04  0.12061545774E+04 0.  0.
        5    1    3    3  502    0  0.10526864724E+03  0.53221914671E+03  0.38831421993E+03  0.66719467295E+03  0.46999998093E+01 0.  1.
       -5    1    3    3    0  502 -0.10526864724E+03 -0.53221914671E+03 -0.14863805720E+03  0.56254250530E+03  0.46999998093E+01 0. -1.
</event>
<event>
 5   0  0.2315038E-04  0.1204491E+04  0.7818609E-02  0.9108935E-01
        1   -1    0    0  501    0  0.00000000000E+00  0.00000000000E+00  0.55667630401E+03  0.55667630403E+03  0.50400001928E-02 0.  1.
       -1   -1    0    0    0  501  0.00000000000E+00  0.00000000000E+00 -0.65154452750E+03  0.65154452752E+03  0.50400001928E-02 0. -1.
    10030    2    1    2    0    0  0.00000000000E+00  0.00000000000E+00 -0.94868223496E+02  0.12082208315E+04  0.12044905969E+04 0.  0.
        1    1    3    3  502    0  0.12193259044E+03 -0.26668386540E+03  0.48022878322E+03  0.56267888261E+03  0.50400001928E-02 0.  1.
       -1    1    3    3    0  502 -0.12193259044E+03  0.26668386540E+03 -0.57509700672E+03  0.64554194894E+03  0.50400001928E-02 0. -1.
</event>
<event>
 5   0  0.3883890E-04  0.1206412E+04  0.7818609E-02  0.9107263E-01
       -2   -1    0    0    0  501  0.00000000000E+00  0.00000000000E+00  0.33410622615E+03  0.33410622616E+03  0.25500000920E-02 0. -1.
        2   -1    0    0  501    0  0.00000000000E+00  0.00000000000E+00 -0.10890465038E+04  0.10890465038E+04  0.25500000920E-02 0.  1.
    10030    2    1    2    0    0  0.00000000000E+00  0.00000000000E+00 -0.75494027765E+03  0.14231527300E+04  0.12064115674E+04 0.  0.
        2    1    3    3  502    0  0.19765027081E+03  0.31476683841E+03  0.18297707350E+03  0.41427575544E+03  0.25500000920E-02 0. -1.
       -2    1    3    3    0  502 -0.19765027081E+03 -0.31476683841E+03 -0.93791735115E+03  0.10088769745E+04  0.25500000920E-02 0.  1.
</event>
<event>
 5   0  0.3832662E-04  0.1203296E+04  0.7818609E-02  0.9109976E-01
       -2   -1    0    0    0  501  0.00000000000E+00  0.00000000000E+00  0.21887478467E+03  0.21887478468E+03  0.25500000920E-02 0.  1.
        2   -1    0    0  501    0  0.00000000000E+00  0.00000000000E+00 -0.16538237065E+04  0.16538237065E+04  0.25500000920E-02 0. -1.
    10030    2    1    2    0    0  0.00000000000E+00  0.00000000000E+00 -0.14349489219E+04  0.18726984912E+04  0.12032959863E+04 0.  0.
        4    1    3    3  502    0 -0.30379449204E+03 -0.19861494702E+03  0.29293199006E+02  0.36414103722E+03  0.12699999809E+01 0.  1.
       -4    1    3    3    0  502  0.30379449204E+03  0.19861494702E+03 -0.14642421209E+04  0.15085574540E+04  0.12699999809E+01 0. -1.
</event>
<event>
 5   0  0.4024486E-04  0.1199375E+04  0.7818609E-02  0.9113404E-01
       -2   -1    0    0    0  501  0.00000000000E+00  0.00000000000E+00  0.28288233088E+03  0.28288233090E+03  0.25500000920E-02 0. -1.
        2   -1    0    0  501    0  0.00000000000E+00  0.00000000000E+00 -0.12712877030E+04  0.12712877030E+04  0.25500000920E-02 0.  1.
    10030    2    1    2    0    0  0.00000000000E+00  0.00000000000E+00 -0.98840537207E+03  0.15541700339E+04  0.11993745514E+04 0.  0.
        1    1    3    3  502    0 -0.49446937496E+03 -0.97014364248E+01 -0.54710990469E+02  0.49758152412E+03  0.50400001928E-02 0. -1.
       -1    1    3    3    0  502  0.49446937496E+03  0.97014364248E+01 -0.93369438160E+03  0.10565885097E+04  0.50400001928E-02 0.  1.
</event>
<event>
 5   0  0.4024486E-04  0.1200394E+04  0.7818609E-02  0.9112512E-01
        2   -1    0    0  501    0  0.00000000000E+00  0.00000000000E+00  0.66859797473E+03  0.66859797473E+03  0.25500000920E-02 0. -1.
       -2   -1    0    0    0  501  0.00000000000E+00  0.00000000000E+00 -0.53879392173E+03  0.53879392173E+03  0.25500000920E-02 0.  1.
    10030    2    1    2    0    0  0.00000000000E+00  0.00000000000E+00  0.12980405300E+03  0.12073918965E+04  0.12003941434E+04 0.  0.
        1    1    3    3  502    0 -0.11672621718E+03  0.56595991177E+03 -0.98218884704E+02  0.58615917706E+03  0.50400001928E-02 0.  1.
       -1    1    3    3    0  502  0.11672621718E+03 -0.56595991177E+03  0.22802293771E+03  0.62123271940E+03  0.50400001928E-02 0. -1.
</event>
<event>
 5   0  0.2204090E-04  0.1200346E+04  0.7818609E-02  0.9112554E-01
       -1   -1    0    0    0  501  0.00000000000E+00  0.00000000000E+00  0.45220168010E+03  0.45220168012E+03  0.50400001928E-02 0.  1.
        1   -1    0    0  501    0  0.00000000000E+00  0.00000000000E+00 -0.79656397999E+03  0.79656398001E+03  0.50400001928E-02 0. -1.
    10030    2    1    2    0    0  0.00000000000E+00  0.00000000000E+00 -0.34436229989E+03  0.12487656601E+04  0.12003459003E+04 0.  0.
        2    1    3    3  502    0 -0.24541616474E+03  0.51263309467E+03 -0.37279597308E+03  0.67970480447E+03  0.25500000920E-02 0. -1.
       -2    1    3    3    0  502  0.24541616474E+03 -0.51263309467E+03  0.28433673181E+02  0.56906085566E+03  0.25500000920E-02 0.  1.
</event>
<event>
 5   0  0.1541375E-04  0.1187772E+04  0.7818609E-02  0.9123627E-01
       -4   -1    0    0    0  501  0.00000000000E+00  0.00000000000E+00  0.42990757604E+03  0.42990945190E+03  0.12699999809E+01 0. -1.
        4   -1    0    0  501    0  0.00000000000E+00  0.00000000000E+00 -0.82040663069E+03  0.82040761368E+03  0.12699999809E+01 0.  1.
    10030    2    1    2    0    0  0.00000000000E+00  0.00000000000E+00 -0.39049905465E+03  0.12503170656E+04  0.11877723910E+04 0.  0.
        2    1    3    3  502    0  0.42647831654E+03 -0.37103367328E+03 -0.35876573410E+01  0.56529869315E+03  0.25500000920E-02 0. -1.
       -2    1    3    3    0  502 -0.42647831654E+03  0.37103367328E+03 -0.38691139731E+03  0.68501837243E+03  0.25500000920E-02 0.  1.
</event>
<event>
 5   0  0.4024486E-04  0.1200012E+04  0.7818609E-02  0.9112846E-01
        2   -1    0    0  501    0  0.00000000000E+00  0.00000000000E+00  0.15707497780E+04  0.15707497780E+04  0.25500000920E-02 0. -1.
       -2   -1    0    0    0  501  0.00000000000E+00  0.00000000000E+00 -0.22919453538E+03  0.22919453539E+03  0.25500000920E-02 0.  1.
    10030    2    1    2    0    0  0.00000000000E+00  0.00000000000E+00  0.13415552426E+04  0.17999443134E+04  0.12000121092E+04 0.  0.
        1    1    3    3  502    0  0.49209910115E+03  0.33304386927E+03  0.79562009829E+03  0.99302119063E+03  0.50400001928E-02 0. -1.
       -1    1    3    3    0  502 -0.49209910115E+03 -0.33304386927E+03  0.54593514435E+03  0.80692312278E+03  0.50400001928E-02 0.  1.
</event>
<event>
 5   0  0.4122956E-04  0.1202882E+04  0.7818609E-02  0.9110338E-01
       -2   -1    0    0    0  501  0.00000000000E+00  0.00000000000E+00  0.19828777908E+03  0.19828777910E+03  0.25500000920E-02 0. -1.
        2   -1    0    0  501    0  0.00000000000E+00  0.00000000000E+00 -0.18242729724E+04  0.18242729724E+04  0.25500000920E-02 0.  1.
    10030    2    1    2    0    0  0.00000000000E+00  0.00000000000E+00 -0.16259851934E+04  0.20225607515E+04  0.12028816004E+04 0.  0.
        5    1    3    3  502    0  0.91427710694E+02  0.36601744707E+03 -0.25442215209E+02  0.37814969807E+03  0.46999998093E+01 0. -1.
       -5    1    3    3    0  502 -0.91427710694E+02 -0.36601744707E+03 -0.16005429782E+04  0.16444110535E+04  0.46999998093E+01 0.  1.
</event>
<event>
 5   0  0.3832662E-04  0.1200587E+04  0.7818609E-02  0.9112342E-01
       -2   -1    0    0    0  501  0.00000000000E+00  0.00000000000E+00  0.15160470289E+04  0.15160470289E+04  0.25500000920E-02 0. -1.
        2   -1    0    0  501    0  0.00000000000E+00  0.00000000000E+00 -0.23769221597E+03  0.23769221598E+03  0.25500000920E-02 0.  1.
    10030    2    1    2    0    0  0.00000000000E+00  0.00000000000E+00  0.12783548130E+04  0.17537392449E+04  0.12005874859E+04 0.  0.
        4    1    3    3  502    0  0.10827646737E+03 -0.59005723437E+03  0.67049412147E+03  0.89969734525E+03  0.12699999809E+01 0. -1.
       -4    1    3    3    0  502 -0.10827646737E+03  0.59005723437E+03  0.60786069149E+03  0.85404189967E+03  0.12699999809E+01 0.  1.
</event>
<event>
 5   0  0.2315038E-04  0.1200836E+04  0.7818609E-02  0.9112125E-01
        1   -1    0    0  501    0  0.00000000000E+00  0.00000000000E+00  0.80389010168E+03  0.80389010169E+03  0.50400001928E-02 0. -1.
       -1   -1    0    0    0  501  0.00000000000E+00  0.00000000000E+00 -0.44844652471E+03  0.44844652473E+03  0.50400001928E-02 0.  1.
    10030    2    1    2    0    0  0.00000000000E+00  0.00000000000E+00  0.35544357697E+03  0.12523366264E+04  0.12008359128E+04 0.  0.
        1    1    3    3  502    0  0.50601720547E+03 -0.31240942308E+03  0.26402765091E+03  0.65066401493E+03  0.50400001928E-02 0. -1.
       -1    1    3    3    0  502 -0.50601720547E+03  0.31240942308E+03  0.91415926059E+02  0.60167261149E+03  0.50400001928E-02 0.  1.
</event>
<event>
 5   0  0.3993723E-04  0.1203324E+04  0.7818609E-02  0.9109952E-01
        2   -1    0    0  501    0  0.00000000000E+00  0.00000000000E+00  0.53216649845E+03  0.53216649845E+03  0.25500000920E-02 0. -1.
       -2   -1    0    0    0  501  0.00000000000E+00  0.00000000000E+00 -0.68023346396E+03  0.68023346397E+03  0.25500000920E-02 0.  1.
    10030    2    1    2    0    0  0.00000000000E+00  0.00000000000E+00 -0.14806696551E+03  0.12123999624E+04  0.12033244960E+04 0.  0.
        3    1    3    3  502    0  0.60889537532E+02 -0.19416360197E+03 -0.64451085140E+03  0.67587076271E+03  0.10100000352E+00 0.  1.
       -3    1    3    3    0  502 -0.60889537532E+02  0.19416360197E+03  0.49644388589E+03  0.53652919971E+03  0.10100000352E+00 0. -1.
</event>
<event>
 5   0  0.4024486E-04  0.1200122E+04  0.7818609E-02  0.9112750E-01
       -2   -1    0    0    0  501  0.00000000000E+00  0.00000000000E+00  0.84770005808E+03  0.84770005809E+03  0.25500000920E-02 0. -1.
        2   -1    0    0  501    0  0.00000000000E+00  0.00000000000E+00 -0.42476476977E+03  0.42476476978E+03  0.25500000920E-02 0.  1.
    10030    2    1    2    0    0  0.00000000000E+00  0.00000000000E+00  0.42293528831E+03  0.12724648279E+04  0.12001218605E+04 0.  0.
        1    1    3    3  502    0  0.22794175977E+03 -0.47949560165E+02  0.79780951297E+03  0.83111769634E+03  0.50400001928E-02 0. -1.
       -1    1    3    3    0  502 -0.22794175977E+03  0.47949560165E+02 -0.37487422466E+03  0.44134713152E+03  0.50400001928E-02 0.  1.
</event>
<event>
 5   0  0.2304842E-04  0.1204876E+04  0.7818609E-02  0.9108600E-01
        1   -1    0    0  501    0  0.00000000000E+00  0.00000000000E+00  0.11817007631E+04  0.11817007631E+04  0.50400001928E-02 0.  1.
       -1   -1    0    0    0  501  0.00000000000E+00  0.00000000000E+00 -0.30712628729E+03  0.30712628734E+03  0.50400001928E-02 0. -1.
    10030    2    1    2    0    0  0.00000000000E+00  0.00000000000E+00  0.87457447577E+03  0.14888270504E+04  0.12048757083E+04 0.  0.
        4    1    3    3  502    0  0.10098610081E+03  0.42298601202E+03  0.95245048797E+03  0.10470333824E+04  0.12699999809E+01 0.  1.
       -4    1    3    3    0  502 -0.10098610081E+03 -0.42298601202E+03 -0.77876012203E+02  0.44179366801E+03  0.12699999809E+01 0. -1.
</event>
<event>
 5   0  0.3993723E-04  0.1199626E+04  0.7818609E-02  0.9113184E-01
       -2   -1    0    0    0  501  0.00000000000E+00  0.00000000000E+00  0.13712241332E+04  0.13712241332E+04  0.25500000920E-02 0.  1.
        2   -1    0    0  501    0  0.00000000000E+00  0.00000000000E+00 -0.26237552149E+03  0.26237552150E+03  0.25500000920E-02 0. -1.
    10030    2    1    2    0    0  0.00000000000E+00  0.00000000000E+00  0.11088486117E+04  0.16335996547E+04  0.11996260201E+04 0.  0.
        3    1    3    3  502    0  0.28279554590E+03 -0.64779799402E+02 -0.16047356897E+03  0.33154414446E+03  0.10100000352E+00 0. -1.
       -3    1    3    3    0  502 -0.28279554590E+03  0.64779799402E+02  0.12693221807E+04  0.13020555103E+04  0.10100000352E+00 0.  1.
</event>
<event>
 5   0  0.4024486E-04  0.1200190E+04  0.7818609E-02  0.9112690E-01
        2   -1    0    0  501    0  0.00000000000E+00  0.00000000000E+00  0.73799804789E+03  0.73799804790E+03  0.25500000920E-02 0.  1.
       -2   -1    0    0    0  501  0.00000000000E+00  0.00000000000E+00 -0.48796063586E+03  0.48796063586E+03  0.25500000920E-02 0. -1.
    10030    2    1    2    0    0  0.00000000000E+00  0.00000000000E+00  0.25003741203E+03  0.12259586838E+04  0.12001899795E+04 0.  0.
        1    1    3    3  502    0 -0.50231113176E+03 -0.98157576598E+02  0.44505475089E+03  0.67825151253E+03  0.50400001928E-02 0.  1.
       -1    1    3    3    0  502  0.50231113176E+03  0.98157576598E+02 -0.19501733885E+03  0.54770717123E+03  0.50400001928E-02 0. -1.
</event>
<event>
 5   0  0.2204090E-04  0.1199929E+04  0.7818609E-02  0.9112919E-01
       -1   -1    0    0    0  501  0.00000000000E+00  0.00000000000E+00  0.52724650511E+03  0.52724650514E+03  0.50400001928E-02 0.  1.
        1   -1    0    0  501    0  0.00000000000E+00  0.00000000000E+00 -0.68271140438E+03  0.68271140440E+03  0.50400001928E-02 0. -1.
    10030    2    1    2    0    0  0.00000000000E+00  0.00000000000E+00 -0.15546489927E+03  0.12099579095E+04  0.11999286679E+04 0.  0.
        2    1    3    3  502    0 -0.30940949657E+03 -0.18009277744E+02 -0.59573679450E+03  0.67153622313E+03  0.25500000920E-02 0. -1.
       -2    1    3    3    0  502  0.30940949657E+03  0.18009277744E+02  0.44027189523E+03  0.53842168640E+03  0.25500000920E-02 0.  1.
</event>
<event>
 5   0  0.4122956E-04  0.1198200E+04  0.7818609E-02  0.9114434E-01
       -2   -1    0    0    0  501  0.00000000000E+00  0.00000000000E+00  0.70206456810E+03  0.70206456810E+03  0.25500000920E-02 0. -1.
        2   -1    0    0  501    0  0.00000000000E+00  0.00000000000E+00 -0.51123602600E+03  0.51123602600E+03  0.25500000920E-02 0.  1.
    10030    2    1    2    0    0  0.00000000000E+00  0.00000000000E+00  0.19082854210E+03  0.12133005941E+04  0.11981998160E+04 0.  0.
        5    1    3    3  502    0 -0.30077396287E+03  0.33280554138E+03 -0.30667209610E+03  0.54340994621E+03  0.46999998093E+01 0.  1.
       -5    1    3    3    0  502  0.30077396287E+03 -0.33280554138E+03  0.49750063820E+03  0.66989064789E+03  0.46999998093E+01 0. -1.
</event>
<event>
 5   0  0.2315038E-04  0.1198694E+04  0.7818609E-02  0.9114000E-01
        1   -1    0    0  501    0  0.00000000000E+00  0.00000000000E+00  0.19541867149E+04  0.19541867149E+04  0.50400001928E-02 0.  1.
       -1   -1    0    0    0  501  0.00000000000E+00  0.00000000000E+00 -0.18381923758E+03  0.18381923765E+03  0.50400001928E-02 0. -1.
    10030    2    1    2    0    0  0.00000000000E+00  0.00000000000E+00  0.17703674773E+04  0.21380059526E+04  0.11986944767E+04 0.  0.
        1    1    3    3  502    0  0.93857032444E+02 -0.56935811781E+03  0.11741030393E+04  0.13082414745E+04  0.50400001928E-02 0.  1.
       -1    1    3    3    0  502 -0.93857032444E+02  0.56935811781E+03  0.59626443804E+03  0.82976447800E+03  0.50400001928E-02 0. -1.
</event>
<event>
 5   0  0.4024486E-04  0.1196978E+04  0.7818609E-02  0.9115506E-01
        2   -1    0    0  501    0  0.00000000000E+00  0.00000000000E+00  0.74704997867E+03  0.74704997868E+03  0.25500000920E-02 0. -1.
       -2   -1    0    0    0  501  0.00000000000E+00  0.00000000000E+00 -0.47947113487E+03  0.47947113488E+03  0.25500000920E-02 0.  1.
    10030    2    1    2    0    0  0.00000000000E+00  0.00000000000E+00  0.26757884380E+03  0.12265211136E+04  0.11969776958E+04 0.  0.
        1    1    3    3  502    0 -0.32105768108E+03 -0.45909332845E+02 -0.38161955387E+03  0.50081851538E+03  0.50400001928E-02 0.  1.
       -1    1    3    3    0  502  0.32105768108E+03  0.45909332845E+02  0.64919839767E+03  0.72570259817E+03  0.50400001928E-02 0. -1.
</event>
<event>
 5   0  0.3883890E-04  0.1198385E+04  0.7818609E-02  0.9114271E-01
        2   -1    0    0  501    0  0.00000000000E+00  0.00000000000E+00  0.16298875462E+04  0.16298875462E+04  0.25500000920E-02 0. -1.
       -2   -1    0    0    0  501  0.00000000000E+00  0.00000000000E+00 -0.22028017921E+03  0.22028017922E+03  0.25500000920E-02 0.  1.
    10030    2    1    2    0    0  0.00000000000E+00  0.00000000000E+00  0.14096073670E+04  0.18501677254E+04  0.11983854485E+04 0.  0.
        2    1    3    3  502    0 -0.23281438865E+03 -0.93867566391E+02 -0.13518575491E+03  0.28511199189E+03  0.25500000920E-02 0.  1.
       -2    1    3    3    0  502  0.23281438865E+03  0.93867566391E+02  0.15447931219E+04  0.15650557335E+04  0.25500000920E-02 0. -1.
</event>
<event>
 5   0  0.2244308E-04  0.1200965E+04  0.7818609E-02  0.9112012E-01
       -1   -1    0    0    0  501  0.00000000000E+00  0.00000000000E+00  0.50420098882E+03  0.50420098885E+03  0.50400001928E-02 0. -1.
        1   -1    0    0  501    0  0.00000000000E+00  0.00000000000E+00 -0.71514971152E+03  0.71514971153E+03  0.50400001928E-02 0.  1.
    10030    2    1    2    0    0  0.00000000000E+00  0.00000000000E+00 -0.21094872269E+03  0.12193507004E+04  0.12009649316E+04 0.  0.
        5    1    3    3  502    0 -0.30798102962E+03  0.19779927077E+03 -0.58876604054E+03  0.69328522747E+03  0.46999998093E+01 0.  1.
       -5    1    3    3    0  502  0.30798102962E+03 -0.19779927077E+03  0.37781731785E+03  0.52606547292E+03  0.46999998093E+01 0. -1.
</event>
<event>
 5   0  0.2340731E-04  0.1193513E+04  0.7818609E-02  0.9118554E-01
        1   -1    0    0  501    0  0.00000000000E+00  0.00000000000E+00  0.36282764775E+03  0.36282764778E+03  0.50400001928E-02 0.  1.
       -1   -1    0    0    0  501  0.00000000000E+00  0.00000000000E+00 -0.98150838353E+03  0.98150838354E+03  0.50400001928E-02 0. -1.
    10030    2    1    2    0    0  0.00000000000E+00  0.00000000000E+00 -0.61868073579E+03  0.13443360313E+04  0.11935130968E+04 0.  0.
        3    1    3    3  502    0  0.16940488705E+03 -0.53257728190E+03 -0.54502290852E+03  0.78063215279E+03  0.10100000352E+00 0. -1.
       -3    1    3    3    0  502 -0.16940488705E+03  0.53257728190E+03 -0.73657827266E+02  0.56370387853E+03  0.10100000352E+00 0.  1.
</event>
<event>
 5   0  0.4024486E-04  0.1199529E+04  0.7818609E-02  0.9113269E-01
        2   -1    0    0  501    0  0.00000000000E+00  0.00000000000E+00  0.41002439096E+03  0.41002439097E+03  0.25500000920E-02 0.  1.
       -2   -1    0    0    0  501  0.00000000000E+00  0.00000000000E+00 -0.87730698457E+03  0.87730698458E+03  0.25500000920E-02 0. -1.
    10030    2    1    2    0    0  0.00000000000E+00  0.00000000000E+00 -0.46728259361E+03  0.12873313755E+04  0.11995286775E+04 0.  0.
        1    1    3    3  502    0 -0.32194897992E+03  0.25314817356E+03  0.23658846057E+03  0.47297911492E+03  0.50400001928E-02 0.  1.
       -1    1    3    3    0  502  0.32194897992E+03 -0.25314817356E+03 -0.70387105418E+03  0.81435226063E+03  0.50400001928E-02 0. -1.
</event>
<event>
 5   0  0.4122956E-04  0.1199871E+04  0.7818609E-02  0.9112970E-01
        2   -1    0    0  501    0  0.00000000000E+00  0.00000000000E+00  0.98847619424E+03  0.98847619424E+03  0.25500000920E-02 0.  1.
       -2   -1    0    0    0  501  0.00000000000E+00  0.00000000000E+00 -0.36411850317E+03  0.36411850318E+03  0.25500000920E-02 0. -1.
    10030    2    1    2    0    0  0.00000000000E+00  0.00000000000E+00  0.62435769107E+03  0.13525946974E+04  0.11998707802E+04 0.  0.
        5    1    3    3  502    0  0.58857368038E+03 -0.10174051133E+03  0.24910862661E+03  0.64718413665E+03  0.46999998093E+01 0.  1.
       -5    1    3    3    0  502 -0.58857368038E+03  0.10174051133E+03  0.37524906445E+03  0.70541056077E+03  0.46999998093E+01 0. -1.
</event>
<event>
 5   0  0.2244308E-04  0.1199759E+04  0.7818609E-02  0.9113068E-01
        1   -1    0    0  501    0  0.00000000000E+00  0.00000000000E+00  0.69708462388E+03  0.69708462390E+03  0.50400001928E-02 0.  1.
       -1   -1    0    0    0  501  0.00000000000E+00  0.00000000000E+00 -0.51622887892E+03  0.51622887894E+03  0.50400001928E-02 0. -1.
    10030    2    1    2    0    0  0.00000000000E+00  0.00000000000E+00  0.18085574497E+03  0.12133135028E+04  0.11997586656E+04 0.  0.
        5    1    3    3  502    0 -0.28861044631E+03  0.24974792057E+03 -0.37757817851E+03  0.53689606484E+03  0.46999998093E+01 0. -1.
       -5    1    3    3    0  502  0.28861044631E+03 -0.24974792057E+03  0.55843392348E+03  0.67641743801E+03  0.46999998093E+01 0.  1.
</event>
<event>
 5   0  0.4024486E-04  0.1199907E+04  0.7818609E-02  0.9112938E-01
        2   -1    0    0  501    0  0.00000000000E+00  0.00000000000E+00  0.12222158879E+04  0.12222158879E+04  0.25500000920E-02 0. -1.
       -2   -1    0    0    0  501  0.00000000000E+00  0.00000000000E+00 -0.29450115873E+03  0.29450115874E+03  0.25500000920E-02 0.  1.
    10030    2    1    2    0    0  0.00000000000E+00  0.00000000000E+00  0.92771472913E+03  0.15167170466E+04  0.11999066550E+04 0.  0.
        1    1    3    3  502    0  0.34754320309E+03  0.38707210572E+03  0.86056604463E+02  0.52727301490E+03  0.50400001928E-02 0.  1.
       -1    1    3    3    0  502 -0.34754320309E+03 -0.38707210572E+03  0.84165812467E+03  0.98944403171E+03  0.50400001928E-02 0. -1.
</event>
<event>
 5   0  0.2304842E-04  0.1204277E+04  0.7818609E-02  0.9109121E-01
        1   -1    0    0  501    0  0.00000000000E+00  0.00000000000E+00  0.10159201610E+04  0.10159201610E+04  0.50400001928E-02 0.  1.
       -1   -1    0    0    0  501  0.00000000000E+00  0.00000000000E+00 -0.35688918346E+03  0.35688918349E+03  0.50400001928E-02 0. -1.
    10030    2    1    2    0    0  0.00000000000E+00  0.00000000000E+00  0.65903097754E+03  0.13728093445E+04  0.12042772384E+04 0.  0.
        4    1    3    3  502    0 -0.33445597680E+03 -0.37960895347E+03 -0.42682179325E+02  0.50772742619E+03  0.12699999809E+01 0. -1.
       -4    1    3    3    0  502  0.33445597680E+03  0.37960895347E+03  0.70171315687E+03  0.86508191832E+03  0.12699999809E+01 0.  1.
</event>
<event>
 5   0  0.3993723E-04  0.1199143E+04  0.7818609E-02  0.9113607E-01
        2   -1    0    0  501    0  0.00000000000E+00  0.00000000000E+00  0.13284496729E+04  0.13284496729E+04  0.25500000920E-02 0.  1.
       -2   -1    0    0    0  501  0.00000000000E+00  0.00000000000E+00 -0.27060570204E+03  0.27060570205E+03  0.25500000920E-02 0. -1.
    10030    2    1    2    0    0  0.00000000000E+00  0.00000000000E+00  0.10578439708E+04  0.15990553749E+04  0.11991431213E+04 0.  0.
        3    1    3    3  502    0  0.32895650236E+03  0.20855992419E+03 -0.78919890350E+02  0.39741411867E+03  0.10100000352E+00 0. -1.
       -3    1    3    3    0  502 -0.32895650236E+03 -0.20855992419E+03  0.11367638612E+04  0.12016412562E+04  0.10100000352E+00 0.  1.
</event>
<event>
 5   0  0.3832662E-04  0.1200115E+04  0.7818609E-02  0.9112756E-01
        2   -1    0    0  501    0  0.00000000000E+00  0.00000000000E+00  0.34279616767E+03  0.34279616767E+03  0.25500000920E-02 0.  1.
       -2   -1    0    0    0  501  0.00000000000E+00  0.00000000000E+00 -0.10503881222E+04  0.10503881222E+04  0.25500000920E-02 0. -1.
    10030    2    1    2    0    0  0.00000000000E+00  0.00000000000E+00 -0.70759195453E+03  0.13931842899E+04  0.12001150326E+04 0.  0.
        4    1    3    3  502    0  0.50084871030E+03 -0.14135429139E+03 -0.70057916663E+03  0.87272174713E+03  0.12699999809E+01 0. -1.
       -4    1    3    3    0  502 -0.50084871030E+03  0.14135429139E+03 -0.70127879073E+01  0.52046254274E+03  0.12699999809E+01 0.  1.
</event>
<event>
 5   0  0.3883890E-04  0.1201002E+04  0.7818609E-02  0.9111980E-01
        2   -1    0    0  501    0  0.00000000000E+00  0.00000000000E+00  0.15076613993E+04  0.15076613993E+04  0.25500000920E-02 0. -1.
       -2   -1    0    0    0  501  0.00000000000E+00  0.00000000000E+00 -0.23917935893E+03  0.23917935894E+03  0.25500000920E-02 0.  1.
    10030    2    1    2    0    0  0.00000000000E+00  0.00000000000E+00  0.12684820403E+04  0.17468407582E+04  0.12010020599E+04 0.  0.
        2    1    3    3  502    0 -0.43986002376E+02  0.69328286182E+02  0.14994589076E+04  0.15017050960E+04  0.25500000920E-02 0. -1.
       -2    1    3    3    0  502  0.43986002376E+02 -0.69328286182E+02 -0.23097686728E+03  0.24513566222E+03  0.25500000920E-02 0.  1.
</event>
<event>
 5   0  0.3883890E-04  0.1200789E+04  0.7818609E-02  0.9112166E-01
       -2   -1    0    0    0  501  0.00000000000E+00  0.00000000000E+00  0.57817978975E+03  0.57817978976E+03  0.25500000920E-02 0.  1.
        2   -1    0    0  501    0  0.00000000000E+00  0.00000000000E+00 -0.62346283171E+03  0.62346283171E+03  0.25500000920E-02 0. -1.
    10030    2    1    2    0    0  0.00000000000E+00  0.00000000000E+00 -0.45283041954E+02  0.12016426215E+04  0.12007890888E+04 0.  0.
        2    1    3    3  502    0 -0.60357311879E+01  0.60004617152E+03 -0.42194369261E+02  0.60155814583E+03  0.25500000920E-02 0.  1.
       -2    1    3    3    0  502  0.60357311879E+01 -0.60004617152E+03 -0.30886726930E+01  0.60008447565E+03  0.25500000920E-02 0. -1.
</event>
<event>
 5   0  0.4024486E-04  0.1200461E+04  0.7818609E-02  0.9112453E-01
        2   -1    0    0  501    0  0.00000000000E+00  0.00000000000E+00  0.13864598195E+04  0.13864598195E+04  0.25500000920E-02 0.  1.
       -2   -1    0    0    0  501  0.00000000000E+00  0.00000000000E+00 -0.25985351718E+03  0.25985351720E+03  0.25500000920E-02 0. -1.
    10030    2    1    2    0    0  0.00000000000E+00  0.00000000000E+00  0.11266063023E+04  0.16463133367E+04  0.12004606792E+04 0.  0.
        1    1    3    3  502    0  0.16435677318E+03 -0.52195186135E+03  0.90154077619E+03  0.10546196782E+04  0.50400001928E-02 0.  1.
       -1    1    3    3    0  502 -0.16435677318E+03  0.52195186135E+03  0.22506552615E+03  0.59169365853E+03  0.50400001928E-02 0. -1.
</event>
<event>
 5   0  0.2244308E-04  0.1197962E+04  0.7818609E-02  0.9114642E-01
       -1   -1    0    0    0  501  0.00000000000E+00  0.00000000000E+00  0.41225039516E+03  0.41225039519E+03  0.50400001928E-02 0. -1.
        1   -1    0    0  501    0  0.00000000000E+00  0.00000000000E+00 -0.87029236039E+03  0.87029236040E+03  0.50400001928E-02 0.  1.
    10030    2    1    2    0    0  0.00000000000E+00  0.00000000000E+00 -0.45804196523E+03  0.12825427556E+04  0.11979622189E+04 0.  0.
        5    1    3    3  502    0  0.31564478647E+03  0.44261201351E+03  0.40165602419E+02  0.54513520465E+03  0.46999998093E+01 0. -1.
       -5    1    3    3    0  502 -0.31564478647E+03 -0.44261201351E+03 -0.49820756765E+03  0.73740755095E+03  0.46999998093E+01 0.  1.
</event>
<event>
 5   0  0.2315038E-04  0.1197123E+04  0.7818609E-02  0.9115378E-01
        1   -1    0    0  501    0  0.00000000000E+00  0.00000000000E+00  0.12844754341E+04  0.12844754341E+04  0.50400001928E-02 0. -1.
       -1   -1    0    0    0  501  0.00000000000E+00  0.00000000000E+00 -0.27892786763E+03  0.27892786767E+03  0.50400001928E-02 0.  1.
    10030    2    1    2    0    0  0.00000000000E+00  0.00000000000E+00  0.10055475665E+04  0.15634033018E+04  0.11971232082E+04 0.  0.
        1    1    3    3  502    0 -0.24450865468E+03 -0.54545425352E+03  0.54347239295E+03  0.80787812621E+03  0.50400001928E-02 0.  1.
       -1    1    3    3    0  502  0.24450865468E+03  0.54545425352E+03  0.46207517351E+03  0.75552517556E+03  0.50400001928E-02 0. -1.
</event>
<event>
 5   0  0.4024486E-04  0.1201684E+04  0.7818609E-02  0.9111384E-01
       -2   -1    0    0    0  501  0.00000000000E+00  0.00000000000E+00  0.31728218784E+03  0.31728218785E+03  0.25500000920E-02 0.  1.
        2   -1    0    0  501    0  0.00000000000E+00  0.00000000000E+00 -0.11378225348E+04  0.11378225349E+04  0.25500000920E-02 0. -1.
    10030    2    1    2    0    0  0.00000000000E+00  0.00000000000E+00 -0.82054034701E+03  0.14551047227E+04  0.12016835245E+04 0.  0.
        1    1    3    3  502    0 -0.35714218910E+03  0.30571098579E+03 -0.86334488830E+03  0.98304330843E+03  0.50400001928E-02 0. -1.
       -1    1    3    3    0  502  0.35714218910E+03 -0.30571098579E+03  0.42804541291E+02  0.47206141428E+03  0.50400001928E-02 0.  1.
</event>
<event>
 5   0  0.2204090E-04  0.1195765E+04  0.7818609E-02  0.9116572E-01
        1   -1    0    0  501    0  0.00000000000E+00  0.00000000000E+00  0.71708792648E+03  0.71708792650E+03  0.50400001928E-02 0. -1.
       -1   -1    0    0    0  501  0.00000000000E+00  0.00000000000E+00 -0.49849300122E+03  0.49849300125E+03  0.50400001928E-02 0.  1.
    10030    2    1    2    0    0  0.00000000000E+00  0.00000000000E+00  0.21859492526E+03  0.12155809277E+04  0.11957647137E+04 0.  0.
        2    1    3    3  502    0 -0.36092287096E+03 -0.38326702460E+02  0.59228049992E+03  0.69464411428E+03  0.25500000920E-02 0. -1.
       -2    1    3    3    0  502  0.36092287096E+03  0.38326702460E+02 -0.37368557467E+03  0.52093681347E+03  0.25500000920E-02 0.  1.
</event>
<event>
 5   0  0.2340731E-04  0.1200327E+04  0.7818609E-02  0.9112570E-01
        1   -1    0    0  501    0  0.00000000000E+00  0.00000000000E+00  0.51560603462E+03  0.51560603465E+03  0.50400001928E-02 0.  1.
       -1   -1    0    0    0  501  0.00000000000E+00  0.00000000000E+00 -0.69858846739E+03  0.69858846741E+03  0.50400001928E-02 0. -1.
    10030    2    1    2    0    0  0.00000000000E+00  0.00000000000E+00 -0.18298243277E+03  0.12141945021E+04  0.12003273379E+04 0.  0.
        3    1    3    3  502    0 -0.20557368182E+02 -0.58445292400E+03  0.44931949574E+02  0.58653790675E+03  0.10100000352E+00 0.  1.
       -3    1    3    3    0  502  0.20557368182E+02  0.58445292400E+03 -0.22791438235E+03  0.62765659531E+03  0.10100000352E+00 0. -1.
</event>
<event>
 5   0  0.2304842E-04  0.1202050E+04  0.7818609E-02  0.9111064E-01
       -1   -1    0    0    0  501  0.00000000000E+00  0.00000000000E+00  0.30760063795E+03  0.30760063799E+03  0.50400001928E-02 0. -1.
        1   -1    0    0  501    0  0.00000000000E+00  0.00000000000E+00 -0.11743511289E+04  0.11743511289E+04  0.50400001928E-02 0.  1.
    10030    2    1    2    0    0  0.00000000000E+00  0.00000000000E+00 -0.86675049092E+03  0.14819517669E+04  0.12020501761E+04 0.  0.
        4    1    3    3  502    0  0.10401316382E+03 -0.18864315803E+03  0.25836935511E+03  0.33639458360E+03  0.12699999809E+01 0. -1.
       -4    1    3    3    0  502 -0.10401316382E+03  0.18864315803E+03 -0.11251198460E+04  0.11455571833E+04  0.12699999809E+01 0.  1.
</event>
<event>
 5   0  0.4024486E-04  0.1205971E+04  0.7818609E-02  0.9107647E-01
        2   -1    0    0  501    0  0.00000000000E+00  0.00000000000E+00  0.25281710191E+04  0.25281710191E+04  0.25500000920E-02 0. -1.
       -2   -1    0    0    0  501  0.00000000000E+00  0.00000000000E+00 -0.14381591496E+03  0.14381591498E+03  0.25500000920E-02 0.  1.
    10030    2    1    2    0    0  0.00000000000E+00  0.00000000000E+00  0.23843551041E+04  0.26719869340E+04  0.12059705275E+04 0.  0.
        1    1    3    3  502    0 -0.35380398508E+03  0.24516198761E+02  0.11170095992E+03  0.37182712156E+03  0.50400001928E-02 0.  1.
       -1    1    3    3    0  502  0.35380398508E+03 -0.24516198761E+02  0.22726541442E+04  0.23001598125E+04  0.50400001928E-02 0. -1.
</event>
<event>
 5   0  0.2204090E-04  0.1200465E+04  0.7818609E-02  0.9112450E-01
       -1   -1    0    0    0  501  0.00000000000E+00  0.00000000000E+00  0.42854458795E+03  0.42854458798E+03  0.50400001928E-02 0.  1.
        1   -1    0    0  501    0  0.00000000000E+00  0.00000000000E+00 -0.84070339024E+03  0.84070339026E+03  0.50400001928E-02 0. -1.
    10030    2    1    2    0    0  0.00000000000E+00  0.00000000000E+00 -0.41215880229E+03  0.12692479782E+04  0.12004647233E+04 0.  0.
        2    1    3    3  502    0  0.28536126987E+03 -0.45578319811E+03  0.75863341905E+02  0.54306963152E+03  0.25500000920E-02 0.  1.
       -2    1    3    3    0  502 -0.28536126987E+03  0.45578319811E+03 -0.48802214419E+03  0.72617834673E+03  0.25500000920E-02 0. -1.
</event>
<event>
 5   0  0.2340731E-04  0.1197352E+04  0.7818609E-02  0.9115178E-01
       -1   -1    0    0    0  501  0.00000000000E+00  0.00000000000E+00  0.40159852172E+03  0.40159852175E+03  0.50400001928E-02 0. -1.
        1   -1    0    0  501    0  0.00000000000E+00  0.00000000000E+00 -0.89246549226E+03  0.89246549228E+03  0.50400001928E-02 0.  1.
    10030    2    1    2    0    0  0.00000000000E+00  0.00000000000E+00 -0.49086697055E+03  0.12940640140E+04  0.11973517819E+04 0.  0.
        3    1    3    3  502    0 -0.15324003433E+03  0.23186502663E+03  0.32764967454E+03  0.42964894754E+03  0.10100000352E+00 0. -1.
       -3    1    3    3    0  502  0.15324003433E+03 -0.23186502663E+03 -0.81851664508E+03  0.86441506649E+03  0.10100000352E+00 0.  1.
</event>
<event>
 5   0  0.2244308E-04  0.1200606E+04  0.7818609E-02  0.9112326E-01
        1   -1    0    0  501    0  0.00000000000E+00  0.00000000000E+00  0.15778012364E+04  0.15778012364E+04  0.50400001928E-02 0.  1.
       -1   -1    0    0    0  501  0.00000000000E+00  0.00000000000E+00 -0.22839619764E+03  0.22839619770E+03  0.50400001928E-02 0. -1.
    10030    2    1    2    0    0  0.00000000000E+00  0.00000000000E+00  0.13494050388E+04  0.18061974341E+04  0.12006061854E+04 0.  0.
        5    1    3    3  502    0 -0.34790016443E+03  0.11077754477E+03 -0.42119855324E+02  0.36756273076E+03  0.46999998093E+01 0.  1.
       -5    1    3    3    0  502  0.34790016443E+03 -0.11077754477E+03  0.13915248941E+04  0.14386347034E+04  0.46999998093E+01 0. -1.
</event>
<event>
 5   0  0.4024486E-04  0.1200946E+04  0.7818609E-02  0.9112029E-01
       -2   -1    0    0    0  501  0.00000000000E+00  0.00000000000E+00  0.85719809038E+03  0.85719809038E+03  0.25500000920E-02 0.  1.
        2   -1    0    0  501    0  0.00000000000E+00  0.00000000000E+00 -0.42063512272E+03  0.42063512272E+03  0.25500000920E-02 0. -1.
    10030    2    1    2    0    0  0.00000000000E+00  0.00000000000E+00  0.43656296766E+03  0.12778332131E+04  0.12009456673E+04 0.  0.
        1    1    3    3  502    0 -0.45764857306E+03 -0.33881216279E+03  0.42109356727E+03  0.70820596616E+03  0.50400001928E-02 0.  1.
       -1    1    3    3    0  502  0.45764857306E+03  0.33881216279E+03  0.15469400387E+02  0.56962724694E+03  0.50400001928E-02 0. -1.
</event>
<event>
 5   0  0.1541375E-04  0.1200600E+04  0.7818609E-02  0.9112332E-01
       -3   -1    0    0    0  501  0.00000000000E+00  0.00000000000E+00  0.49637744035E+03  0.49637745062E+03  0.10100000352E+00 0.  1.
        3   -1    0    0  501    0  0.00000000000E+00  0.00000000000E+00 -0.72597940262E+03  0.72597940965E+03  0.10100000352E+00 0. -1.
    10030    2    1    2    0    0  0.00000000000E+00  0.00000000000E+00 -0.22960196227E+03  0.12223568603E+04  0.12005995306E+04 0.  0.
        4    1    3    3  502    0  0.22837653721E+03 -0.33378401138E+03 -0.56645097105E+03  0.69601431343E+03  0.12699999809E+01 0. -1.
       -4    1    3    3    0  502 -0.22837653721E+03  0.33378401138E+03  0.33684900877E+03  0.52634254684E+03  0.12699999809E+01 0.  1.
</event>
<event>
 5   0  0.2244308E-04  0.1201966E+04  0.7818609E-02  0.9111137E-01
       -1   -1    0    0    0  501  0.00000000000E+00  0.00000000000E+00  0.26024627069E+03  0.26024627074E+03  0.50400001928E-02 0.  1.
        1   -1    0    0  501    0  0.00000000000E+00  0.00000000000E+00 -0.13878419773E+04  0.13878419773E+04  0.50400001928E-02 0. -1.
    10030    2    1    2    0    0  0.00000000000E+00  0.00000000000E+00 -0.11275957066E+04  0.16480882481E+04  0.12019662207E+04 0.  0.
        5    1    3    3  502    0 -0.14200883823E+02  0.38336505031E+03 -0.11980808867E+04  0.12580104642E+04  0.46999998093E+01 0. -1.
       -5    1    3    3    0  502  0.14200883823E+02 -0.38336505031E+03  0.70485180048E+02  0.39007778391E+03  0.46999998093E+01 0.  1.
</event>
<event>
 5   0  0.3883890E-04  0.1199692E+04  0.7818609E-02  0.9113126E-01
        2   -1    0    0  501    0  0.00000000000E+00  0.00000000000E+00  0.79123447356E+03  0.79123447357E+03  0.25500000920E-02 0. -1.
       -2   -1    0    0    0  501  0.00000000000E+00  0.00000000000E+00 -0.45475205421E+03  0.45475205422E+03  0.25500000920E-02 0.  1.
    10030    2    1    2    0    0  0.00000000000E+00  0.00000000000E+00  0.33648241936E+03  0.12459865278E+04  0.11996924643E+04 0.  0.
        2    1    3    3  502    0 -0.41767150522E+03  0.11519729945E+03  0.59909339165E+03  0.73934619496E+03  0.25500000920E-02 0. -1.
       -2    1    3    3    0  502  0.41767150522E+03 -0.11519729945E+03 -0.26261097229E+03  0.50664033283E+03  0.25500000920E-02 0.  1.
</event>
<event>
 5   0  0.2204090E-04  0.1200446E+04  0.7818609E-02  0.9112467E-01
       -1   -1    0    0    0  501  0.00000000000E+00  0.00000000000E+00  0.37147799000E+03  0.37147799003E+03  0.50400001928E-02 0.  1.
        1   -1    0    0  501    0  0.00000000000E+00  0.00000000000E+00 -0.96982155546E+03  0.96982155547E+03  0.50400001928E-02 0. -1.
    10030    2    1    2    0    0  0.00000000000E+00  0.00000000000E+00 -0.59834356547E+03  0.13412995455E+04  0.12004455208E+04 0.  0.
        2    1    3    3  502    0 -0.12602468338E+03 -0.37187790936E+03  0.20806863160E+03  0.44437366681E+03  0.25500000920E-02 0.  1.
       -2    1    3    3    0  502  0.12602468338E+03  0.37187790936E+03 -0.80641219707E+03  0.89692587870E+03  0.25500000920E-02 0. -1.
</event>
<event>
 5   0  0.4122956E-04  0.1200339E+04  0.7818609E-02  0.9112560E-01
       -2   -1    0    0    0  501  0.00000000000E+00  0.00000000000E+00  0.12721556811E+03  0.12721556813E+03  0.25500000920E-02 0. -1.
        2   -1    0    0  501    0  0.00000000000E+00  0.00000000000E+00 -0.28314427680E+04  0.28314427680E+04  0.25500000920E-02 0.  1.
    10030    2    1    2    0    0  0.00000000000E+00  0.00000000000E+00 -0.27042271999E+04  0.29586583361E+04  0.12003392859E+04 0.  0.
        5    1    3    3  502    0 -0.48831455321E+03 -0.14765923501E+03 -0.21312842106E+04  0.21914946564E+04  0.46999998093E+01 0.  1.
       -5    1    3    3    0  502  0.48831455321E+03  0.14765923501E+03 -0.57294298926E+03  0.76716367973E+03  0.46999998093E+01 0. -1.
</event>
<event>
 5   0  0.3832662E-04  0.1200739E+04  0.7818609E-02  0.9112210E-01
       -2   -1    0    0    0  501  0.00000000000E+00  0.00000000000E+00  0.41235448691E+03  0.41235448691E+03  0.25500000920E-02 0. -1.
        2   -1    0    0  501    0  0.00000000000E+00  0.00000000000E+00 -0.87411153665E+03  0.87411153665E+03  0.25500000920E-02 0.  1.
    10030    2    1    2    0    0  0.00000000000E+00  0.00000000000E+00 -0.46175704974E+03  0.12864660236E+04  0.12007394625E+04 0.  0.
        4    1    3    3  502    0  0.58053062191E+03 -0.12461275051E+03 -0.32609448940E+03  0.67740930720E+03  0.12699999809E+01 0.  1.
       -4    1    3    3    0  502 -0.58053062191E+03  0.12461275051E+03 -0.13566256034E+03  0.60905671636E+03  0.12699999809E+01 0. -1.
</event>
<event>
 5   0  0.3832662E-04  0.1209044E+04  0.7818609E-02  0.9104977E-01
        2   -1    0    0  501    0  0.00000000000E+00  0.00000000000E+00  0.13654116134E+04  0.13654116134E+04  0.25500000920E-02 0. -1.
       -2   -1    0    0    0  501  0.00000000000E+00  0.00000000000E+00 -0.26764610167E+03  0.26764610168E+03  0.25500000920E-02 0.  1.
    10030    2    1    2    0    0  0.00000000000E+00  0.00000000000E+00  0.10977655118E+04  0.16330577151E+04  0.12090444087E+04 0.  0.
        4    1    3    3  502    0  0.24341955857E+03 -0.15254602591E+03 -0.16956091927E+03  0.33358040974E+03  0.12699999809E+01 0.  1.
       -4    1    3    3    0  502 -0.24341955857E+03  0.15254602591E+03  0.12673264310E+04  0.12994773054E+04  0.12699999809E+01 0. -1.
</event>
<event>
 5   0  0.2244308E-04  0.1196238E+04  0.7818609E-02  0.9116156E-01
       -1   -1    0    0    0  501  0.00000000000E+00  0.00000000000E+00  0.29393857555E+03  0.29393857559E+03  0.50400001928E-02 0.  1.
        1   -1    0    0  501    0  0.00000000000E+00  0.00000000000E+00 -0.12170790259E+04  0.12170790259E+04  0.50400001928E-02 0. -1.
    10030    2    1    2    0    0  0.00000000000E+00  0.00000000000E+00 -0.92314045037E+03  0.15110176015E+04  0.11962382292E+04 0.  0.
        5    1    3    3  502    0  0.15086368956E+03  0.39044913827E+03  0.78064565199E+02  0.42582455159E+03  0.46999998093E+01 0.  1.
       -5    1    3    3    0  502 -0.15086368956E+03 -0.39044913827E+03 -0.10012050156E+04  0.10851930499E+04  0.46999998093E+01 0. -1.
</event>
<event>
 5   0  0.2244308E-04  0.1197389E+04  0.7818609E-02  0.9115145E-01
       -1   -1    0    0    0  501  0.00000000000E+00  0.00000000000E+00  0.83733368803E+03  0.83733368805E+03  0.50400001928E-02 0. -1.
        1   -1    0    0  501    0  0.00000000000E+00  0.00000000000E+00 -0.42806723360E+03  0.42806723363E+03  0.50400001928E-02 0.  1.
    10030    2    1    2    0    0  0.00000000000E+00  0.00000000000E+00  0.40926645443E+03  0.12654009217E+04  0.11973890186E+04 0.  0.
        5    1    3    3  502    0  0.49098978138E+03 -0.43793017638E+02 -0.15440556286E+03  0.51657715944E+03  0.46999998093E+01 0.  1.
       -5    1    3    3    0  502 -0.49098978138E+03  0.43793017638E+02  0.56367201729E+03  0.74882376224E+03  0.46999998093E+01 0. -1.
</event>
<event>
 5   0  0.2244308E-04  0.1200577E+04  0.7818609E-02  0.9112352E-01
        1   -1    0    0  501    0  0.00000000000E+00  0.00000000000E+00  0.54658909567E+03  0.54658909570E+03  0.50400001928E-02 0.  1.
       -1   -1    0    0    0  501  0.00000000000E+00  0.00000000000E+00 -0.65926359396E+03  0.65926359398E+03  0.50400001928E-02 0. -1.
    10030    2    1    2    0    0  0.00000000000E+00  0.00000000000E+00 -0.11267449829E+03  0.12058526897E+04  0.12005770140E+04 0.  0.
        5    1    3    3  502    0  0.97897510381E+02  0.13877008460E+03 -0.63461296654E+03  0.65696024706E+03  0.46999998093E+01 0. -1.
       -5    1    3    3    0  502 -0.97897510381E+02 -0.13877008460E+03  0.52193846825E+03  0.54889244261E+03  0.46999998093E+01 0.  1.
</event>
<event>
 5   0  0.3832662E-04  0.1205883E+04  0.7818609E-02  0.9107723E-01
       -2   -1    0    0    0  501  0.00000000000E+00  0.00000000000E+00  0.34001071185E+03  0.34001071186E+03  0.25500000920E-02 0. -1.
        2   -1    0    0  501    0  0.00000000000E+00  0.00000000000E+00 -0.10691964297E+04  0.10691964297E+04  0.25500000920E-02 0.  1.
    10030    2    1    2    0    0  0.00000000000E+00  0.00000000000E+00 -0.72918571789E+03  0.14092071416E+04  0.12058826463E+04 0.  0.
        4    1    3    3  502    0  0.59377175557E+03  0.79963904480E+02 -0.28552789303E+03  0.66369188207E+03  0.12699999809E+01 0. -1.
       -4    1    3    3    0  502 -0.59377175557E+03 -0.79963904480E+02 -0.44365782486E+03  0.74551525953E+03  0.12699999809E+01 0.  1.
</event>
<event>
 5   0  0.4122956E-04  0.1199110E+04  0.7818609E-02  0.9113636E-01
        2   -1    0    0  501    0  0.00000000000E+00  0.00000000000E+00  0.15029674623E+04  0.15029674623E+04  0.25500000920E-02 0. -1.
       -2   -1    0    0    0  501  0.00000000000E+00  0.00000000000E+00 -0.23917095134E+03  0.23917095135E+03  0.25500000920E-02 0.  1.
    10030    2    1    2    0    0  0.00000000000E+00  0.00000000000E+00  0.12637965109E+04  0.17421384136E+04  0.11991099329E+04 0.  0.
        5    1    3    3  502    0  0.32831967798E+03 -0.10814183735E+03  0.13435853674E+04  0.13873471798E+04  0.46999998093E+01 0.  1.
       -5    1    3    3    0  502 -0.32831967798E+03  0.10814183735E+03 -0.79788856481E+02  0.35479123376E+03  0.46999998093E+01 0. -1.
</event>
<event>
 5   0  0.2340731E-04  0.1202375E+04  0.7818609E-02  0.9110780E-01
       -1   -1    0    0    0  501  0.00000000000E+00  0.00000000000E+00  0.65311928137E+03  0.65311928139E+03  0.50400001928E-02 0. -1.
        1   -1    0    0  501    0  0.00000000000E+00  0.00000000000E+00 -0.55338484872E+03  0.55338484874E+03  0.50400001928E-02 0.  1.
    10030    2    1    2    0    0  0.00000000000E+00  0.00000000000E+00  0.99734432649E+02  0.12065041301E+04  0.12023748413E+04 0.  0.
        3    1    3    3  502    0 -0.92641404790E+02  0.16256475880E+03 -0.52342366436E+03  0.55586155947E+03  0.10100000352E+00 0.  1.
       -3    1    3    3    0  502  0.92641404790E+02 -0.16256475880E+03  0.62315809701E+03  0.65064257066E+03  0.10100000352E+00 0. -1.
</event>
<event>
 5   0  0.3832662E-04  0.1199391E+04  0.7818609E-02  0.9113390E-01
        2   -1    0    0  501    0  0.00000000000E+00  0.00000000000E+00  0.16268252756E+04  0.16268252756E+04  0.25500000920E-02 0.  1.
       -2   -1    0    0    0  501  0.00000000000E+00  0.00000000000E+00 -0.22106526931E+03  0.22106526932E+03  0.25500000920E-02 0. -1.
    10030    2    1    2    0    0  0.00000000000E+00  0.00000000000E+00  0.14057600063E+04  0.18478905449E+04  0.11993907915E+04 0.  0.
        4    1    3    3  502    0 -0.12880072219E+03 -0.24509664820E+03  0.15224507878E+04  0.15474236676E+04  0.12699999809E+01 0.  1.
       -4    1    3    3    0  502  0.12880072219E+03  0.24509664820E+03 -0.11669078146E+03  0.30046687733E+03  0.12699999809E+01 0. -1.
</event>
<event>
 5   0  0.4024486E-04  0.1200172E+04  0.7818609E-02  0.9112706E-01
       -2   -1    0    0    0  501  0.00000000000E+00  0.00000000000E+00  0.14341432479E+03  0.14341432481E+03  0.25500000920E-02 0.  1.
        2   -1    0    0  501    0  0.00000000000E+00  0.00000000000E+00 -0.25109293071E+04  0.25109293071E+04  0.25500000920E-02 0. -1.
    10030    2    1    2    0    0  0.00000000000E+00  0.00000000000E+00 -0.23675149823E+04  0.26543436319E+04  0.12001720397E+04 0.  0.
        1    1    3    3  502    0  0.47585702715E+03 -0.27453448428E+03 -0.64977614861E+03  0.85089255296E+03  0.50400001928E-02 0.  1.
       -1    1    3    3    0  502 -0.47585702715E+03  0.27453448428E+03 -0.17177388337E+04  0.18034510790E+04  0.50400001928E-02 0. -1.
</event>
<event>
 5   0  0.2315038E-04  0.1198186E+04  0.7818609E-02  0.9114446E-01
        1   -1    0    0  501    0  0.00000000000E+00  0.00000000000E+00  0.26014386711E+03  0.26014386715E+03  0.50400001928E-02 0. -1.
       -1   -1    0    0    0  501  0.00000000000E+00  0.00000000000E+00 -0.13796686944E+04  0.13796686944E+04  0.50400001928E-02 0.  1.
    10030    2    1    2    0    0  0.00000000000E+00  0.00000000000E+00 -0.11195248273E+04  0.16398125616E+04  0.11981858780E+04 0.  0.
        1    1    3    3  502    0  0.45014842461E+03  0.27605781738E+03 -0.17249837628E+03  0.55551526762E+03  0.50400001928E-02 0. -1.
       -1    1    3    3    0  502 -0.45014842461E+03 -0.27605781738E+03 -0.94702645101E+03  0.10842972939E+04  0.50400001928E-02 0.  1.
</event>
<event>
 5   0  0.3993723E-04  0.1195064E+04  0.7818609E-02  0.9117188E-01
        2   -1    0    0  501    0  0.00000000000E+00  0.00000000000E+00  0.45048524597E+03  0.45048524598E+03  0.25500000920E-02 0. -1.
       -2   -1    0    0    0  501  0.00000000000E+00  0.00000000000E+00 -0.79257741149E+03  0.79257741150E+03  0.25500000920E-02 0.  1.
    10030    2    1    2    0    0  0.00000000000E+00  0.00000000000E+00 -0.34209216552E+03  0.12430626575E+04  0.11950638982E+04 0.  0.
        3    1    3    3  502    0  0.92925306284E+02 -0.10707022030E+03 -0.77483005285E+03  0.78769331952E+03  0.10100000352E+00 0.  1.
       -3    1    3    3    0  502 -0.92925306284E+02  0.10707022030E+03  0.43273788732E+03  0.45536933795E+03  0.10100000352E+00 0. -1.
</event>
<event>
 5   0  0.2340731E-04  0.1197719E+04  0.7818609E-02  0.9114856E-01
       -1   -1    0    0    0  501  0.00000000000E+00  0.00000000000E+00  0.37469155630E+03  0.37469155633E+03  0.50400001928E-02 0.  1.
        1   -1    0    0  501    0  0.00000000000E+00  0.00000000000E+00 -0.95714072725E+03  0.95714072726E+03  0.50400001928E-02 0. -1.
    10030    2    1    2    0    0  0.00000000000E+00  0.00000000000E+00 -0.58244917095E+03  0.13318322836E+04  0.11977187462E+04 0.  0.
        3    1    3    3  502    0  0.59698634081E+03 -0.42572571835E+02 -0.26823538287E+03  0.65586229180E+03  0.10100000352E+00 0. -1.
       -3    1    3    3    0  502 -0.59698634081E+03  0.42572571835E+02 -0.31421378808E+03  0.67596999179E+03  0.10100000352E+00 0.  1.
</event>
<event>
 5   0  0.2244308E-04  0.1199640E+04  0.7818609E-02  0.9113171E-01
       -1   -1    0    0    0  501  0.00000000000E+00  0.00000000000E+00  0.12587774846E+04  0.12587774846E+04  0.50400001928E-02 0.  1.
        1   -1    0    0  501    0  0.00000000000E+00  0.00000000000E+00 -0.28582034481E+03  0.28582034485E+03  0.50400001928E-02 0. -1.
    10030    2    1    2    0    0  0.00000000000E+00  0.00000000000E+00  0.97295713975E+03  0.15445978294E+04  0.11996403040E+04 0.  0.
        5    1    3    3  502    0 -0.30474284927E+03  0.17217747568E+03  0.11136213378E+04  0.11673422212E+04  0.46999998093E+01 0.  1.
       -5    1    3    3    0  502  0.30474284927E+03 -0.17217747568E+03 -0.14066419809E+03  0.37725560822E+03  0.46999998093E+01 0. -1.
</event>
<event>
 5   0  0.2315038E-04  0.1197913E+04  0.7818609E-02  0.9114685E-01
       -1   -1    0    0    0  501  0.00000000000E+00  0.00000000000E+00  0.60015321115E+03  0.60015321117E+03  0.50400001928E-02 0. -1.
        1   -1    0    0  501    0  0.00000000000E+00  0.00000000000E+00 -0.59776267083E+03  0.59776267085E+03  0.50400001928E-02 0.  1.
    10030    2    1    2    0    0  0.00000000000E+00  0.00000000000E+00  0.23905403213E+01  0.11979158820E+04  0.11979134968E+04 0.  0.
        1    1    3    3  502    0 -0.39821285939E+03 -0.44495520839E+03  0.47998862653E+02  0.59905134146E+03  0.50400001928E-02 0.  1.
       -1    1    3    3    0  502  0.39821285939E+03  0.44495520839E+03 -0.45608322332E+02  0.59886454057E+03  0.50400001928E-02 0. -1.
</event>
<event>
 5   0  0.2315038E-04  0.1195809E+04  0.7818609E-02  0.9116533E-01
       -1   -1    0    0    0  501  0.00000000000E+00  0.00000000000E+00  0.21301421016E+03  0.21301421022E+03  0.50400001928E-02 0.  1.
        1   -1    0    0  501    0  0.00000000000E+00  0.00000000000E+00 -0.16782428536E+04  0.16782428536E+04  0.50400001928E-02 0. -1.
    10030    2    1    2    0    0  0.00000000000E+00  0.00000000000E+00 -0.14652286434E+04  0.18912570638E+04  0.11958086402E+04 0.  0.
        1    1    3    3  502    0  0.58816734549E+01  0.32409444027E+03 -0.15272148395E+04  0.15612357178E+04  0.50400001928E-02 0. -1.
       -1    1    3    3    0  502 -0.58816734549E+01 -0.32409444027E+03  0.61986196143E+02  0.33002134603E+03  0.50400001928E-02 0.  1.
</event>
<event>
 5   0  0.3993723E-04  0.1198889E+04  0.7818609E-02  0.9113830E-01
        2   -1    0    0  501    0  0.00000000000E+00  0.00000000000E+00  0.85625908918E+03  0.85625908918E+03  0.25500000920E-02 0.  1.
       -2   -1    0    0    0  501  0.00000000000E+00  0.00000000000E+00 -0.41965528330E+03  0.41965528331E+03  0.25500000920E-02 0. -1.
    10030    2    1    2    0    0  0.00000000000E+00  0.00000000000E+00  0.43660380588E+03  0.12759143725E+04  0.11988889034E+04 0.  0.
        3    1    3    3  502    0 -0.33492662910E+03 -0.28106885942E+03  0.65471871423E+03  0.78729419887E+03  0.10100000352E+00 0.  1.
       -3    1    3    3    0  502  0.33492662910E+03  0.28106885942E+03 -0.21811490835E+03  0.48862017361E+03  0.10100000352E+00 0. -1.
</event>
<event>
 5   0  0.2315038E-04  0.1204392E+04  0.7818609E-02  0.9109021E-01
        1   -1    0    0  501    0  0.00000000000E+00  0.00000000000E+00  0.12625520483E+04  0.12625520483E+04  0.50400001928E-02 0.  1.
       -1   -1    0    0    0  501  0.00000000000E+00  0.00000000000E+00 -0.28722784989E+03  0.28722784994E+03  0.50400001928E-02 0. -1.
    10030    2    1    2    0    0  0.00000000000E+00  0.00000000000E+00  0.97532419838E+03  0.15497798982E+04  0.12043921458E+04 0.  0.
        1    1    3    3  502    0  0.19414777493E+03  0.43930415070E+01 -0.24582978321E+03  0.31328092770E+03  0.50400001928E-02 0. -1.
       -1    1    3    3    0  502 -0.19414777493E+03 -0.43930415070E+01  0.12211539816E+04  0.12364989705E+04  0.50400001928E-02 0.  1.
</event>
<event>
 5   0  0.2204090E-04  0.1201176E+04  0.7818609E-02  0.9111828E-01
       -1   -1    0    0    0  501  0.00000000000E+00  0.00000000000E+00  0.67923832508E+03  0.67923832510E+03  0.50400001928E-02 0. -1.
        1   -1    0    0  501    0  0.00000000000E+00  0.00000000000E+00 -0.53104492729E+03  0.53104492731E+03  0.50400001928E-02 0.  1.
    10030    2    1    2    0    0  0.00000000000E+00  0.00000000000E+00  0.14819339779E+03  0.12102832524E+04  0.12011762019E+04 0.  0.
        2    1    3    3  502    0 -0.58003974815E+02  0.54487004341E+03  0.32184350285E+03  0.63547703785E+03  0.25500000920E-02 0. -1.
       -2    1    3    3    0  502  0.58003974815E+02 -0.54487004341E+03 -0.17365010506E+03  0.57480621456E+03  0.25500000920E-02 0.  1.
</event>
<event>
 5   0  0.2340731E-04  0.1194408E+04  0.7818609E-02  0.9117766E-01
        1   -1    0    0  501    0  0.00000000000E+00  0.00000000000E+00  0.49324195032E+03  0.49324195035E+03  0.50400001928E-02 0. -1.
       -1   -1    0    0    0  501  0.00000000000E+00  0.00000000000E+00 -0.72307806569E+03  0.72307806571E+03  0.50400001928E-02 0.  1.
    10030    2    1    2    0    0  0.00000000000E+00  0.00000000000E+00 -0.22983611537E+03  0.12163200161E+04  0.11944076949E+04 0.  0.
        3    1    3    3  502    0  0.21694581372E+03 -0.17922595669E+03  0.42149502525E+03  0.50679926613E+03  0.10100000352E+00 0. -1.
       -3    1    3    3    0  502 -0.21694581372E+03  0.17922595669E+03 -0.65133114062E+03  0.70952074993E+03  0.10100000352E+00 0.  1.
</event>
<event>
 5   0  0.3832662E-04  0.1202322E+04  0.7818609E-02  0.9110827E-01
        2   -1    0    0  501    0  0.00000000000E+00  0.00000000000E+00  0.64210638622E+03  0.64210638622E+03  0.25500000920E-02 0.  1.
       -2   -1    0    0    0  501  0.00000000000E+00  0.00000000000E+00 -0.56282615346E+03  0.56282615347E+03  0.25500000920E-02 0. -1.
    10030    2    1    2    0    0  0.00000000000E+00  0.00000000000E+00  0.79280232755E+02  0.12049325397E+04  0.12023215335E+04 0.  0.
        4    1    3    3  502    0 -0.55676958319E+03 -0.70637954352E+01 -0.18745823149E+03  0.58752401434E+03  0.12699999809E+01 0.  1.
       -4    1    3    3    0  502  0.55676958319E+03  0.70637954352E+01  0.26673846425E+03  0.61740852535E+03  0.12699999809E+01 0. -1.
</event>
<event>
 5   0  0.3993723E-04  0.1200921E+04  0.7818609E-02  0.9112051E-01
       -2   -1    0    0    0  501  0.00000000000E+00  0.00000000000E+00  0.26042697099E+03  0.26042697101E+03  0.25500000920E-02 0. -1.
        2   -1    0    0  501    0  0.00000000000E+00  0.00000000000E+00 -0.13844673710E+04  0.13844673710E+04  0.25500000920E-02 0.  1.
    10030    2    1    2    0    0  0.00000000000E+00  0.00000000000E+00 -0.11240404000E+04  0.16448943420E+04  0.12009207199E+04 0.  0.
        3    1    3    3  502    0 -0.36324942362E+02 -0.88980925756E+02  0.24982334359E+03  0.26767297172E+03  0.10100000352E+00 0. -1.
       -3    1    3    3    0  502  0.36324942362E+02  0.88980925756E+02 -0.13738637436E+04  0.13772213703E+04  0.10100000352E+00 0.  1.
</event>
<event>
 5   0  0.2304842E-04  0.1171697E+04  0.7818609E-02  0.9137997E-01
        1   -1    0    0  501    0  0.00000000000E+00  0.00000000000E+00  0.97702053071E+03  0.97702053072E+03  0.50400001928E-02 0.  1.
       -1   -1    0    0    0  501  0.00000000000E+00  0.00000000000E+00 -0.35129081057E+03  0.35129081061E+03  0.50400001928E-02 0. -1.
    10030    2    1    2    0    0  0.00000000000E+00  0.00000000000E+00  0.62572972014E+03  0.13283113413E+04  0.11716967768E+04 0.  0.
        4    1    3    3  502    0 -0.58298169744E+03  0.27840751926E+01  0.37839529874E+03  0.69502519784E+03  0.12699999809E+01 0. -1.
       -4    1    3    3    0  502  0.58298169744E+03 -0.27840751926E+01  0.24733442140E+03  0.63328614349E+03  0.12699999809E+01 0.  1.
</event>
<event>
 5   0  0.2204090E-04  0.1219264E+04  0.7818609E-02  0.9096160E-01
       -1   -1    0    0    0  501  0.00000000000E+00  0.00000000000E+00  0.94435684919E+03  0.94435684921E+03  0.50400001928E-02 0.  1.
        1   -1    0    0  501    0  0.00000000000E+00  0.00000000000E+00 -0.39354966557E+03  0.39354966561E+03  0.50400001928E-02 0. -1.
    10030    2    1    2    0    0  0.00000000000E+00  0.00000000000E+00  0.55080718362E+03  0.13379065148E+04  0.12192642408E+04 0.  0.
        2    1    3    3  502    0 -0.46806543275E+03 -0.38600693467E+03  0.34091856958E+03  0.69592533654E+03  0.25500000920E-02 0. -1.
       -2    1    3    3    0  502  0.46806543275E+03  0.38600693467E+03  0.20988861403E+03  0.64198117827E+03  0.25500000920E-02 0.  1.
</event>
<event>
 5   0  0.2204090E-04  0.1201259E+04  0.7818609E-02  0.9111755E-01
       -1   -1    0    0    0  501  0.00000000000E+00  0.00000000000E+00  0.64760389350E+03  0.64760389352E+03  0.50400001928E-02 0. -1.
        1   -1    0    0  501    0  0.00000000000E+00  0.00000000000E+00 -0.55706244586E+03  0.55706244589E+03  0.50400001928E-02 0.  1.
    10030    2    1    2    0    0  0.00000000000E+00  0.00000000000E+00  0.90541447635E+02  0.12046663394E+04  0.12012590210E+04 0.  0.
        2    1    3    3  502    0  0.12587618030E+03  0.12789622924E+03 -0.52955103067E+03  0.55913017475E+03  0.25500000920E-02 0.  1.
       -2    1    3    3    0  502 -0.12587618030E+03 -0.12789622924E+03  0.62009247831E+03  0.64553616466E+03  0.25500000920E-02 0. -1.
</event>
<event>
 5   0  0.2315038E-04  0.1213813E+04  0.7818609E-02  0.9100851E-01
       -1   -1    0    0    0  501  0.00000000000E+00  0.00000000000E+00  0.55284138706E+03  0.55284138709E+03  0.50400001928E-02 0.  1.
        1   -1    0    0  501    0  0.00000000000E+00  0.00000000000E+00 -0.66625889559E+03  0.66625889561E+03  0.50400001928E-02 0. -1.
    10030    2    1    2    0    0  0.00000000000E+00  0.00000000000E+00 -0.11341750853E+03  0.12191002827E+04  0.12138129873E+04 0.  0.
        1    1    3    3  502    0 -0.78434883848E+02 -0.58207748544E+03  0.96827220322E+02  0.59526610914E+03  0.50400001928E-02 0. -1.
       -1    1    3    3    0  502  0.78434883848E+02  0.58207748544E+03 -0.21024472885E+03  0.62383417356E+03  0.50400001928E-02 0.  1.
</event>
<event>
 5   0  0.1541375E-04  0.1200662E+04  0.7818609E-02  0.9112277E-01
       -3   -1    0    0    0  501  0.00000000000E+00  0.00000000000E+00  0.35838251232E+03  0.35838252655E+03  0.10100000352E+00 0.  1.
        3   -1    0    0  501    0  0.00000000000E+00  0.00000000000E+00 -0.10056218127E+04  0.10056218178E+04  0.10100000352E+00 0. -1.
    10030    2    1    2    0    0  0.00000000000E+00  0.00000000000E+00 -0.64723930039E+03  0.13640043443E+04  0.12006619588E+04 0.  0.
        2    1    3    3  502    0  0.42528049003E+03  0.41501305379E+03 -0.42066966095E+03  0.72805377114E+03  0.25500000920E-02 0. -1.
       -2    1    3    3    0  502 -0.42528049003E+03 -0.41501305379E+03 -0.22656963944E+03  0.63595057319E+03  0.25500000920E-02 0.  1.
</event>
<event>
 5   0  0.2304842E-04  0.1199204E+04  0.7818609E-02  0.9113554E-01
        1   -1    0    0  501    0  0.00000000000E+00  0.00000000000E+00  0.14150824527E+04  0.14150824527E+04  0.50400001928E-02 0.  1.
       -1   -1    0    0    0  501  0.00000000000E+00  0.00000000000E+00 -0.25406469254E+03  0.25406469259E+03  0.50400001928E-02 0. -1.
    10030    2    1    2    0    0  0.00000000000E+00  0.00000000000E+00  0.11610177602E+04  0.16691471453E+04  0.11992038831E+04 0.  0.
        4    1    3    3  502    0  0.11225672199E+03  0.45913801741E+03  0.66998598931E+02  0.47738843285E+03  0.12699999809E+01 0. -1.
       -4    1    3    3    0  502 -0.11225672199E+03 -0.45913801741E+03  0.10940191612E+04  0.11917587124E+04  0.12699999809E+01 0.  1.
</event>
<event>
 5   0  0.3832662E-04  0.1198219E+04  0.7818609E-02  0.9114417E-01
        2   -1    0    0  501    0  0.00000000000E+00  0.00000000000E+00  0.11585786498E+04  0.11585786498E+04  0.25500000920E-02 0.  1.
       -2   -1    0    0    0  501  0.00000000000E+00  0.00000000000E+00 -0.30980388379E+03  0.30980388380E+03  0.25500000920E-02 0. -1.
    10030    2    1    2    0    0  0.00000000000E+00  0.00000000000E+00  0.84877476598E+03  0.14683825336E+04  0.11982189539E+04 0.  0.
        4    1    3    3  502    0  0.49430834457E+03 -0.80458093427E+02  0.82733503412E+03  0.96710863707E+03  0.12699999809E+01 0.  1.
       -4    1    3    3    0  502 -0.49430834457E+03  0.80458093427E+02  0.21439731864E+02  0.50127389650E+03  0.12699999809E+01 0. -1.
</event>
<event>
 5   0  0.1541375E-04  0.1200189E+04  0.7818609E-02  0.9112691E-01
       -3   -1    0    0    0  501  0.00000000000E+00  0.00000000000E+00  0.89815798632E+03  0.89815799200E+03  0.10100000352E+00 0.  1.
        3   -1    0    0  501    0  0.00000000000E+00  0.00000000000E+00 -0.40094685515E+03  0.40094686787E+03  0.10100000352E+00 0. -1.
    10030    2    1    2    0    0  0.00000000000E+00  0.00000000000E+00  0.49721113117E+03  0.12991048599E+04  0.12001893717E+04 0.  0.
        1    1    3    3  502    0 -0.38907391604E+03 -0.45058181530E+03  0.33040609625E+03  0.68086024475E+03  0.50400001928E-02 0.  1.
       -1    1    3    3    0  502  0.38907391604E+03  0.45058181530E+03  0.16680503492E+03  0.61824461512E+03  0.50400001928E-02 0. -1.
</event>
<event>
 5   0  0.3832662E-04  0.1199537E+04  0.7818609E-02  0.9113262E-01
       -2   -1    0    0    0  501  0.00000000000E+00  0.00000000000E+00  0.12749951653E+04  0.12749951653E+04  0.25500000920E-02 0. -1.
        2   -1    0    0  501    0  0.00000000000E+00  0.00000000000E+00 -0.28213606636E+03  0.28213606637E+03  0.25500000920E-02 0.  1.
    10030    2    1    2    0    0  0.00000000000E+00  0.00000000000E+00  0.99285909893E+03  0.15571312317E+04  0.11995367782E+04 0.  0.
        4    1    3    3  502    0  0.23895876277E+03  0.42454784186E+03  0.42316544613E+02  0.48901376584E+03  0.12699999809E+01 0.  1.
       -4    1    3    3    0  502 -0.23895876277E+03 -0.42454784186E+03  0.95054255431E+03  0.10681174658E+04  0.12699999809E+01 0. -1.
</event>
<event>
 5   0  0.2315038E-04  0.1197482E+04  0.7818609E-02  0.9115064E-01
        1   -1    0    0  501    0  0.00000000000E+00  0.00000000000E+00  0.54054719288E+03  0.54054719290E+03  0.50400001928E-02 0.  1.
       -1   -1    0    0    0  501  0.00000000000E+00  0.00000000000E+00 -0.66319935322E+03  0.66319935324E+03  0.50400001928E-02 0. -1.
    10030    2    1    2    0    0  0.00000000000E+00  0.00000000000E+00 -0.12265216034E+03  0.12037465461E+04  0.11974816053E+04 0.  0.
        1    1    3    3  502    0 -0.33278200692E+03  0.26397467235E+01 -0.56166469415E+03  0.65285378230E+03  0.50400001928E-02 0. -1.
       -1    1    3    3    0  502  0.33278200692E+03 -0.26397467235E+01  0.43901253380E+03  0.55089276384E+03  0.50400001928E-02 0.  1.
</event>
<event>
 5   0  0.2304842E-04  0.1229456E+04  0.7818609E-02  0.9087458E-01
        1   -1    0    0  501    0  0.00000000000E+00  0.00000000000E+00  0.10491157059E+04  0.10491157059E+04  0.50400001928E-02 0. -1.
       -1   -1    0    0    0  501  0.00000000000E+00  0.00000000000E+00 -0.36019880972E+03  0.36019880975E+03  0.50400001928E-02 0.  1.
    10030    2    1    2    0    0  0.00000000000E+00  0.00000000000E+00  0.68891689615E+03  0.14093145156E+04  0.12294555357E+04 0.  0.
        4    1    3    3  502    0 -0.60471537827E+03 -0.10981560084E+03  0.35842537615E+03  0.71148472793E+03  0.12699999809E+01 0. -1.
       -4    1    3    3    0  502  0.60471537827E+03  0.10981560084E+03  0.33049152000E+03  0.69782978770E+03  0.12699999809E+01 0.  1.
</event>
<event>
 5   0  0.3832662E-04  0.1196852E+04  0.7818609E-02  0.9115616E-01
        2   -1    0    0  501    0  0.00000000000E+00  0.00000000000E+00  0.26418941799E+04  0.26418941799E+04  0.25500000920E-02 0.  1.
       -2   -1    0    0    0  501  0.00000000000E+00  0.00000000000E+00 -0.13555190874E+03  0.13555190876E+03  0.25500000920E-02 0. -1.
    10030    2    1    2    0    0  0.00000000000E+00  0.00000000000E+00  0.25063422712E+04  0.27774460887E+04  0.11968522027E+04 0.  0.
        4    1    3    3  502    0 -0.42367032798E+03  0.24754947973E+03  0.20480825028E+04  0.21060438844E+04  0.12699999809E+01 0.  1.
       -4    1    3    3    0  502  0.42367032798E+03 -0.24754947973E+03  0.45825976836E+03  0.67140220429E+03  0.12699999809E+01 0. -1.
</event>
<event>
 5   0  0.3832662E-04  0.1200732E+04  0.7818609E-02  0.9112216E-01
        2   -1    0    0  501    0  0.00000000000E+00  0.00000000000E+00  0.94066379924E+03  0.94066379924E+03  0.25500000920E-02 0.  1.
       -2   -1    0    0    0  501  0.00000000000E+00  0.00000000000E+00 -0.38317581201E+03  0.38317581202E+03  0.25500000920E-02 0. -1.
    10030    2    1    2    0    0  0.00000000000E+00  0.00000000000E+00  0.55748798723E+03  0.13238396113E+04  0.12007324683E+04 0.  0.
        4    1    3    3  502    0  0.16220397722E+03 -0.27851008054E+03 -0.27970510822E+03  0.42674882033E+03  0.12699999809E+01 0. -1.
       -4    1    3    3    0  502 -0.16220397722E+03  0.27851008054E+03  0.83719309546E+03  0.89709079093E+03  0.12699999809E+01 0.  1.
</event>
<event>
 5   0  0.4122956E-04  0.1202183E+04  0.7818609E-02  0.9110948E-01
       -2   -1    0    0    0  501  0.00000000000E+00  0.00000000000E+00  0.69445640983E+03  0.69445640984E+03  0.25500000920E-02 0.  1.
        2   -1    0    0  501    0  0.00000000000E+00  0.00000000000E+00 -0.52027906077E+03  0.52027906078E+03  0.25500000920E-02 0. -1.
    10030    2    1    2    0    0  0.00000000000E+00  0.00000000000E+00  0.17417734906E+03  0.12147354706E+04  0.12021832284E+04 0.  0.
        5    1    3    3  502    0  0.18590828901E+02 -0.52283655162E+03 -0.21194962065E+03  0.56448951303E+03  0.46999998093E+01 0. -1.
       -5    1    3    3    0  502 -0.18590828901E+02  0.52283655162E+03  0.38612696971E+03  0.65024595759E+03  0.46999998093E+01 0.  1.
</event>
<event>
 5   0  0.4024486E-04  0.1202316E+04  0.7818609E-02  0.9110832E-01
       -2   -1    0    0    0  501  0.00000000000E+00  0.00000000000E+00  0.42588311980E+03  0.42588311981E+03  0.25500000920E-02 0. -1.
        2   -1    0    0  501    0  0.00000000000E+00  0.00000000000E+00 -0.84856826168E+03  0.84856826168E+03  0.25500000920E-02 0.  1.
    10030    2    1    2    0    0  0.00000000000E+00  0.00000000000E+00 -0.42268514188E+03  0.12744513815E+04  0.12023159296E+04 0.  0.
        1    1    3    3  502    0  0.37606420560E+03  0.15883136689E+03 -0.67911150090E+03  0.79236615307E+03  0.50400001928E-02 0.  1.
       -1    1    3    3    0  502 -0.37606420560E+03 -0.15883136689E+03  0.25642635903E+03  0.48208522843E+03  0.50400001928E-02 0. -1.
</event>
<event>
 5   0  0.2244308E-04  0.1201157E+04  0.7818609E-02  0.9111844E-01
       -1   -1    0    0    0  501  0.00000000000E+00  0.00000000000E+00  0.67414096643E+03  0.67414096645E+03  0.50400001928E-02 0. -1.
        1   -1    0    0  501    0  0.00000000000E+00  0.00000000000E+00 -0.53504316270E+03  0.53504316273E+03  0.50400001928E-02 0.  1.
    10030    2    1    2    0    0  0.00000000000E+00  0.00000000000E+00  0.13909780372E+03  0.12091841292E+04  0.12011569669E+04 0.  0.
        5    1    3    3  502    0  0.14982470483E+03  0.49961822930E+03 -0.23010899588E+03  0.57012108995E+03  0.46999998093E+01 0.  1.
       -5    1    3    3    0  502 -0.14982470483E+03 -0.49961822930E+03  0.36920679961E+03  0.63906303922E+03  0.46999998093E+01 0. -1.
</event>
<event>
 5   0  0.4122956E-04  0.1199557E+04  0.7818609E-02  0.9113245E-01
       -2   -1    0    0    0  501  0.00000000000E+00  0.00000000000E+00  0.36722055470E+03  0.36722055471E+03  0.25500000920E-02 0.  1.
        2   -1    0    0  501    0  0.00000000000E+00  0.00000000000E+00 -0.97961281672E+03  0.97961281672E+03  0.25500000920E-02 0. -1.
    10030    2    1    2    0    0  0.00000000000E+00  0.00000000000E+00 -0.61239226202E+03  0.13468333714E+04  0.11995565213E+04 0.  0.
        5    1    3    3  502    0  0.23749807334E+03 -0.47062514006E+02 -0.92228379560E+03  0.95354585873E+03  0.46999998093E+01 0. -1.
       -5    1    3    3    0  502 -0.23749807334E+03  0.47062514006E+02  0.30989153359E+03  0.39328751271E+03  0.46999998093E+01 0.  1.
</event>
<event>
 5   0  0.1541375E-04  0.1198968E+04  0.7818609E-02  0.9113760E-01
        4   -1    0    0  501    0  0.00000000000E+00  0.00000000000E+00  0.52020539309E+03  0.52020694334E+03  0.12699999809E+01 0. -1.
       -4   -1    0    0    0  501  0.00000000000E+00  0.00000000000E+00 -0.69084189619E+03  0.69084306353E+03  0.12699999809E+01 0.  1.
    10030    2    1    2    0    0  0.00000000000E+00  0.00000000000E+00 -0.17063650310E+03  0.12110500069E+04  0.11989684328E+04 0.  0.
        1    1    3    3  502    0 -0.30144961964E+03 -0.50076954632E+03 -0.21984936550E+03  0.62448038820E+03  0.50400001928E-02 0.  1.
       -1    1    3    3    0  502  0.30144961964E+03  0.50076954632E+03  0.49212862403E+02  0.58656961868E+03  0.50400001928E-02 0. -1.
</event>
<event>
 5   0  0.4122956E-04  0.1200378E+04  0.7818609E-02  0.9112526E-01
        2   -1    0    0  501    0  0.00000000000E+00  0.00000000000E+00  0.12205946772E+04  0.12205946772E+04  0.25500000920E-02 0. -1.
       -2   -1    0    0    0  501  0.00000000000E+00  0.00000000000E+00 -0.29512388975E+03  0.29512388976E+03  0.25500000920E-02 0.  1.
    10030    2    1    2    0    0  0.00000000000E+00  0.00000000000E+00  0.92547078745E+03  0.15157185670E+04  0.12003776888E+04 0.  0.
        5    1    3    3  502    0 -0.10584719824E+03 -0.47161560163E+02 -0.28084104684E+03  0.30384473950E+03  0.46999998093E+01 0.  1.
       -5    1    3    3    0  502  0.10584719824E+03  0.47161560163E+02  0.12063118343E+04  0.12118738275E+04  0.46999998093E+01 0. -1.
</event>
<event>
 5   0  0.2340731E-04  0.1198487E+04  0.7818609E-02  0.9114182E-01
       -1   -1    0    0    0  501  0.00000000000E+00  0.00000000000E+00  0.37037898181E+03  0.37037898185E+03  0.50400001928E-02 0. -1.
        1   -1    0    0  501    0  0.00000000000E+00  0.00000000000E+00 -0.96952829398E+03  0.96952829399E+03  0.50400001928E-02 0.  1.
    10030    2    1    2    0    0  0.00000000000E+00  0.00000000000E+00 -0.59914931216E+03  0.13399072758E+04  0.11984872171E+04 0.  0.
        3    1    3    3  502    0  0.31414269304E+03  0.18627028466E+01 -0.87008692751E+03  0.92506236161E+03  0.10100000352E+00 0.  1.
       -3    1    3    3    0  502 -0.31414269304E+03 -0.18627028466E+01  0.27093761534E+03  0.41484491423E+03  0.10100000352E+00 0. -1.
</event>
<event>
 5   0  0.2204090E-04  0.1197971E+04  0.7818609E-02  0.9114635E-01
        1   -1    0    0  501    0  0.00000000000E+00  0.00000000000E+00  0.42204012057E+03  0.42204012060E+03  0.50400001928E-02 0.  1.
       -1   -1    0    0    0  501  0.00000000000E+00  0.00000000000E+00 -0.85011704381E+03  0.85011704382E+03  0.50400001928E-02 0. -1.
    10030    2    1    2    0    0  0.00000000000E+00  0.00000000000E+00 -0.42807692324E+03  0.12721571644E+04  0.11979707838E+04 0.  0.
        2    1    3    3  502    0 -0.34149765658E+03 -0.33795927268E+03 -0.59388532399E+03  0.76389586823E+03  0.25500000920E-02 0. -1.
       -2    1    3    3    0  502  0.34149765658E+03  0.33795927268E+03  0.16580840075E+03  0.50826129619E+03  0.25500000920E-02 0.  1.
</event>
<event>
 5   0  0.2340731E-04  0.1201169E+04  0.7818609E-02  0.9111834E-01
        1   -1    0    0  501    0  0.00000000000E+00  0.00000000000E+00  0.95519594786E+03  0.95519594788E+03  0.50400001928E-02 0. -1.
       -1   -1    0    0    0  501  0.00000000000E+00  0.00000000000E+00 -0.37762092305E+03  0.37762092309E+03  0.50400001928E-02 0.  1.
    10030    2    1    2    0    0  0.00000000000E+00  0.00000000000E+00  0.57757502481E+03  0.13328168710E+04  0.12011693895E+04 0.  0.
        3    1    3    3  502    0 -0.52365235667E+03 -0.81851128491E+02 -0.24643526524E+02  0.53058336902E+03  0.10100000352E+00 0.  1.
       -3    1    3    3    0  502  0.52365235667E+03  0.81851128491E+02  0.60221855133E+03  0.80223350195E+03  0.10100000352E+00 0. -1.
</event>
<event>
 5   0  0.2340731E-04  0.1204342E+04  0.7818609E-02  0.9109065E-01
        1   -1    0    0  501    0  0.00000000000E+00  0.00000000000E+00  0.16289332541E+03  0.16289332548E+03  0.50400001928E-02 0.  1.
       -1   -1    0    0    0  501  0.00000000000E+00  0.00000000000E+00 -0.22260565969E+04  0.22260565969E+04  0.50400001928E-02 0. -1.
    10030    2    1    2    0    0  0.00000000000E+00  0.00000000000E+00 -0.20631632715E+04  0.23889499224E+04  0.12043417484E+04 0.  0.
        3    1    3    3  502    0  0.48305150949E+03 -0.17737908757E+03 -0.16519415351E+04  0.17302349399E+04  0.10100000352E+00 0. -1.
       -3    1    3    3    0  502 -0.48305150949E+03  0.17737908757E+03 -0.41122173640E+03  0.65871498254E+03  0.10100000352E+00 0.  1.
</event>
<event>
 5   0  0.3883890E-04  0.1200023E+04  0.7818609E-02  0.9112836E-01
        2   -1    0    0  501    0  0.00000000000E+00  0.00000000000E+00  0.20086483366E+04  0.20086483366E+04  0.25500000920E-02 0.  1.
       -2   -1    0    0    0  501  0.00000000000E+00  0.00000000000E+00 -0.17923189557E+03  0.17923189559E+03  0.25500000920E-02 0. -1.
    10030    2    1    2    0    0  0.00000000000E+00  0.00000000000E+00  0.18294164410E+04  0.21878802322E+04  0.12000230813E+04 0.  0.
        2    1    3    3  502    0 -0.48204444259E+03 -0.17717804486E+03  0.34906124484E+03  0.62096912714E+03  0.25500000920E-02 0. -1.
       -2    1    3    3    0  502  0.48204444259E+03  0.17717804486E+03  0.14803551962E+04  0.15669111051E+04  0.25500000920E-02 0.  1.
</event>
<event>
 5   0  0.2244308E-04  0.1198268E+04  0.7818609E-02  0.9114374E-01
       -1   -1    0    0    0  501  0.00000000000E+00  0.00000000000E+00  0.11463512350E+04  0.11463512350E+04  0.50400001928E-02 0.  1.
        1   -1    0    0  501    0  0.00000000000E+00  0.00000000000E+00 -0.31313406741E+03  0.31313406745E+03  0.50400001928E-02 0. -1.
    10030    2    1    2    0    0  0.00000000000E+00  0.00000000000E+00  0.83321716762E+03  0.14594853025E+04  0.11982681252E+04 0.  0.
        5    1    3    3  502    0 -0.35592968472E+03  0.61048568333E+02 -0.16564766961E+03  0.39733374964E+03  0.46999998093E+01 0. -1.
       -5    1    3    3    0  502  0.35592968472E+03 -0.61048568333E+02  0.99886483723E+03  0.10621515528E+04  0.46999998093E+01 0.  1.
</event>
<event>
 5   0  0.2204090E-04  0.1202746E+04  0.7818609E-02  0.9110456E-01
       -1   -1    0    0    0  501  0.00000000000E+00  0.00000000000E+00  0.35819527183E+03  0.35819527187E+03  0.50400001928E-02 0. -1.
        1   -1    0    0  501    0  0.00000000000E+00  0.00000000000E+00 -0.10096431491E+04  0.10096431491E+04  0.50400001928E-02 0.  1.
    10030    2    1    2    0    0  0.00000000000E+00  0.00000000000E+00 -0.65144787728E+03  0.13678384210E+04  0.12027458622E+04 0.  0.
        2    1    3    3  502    0 -0.35202812864E+03 -0.31773169460E+03  0.94866886140E+02  0.48360827040E+03  0.25500000920E-02 0. -1.
       -2    1    3    3    0  502  0.35202812864E+03  0.31773169460E+03 -0.74631476342E+03  0.88423015060E+03  0.25500000920E-02 0.  1.
</event>
<event>
 5   0  0.2340731E-04  0.1217815E+04  0.7818609E-02  0.9097404E-01
        1   -1    0    0  501    0  0.00000000000E+00  0.00000000000E+00  0.96024846267E+03  0.96024846269E+03  0.50400001928E-02 0.  1.
       -1   -1    0    0    0  501  0.00000000000E+00  0.00000000000E+00 -0.38611715501E+03  0.38611715504E+03  0.50400001928E-02 0. -1.
    10030    2    1    2    0    0  0.00000000000E+00  0.00000000000E+00  0.57413130766E+03  0.13463656177E+04  0.12178151002E+04 0.  0.
        3    1    3    3  502    0 -0.18959640952E+03 -0.54468370111E+03  0.50297884921E+03  0.76525477176E+03  0.10100000352E+00 0.  1.
       -3    1    3    3    0  502  0.18959640952E+03  0.54468370111E+03  0.71152458454E+02  0.58111084597E+03  0.10100000352E+00 0. -1.
</event>
<event>
 5   0  0.4024486E-04  0.1202358E+04  0.7818609E-02  0.9110795E-01
       -2   -1    0    0    0  501  0.00000000000E+00  0.00000000000E+00  0.31749970492E+03  0.31749970493E+03  0.25500000920E-02 0. -1.
        2   -1    0    0  501    0  0.00000000000E+00  0.00000000000E+00 -0.11383194736E+04  0.11383194736E+04  0.25500000920E-02 0.  1.
    10030    2    1    2    0    0  0.00000000000E+00  0.00000000000E+00 -0.82081976872E+03  0.14558191786E+04  0.12023578452E+04 0.  0.
        1    1    3    3  502    0  0.27497312352E+03  0.32190528940E+03  0.10639600756E+03  0.43652416250E+03  0.50400001928E-02 0. -1.
       -1    1    3    3    0  502 -0.27497312352E+03 -0.32190528940E+03 -0.92721577628E+03  0.10192950161E+04  0.50400001928E-02 0.  1.
</event>
<event>
 5   0  0.3883890E-04  0.1201188E+04  0.7818609E-02  0.9111817E-01
        2   -1    0    0  501    0  0.00000000000E+00  0.00000000000E+00  0.21076291068E+04  0.21076291068E+04  0.25500000920E-02 0.  1.
       -2   -1    0    0    0  501  0.00000000000E+00  0.00000000000E+00 -0.17114645617E+03  0.17114645619E+03  0.25500000920E-02 0. -1.
    10030    2    1    2    0    0  0.00000000000E+00  0.00000000000E+00  0.19364826506E+04  0.22787755629E+04  0.12011881661E+04 0.  0.
        2    1    3    3  502    0 -0.19631162698E+03 -0.53997795477E+03  0.13000920336E+04  0.14213914810E+04  0.25500000920E-02 0.  1.
       -2    1    3    3    0  502  0.19631162698E+03  0.53997795477E+03  0.63639061698E+03  0.85738408191E+03  0.25500000920E-02 0. -1.
</event>
<event>
 5   0  0.2340731E-04  0.1200754E+04  0.7818609E-02  0.9112197E-01
        1   -1    0    0  501    0  0.00000000000E+00  0.00000000000E+00  0.15940591832E+04  0.15940591833E+04  0.50400001928E-02 0. -1.
       -1   -1    0    0    0  501  0.00000000000E+00  0.00000000000E+00 -0.22612251720E+03  0.22612251725E+03  0.50400001928E-02 0.  1.
    10030    2    1    2    0    0  0.00000000000E+00  0.00000000000E+00  0.13679366660E+04  0.18201817005E+04  0.12007542215E+04 0.  0.
        3    1    3    3  502    0  0.59948217235E+03 -0.20536965763E+02  0.72267556192E+03  0.93918082387E+03  0.10100000352E+00 0.  1.
       -3    1    3    3    0  502 -0.59948217235E+03  0.20536965763E+02  0.64526110413E+03  0.88100087664E+03  0.10100000352E+00 0. -1.
</event>
<event>
 5   0  0.4024486E-04  0.1220881E+04  0.7818609E-02  0.9094773E-01
        2   -1    0    0  501    0  0.00000000000E+00  0.00000000000E+00  0.65276490279E+03  0.65276490280E+03  0.25500000920E-02 0. -1.
       -2   -1    0    0    0  501  0.00000000000E+00  0.00000000000E+00 -0.57086064771E+03  0.57086064771E+03  0.25500000920E-02 0.  1.
    10030    2    1    2    0    0  0.00000000000E+00  0.00000000000E+00  0.81904255087E+02  0.12236255505E+04  0.12208813132E+04 0.  0.
        1    1    3    3  502    0 -0.17567755424E+03 -0.36838587017E+03 -0.41401430942E+03  0.58135927002E+03  0.50400001928E-02 0.  1.
       -1    1    3    3    0  502  0.17567755424E+03  0.36838587017E+03  0.49591856451E+03  0.64226628049E+03  0.50400001928E-02 0. -1.
</event>
<event>
 5   0  0.2315038E-04  0.1199683E+04  0.7818609E-02  0.9113134E-01
        1   -1    0    0  501    0  0.00000000000E+00  0.00000000000E+00  0.46971662977E+03  0.46971662979E+03  0.50400001928E-02 0.  1.
       -1   -1    0    0    0  501  0.00000000000E+00  0.00000000000E+00 -0.76601435537E+03  0.76601435539E+03  0.50400001928E-02 0. -1.
    10030    2    1    2    0    0  0.00000000000E+00  0.00000000000E+00 -0.29629772561E+03  0.12357309852E+04  0.11996827604E+04 0.  0.
        1    1    3    3  502    0 -0.47312937043E+03  0.27566912074E+03  0.10408638258E+03  0.55738571955E+03  0.50400001928E-02 0.  1.
       -1    1    3    3    0  502  0.47312937043E+03 -0.27566912074E+03 -0.40038410819E+03  0.67834526563E+03  0.50400001928E-02 0. -1.
</event>
<event>
 5   0  0.2340731E-04  0.1198940E+04  0.7818609E-02  0.9113785E-01
       -1   -1    0    0    0  501  0.00000000000E+00  0.00000000000E+00  0.19791508851E+03  0.19791508857E+03  0.50400001928E-02 0. -1.
        1   -1    0    0  501    0  0.00000000000E+00  0.00000000000E+00 -0.18157485062E+04  0.18157485062E+04  0.50400001928E-02 0.  1.
    10030    2    1    2    0    0  0.00000000000E+00  0.00000000000E+00 -0.16178334177E+04  0.20136635948E+04  0.11989395754E+04 0.  0.
        3    1    3    3  502    0 -0.13178659100E+03 -0.30191365164E+03  0.32268983893E+02  0.33099978268E+03  0.10100000352E+00 0. -1.
       -3    1    3    3    0  502  0.13178659100E+03  0.30191365164E+03 -0.16501024016E+04  0.16826638121E+04  0.10100000352E+00 0.  1.
</event>
<event>
 5   0  0.3832662E-04  0.1198244E+04  0.7818609E-02  0.9114395E-01
        2   -1    0    0  501    0  0.00000000000E+00  0.00000000000E+00  0.11006096070E+04  0.11006096070E+04  0.25500000920E-02 0. -1.
       -2   -1    0    0    0  501  0.00000000000E+00  0.00000000000E+00 -0.32613483192E+03  0.32613483193E+03  0.25500000920E-02 0.  1.
    10030    2    1    2    0    0  0.00000000000E+00  0.00000000000E+00  0.77447477504E+03  0.14267444389E+04  0.11982439304E+04 0.  0.
        4    1    3    3  502    0 -0.33810049454E+03 -0.41571249922E+03  0.70632771717E+03  0.88658292526E+03  0.12699999809E+01 0. -1.
       -4    1    3    3    0  502  0.33810049454E+03  0.41571249922E+03  0.68147057874E+02  0.54016151364E+03  0.12699999809E+01 0.  1.
</event>
<event>
 5   0  0.4122956E-04  0.1206118E+04  0.7818609E-02  0.9107518E-01
       -2   -1    0    0    0  501  0.00000000000E+00  0.00000000000E+00  0.30931696484E+03  0.30931696485E+03  0.25500000920E-02 0. -1.
        2   -1    0    0  501    0  0.00000000000E+00  0.00000000000E+00 -0.11757528320E+04  0.11757528320E+04  0.25500000920E-02 0.  1.
    10030    2    1    2    0    0  0.00000000000E+00  0.00000000000E+00 -0.86643586719E+03  0.14850697969E+04  0.12061182320E+04 0.  0.
        5    1    3    3  502    0 -0.31514217700E+03 -0.34577912297E+03  0.35284541835E+02  0.46919599583E+03  0.46999998093E+01 0. -1.
       -5    1    3    3    0  502  0.31514217700E+03  0.34577912297E+03 -0.90172040903E+03  0.10158738011E+04  0.46999998093E+01 0.  1.
</event>
<event>
 5   0  0.1541375E-04  0.1203493E+04  0.7818609E-02  0.9109805E-01
        3   -1    0    0  501    0  0.00000000000E+00  0.00000000000E+00  0.25187196613E+03  0.25187198638E+03  0.10100000352E+00 0.  1.
       -3   -1    0    0    0  501  0.00000000000E+00  0.00000000000E+00 -0.14376296358E+04  0.14376296393E+04  0.10100000352E+00 0. -1.
    10030    2    1    2    0    0  0.00000000000E+00  0.00000000000E+00 -0.11857576697E+04  0.16895016257E+04  0.12034926224E+04 0.  0.
        4    1    3    3  502    0  0.12433408171E+03  0.31358301238E+02  0.23246786097E+03  0.26549053884E+03  0.12699999809E+01 0.  1.
       -4    1    3    3    0  502 -0.12433408171E+03 -0.31358301238E+02 -0.14182255306E+04  0.14240110869E+04  0.12699999809E+01 0. -1.
</event>
<event>
 5   0  0.4024486E-04  0.1197661E+04  0.7818609E-02  0.9114907E-01
       -2   -1    0    0    0  501  0.00000000000E+00  0.00000000000E+00  0.57568262641E+03  0.57568262642E+03  0.25500000920E-02 0.  1.
        2   -1    0    0  501    0  0.00000000000E+00  0.00000000000E+00 -0.62290884952E+03  0.62290884952E+03  0.25500000920E-02 0. -1.
    10030    2    1    2    0    0  0.00000000000E+00  0.00000000000E+00 -0.47226223105E+02  0.11985914759E+04  0.11976607241E+04 0.  0.
        1    1    3    3  502    0 -0.28009036533E+03  0.23410972586E+02 -0.55279536854E+03  0.62014627782E+03  0.50400001928E-02 0. -1.
       -1    1    3    3    0  502  0.28009036533E+03 -0.23410972586E+02  0.50556914544E+03  0.57844519812E+03  0.50400001928E-02 0.  1.
</event>
<event>
 5   0  0.4122956E-04  0.1200550E+04  0.7818609E-02  0.9112376E-01
       -2   -1    0    0    0  501  0.00000000000E+00  0.00000000000E+00  0.13507063545E+03  0.13507063547E+03  0.25500000920E-02 0.  1.
        2   -1    0    0  501    0  0.00000000000E+00  0.00000000000E+00 -0.26677137922E+04  0.26677137922E+04  0.25500000920E-02 0. -1.
    10030    2    1    2    0    0  0.00000000000E+00  0.00000000000E+00 -0.25326431567E+04  0.28027844277E+04  0.12005495361E+04 0.  0.
        5    1    3    3  502    0  0.22376123640E+03 -0.50693790189E+03 -0.72758069036E+03  0.91457688483E+03  0.46999998093E+01 0.  1.
       -5    1    3    3    0  502 -0.22376123640E+03  0.50693790189E+03 -0.18050624664E+04  0.18882075428E+04  0.46999998093E+01 0. -1.
</event>
<event>
 5   0  0.3832662E-04  0.1199036E+04  0.7818609E-02  0.9113701E-01
        2   -1    0    0  501    0  0.00000000000E+00  0.00000000000E+00  0.52151292623E+03  0.52151292623E+03  0.25500000920E-02 0.  1.
       -2   -1    0    0    0  501  0.00000000000E+00  0.00000000000E+00 -0.68919040318E+03  0.68919040318E+03  0.25500000920E-02 0. -1.
    10030    2    1    2    0    0  0.00000000000E+00  0.00000000000E+00 -0.16767747695E+03  0.12107033294E+04  0.11990357858E+04 0.  0.
        4    1    3    3  502    0  0.31092487427E+03  0.46141125545E+03 -0.30927222399E+03  0.63657328371E+03  0.12699999809E+01 0.  1.
       -4    1    3    3    0  502 -0.31092487427E+03 -0.46141125545E+03  0.14159474704E+03  0.57413004571E+03  0.12699999809E+01 0. -1.
</event>
<event>
 5   0  0.2340731E-04  0.1201691E+04  0.7818609E-02  0.9111377E-01
        1   -1    0    0  501    0  0.00000000000E+00  0.00000000000E+00  0.14068052650E+04  0.14068052650E+04  0.50400001928E-02 0. -1.
       -1   -1    0    0    0  501  0.00000000000E+00  0.00000000000E+00 -0.25662079170E+03  0.25662079175E+03  0.50400001928E-02 0.  1.
    10030    2    1    2    0    0  0.00000000000E+00  0.00000000000E+00  0.11501844733E+04  0.16634260568E+04  0.12016912764E+04 0.  0.
        3    1    3    3  502    0 -0.87190089305E+02  0.25635459614E+03 -0.16737494554E+03  0.31833028953E+03  0.10100000352E+00 0.  1.
       -3    1    3    3    0  502  0.87190089305E+02 -0.25635459614E+03  0.13175594188E+04  0.13450957672E+04  0.10100000352E+00 0. -1.
</event>
<event>
 5   0  0.2340731E-04  0.1200026E+04  0.7818609E-02  0.9112834E-01
       -1   -1    0    0    0  501  0.00000000000E+00  0.00000000000E+00  0.45235356103E+03  0.45235356106E+03  0.50400001928E-02 0.  1.
        1   -1    0    0  501    0  0.00000000000E+00  0.00000000000E+00 -0.79587185540E+03  0.79587185541E+03  0.50400001928E-02 0. -1.
    10030    2    1    2    0    0  0.00000000000E+00  0.00000000000E+00 -0.34351829437E+03  0.12482254165E+04  0.12000257796E+04 0.  0.
        3    1    3    3  502    0  0.45507816485E+03 -0.23922733154E+03 -0.49352120260E+03  0.71266334261E+03  0.10100000352E+00 0. -1.
       -3    1    3    3    0  502 -0.45507816485E+03  0.23922733154E+03  0.15000290823E+03  0.53556207386E+03  0.10100000352E+00 0.  1.
</event>
<event>
 5   0  0.3993723E-04  0.1189253E+04  0.7818609E-02  0.9122315E-01
       -2   -1    0    0    0  501  0.00000000000E+00  0.00000000000E+00  0.55856622548E+03  0.55856622548E+03  0.25500000920E-02 0.  1.
        2   -1    0    0  501    0  0.00000000000E+00  0.00000000000E+00 -0.63301520598E+03  0.63301520598E+03  0.25500000920E-02 0. -1.
    10030    2    1    2    0    0  0.00000000000E+00  0.00000000000E+00 -0.74448980499E+02  0.11915814315E+04  0.11892534032E+04 0.  0.
        3    1    3    3  502    0  0.35309134206E+03 -0.14915714204E+03  0.41826364547E+03  0.56733220972E+03  0.10100000352E+00 0.  1.
       -3    1    3    3    0  502 -0.35309134206E+03  0.14915714204E+03 -0.49271262597E+03  0.62424922175E+03  0.10100000352E+00 0. -1.
</event>
<event>
 5   0  0.3832662E-04  0.1195745E+04  0.7818609E-02  0.9116589E-01
       -2   -1    0    0    0  501  0.00000000000E+00  0.00000000000E+00  0.16556424344E+04  0.16556424344E+04  0.25500000920E-02 0. -1.
        2   -1    0    0  501    0  0.00000000000E+00  0.00000000000E+00 -0.21589900038E+03  0.21589900039E+03  0.25500000920E-02 0.  1.
    10030    2    1    2    0    0  0.00000000000E+00  0.00000000000E+00  0.14397434340E+04  0.18715414348E+04  0.11957450340E+04 0.  0.
        4    1    3    3  502    0  0.25339994777E+03 -0.51730853940E+03  0.46929685752E+03  0.74300794870E+03  0.12699999809E+01 0. -1.
       -4    1    3    3    0  502 -0.25339994777E+03  0.51730853940E+03  0.97044657648E+03  0.11285334861E+04  0.12699999809E+01 0.  1.
</event>
<event>
 5   0  0.2204090E-04  0.1199983E+04  0.7818609E-02  0.9112872E-01
       -1   -1    0    0    0  501  0.00000000000E+00  0.00000000000E+00  0.85371343777E+03  0.85371343779E+03  0.50400001928E-02 0. -1.
        1   -1    0    0  501    0  0.00000000000E+00  0.00000000000E+00 -0.42167489987E+03  0.42167489990E+03  0.50400001928E-02 0.  1.
    10030    2    1    2    0    0  0.00000000000E+00  0.00000000000E+00  0.43203853791E+03  0.12753883377E+04  0.11999825472E+04 0.  0.
        2    1    3    3  502    0  0.48103146238E+03  0.21096812770E+03  0.52422557526E+03  0.74209923357E+03  0.25500000920E-02 0. -1.
       -2    1    3    3    0  502 -0.48103146238E+03 -0.21096812770E+03 -0.92187037347E+02  0.53328910411E+03  0.25500000920E-02 0.  1.
</event>
<event>
 5   0  0.2315038E-04  0.1195178E+04  0.7818609E-02  0.9117088E-01
       -1   -1    0    0    0  501  0.00000000000E+00  0.00000000000E+00  0.17616773267E+04  0.17616773268E+04  0.50400001928E-02 0. -1.
        1   -1    0    0  501    0  0.00000000000E+00  0.00000000000E+00 -0.20271167683E+03  0.20271167689E+03  0.50400001928E-02 0.  1.
    10030    2    1    2    0    0  0.00000000000E+00  0.00000000000E+00  0.15589656499E+04  0.19643890036E+04  0.11951779198E+04 0.  0.
        1    1    3    3  502    0 -0.35299560912E+03 -0.43551449737E+03  0.43931896416E+03  0.71223586667E+03  0.50400001928E-02 0.  1.
       -1    1    3    3    0  502  0.35299560912E+03  0.43551449737E+03  0.11196466858E+04  0.12521531370E+04  0.50400001928E-02 0. -1.
</event>
<event>
 5   0  0.2204090E-04  0.1199737E+04  0.7818609E-02  0.9113087E-01
        1   -1    0    0  501    0  0.00000000000E+00  0.00000000000E+00  0.50926817819E+03  0.50926817821E+03  0.50400001928E-02 0. -1.
       -1   -1    0    0    0  501  0.00000000000E+00  0.00000000000E+00 -0.70658669631E+03  0.70658669633E+03  0.50400001928E-02 0.  1.
    10030    2    1    2    0    0  0.00000000000E+00  0.00000000000E+00 -0.19731851812E+03  0.12158548745E+04  0.11997368371E+04 0.  0.
        2    1    3    3  502    0 -0.36497416178E+03  0.47547635554E+03 -0.74715245965E+02  0.60404161398E+03  0.25500000920E-02 0. -1.
       -2    1    3    3    0  502  0.36497416178E+03 -0.47547635554E+03 -0.12260327216E+03  0.61181326055E+03  0.25500000920E-02 0.  1.
</event>
<event>
 5   0  0.1541375E-04  0.1199023E+04  0.7818609E-02  0.9113712E-01
        3   -1    0    0  501    0  0.00000000000E+00  0.00000000000E+00  0.63351127048E+03  0.63351127853E+03  0.10100000352E+00 0.  1.
       -3   -1    0    0    0  501  0.00000000000E+00  0.00000000000E+00 -0.56733679364E+03  0.56733680263E+03  0.10100000352E+00 0. -1.
    10030    2    1    2    0    0  0.00000000000E+00  0.00000000000E+00  0.66174476836E+02  0.12008480812E+04  0.11990233745E+04 0.  0.
        1    1    3    3  502    0 -0.40032341271E+03  0.41788836368E+03 -0.12375486538E+03  0.59178102876E+03  0.50400001928E-02 0. -1.
       -1    1    3    3    0  502  0.40032341271E+03 -0.41788836368E+03  0.18992934222E+03  0.60906705240E+03  0.50400001928E-02 0.  1.
</event>
<event>
 5   0  0.3832662E-04  0.1202299E+04  0.7818609E-02  0.9110846E-01
       -2   -1    0    0    0  501  0.00000000000E+00  0.00000000000E+00  0.22134530314E+03  0.22134530315E+03  0.25500000920E-02 0. -1.
        2   -1    0    0  501    0  0.00000000000E+00  0.00000000000E+00 -0.16326563985E+04  0.16326563985E+04  0.25500000920E-02 0.  1.
    10030    2    1    2    0    0  0.00000000000E+00  0.00000000000E+00 -0.14113110954E+04  0.18540017017E+04  0.12022991732E+04 0.  0.
        4    1    3    3  502    0  0.32295130802E+03  0.50286325279E+03 -0.80571305438E+03  0.10031670535E+04  0.12699999809E+01 0.  1.
       -4    1    3    3    0  502 -0.32295130802E+03 -0.50286325279E+03 -0.60559804103E+03  0.85083464818E+03  0.12699999809E+01 0. -1.
</event>
<event>
 5   0  0.3832662E-04  0.1198601E+04  0.7818609E-02  0.9114082E-01
        2   -1    0    0  501    0  0.00000000000E+00  0.00000000000E+00  0.58462569669E+03  0.58462569669E+03  0.25500000920E-02 0.  1.
       -2   -1    0    0    0  501  0.00000000000E+00  0.00000000000E+00 -0.61434398712E+03  0.61434398713E+03  0.25500000920E-02 0. -1.
    10030    2    1    2    0    0  0.00000000000E+00  0.00000000000E+00 -0.29718290437E+02  0.11989696838E+04  0.11986013207E+04 0.  0.
        4    1    3    3  502    0  0.26169695845E+03 -0.53643862545E+03 -0.68801330163E+02  0.60082188116E+03  0.12699999809E+01 0. -1.
       -4    1    3    3    0  502 -0.26169695845E+03  0.53643862545E+03  0.39083039726E+02  0.59814780267E+03  0.12699999809E+01 0.  1.
</event>
<event>
 5   0  0.4122956E-04  0.1175642E+04  0.7818609E-02  0.9134448E-01
        2   -1    0    0  501    0  0.00000000000E+00  0.00000000000E+00  0.79612256381E+03  0.79612256382E+03  0.25500000920E-02 0.  1.
       -2   -1    0    0    0  501  0.00000000000E+00  0.00000000000E+00 -0.43402070274E+03  0.43402070274E+03  0.25500000920E-02 0. -1.
    10030    2    1    2    0    0  0.00000000000E+00  0.00000000000E+00  0.36210186108E+03  0.12301432666E+04  0.11756422494E+04 0.  0.
        5    1    3    3  502    0 -0.27743081013E+03  0.18639768673E+02  0.72293563313E+03  0.77457944398E+03  0.46999998093E+01 0.  1.
       -5    1    3    3    0  502  0.27743081013E+03 -0.18639768673E+02 -0.36083377206E+03  0.45556382258E+03  0.46999998093E+01 0. -1.
</event>
<event>
 5   0  0.1541375E-04  0.1235259E+04  0.7818609E-02  0.9082542E-01
       -3   -1    0    0    0  501  0.00000000000E+00  0.00000000000E+00  0.54578134439E+03  0.54578135374E+03  0.10100000352E+00 0. -1.
        3   -1    0    0  501    0  0.00000000000E+00  0.00000000000E+00 -0.69893623509E+03  0.69893624239E+03  0.10100000352E+00 0.  1.
    10030    2    1    2    0    0  0.00000000000E+00  0.00000000000E+00 -0.15315489070E+03  0.12447175961E+04  0.12352592738E+04 0.  0.
        5    1    3    3  502    0  0.16771341323E+03  0.29680069561E+03  0.44236670384E+03  0.55850589304E+03  0.46999998093E+01 0. -1.
       -5    1    3    3    0  502 -0.16771341323E+03 -0.29680069561E+03 -0.59552159454E+03  0.68621170309E+03  0.46999998093E+01 0.  1.
</event>
<event>
 5   0  0.2340731E-04  0.1215484E+04  0.7818609E-02  0.9099410E-01
       -1   -1    0    0    0  501  0.00000000000E+00  0.00000000000E+00  0.90188077119E+03  0.90188077121E+03  0.50400001928E-02 0.  1.
        1   -1    0    0  501    0  0.00000000000E+00  0.00000000000E+00 -0.40953348236E+03  0.40953348239E+03  0.50400001928E-02 0. -1.
    10030    2    1    2    0    0  0.00000000000E+00  0.00000000000E+00  0.49234728884E+03  0.13114142536E+04  0.12154840565E+04 0.  0.
        3    1    3    3  502    0 -0.23957339648E+03 -0.14702166727E+03 -0.33518449198E+03  0.43744649594E+03  0.10100000352E+00 0. -1.
       -3    1    3    3    0  502  0.23957339648E+03  0.14702166727E+03  0.82753178082E+03  0.87396775765E+03  0.10100000352E+00 0.  1.
</event>
<event>
 5   0  0.2204090E-04  0.1199660E+04  0.7818609E-02  0.9113155E-01
       -1   -1    0    0    0  501  0.00000000000E+00  0.00000000000E+00  0.53595779424E+03  0.53595779426E+03  0.50400001928E-02 0.  1.
        1   -1    0    0  501    0  0.00000000000E+00  0.00000000000E+00 -0.67131369829E+03  0.67131369831E+03  0.50400001928E-02 0. -1.
    10030    2    1    2    0    0  0.00000000000E+00  0.00000000000E+00 -0.13535590405E+03  0.12072714926E+04  0.11996596334E+04 0.  0.
        2    1    3    3  502    0  0.31806005999E+03 -0.14133715194E+02 -0.57926741953E+03  0.66099372691E+03  0.25500000920E-02 0. -1.
       -2    1    3    3    0  502 -0.31806005999E+03  0.14133715194E+02  0.44391151549E+03  0.54627776566E+03  0.25500000920E-02 0.  1.
</event>
<event>
 5   0  0.4024486E-04  0.1197924E+04  0.7818609E-02  0.9114676E-01
       -2   -1    0    0    0  501  0.00000000000E+00  0.00000000000E+00  0.51134013499E+03  0.51134013499E+03  0.25500000920E-02 0.  1.
        2   -1    0    0  501    0  0.00000000000E+00  0.00000000000E+00 -0.70159847050E+03  0.70159847051E+03  0.25500000920E-02 0. -1.
    10030    2    1    2    0    0  0.00000000000E+00  0.00000000000E+00 -0.19025833552E+03  0.12129386055E+04  0.11979239652E+04 0.  0.
        1    1    3    3  502    0  0.29279618846E+03 -0.76394991376E+02 -0.61851189322E+03  0.68856573016E+03  0.50400001928E-02 0. -1.
       -1    1    3    3    0  502 -0.29279618846E+03  0.76394991376E+02  0.42825355770E+03  0.52437287534E+03  0.50400001928E-02 0.  1.
</event>
<event>
 5   0  0.2204090E-04  0.1203889E+04  0.7818609E-02  0.9109459E-01
       -1   -1    0    0    0  501  0.00000000000E+00  0.00000000000E+00  0.46343126975E+03  0.46343126978E+03  0.50400001928E-02 0.  1.
        1   -1    0    0  501    0  0.00000000000E+00  0.00000000000E+00 -0.78185756190E+03  0.78185756192E+03  0.50400001928E-02 0. -1.
    10030    2    1    2    0    0  0.00000000000E+00  0.00000000000E+00 -0.31842629215E+03  0.12452888317E+04  0.12038891024E+04 0.  0.
        2    1    3    3  502    0 -0.28369046822E+03  0.37188130563E+03  0.23271119221E+03  0.52242749374E+03  0.25500000920E-02 0.  1.
       -2    1    3    3    0  502  0.28369046822E+03 -0.37188130563E+03 -0.55113748436E+03  0.72286133795E+03  0.25500000920E-02 0. -1.
</event>
<event>
 5   0  0.3832662E-04  0.1199530E+04  0.7818609E-02  0.9113268E-01
       -2   -1    0    0    0  501  0.00000000000E+00  0.00000000000E+00  0.42360501851E+03  0.42360501852E+03  0.25500000920E-02 0. -1.
        2   -1    0    0  501    0  0.00000000000E+00  0.00000000000E+00 -0.84918252212E+03  0.84918252213E+03  0.25500000920E-02 0.  1.
    10030    2    1    2    0    0  0.00000000000E+00  0.00000000000E+00 -0.42557750361E+03  0.12727875406E+04  0.11995298713E+04 0.  0.
        4    1    3    3  502    0  0.69612608170E+02 -0.41621128923E+03  0.23943038420E+03  0.48518684471E+03  0.12699999809E+01 0. -1.
       -4    1    3    3    0  502 -0.69612608170E+02  0.41621128923E+03 -0.66500788781E+03  0.78760069594E+03  0.12699999809E+01 0.  1.
</event>
<event>
 5   0  0.1541375E-04  0.1236487E+04  0.7818609E-02  0.9081505E-01
        3   -1    0    0  501    0  0.00000000000E+00  0.00000000000E+00  0.11162249651E+04  0.11162249696E+04  0.10100000352E+00 0.  1.
       -3   -1    0    0    0  501  0.00000000000E+00  0.00000000000E+00 -0.34242676758E+03  0.34242678247E+03  0.10100000352E+00 0. -1.
    10030    2    1    2    0    0  0.00000000000E+00  0.00000000000E+00  0.77379819749E+03  0.14586517521E+04  0.12364874781E+04 0.  0.
        2    1    3    3  502    0  0.35752411002E+03 -0.46576263775E+03  0.61524138107E+03  0.85045886494E+03  0.25500000920E-02 0.  1.
       -2    1    3    3    0  502 -0.35752411002E+03  0.46576263775E+03  0.15855681642E+03  0.60819288717E+03  0.25500000920E-02 0. -1.
</event>
<event>
 5   0  0.3883890E-04  0.1197404E+04  0.7818609E-02  0.9115132E-01
       -2   -1    0    0    0  501  0.00000000000E+00  0.00000000000E+00  0.19800790891E+03  0.19800790893E+03  0.25500000920E-02 0.  1.
        2   -1    0    0  501    0  0.00000000000E+00  0.00000000000E+00 -0.18102520637E+04  0.18102520637E+04  0.25500000920E-02 0. -1.
    10030    2    1    2    0    0  0.00000000000E+00  0.00000000000E+00 -0.16122441548E+04  0.20082599726E+04  0.11974042354E+04 0.  0.
        2    1    3    3  502    0  0.58498204176E+02 -0.48016827583E+03 -0.21443087818E+03  0.52911644704E+03  0.25500000920E-02 0.  1.
       -2    1    3    3    0  502 -0.58498204176E+02  0.48016827583E+03 -0.13978132766E+04  0.14791435256E+04  0.25500000920E-02 0. -1.
</event>
<event>
 5   0  0.2304842E-04  0.1199257E+04  0.7818609E-02  0.9113507E-01
        1   -1    0    0  501    0  0.00000000000E+00  0.00000000000E+00  0.87920572352E+03  0.87920572353E+03  0.50400001928E-02 0.  1.
       -1   -1    0    0    0  501  0.00000000000E+00  0.00000000000E+00 -0.40895344555E+03  0.40895344558E+03  0.50400001928E-02 0. -1.
    10030    2    1    2    0    0  0.00000000000E+00  0.00000000000E+00  0.47025227797E+03  0.12881591691E+04  0.11992567865E+04 0.  0.
        4    1    3    3  502    0 -0.29946633627E+02  0.76820444325E+02  0.87308632166E+03  0.87697178946E+03  0.12699999809E+01 0.  1.
       -4    1    3    3    0  502  0.29946633627E+02 -0.76820444325E+02 -0.40283404369E+03  0.41118737966E+03  0.12699999809E+01 0. -1.
</event>
<event>
 5   0  0.3832662E-04  0.1199348E+04  0.7818609E-02  0.9113428E-01
        2   -1    0    0  501    0  0.00000000000E+00  0.00000000000E+00  0.77832283196E+03  0.77832283197E+03  0.25500000920E-02 0. -1.
       -2   -1    0    0    0  501  0.00000000000E+00  0.00000000000E+00 -0.46203022977E+03  0.46203022977E+03  0.25500000920E-02 0.  1.
    10030    2    1    2    0    0  0.00000000000E+00  0.00000000000E+00  0.31629260220E+03  0.12403530617E+04  0.11993476175E+04 0.  0.
        4    1    3    3  502    0 -0.94597353408E+02 -0.64463375481E+02  0.76691689954E+03  0.77541429555E+03  0.12699999809E+01 0. -1.
       -4    1    3    3    0  502  0.94597353408E+02  0.64463375481E+02 -0.45062429734E+03  0.46493876619E+03  0.12699999809E+01 0.  1.
</event>
<event>
 5   0  0.2340731E-04  0.1198441E+04  0.7818609E-02  0.9114222E-01
       -1   -1    0    0    0  501  0.00000000000E+00  0.00000000000E+00  0.80212457974E+03  0.80212457975E+03  0.50400001928E-02 0. -1.
        1   -1    0    0  501    0  0.00000000000E+00  0.00000000000E+00 -0.44764303974E+03  0.44764303977E+03  0.50400001928E-02 0.  1.
    10030    2    1    2    0    0  0.00000000000E+00  0.00000000000E+00  0.35448153999E+03  0.12497676195E+04  0.11984414632E+04 0.  0.
        3    1    3    3  502    0  0.42211789930E+03 -0.29575148128E+03  0.49596577584E+03  0.71528632071E+03  0.10100000352E+00 0.  1.
       -3    1    3    3    0  502 -0.42211789930E+03  0.29575148128E+03 -0.14148423585E+03  0.53448129881E+03  0.10100000352E+00 0. -1.
</event>
<event>
 5   0  0.4122956E-04  0.1199755E+04  0.7818609E-02  0.9113071E-01
        2   -1    0    0  501    0  0.00000000000E+00  0.00000000000E+00  0.14173183592E+04  0.14173183592E+04  0.25500000920E-02 0. -1.
       -2   -1    0    0    0  501  0.00000000000E+00  0.00000000000E+00 -0.25389717650E+03  0.25389717652E+03  0.25500000920E-02 0.  1.
    10030    2    1    2    0    0  0.00000000000E+00  0.00000000000E+00  0.11634211827E+04  0.16712155357E+04  0.11997551911E+04 0.  0.
        5    1    3    3  502    0  0.17163526213E+03  0.19712731207E+03 -0.17037789190E+03  0.31203935076E+03  0.46999998093E+01 0.  1.
       -5    1    3    3    0  502 -0.17163526213E+03 -0.19712731207E+03  0.13337990746E+04  0.13591761849E+04  0.46999998093E+01 0. -1.
</event>
<event>
 5   0  0.4122956E-04  0.1200674E+04  0.7818609E-02  0.9112267E-01
        2   -1    0    0  501    0  0.00000000000E+00  0.00000000000E+00  0.17080673398E+04  0.17080673398E+04  0.25500000920E-02 0. -1.
       -2   -1    0    0    0  501  0.00000000000E+00  0.00000000000E+00 -0.21100145995E+03  0.21100145996E+03  0.25500000920E-02 0.  1.
    10030    2    1    2    0    0  0.00000000000E+00  0.00000000000E+00  0.14970658799E+04  0.19190687998E+04  0.12006743146E+04 0.  0.
        5    1    3    3  502    0 -0.27290354962E+03 -0.36471533949E+03  0.12357120818E+03  0.47200165227E+03  0.46999998093E+01 0.  1.
       -5    1    3    3    0  502  0.27290354962E+03  0.36471533949E+03  0.13734946717E+04  0.14470671475E+04  0.46999998093E+01 0. -1.
</event>
<event>
 5   0  0.4024486E-04  0.1210180E+04  0.7818609E-02  0.9103992E-01
        2   -1    0    0  501    0  0.00000000000E+00  0.00000000000E+00  0.92220016764E+03  0.92220016764E+03  0.25500000920E-02 0. -1.
       -2   -1    0    0    0  501  0.00000000000E+00  0.00000000000E+00 -0.39702228768E+03  0.39702228768E+03  0.25500000920E-02 0.  1.
    10030    2    1    2    0    0  0.00000000000E+00  0.00000000000E+00  0.52517787996E+03  0.13192224553E+04  0.12101801854E+04 0.  0.
        1    1    3    3  502    0 -0.79247426830E+02 -0.10564957081E+03 -0.38111921342E+03  0.40335324634E+03  0.50400001928E-02 0.  1.
       -1    1    3    3    0  502  0.79247426830E+02  0.10564957081E+03  0.90629709338E+03  0.91586920898E+03  0.50400001928E-02 0. -1.
</event>
<event>
 5   0  0.2204090E-04  0.1198957E+04  0.7818609E-02  0.9113770E-01
       -1   -1    0    0    0  501  0.00000000000E+00  0.00000000000E+00  0.26098252421E+03  0.26098252426E+03  0.50400001928E-02 0.  1.
        1   -1    0    0  501    0  0.00000000000E+00  0.00000000000E+00 -0.13770052578E+04  0.13770052578E+04  0.50400001928E-02 0. -1.
    10030    2    1    2    0    0  0.00000000000E+00  0.00000000000E+00 -0.11160227336E+04  0.16379877821E+04  0.11989567266E+04 0.  0.
        2    1    3    3  502    0 -0.55776215848E+03  0.12812884888E+01 -0.25784365361E+03  0.61447832903E+03  0.25500000920E-02 0.  1.
       -2    1    3    3    0  502  0.55776215848E+03 -0.12812884888E+01 -0.85817907998E+03  0.10235094530E+04  0.25500000920E-02 0. -1.
</event>
<event>
 5   0  0.2340731E-04  0.1199209E+04  0.7818609E-02  0.9113549E-01
       -1   -1    0    0    0  501  0.00000000000E+00  0.00000000000E+00  0.32071285713E+03  0.32071285717E+03  0.50400001928E-02 0. -1.
        1   -1    0    0  501    0  0.00000000000E+00  0.00000000000E+00 -0.11210195524E+04  0.11210195524E+04  0.50400001928E-02 0.  1.
    10030    2    1    2    0    0  0.00000000000E+00  0.00000000000E+00 -0.80030669528E+03  0.14417324096E+04  0.11992087117E+04 0.  0.
        3    1    3    3  502    0 -0.28556023349E+02  0.18029329194E+03  0.28649550369E+03  0.33970693462E+03  0.10100000352E+00 0. -1.
       -3    1    3    3    0  502  0.28556023349E+02 -0.18029329194E+03 -0.10868021990E+04  0.11020254750E+04  0.10100000352E+00 0.  1.
</event>
<event>
 5   0  0.2315038E-04  0.1199275E+04  0.7818609E-02  0.9113491E-01
        1   -1    0    0  501    0  0.00000000000E+00  0.00000000000E+00  0.56638625799E+03  0.56638625801E+03  0.50400001928E-02 0. -1.
       -1   -1    0    0    0  501  0.00000000000E+00  0.00000000000E+00 -0.63484110543E+03  0.63484110545E+03  0.50400001928E-02 0.  1.
    10030    2    1    2    0    0  0.00000000000E+00  0.00000000000E+00 -0.68454847441E+02  0.12012273635E+04  0.11992752447E+04 0.  0.
        1    1    3    3  502    0 -0.23922060842E+03 -0.11939698472E+03  0.50338001288E+03  0.56997682132E+03  0.50400001928E-02 0. -1.
       -1    1    3    3    0  502  0.23922060842E+03  0.11939698472E+03 -0.57183486032E+03  0.63125054214E+03  0.50400001928E-02 0.  1.
</event>
<event>
 5   0  0.3832662E-04  0.1197846E+04  0.7818609E-02  0.9114744E-01
        2   -1    0    0  501    0  0.00000000000E+00  0.00000000000E+00  0.78154121345E+03  0.78154121345E+03  0.25500000920E-02 0.  1.
       -2   -1    0    0    0  501  0.00000000000E+00  0.00000000000E+00 -0.45897642930E+03  0.45897642931E+03  0.25500000920E-02 0. -1.
    10030    2    1    2    0    0  0.00000000000E+00  0.00000000000E+00  0.32256478414E+03  0.12405176428E+04  0.11978463933E+04 0.  0.
        4    1    3    3  502    0  0.34043755147E+03  0.24125903343E+03 -0.28367872050E+03  0.50455810075E+03  0.12699999809E+01 0. -1.
       -4    1    3    3    0  502 -0.34043755147E+03 -0.24125903343E+03  0.60624350465E+03  0.73595954202E+03  0.12699999809E+01 0.  1.
</event>
<event>
 5   0  0.2244308E-04  0.1199687E+04  0.7818609E-02  0.9113131E-01
       -1   -1    0    0    0  501  0.00000000000E+00  0.00000000000E+00  0.60866314390E+03  0.60866314392E+03  0.50400001928E-02 0.  1.
        1   -1    0    0  501    0  0.00000000000E+00  0.00000000000E+00 -0.59115121310E+03  0.59115121312E+03  0.50400001928E-02 0. -1.
    10030    2    1    2    0    0  0.00000000000E+00  0.00000000000E+00  0.17511930798E+02  0.11998143570E+04  0.11996865522E+04 0.  0.
        5    1    3    3  502    0  0.37555498292E+03 -0.15260812904E+03 -0.43339867622E+03  0.59345369558E+03  0.46999998093E+01 0. -1.
       -5    1    3    3    0  502 -0.37555498292E+03  0.15260812904E+03  0.45091060702E+03  0.60636066146E+03  0.46999998093E+01 0.  1.
</event>
<event>
 5   0  0.2304842E-04  0.1181293E+04  0.7818609E-02  0.9129390E-01
        1   -1    0    0  501    0  0.00000000000E+00  0.00000000000E+00  0.18822546701E+04  0.18822546701E+04  0.50400001928E-02 0. -1.
       -1   -1    0    0    0  501  0.00000000000E+00  0.00000000000E+00 -0.18534343384E+03  0.18534343391E+03  0.50400001928E-02 0.  1.
    10030    2    1    2    0    0  0.00000000000E+00  0.00000000000E+00  0.16969112362E+04  0.20675981040E+04  0.11812934335E+04 0.  0.
        4    1    3    3  502    0 -0.55856518933E+03 -0.18278465513E+03  0.74555101643E+03  0.94934357947E+03  0.12699999809E+01 0. -1.
       -4    1    3    3    0  502  0.55856518933E+03  0.18278465513E+03  0.95136021981E+03  0.11182545245E+04  0.12699999809E+01 0.  1.
</event>
<event>
 5   0  0.2204090E-04  0.1199971E+04  0.7818609E-02  0.9112882E-01
        1   -1    0    0  501    0  0.00000000000E+00  0.00000000000E+00  0.90133242838E+03  0.90133242839E+03  0.50400001928E-02 0. -1.
       -1   -1    0    0    0  501  0.00000000000E+00  0.00000000000E+00 -0.39938963985E+03  0.39938963989E+03  0.50400001928E-02 0.  1.
    10030    2    1    2    0    0  0.00000000000E+00  0.00000000000E+00  0.50194278852E+03  0.13007220683E+04  0.11999713896E+04 0.  0.
        2    1    3    3  502    0  0.53234303631E+03 -0.27583218652E+03  0.22648417884E+03  0.64091152798E+03  0.25500000920E-02 0.  1.
       -2    1    3    3    0  502 -0.53234303631E+03  0.27583218652E+03  0.27545860969E+03  0.65981054030E+03  0.25500000920E-02 0. -1.
</event>
<event>
 5   0  0.3993723E-04  0.1198119E+04  0.7818609E-02  0.9114505E-01
       -2   -1    0    0    0  501  0.00000000000E+00  0.00000000000E+00  0.36858835448E+03  0.36858835449E+03  0.25500000920E-02 0. -1.
        2   -1    0    0  501    0  0.00000000000E+00  0.00000000000E+00 -0.97363902002E+03  0.97363902003E+03  0.25500000920E-02 0.  1.
    10030    2    1    2    0    0  0.00000000000E+00  0.00000000000E+00 -0.60505066554E+03  0.13422273745E+04  0.11981185321E+04 0.  0.
        3    1    3    3  502    0 -0.36531066566E+03 -0.43967005999E+03 -0.10177844290E+03  0.58062079341E+03  0.10100000352E+00 0. -1.
       -3    1    3    3    0  502  0.36531066566E+03  0.43967005999E+03 -0.50327222265E+03  0.76160658111E+03  0.10100000352E+00 0.  1.
</event>
<event>
 5   0  0.3832662E-04  0.1199239E+04  0.7818609E-02  0.9113523E-01
       -2   -1    0    0    0  501  0.00000000000E+00  0.00000000000E+00  0.32911484605E+03  0.32911484606E+03  0.25500000920E-02 0.  1.
        2   -1    0    0  501    0  0.00000000000E+00  0.00000000000E+00 -0.10924554575E+04  0.10924554575E+04  0.25500000920E-02 0. -1.
    10030    2    1    2    0    0  0.00000000000E+00  0.00000000000E+00 -0.76334061148E+03  0.14215703036E+04  0.11992386080E+04 0.  0.
        4    1    3    3  502    0  0.11676870291E+03 -0.57095719789E+03 -0.54895223390E+03  0.80061052941E+03  0.12699999809E+01 0. -1.
       -4    1    3    3    0  502 -0.11676870291E+03  0.57095719789E+03 -0.21438837758E+03  0.62095977418E+03  0.12699999809E+01 0.  1.
</event>
<event>
 5   0  0.4024486E-04  0.1200784E+04  0.7818609E-02  0.9112171E-01
       -2   -1    0    0    0  501  0.00000000000E+00  0.00000000000E+00  0.34178973446E+03  0.34178973447E+03  0.25500000920E-02 0.  1.
        2   -1    0    0  501    0  0.00000000000E+00  0.00000000000E+00 -0.10546559787E+04  0.10546559787E+04  0.25500000920E-02 0. -1.
    10030    2    1    2    0    0  0.00000000000E+00  0.00000000000E+00 -0.71286624427E+03  0.13964457132E+04  0.12007840554E+04 0.  0.
        1    1    3    3  502    0  0.13526796950E+03  0.24151034969E+03  0.26315126913E+03  0.38193358461E+03  0.50400001928E-02 0.  1.
       -1    1    3    3    0  502 -0.13526796950E+03 -0.24151034969E+03 -0.97601751340E+03  0.10145121286E+04  0.50400001928E-02 0. -1.
</event>
<event>
 5   0  0.3993723E-04  0.1199635E+04  0.7818609E-02  0.9113176E-01
        2   -1    0    0  501    0  0.00000000000E+00  0.00000000000E+00  0.69415792343E+03  0.69415792343E+03  0.25500000920E-02 0.  1.
       -2   -1    0    0    0  501  0.00000000000E+00  0.00000000000E+00 -0.51829823601E+03  0.51829823602E+03  0.25500000920E-02 0. -1.
    10030    2    1    2    0    0  0.00000000000E+00  0.00000000000E+00  0.17585968741E+03  0.12124561595E+04  0.11996346564E+04 0.  0.
        3    1    3    3  502    0 -0.20091324260E+03  0.17116758738E+03 -0.45645138022E+03  0.52726876138E+03  0.10100000352E+00 0. -1.
       -3    1    3    3    0  502  0.20091324260E+03 -0.17116758738E+03  0.63231106764E+03  0.68518739807E+03  0.10100000352E+00 0.  1.
</event>
<event>
 5   0  0.2244308E-04  0.1198010E+04  0.7818609E-02  0.9114600E-01
       -1   -1    0    0    0  501  0.00000000000E+00  0.00000000000E+00  0.25526508966E+03  0.25526508971E+03  0.50400001928E-02 0.  1.
        1   -1    0    0  501    0  0.00000000000E+00  0.00000000000E+00 -0.14056259600E+04  0.14056259600E+04  0.50400001928E-02 0. -1.
    10030    2    1    2    0    0  0.00000000000E+00  0.00000000000E+00 -0.11503608704E+04  0.16608910497E+04  0.11980104119E+04 0.  0.
        5    1    3    3  502    0  0.43713064871E+01 -0.39654158646E+03  0.47177886332E+02  0.39938976085E+03  0.46999998093E+01 0.  1.
       -5    1    3    3    0  502 -0.43713064871E+01  0.39654158646E+03 -0.11975387567E+04  0.12615012889E+04  0.46999998093E+01 0. -1.
</event>
<event>
 5   0  0.2304842E-04  0.1188270E+04  0.7818609E-02  0.9123186E-01
       -1   -1    0    0    0  501  0.00000000000E+00  0.00000000000E+00  0.63236103373E+03  0.63236103375E+03  0.50400001928E-02 0.  1.
        1   -1    0    0  501    0  0.00000000000E+00  0.00000000000E+00 -0.55821938014E+03  0.55821938017E+03  0.50400001928E-02 0. -1.
    10030    2    1    2    0    0  0.00000000000E+00  0.00000000000E+00  0.74141653592E+02  0.11905804139E+04  0.11882696399E+04 0.  0.
        4    1    3    3  502    0 -0.11399576290E+03  0.51018254670E+03  0.31995532199E+03  0.61290642507E+03  0.12699999809E+01 0. -1.
       -4    1    3    3    0  502  0.11399576290E+03 -0.51018254670E+03 -0.24581366840E+03  0.57767398885E+03  0.12699999809E+01 0.  1.
</event>
<event>
 5   0  0.2244308E-04  0.1207006E+04  0.7818609E-02  0.9106746E-01
       -1   -1    0    0    0  501  0.00000000000E+00  0.00000000000E+00  0.25021564962E+03  0.25021564967E+03  0.50400001928E-02 0.  1.
        1   -1    0    0  501    0  0.00000000000E+00  0.00000000000E+00 -0.14556089361E+04  0.14556089361E+04  0.50400001928E-02 0. -1.
    10030    2    1    2    0    0  0.00000000000E+00  0.00000000000E+00 -0.12053932865E+04  0.17058245858E+04  0.12070064384E+04 0.  0.
        5    1    3    3  502    0 -0.58119575972E+03 -0.12532330773E+03 -0.74888359658E+03  0.95621293329E+03  0.46999998093E+01 0. -1.
       -5    1    3    3    0  502  0.58119575972E+03  0.12532330773E+03 -0.45650968992E+03  0.74961165250E+03  0.46999998093E+01 0.  1.
</event>
<event>
 5   0  0.2315038E-04  0.1197386E+04  0.7818609E-02  0.9115148E-01
        1   -1    0    0  501    0  0.00000000000E+00  0.00000000000E+00  0.75428150969E+03  0.75428150970E+03  0.50400001928E-02 0.  1.
       -1   -1    0    0    0  501  0.00000000000E+00  0.00000000000E+00 -0.47519797569E+03  0.47519797572E+03  0.50400001928E-02 0. -1.
    10030    2    1    2    0    0  0.00000000000E+00  0.00000000000E+00  0.27908353399E+03  0.12294794854E+04  0.11973855629E+04 0.  0.
        1    1    3    3  502    0 -0.14706692077E+03  0.22817591122E+03 -0.40837122915E+03  0.49036719555E+03  0.50400001928E-02 0. -1.
       -1    1    3    3    0  502  0.14706692077E+03 -0.22817591122E+03  0.68745476314E+03  0.73911228987E+03  0.50400001928E-02 0.  1.
</event>
<event>
 5   0  0.3832662E-04  0.1199917E+04  0.7818609E-02  0.9112929E-01
        2   -1    0    0  501    0  0.00000000000E+00  0.00000000000E+00  0.11479085754E+04  0.11479085754E+04  0.25500000920E-02 0. -1.
       -2   -1    0    0    0  501  0.00000000000E+00  0.00000000000E+00 -0.31357049195E+03  0.31357049196E+03  0.25500000920E-02 0.  1.
    10030    2    1    2    0    0  0.00000000000E+00  0.00000000000E+00  0.83433808345E+03  0.14614790674E+04  0.11999170917E+04 0.  0.
        4    1    3    3  502    0  0.95820253184E+02 -0.35960340352E+03  0.99033668892E+03  0.10579529758E+04  0.12699999809E+01 0. -1.
       -4    1    3    3    0  502 -0.95820253184E+02  0.35960340352E+03 -0.15599860547E+03  0.40352609153E+03  0.12699999809E+01 0.  1.
</event>
<event>
 5   0  0.4024486E-04  0.1210934E+04  0.7818609E-02  0.9103339E-01
        2   -1    0    0  501    0  0.00000000000E+00  0.00000000000E+00  0.30788874050E+03  0.30788874052E+03  0.25500000920E-02 0.  1.
       -2   -1    0    0    0  501  0.00000000000E+00  0.00000000000E+00 -0.11906592776E+04  0.11906592776E+04  0.25500000920E-02 0. -1.
    10030    2    1    2    0    0  0.00000000000E+00  0.00000000000E+00 -0.88277053706E+03  0.14985480181E+04  0.12109344910E+04 0.  0.
        1    1    3    3  502    0  0.24753585214E+03 -0.33775362430E+03  0.99790488318E+02  0.43047607414E+03  0.50400001928E-02 0.  1.
       -1    1    3    3    0  502 -0.24753585214E+03  0.33775362430E+03 -0.98256102538E+03  0.10680719439E+04  0.50400001928E-02 0. -1.
</event>
<event>
 5   0  0.3883890E-04  0.1197090E+04  0.7818609E-02  0.9115408E-01
        2   -1    0    0  501    0  0.00000000000E+00  0.00000000000E+00  0.40412400932E+03  0.40412400933E+03  0.25500000920E-02 0.  1.
       -2   -1    0    0    0  501  0.00000000000E+00  0.00000000000E+00 -0.88650016473E+03  0.88650016474E+03  0.25500000920E-02 0. -1.
    10030    2    1    2    0    0  0.00000000000E+00  0.00000000000E+00 -0.48237615542E+03  0.12906241741E+04  0.11970898059E+04 0.  0.
        2    1    3    3  502    0 -0.14506557951E+03 -0.68821581312E+02 -0.86284808836E+03  0.87766010277E+03  0.25500000920E-02 0. -1.
       -2    1    3    3    0  502  0.14506557951E+03  0.68821581312E+02  0.38047193294E+03  0.41296407129E+03  0.25500000920E-02 0.  1.
</event>
<event>
 5   0  0.2340731E-04  0.1199275E+04  0.7818609E-02  0.9113492E-01
        1   -1    0    0  501    0  0.00000000000E+00  0.00000000000E+00  0.10647453405E+04  0.10647453405E+04  0.50400001928E-02 0. -1.
       -1   -1    0    0    0  501  0.00000000000E+00  0.00000000000E+00 -0.33770038485E+03  0.33770038488E+03  0.50400001928E-02 0.  1.
    10030    2    1    2    0    0  0.00000000000E+00  0.00000000000E+00  0.72704495568E+03  0.14024457254E+04  0.11992746329E+04 0.  0.
        3    1    3    3  502    0 -0.38870504638E+03  0.78870528040E+01 -0.17033806053E+03  0.42446305346E+03  0.10100000352E+00 0.  1.
       -3    1    3    3    0  502  0.38870504638E+03 -0.78870528040E+01  0.89738301622E+03  0.97798267197E+03  0.10100000352E+00 0. -1.
</event>
<event>
 5   0  0.3993723E-04  0.1200775E+04  0.7818609E-02  0.9112178E-01
        2   -1    0    0  501    0  0.00000000000E+00  0.00000000000E+00  0.15652260436E+04  0.15652260436E+04  0.25500000920E-02 0. -1.
       -2   -1    0    0    0  501  0.00000000000E+00  0.00000000000E+00 -0.23029600728E+03  0.23029600729E+03  0.25500000920E-02 0.  1.
    10030    2    1    2    0    0  0.00000000000E+00  0.00000000000E+00  0.13349300363E+04  0.17955220509E+04  0.12007752635E+04 0.  0.
        3    1    3    3  502    0 -0.28110188175E+03  0.35608483298E+03  0.12555022789E+04  0.13349534294E+04  0.10100000352E+00 0. -1.
       -3    1    3    3    0  502  0.28110188175E+03 -0.35608483298E+03  0.79427757365E+02  0.46056862142E+03  0.10100000352E+00 0.  1.
</event>
<event>
 5   0  0.4122956E-04  0.1202211E+04  0.7818609E-02  0.9110924E-01
       -2   -1    0    0    0  501  0.00000000000E+00  0.00000000000E+00  0.64503926722E+03  0.64503926723E+03  0.25500000920E-02 0.  1.
        2   -1    0    0  501    0  0.00000000000E+00  0.00000000000E+00 -0.56016366224E+03  0.56016366225E+03  0.25500000920E-02 0. -1.
    10030    2    1    2    0    0  0.00000000000E+00  0.00000000000E+00  0.84875604980E+02  0.12052029295E+04  0.12022105610E+04 0.  0.
        5    1    3    3  502    0  0.20876383985E+03 -0.22157272121E+03  0.56202185153E+03  0.63919282161E+03  0.46999998093E+01 0.  1.
       -5    1    3    3    0  502 -0.20876383985E+03  0.22157272121E+03 -0.47714624654E+03  0.56601010786E+03  0.46999998093E+01 0. -1.
</event>
<event>
 5   0  0.4024486E-04  0.1200270E+04  0.7818609E-02  0.9112620E-01
        2   -1    0    0  501    0  0.00000000000E+00  0.00000000000E+00  0.11295277248E+04  0.11295277248E+04  0.25500000920E-02 0.  1.
       -2   -1    0    0    0  501  0.00000000000E+00  0.00000000000E+00 -0.31886057887E+03  0.31886057888E+03  0.25500000920E-02 0. -1.
    10030    2    1    2    0    0  0.00000000000E+00  0.00000000000E+00  0.81066714589E+03  0.14483883036E+04  0.12002697433E+04 0.  0.
        1    1    3    3  502    0 -0.34857453868E+03 -0.23813878724E+03  0.92006333978E+03  0.10122898993E+04  0.50400001928E-02 0.  1.
       -1    1    3    3    0  502  0.34857453868E+03  0.23813878724E+03 -0.10939619389E+03  0.43609840434E+03  0.50400001928E-02 0. -1.
</event>
<event>
 5   0  0.2340731E-04  0.1202487E+04  0.7818609E-02  0.9110682E-01
       -1   -1    0    0    0  501  0.00000000000E+00  0.00000000000E+00  0.31802931967E+03  0.31802931971E+03  0.50400001928E-02 0.  1.
        1   -1    0    0  501    0  0.00000000000E+00  0.00000000000E+00 -0.11366681501E+04  0.11366681501E+04  0.50400001928E-02 0. -1.
    10030    2    1    2    0    0  0.00000000000E+00  0.00000000000E+00 -0.81863883045E+03  0.14546974698E+04  0.12024870869E+04 0.  0.
        3    1    3    3  502    0  0.45633016739E+03 -0.21123615715E+03 -0.80804935823E+03  0.95173615634E+03  0.10100000352E+00 0. -1.
       -3    1    3    3    0  502 -0.45633016739E+03  0.21123615715E+03 -0.10589472217E+02  0.50296131350E+03  0.10100000352E+00 0.  1.
</event>
<event>
 5   0  0.2304842E-04  0.1200182E+04  0.7818609E-02  0.9112697E-01
       -1   -1    0    0    0  501  0.00000000000E+00  0.00000000000E+00  0.66549898645E+03  0.66549898647E+03  0.50400001928E-02 0. -1.
        1   -1    0    0  501    0  0.00000000000E+00  0.00000000000E+00 -0.54111162578E+03  0.54111162580E+03  0.50400001928E-02 0.  1.
    10030    2    1    2    0    0  0.00000000000E+00  0.00000000000E+00  0.12438736067E+03  0.12066106123E+04  0.12001820504E+04 0.  0.
        4    1    3    3  502    0 -0.29622299192E+03 -0.47504921403E+03 -0.15503729887E+03  0.58091134748E+03  0.12699999809E+01 0.  1.
       -4    1    3    3    0  502  0.29622299192E+03  0.47504921403E+03  0.27942465954E+03  0.62569926479E+03  0.12699999809E+01 0. -1.
</event>
<event>
 5   0  0.2340731E-04  0.1197268E+04  0.7818609E-02  0.9115251E-01
       -1   -1    0    0    0  501  0.00000000000E+00  0.00000000000E+00  0.33653445209E+03  0.33653445213E+03  0.50400001928E-02 0. -1.
        1   -1    0    0  501    0  0.00000000000E+00  0.00000000000E+00 -0.10648613709E+04  0.10648613709E+04  0.50400001928E-02 0.  1.
    10030    2    1    2    0    0  0.00000000000E+00  0.00000000000E+00 -0.72832691877E+03  0.14013958230E+04  0.11972677863E+04 0.  0.
        3    1    3    3  502    0  0.11006677774E+02  0.58454961147E+03 -0.21361427860E+03  0.62245519152E+03  0.10100000352E+00 0. -1.
       -3    1    3    3    0  502 -0.11006677774E+02 -0.58454961147E+03 -0.51471264017E+03  0.77894063148E+03  0.10100000352E+00 0.  1.
</event>
<event>
 5   0  0.3832662E-04  0.1197746E+04  0.7818609E-02  0.9114832E-01
        2   -1    0    0  501    0  0.00000000000E+00  0.00000000000E+00  0.48093796190E+03  0.48093796191E+03  0.25500000920E-02 0. -1.
       -2   -1    0    0    0  501  0.00000000000E+00  0.00000000000E+00 -0.74572782461E+03  0.74572782461E+03  0.25500000920E-02 0.  1.
    10030    2    1    2    0    0  0.00000000000E+00  0.00000000000E+00 -0.26478986271E+03  0.12266657865E+04  0.11977459165E+04 0.  0.
        4    1    3    3  502    0  0.53606294653E+03  0.23275210461E+03  0.15693049567E+01  0.58441517816E+03  0.12699999809E+01 0. -1.
       -4    1    3    3    0  502 -0.53606294653E+03 -0.23275210461E+03 -0.26635916767E+03  0.64225060836E+03  0.12699999809E+01 0.  1.
</event>
<event>
 5   0  0.4122956E-04  0.1200696E+04  0.7818609E-02  0.9112247E-01
        2   -1    0    0  501    0  0.00000000000E+00  0.00000000000E+00  0.11152676196E+04  0.11152676196E+04  0.25500000920E-02 0. -1.
       -2   -1    0    0    0  501  0.00000000000E+00  0.00000000000E+00 -0.32316714332E+03  0.32316714333E+03  0.25500000920E-02 0.  1.
    10030    2    1    2    0    0  0.00000000000E+00  0.00000000000E+00  0.79210047625E+03  0.14384347629E+04  0.12006962158E+04 0.  0.
        5    1    3    3  502    0 -0.28025832267E+03 -0.29712803381E+03  0.92312415693E+03  0.10094602989E+04  0.46999998093E+01 0. -1.
       -5    1    3    3    0  502  0.28025832267E+03  0.29712803381E+03 -0.13102368067E+03  0.42897446404E+03  0.46999998093E+01 0.  1.
</event>
<event>
 5   0  0.3883890E-04  0.1200269E+04  0.7818609E-02  0.9112621E-01
       -2   -1    0    0    0  501  0.00000000000E+00  0.00000000000E+00  0.51586074822E+03  0.51586074822E+03  0.25500000920E-02 0. -1.
        2   -1    0    0  501    0  0.00000000000E+00  0.00000000000E+00 -0.69817530817E+03  0.69817530817E+03  0.25500000920E-02 0.  1.
    10030    2    1    2    0    0  0.00000000000E+00  0.00000000000E+00 -0.18231455995E+03  0.12140360564E+04  0.12002686980E+04 0.  0.
        2    1    3    3  502    0 -0.57584739079E+03 -0.70038645863E+02 -0.24672524026E+03  0.63038002315E+03  0.25500000920E-02 0.  1.
       -2    1    3    3    0  502  0.57584739079E+03  0.70038645863E+02  0.64410680310E+02  0.58365603324E+03  0.25500000920E-02 0. -1.
</event>
<event>
 5   0  0.3993723E-04  0.1198819E+04  0.7818609E-02  0.9113891E-01
        2   -1    0    0  501    0  0.00000000000E+00  0.00000000000E+00  0.14625307478E+04  0.14625307478E+04  0.25500000920E-02 0. -1.
       -2   -1    0    0    0  501  0.00000000000E+00  0.00000000000E+00 -0.24566438952E+03  0.24566438953E+03  0.25500000920E-02 0.  1.
    10030    2    1    2    0    0  0.00000000000E+00  0.00000000000E+00  0.12168663583E+04  0.17081951373E+04  0.11988189577E+04 0.  0.
        3    1    3    3  502    0 -0.19337212181E+03  0.11853312932E+03 -0.18215922035E+03  0.29090354415E+03  0.10100000352E+00 0.  1.
       -3    1    3    3    0  502  0.19337212181E+03 -0.11853312932E+03  0.13990255786E+04  0.14172915932E+04  0.10100000352E+00 0. -1.
</event>
<event>
 5   0  0.3883890E-04  0.1188129E+04  0.7818609E-02  0.9123311E-01
        2   -1    0    0  501    0  0.00000000000E+00  0.00000000000E+00  0.47438280983E+03  0.47438280984E+03  0.25500000920E-02 0. -1.
       -2   -1    0    0    0  501  0.00000000000E+00  0.00000000000E+00 -0.74394008101E+03  0.74394008102E+03  0.25500000920E-02 0.  1.
    10030    2    1    2    0    0  0.00000000000E+00  0.00000000000E+00 -0.26955727118E+03  0.12183228909E+04  0.11881285890E+04 0.  0.
        2    1    3    3  502    0  0.57155383304E+03 -0.52979821363E+02 -0.29174306011E+03  0.64389025358E+03  0.25500000920E-02 0. -1.
       -2    1    3    3    0  502 -0.57155383304E+03  0.52979821363E+02  0.22185788927E+02  0.57443263728E+03  0.25500000920E-02 0.  1.
</event>
<event>
 5   0  0.3993723E-04  0.1202068E+04  0.7818609E-02  0.9111048E-01
        2   -1    0    0  501    0  0.00000000000E+00  0.00000000000E+00  0.64599964825E+03  0.64599964826E+03  0.25500000920E-02 0.  1.
       -2   -1    0    0    0  501  0.00000000000E+00  0.00000000000E+00 -0.55919809416E+03  0.55919809416E+03  0.25500000920E-02 0. -1.
    10030    2    1    2    0    0  0.00000000000E+00  0.00000000000E+00  0.86801554096E+02  0.12051977424E+04  0.12020678386E+04 0.  0.
        3    1    3    3  502    0 -0.34600528427E+03  0.43860697942E+03 -0.17886547210E+03  0.58659066345E+03  0.10100000352E+00 0.  1.
       -3    1    3    3    0  502  0.34600528427E+03 -0.43860697942E+03  0.26566702620E+03  0.61860707897E+03  0.10100000352E+00 0. -1.
</event>
<event>
 5   0  0.3993723E-04  0.1199541E+04  0.7818609E-02  0.9113258E-01
        2   -1    0    0  501    0  0.00000000000E+00  0.00000000000E+00  0.31365970355E+04  0.31365970355E+04  0.25500000920E-02 0. -1.
       -2   -1    0    0    0  501  0.00000000000E+00  0.00000000000E+00 -0.11468637123E+03  0.11468637126E+03  0.25500000920E-02 0.  1.
    10030    2    1    2    0    0  0.00000000000E+00  0.00000000000E+00  0.30219106642E+04  0.32512834067E+04  0.11995414658E+04 0.  0.
        3    1    3    3  502    0 -0.52700643120E+02 -0.59267837123E+03  0.17152280558E+04  0.18155033195E+04  0.10100000352E+00 0.  1.
       -3    1    3    3    0  502  0.52700643120E+02  0.59267837123E+03  0.13066826084E+04  0.14357800872E+04  0.10100000352E+00 0. -1.
</event>
<event>
 5   0  0.3883890E-04  0.1199727E+04  0.7818609E-02  0.9113096E-01
       -2   -1    0    0    0  501  0.00000000000E+00  0.00000000000E+00  0.30884684535E+03  0.30884684536E+03  0.25500000920E-02 0. -1.
        2   -1    0    0  501    0  0.00000000000E+00  0.00000000000E+00 -0.11650951806E+04  0.11650951806E+04  0.25500000920E-02 0.  1.
    10030    2    1    2    0    0  0.00000000000E+00  0.00000000000E+00 -0.85624833521E+03  0.14739420259E+04  0.11997265873E+04 0.  0.
        2    1    3    3  502    0 -0.12204874457E+03 -0.50222419579E+02 -0.11470370640E+04  0.11546047868E+04  0.25500000920E-02 0.  1.
       -2    1    3    3    0  502  0.12204874457E+03  0.50222419579E+02  0.29078872881E+03  0.31933723912E+03  0.25500000920E-02 0. -1.
</event>
<event>
 5   0  0.2340731E-04  0.1197816E+04  0.7818609E-02  0.9114770E-01
        1   -1    0    0  501    0  0.00000000000E+00  0.00000000000E+00  0.13409829617E+04  0.13409829617E+04  0.50400001928E-02 0. -1.
       -1   -1    0    0    0  501  0.00000000000E+00  0.00000000000E+00 -0.26748345321E+03  0.26748345325E+03  0.50400001928E-02 0.  1.
    10030    2    1    2    0    0  0.00000000000E+00  0.00000000000E+00  0.10734995085E+04  0.16084664150E+04  0.11978159347E+04 0.  0.
        3    1    3    3  502    0  0.35842564116E+03 -0.47047894493E+03  0.41027112749E+03  0.71982066247E+03  0.10100000352E+00 0.  1.
       -3    1    3    3    0  502 -0.35842564116E+03  0.47047894493E+03  0.66322838103E+03  0.88864575252E+03  0.10100000352E+00 0. -1.
</event>
<event>
 5   0  0.2204090E-04  0.1205214E+04  0.7818609E-02  0.9108305E-01
       -1   -1    0    0    0  501  0.00000000000E+00  0.00000000000E+00  0.15202903494E+04  0.15202903494E+04  0.50400001928E-02 0.  1.
        1   -1    0    0  501    0  0.00000000000E+00  0.00000000000E+00 -0.23885894252E+03  0.23885894257E+03  0.50400001928E-02 0. -1.
    10030    2    1    2    0    0  0.00000000000E+00  0.00000000000E+00  0.12814314069E+04  0.17591492920E+04  0.12052135831E+04 0.  0.
        2    1    3    3  502    0  0.11530546780E+03  0.12520923372E+03  0.14844726636E+04  0.14941993816E+04  0.25500000920E-02 0.  1.
       -2    1    3    3    0  502 -0.11530546780E+03 -0.12520923372E+03 -0.20304125665E+03  0.26494991041E+03  0.25500000920E-02 0. -1.
</event>
<event>
 5   0  0.2204090E-04  0.1201047E+04  0.7818609E-02  0.9111941E-01
        1   -1    0    0  501    0  0.00000000000E+00  0.00000000000E+00  0.37069864640E+03  0.37069864643E+03  0.50400001928E-02 0.  1.
       -1   -1    0    0    0  501  0.00000000000E+00  0.00000000000E+00 -0.97283389335E+03  0.97283389336E+03  0.50400001928E-02 0. -1.
    10030    2    1    2    0    0  0.00000000000E+00  0.00000000000E+00 -0.60213524695E+03  0.13435325398E+04  0.12010465561E+04 0.  0.
        2    1    3    3  502    0 -0.42245066522E+03 -0.42679044429E+03 -0.30518680970E+03  0.67361237868E+03  0.25500000920E-02 0. -1.
       -2    1    3    3    0  502  0.42245066522E+03  0.42679044429E+03 -0.29694843725E+03  0.66992016112E+03  0.25500000920E-02 0.  1.
</event>
<event>
 5   0  0.2340731E-04  0.1201009E+04  0.7818609E-02  0.9111973E-01
        1   -1    0    0  501    0  0.00000000000E+00  0.00000000000E+00  0.28459325674E+03  0.28459325679E+03  0.50400001928E-02 0.  1.
       -1   -1    0    0    0  501  0.00000000000E+00  0.00000000000E+00 -0.12670923136E+04  0.12670923136E+04  0.50400001928E-02 0. -1.
    10030    2    1    2    0    0  0.00000000000E+00  0.00000000000E+00 -0.98249905690E+03  0.15516855704E+04  0.12010094557E+04 0.  0.
        3    1    3    3  502    0  0.14604630339E+03  0.41228678663E+03 -0.10228442309E+04  0.11124388739E+04  0.10100000352E+00 0. -1.
       -3    1    3    3    0  502 -0.14604630339E+03 -0.41228678663E+03  0.40345174043E+02  0.43924669655E+03  0.10100000352E+00 0.  1.
</event>
<event>
 5   0  0.4024486E-04  0.1200464E+04  0.7818609E-02  0.9112451E-01
        2   -1    0    0  501    0  0.00000000000E+00  0.00000000000E+00  0.69841395917E+03  0.69841395918E+03  0.25500000920E-02 0. -1.
       -2   -1    0    0    0  501  0.00000000000E+00  0.00000000000E+00 -0.51585189425E+03  0.51585189426E+03  0.25500000920E-02 0.  1.
    10030    2    1    2    0    0  0.00000000000E+00  0.00000000000E+00  0.18256206492E+03  0.12142658534E+04  0.12004635168E+04 0.  0.
        1    1    3    3  502    0  0.20280587043E+03  0.56440368167E+03  0.66578390787E+02  0.60341894163E+03  0.50400001928E-02 0. -1.
       -1    1    3    3    0  502 -0.20280587043E+03 -0.56440368167E+03  0.11598367413E+03  0.61084691180E+03  0.50400001928E-02 0.  1.
</event>
<event>
 5   0  0.2340731E-04  0.1200036E+04  0.7818609E-02  0.9112825E-01
        1   -1    0    0  501    0  0.00000000000E+00  0.00000000000E+00  0.47105250492E+03  0.47105250494E+03  0.50400001928E-02 0.  1.
       -1   -1    0    0    0  501  0.00000000000E+00  0.00000000000E+00 -0.76429162007E+03  0.76429162008E+03  0.50400001928E-02 0. -1.
    10030    2    1    2    0    0  0.00000000000E+00  0.00000000000E+00 -0.29323911515E+03  0.12353441250E+04  0.12000358030E+04 0.  0.
        3    1    3    3  502    0 -0.52805222326E+03 -0.28492469230E+03 -0.14611401029E+03  0.61755205851E+03  0.10100000352E+00 0.  1.
       -3    1    3    3    0  502  0.52805222326E+03  0.28492469230E+03 -0.14712510486E+03  0.61779206651E+03  0.10100000352E+00 0. -1.
</event>
<event>
 5   0  0.3993723E-04  0.1199996E+04  0.7818609E-02  0.9112860E-01
       -2   -1    0    0    0  501  0.00000000000E+00  0.00000000000E+00  0.16892781702E+03  0.16892781704E+03  0.25500000920E-02 0. -1.
        2   -1    0    0  501    0  0.00000000000E+00  0.00000000000E+00 -0.21310742419E+04  0.21310742419E+04  0.25500000920E-02 0.  1.
    10030    2    1    2    0    0  0.00000000000E+00  0.00000000000E+00 -0.19621464249E+04  0.23000020589E+04  0.11999961993E+04 0.  0.
        3    1    3    3  502    0 -0.36726316718E+03 -0.19561312946E+03 -0.15256647757E+03  0.44319665010E+03  0.10100000352E+00 0. -1.
       -3    1    3    3    0  502  0.36726316718E+03  0.19561312946E+03 -0.18095799473E+04  0.18568054088E+04  0.10100000352E+00 0.  1.
</event>
<event>
 5   0  0.2315038E-04  0.1202680E+04  0.7818609E-02  0.9110514E-01
        1   -1    0    0  501    0  0.00000000000E+00  0.00000000000E+00  0.90694326641E+03  0.90694326643E+03  0.50400001928E-02 0.  1.
       -1   -1    0    0    0  501  0.00000000000E+00  0.00000000000E+00 -0.39871282665E+03  0.39871282668E+03  0.50400001928E-02 0. -1.
    10030    2    1    2    0    0  0.00000000000E+00  0.00000000000E+00  0.50823043976E+03  0.13056560931E+04  0.12026801959E+04 0.  0.
        1    1    3    3  502    0  0.60278289833E+02  0.59445252347E+03  0.32776680066E+03  0.68149713904E+03  0.50400001928E-02 0.  1.
       -1    1    3    3    0  502 -0.60278289833E+02 -0.59445252347E+03  0.18046363910E+03  0.62415895407E+03  0.50400001928E-02 0. -1.
</event>
<event>
 5   0  0.3832662E-04  0.1199371E+04  0.7818609E-02  0.9113407E-01
        2   -1    0    0  501    0  0.00000000000E+00  0.00000000000E+00  0.41947795423E+03  0.41947795424E+03  0.25500000920E-02 0. -1.
       -2   -1    0    0    0  501  0.00000000000E+00  0.00000000000E+00 -0.85731029402E+03  0.85731029402E+03  0.25500000920E-02 0.  1.
    10030    2    1    2    0    0  0.00000000000E+00  0.00000000000E+00 -0.43783233979E+03  0.12767882483E+04  0.11993711157E+04 0.  0.
        4    1    3    3  502    0 -0.17730814081E+03  0.41431094450E+03 -0.64009184334E+03  0.78282240409E+03  0.12699999809E+01 0.  1.
       -4    1    3    3    0  502  0.17730814081E+03 -0.41431094450E+03  0.20225950355E+03  0.49396584417E+03  0.12699999809E+01 0. -1.
</event>
<event>
 5   0  0.3832662E-04  0.1218716E+04  0.7818609E-02  0.9096631E-01
       -2   -1    0    0    0  501  0.00000000000E+00  0.00000000000E+00  0.33310302436E+03  0.33310302437E+03  0.25500000920E-02 0.  1.
        2   -1    0    0  501    0  0.00000000000E+00  0.00000000000E+00 -0.11147211064E+04  0.11147211064E+04  0.25500000920E-02 0. -1.
    10030    2    1    2    0    0  0.00000000000E+00  0.00000000000E+00 -0.78161808203E+03  0.14478241308E+04  0.12187156713E+04 0.  0.
        4    1    3    3  502    0  0.12037019254E+03  0.48533820496E+03  0.22900787119E+02  0.50056789290E+03  0.12699999809E+01 0. -1.
       -4    1    3    3    0  502 -0.12037019254E+03 -0.48533820496E+03 -0.80451886915E+03  0.94725623786E+03  0.12699999809E+01 0.  1.
</event>
<event>
 5   0  0.2244308E-04  0.1202218E+04  0.7818609E-02  0.9110918E-01
        1   -1    0    0  501    0  0.00000000000E+00  0.00000000000E+00  0.47039804320E+03  0.47039804322E+03  0.50400001928E-02 0. -1.
       -1   -1    0    0    0  501  0.00000000000E+00  0.00000000000E+00 -0.76814050019E+03  0.76814050021E+03  0.50400001928E-02 0.  1.
    10030    2    1    2    0    0  0.00000000000E+00  0.00000000000E+00 -0.29774245700E+03  0.12385385434E+04  0.12022175980E+04 0.  0.
        5    1    3    3  502    0  0.44584148104E+03 -0.38426163830E+03 -0.27453198685E+03  0.64947789392E+03  0.46999998093E+01 0.  1.
       -5    1    3    3    0  502 -0.44584148104E+03  0.38426163830E+03 -0.23210470148E+02  0.58906064952E+03  0.46999998093E+01 0. -1.
</event>
<event>
 5   0  0.2340731E-04  0.1200659E+04  0.7818609E-02  0.9112280E-01
        1   -1    0    0  501    0  0.00000000000E+00  0.00000000000E+00  0.12356557183E+04  0.12356557183E+04  0.50400001928E-02 0. -1.
       -1   -1    0    0    0  501  0.00000000000E+00  0.00000000000E+00 -0.29166316339E+03  0.29166316343E+03  0.50400001928E-02 0.  1.
    10030    2    1    2    0    0  0.00000000000E+00  0.00000000000E+00  0.94399255492E+03  0.15273188818E+04  0.12006585788E+04 0.  0.
        3    1    3    3  502    0  0.16884749939E+03 -0.22455312096E+03  0.11468658029E+04  0.11807771857E+04  0.10100000352E+00 0. -1.
       -3    1    3    3    0  502 -0.16884749939E+03  0.22455312096E+03 -0.20287324796E+03  0.34654169608E+03  0.10100000352E+00 0.  1.
</event>
<event>
 5   0  0.2204090E-04  0.1199027E+04  0.7818609E-02  0.9113709E-01
        1   -1    0    0  501    0  0.00000000000E+00  0.00000000000E+00  0.23598348537E+03  0.23598348542E+03  0.50400001928E-02 0. -1.
       -1   -1    0    0    0  501  0.00000000000E+00  0.00000000000E+00 -0.15230564650E+04  0.15230564650E+04  0.50400001928E-02 0.  1.
    10030    2    1    2    0    0  0.00000000000E+00  0.00000000000E+00 -0.12870729796E+04  0.17590399504E+04  0.11990265603E+04 0.  0.
        2    1    3    3  502    0 -0.33902113192E+02  0.46979499853E+03 -0.99419657684E+02  0.48139480914E+03  0.25500000920E-02 0. -1.
       -2    1    3    3    0  502  0.33902113192E+02 -0.46979499853E+03 -0.11876533220E+04  0.12776451413E+04  0.25500000920E-02 0.  1.
</event>
<event>
 5   0  0.3832662E-04  0.1201793E+04  0.7818609E-02  0.9111289E-01
        2   -1    0    0  501    0  0.00000000000E+00  0.00000000000E+00  0.12316803629E+04  0.12316803629E+04  0.25500000920E-02 0.  1.
       -2   -1    0    0    0  501  0.00000000000E+00  0.00000000000E+00 -0.29315760596E+03  0.29315760597E+03  0.25500000920E-02 0. -1.
    10030    2    1    2    0    0  0.00000000000E+00  0.00000000000E+00  0.93852275696E+03  0.15248379689E+04  0.12017927717E+04 0.  0.
        4    1    3    3  502    0  0.40840294798E+03 -0.44024281658E+03  0.44180863443E+03  0.74552209077E+03  0.12699999809E+01 0.  1.
       -4    1    3    3    0  502 -0.40840294798E+03  0.44024281658E+03  0.49671412252E+03  0.77931587811E+03  0.12699999809E+01 0. -1.
</event>
<event>
 5   0  0.2340731E-04  0.1199308E+04  0.7818609E-02  0.9113462E-01
       -1   -1    0    0    0  501  0.00000000000E+00  0.00000000000E+00  0.40465237724E+03  0.40465237727E+03  0.50400001928E-02 0. -1.
        1   -1    0    0  501    0  0.00000000000E+00  0.00000000000E+00 -0.88862691605E+03  0.88862691607E+03  0.50400001928E-02 0.  1.
    10030    2    1    2    0    0  0.00000000000E+00  0.00000000000E+00 -0.48397453882E+03  0.12932792933E+04  0.11993081240E+04 0.  0.
        3    1    3    3  502    0  0.27860494582E+02 -0.31091951316E+03  0.31012373212E+03  0.44002714717E+03  0.10100000352E+00 0. -1.
       -3    1    3    3    0  502 -0.27860494582E+02  0.31091951316E+03 -0.79409827094E+03  0.85325214616E+03  0.10100000352E+00 0.  1.
</event>
<event>
 5   0  0.3883890E-04  0.1197453E+04  0.7818609E-02  0.9115089E-01
        2   -1    0    0  501    0  0.00000000000E+00  0.00000000000E+00  0.87787484418E+03  0.87787484418E+03  0.25500000920E-02 0. -1.
       -2   -1    0    0    0  501  0.00000000000E+00  0.00000000000E+00 -0.40834249907E+03  0.40834249908E+03  0.25500000920E-02 0.  1.
    10030    2    1    2    0    0  0.00000000000E+00  0.00000000000E+00  0.46953234511E+03  0.12862173433E+04  0.11974533106E+04 0.  0.
        2    1    3    3  502    0 -0.83022175815E+02  0.55723064732E+03  0.17073306312E+02  0.56364011017E+03  0.25500000920E-02 0.  1.
       -2    1    3    3    0  502  0.83022175815E+02 -0.55723064732E+03  0.45245903880E+03  0.72257723309E+03  0.25500000920E-02 0. -1.
</event>
<event>
 5   0  0.3832662E-04  0.1185295E+04  0.7818609E-02  0.9125826E-01
        2   -1    0    0  501    0  0.00000000000E+00  0.00000000000E+00  0.66102176069E+03  0.66102176070E+03  0.25500000920E-02 0.  1.
       -2   -1    0    0    0  501  0.00000000000E+00  0.00000000000E+00 -0.53134544613E+03  0.53134544613E+03  0.25500000920E-02 0. -1.
    10030    2    1    2    0    0  0.00000000000E+00  0.00000000000E+00  0.12967631457E+03  0.11923672068E+04  0.11852947352E+04 0.  0.
        4    1    3    3  502    0  0.21799952598E+03 -0.28022556864E+03  0.54220003513E+03  0.64809926218E+03  0.12699999809E+01 0.  1.
       -4    1    3    3    0  502 -0.21799952598E+03  0.28022556864E+03 -0.41252372056E+03  0.54426794465E+03  0.12699999809E+01 0. -1.
</event>
<event>
 5   0  0.2244308E-04  0.1180232E+04  0.7818609E-02  0.9130337E-01
       -1   -1    0    0    0  501  0.00000000000E+00  0.00000000000E+00  0.28150049743E+03  0.28150049748E+03  0.50400001928E-02 0. -1.
        1   -1    0    0  501    0  0.00000000000E+00  0.00000000000E+00 -0.12370745634E+04  0.12370745634E+04  0.50400001928E-02 0.  1.
    10030    2    1    2    0    0  0.00000000000E+00  0.00000000000E+00 -0.95557406599E+03  0.15185750609E+04  0.11802323585E+04 0.  0.
        5    1    3    3  502    0  0.34175620404E+03 -0.47400773278E+03 -0.37219829573E+03  0.69284507293E+03  0.46999998093E+01 0. -1.
       -5    1    3    3    0  502 -0.34175620404E+03  0.47400773278E+03 -0.58337577026E+03  0.82572998798E+03  0.46999998093E+01 0.  1.
</event>
<event>
 5   0  0.1541375E-04  0.1199003E+04  0.7818609E-02  0.9113730E-01
       -4   -1    0    0    0  501  0.00000000000E+00  0.00000000000E+00  0.39720792331E+03  0.39720995360E+03  0.12699999809E+01 0.  1.
        4   -1    0    0  501    0  0.00000000000E+00  0.00000000000E+00 -0.90481573879E+03  0.90481663008E+03  0.12699999809E+01 0. -1.
    10030    2    1    2    0    0  0.00000000000E+00  0.00000000000E+00 -0.50760781548E+03  0.13020265837E+04  0.11990027232E+04 0.  0.
        4    1    3    3  502    0 -0.44983285805E+03 -0.11096343286E+03 -0.66693762866E+03  0.81207751910E+03  0.12699999809E+01 0. -1.
       -4    1    3    3    0  502  0.44983285805E+03  0.11096343286E+03  0.15932981318E+03  0.48994906458E+03  0.12699999809E+01 0.  1.
</event>
<event>
 5   0  0.3883890E-04  0.1196152E+04  0.7818609E-02  0.9116231E-01
        2   -1    0    0  501    0  0.00000000000E+00  0.00000000000E+00  0.21346670610E+04  0.21346670610E+04  0.25500000920E-02 0.  1.
       -2   -1    0    0    0  501  0.00000000000E+00  0.00000000000E+00 -0.16756486360E+03  0.16756486362E+03  0.25500000920E-02 0. -1.
    10030    2    1    2    0    0  0.00000000000E+00  0.00000000000E+00  0.19671021974E+04  0.23022319246E+04  0.11961524902E+04 0.  0.
        2    1    3    3  502    0  0.34315611983E+03 -0.20695080410E+02  0.19254950490E+04  0.19559436578E+04  0.25500000920E-02 0.  1.
       -2    1    3    3    0  502 -0.34315611983E+03  0.20695080410E+02  0.41607148446E+02  0.34628826682E+03  0.25500000920E-02 0. -1.
</event>
<event>
 5   0  0.3993723E-04  0.1199915E+04  0.7818609E-02  0.9112931E-01
       -2   -1    0    0    0  501  0.00000000000E+00  0.00000000000E+00  0.26830764056E+03  0.26830764057E+03  0.25500000920E-02 0.  1.
        2   -1    0    0  501    0  0.00000000000E+00  0.00000000000E+00 -0.13415530489E+04  0.13415530489E+04  0.25500000920E-02 0. -1.
    10030    2    1    2    0    0  0.00000000000E+00  0.00000000000E+00 -0.10732454083E+04  0.16098606894E+04  0.11999148857E+04 0.  0.
        3    1    3    3  502    0  0.17208138316E+03 -0.91488383721E+01  0.23438973448E+03  0.29091968222E+03  0.10100000352E+00 0.  1.
       -3    1    3    3    0  502 -0.17208138316E+03  0.91488383721E+01 -0.13076351428E+04  0.13189410072E+04  0.10100000352E+00 0. -1.
</event>
<event>
 5   0  0.4122956E-04  0.1170393E+04  0.7818609E-02  0.9139174E-01
        2   -1    0    0  501    0  0.00000000000E+00  0.00000000000E+00  0.65200236235E+03  0.65200236236E+03  0.25500000920E-02 0. -1.
       -2   -1    0    0    0  501  0.00000000000E+00  0.00000000000E+00 -0.52523553550E+03  0.52523553550E+03  0.25500000920E-02 0.  1.
    10030    2    1    2    0    0  0.00000000000E+00  0.00000000000E+00  0.12676682685E+03  0.11772378979E+04  0.11703927716E+04 0.  0.
        5    1    3    3  502    0 -0.87026696465E+01  0.10498272038E+03 -0.51560071917E+03  0.52627302767E+03  0.46999998093E+01 0.  1.
       -5    1    3    3    0  502  0.87026696465E+01 -0.10498272038E+03  0.64236754603E+03  0.65096487019E+03  0.46999998093E+01 0. -1.
</event>
<event>
 5   0  0.2204090E-04  0.1199417E+04  0.7818609E-02  0.9113367E-01
        1   -1    0    0  501    0  0.00000000000E+00  0.00000000000E+00  0.47281028102E+03  0.47281028105E+03  0.50400001928E-02 0. -1.
       -1   -1    0    0    0  501  0.00000000000E+00  0.00000000000E+00 -0.76066565517E+03  0.76066565519E+03  0.50400001928E-02 0.  1.
    10030    2    1    2    0    0  0.00000000000E+00  0.00000000000E+00 -0.28785537415E+03  0.12334759362E+04  0.11994174289E+04 0.  0.
        2    1    3    3  502    0 -0.36887572216E+02  0.58535524398E+03 -0.15279154651E+02  0.58671535451E+03  0.25500000920E-02 0.  1.
       -2    1    3    3    0  502  0.36887572216E+02 -0.58535524398E+03 -0.27257621950E+03  0.64676058173E+03  0.25500000920E-02 0. -1.
</event>
<event>
 5   0  0.3883890E-04  0.1198487E+04  0.7818609E-02  0.9114182E-01
        2   -1    0    0  501    0  0.00000000000E+00  0.00000000000E+00  0.22357262796E+04  0.22357262796E+04  0.25500000920E-02 0. -1.
       -2   -1    0    0    0  501  0.00000000000E+00  0.00000000000E+00 -0.16061574521E+03  0.16061574523E+03  0.25500000920E-02 0.  1.
    10030    2    1    2    0    0  0.00000000000E+00  0.00000000000E+00  0.20751105343E+04  0.23963420248E+04  0.11984871172E+04 0.  0.
        2    1    3    3  502    0  0.44427453859E+03 -0.37905964210E+03  0.13060120169E+04  0.14306409285E+04  0.25500000920E-02 0. -1.
       -2    1    3    3    0  502 -0.44427453859E+03  0.37905964210E+03  0.76909851744E+03  0.96570109632E+03  0.25500000920E-02 0.  1.
</event>
<event>
 5   0  0.1541375E-04  0.1200095E+04  0.7818609E-02  0.9112774E-01
       -4   -1    0    0    0  501  0.00000000000E+00  0.00000000000E+00  0.93933506026E+03  0.93933591880E+03  0.12699999809E+01 0. -1.
        4   -1    0    0  501    0  0.00000000000E+00  0.00000000000E+00 -0.38330821037E+03  0.38331031429E+03  0.12699999809E+01 0.  1.
    10030    2    1    2    0    0  0.00000000000E+00  0.00000000000E+00  0.55602684989E+03  0.13226462331E+04  0.12000946630E+04 0.  0.
        5    1    3    3  502    0  0.40537162988E+03 -0.43542162104E+03  0.36420839924E+03  0.69755859572E+03  0.46999998093E+01 0. -1.
       -5    1    3    3    0  502 -0.40537162988E+03  0.43542162104E+03  0.19181845065E+03  0.62508763736E+03  0.46999998093E+01 0.  1.
</event>
<event>
 5   0  0.4122956E-04  0.1197812E+04  0.7818609E-02  0.9114774E-01
        2   -1    0    0  501    0  0.00000000000E+00  0.00000000000E+00  0.87021406381E+03  0.87021406382E+03  0.25500000920E-02 0. -1.
       -2   -1    0    0    0  501  0.00000000000E+00  0.00000000000E+00 -0.41218413183E+03  0.41218413184E+03  0.25500000920E-02 0.  1.
    10030    2    1    2    0    0  0.00000000000E+00  0.00000000000E+00  0.45802993198E+03  0.12823981957E+04  0.11978120527E+04 0.  0.
        5    1    3    3  502    0 -0.59370307515E+03  0.26217577529E+02  0.14964737774E+03  0.61285163822E+03  0.46999998093E+01 0.  1.
       -5    1    3    3    0  502  0.59370307515E+03 -0.26217577529E+02  0.30838255424E+03  0.66954655743E+03  0.46999998093E+01 0. -1.
</event>
<event>
 5   0  0.2304842E-04  0.1198793E+04  0.7818609E-02  0.9113913E-01
       -1   -1    0    0    0  501  0.00000000000E+00  0.00000000000E+00  0.38832910421E+03  0.38832910424E+03  0.50400001928E-02 0.  1.
        1   -1    0    0  501    0  0.00000000000E+00  0.00000000000E+00 -0.92518524375E+03  0.92518524377E+03  0.50400001928E-02 0. -1.
    10030    2    1    2    0    0  0.00000000000E+00  0.00000000000E+00 -0.53685613955E+03  0.13135143480E+04  0.11987933216E+04 0.  0.
        4    1    3    3  502    0 -0.37986612477E+03  0.40193855713E+03 -0.52167841124E+03  0.76026498940E+03  0.12699999809E+01 0. -1.
       -4    1    3    3    0  502  0.37986612477E+03 -0.40193855713E+03 -0.15177728310E+02  0.55324935860E+03  0.12699999809E+01 0.  1.
</event>
<event>
 5   0  0.2204090E-04  0.1200130E+04  0.7818609E-02  0.9112743E-01
       -1   -1    0    0    0  501  0.00000000000E+00  0.00000000000E+00  0.66902686286E+03  0.66902686288E+03  0.50400001928E-02 0.  1.
        1   -1    0    0  501    0  0.00000000000E+00  0.00000000000E+00 -0.53821128501E+03  0.53821128504E+03  0.50400001928E-02 0. -1.
    10030    2    1    2    0    0  0.00000000000E+00  0.00000000000E+00  0.13081557785E+03  0.12072381479E+04  0.12001296723E+04 0.  0.
        2    1    3    3  502    0 -0.32790986668E+03  0.49160493740E+03 -0.39505275209E+02  0.59225075932E+03  0.25500000920E-02 0.  1.
       -2    1    3    3    0  502  0.32790986668E+03 -0.49160493740E+03  0.17032085306E+03  0.61498738859E+03  0.25500000920E-02 0. -1.
</event>
<event>
 5   0  0.2315038E-04  0.1199719E+04  0.7818609E-02  0.9113103E-01
        1   -1    0    0  501    0  0.00000000000E+00  0.00000000000E+00  0.68189996219E+03  0.68189996221E+03  0.50400001928E-02 0.  1.
       -1   -1    0    0    0  501  0.00000000000E+00  0.00000000000E+00 -0.52768908154E+03  0.52768908157E+03  0.50400001928E-02 0. -1.
    10030    2    1    2    0    0  0.00000000000E+00  0.00000000000E+00  0.15421088065E+03  0.12095890438E+04  0.11997185750E+04 0.  0.
        1    1    3    3  502    0  0.13326186884E+02  0.31897573983E+03 -0.43491926284E+03  0.53951633439E+03  0.50400001928E-02 0. -1.
       -1    1    3    3    0  502 -0.13326186884E+02 -0.31897573983E+03  0.58913014349E+03  0.67007270938E+03  0.50400001928E-02 0.  1.
</event>
<event>
 5   0  0.4122956E-04  0.1200834E+04  0.7818609E-02  0.9112127E-01
        2   -1    0    0  501    0  0.00000000000E+00  0.00000000000E+00  0.34959919604E+03  0.34959919605E+03  0.25500000920E-02 0. -1.
       -2   -1    0    0    0  501  0.00000000000E+00  0.00000000000E+00 -0.10311822807E+04  0.10311822808E+04  0.25500000920E-02 0.  1.
    10030    2    1    2    0    0  0.00000000000E+00  0.00000000000E+00 -0.68158308471E+03  0.13807814768E+04  0.12008338708E+04 0.  0.
        5    1    3    3  502    0  0.25625812892E+03 -0.14363897963E+01 -0.96511799992E+03  0.99857154757E+03  0.46999998093E+01 0.  1.
       -5    1    3    3    0  502 -0.25625812892E+03  0.14363897963E+01  0.28353491521E+03  0.38220992922E+03  0.46999998093E+01 0. -1.
</event>
<event>
 5   0  0.2244308E-04  0.1198118E+04  0.7818609E-02  0.9114506E-01
       -1   -1    0    0    0  501  0.00000000000E+00  0.00000000000E+00  0.53753310767E+03  0.53753310770E+03  0.50400001928E-02 0.  1.
        1   -1    0    0  501    0  0.00000000000E+00  0.00000000000E+00 -0.66762694797E+03  0.66762694799E+03  0.50400001928E-02 0. -1.
    10030    2    1    2    0    0  0.00000000000E+00  0.00000000000E+00 -0.13009384030E+03  0.12051600557E+04  0.11981178375E+04 0.  0.
        5    1    3    3  502    0 -0.57422557143E+03  0.12873290287E+03 -0.17769773129E+03  0.61474038494E+03  0.46999998093E+01 0.  1.
       -5    1    3    3    0  502  0.57422557143E+03 -0.12873290287E+03  0.47603890997E+02  0.59041967075E+03  0.46999998093E+01 0. -1.
</event>
<event>
 5   0  0.2340731E-04  0.1200560E+04  0.7818609E-02  0.9112366E-01
       -1   -1    0    0    0  501  0.00000000000E+00  0.00000000000E+00  0.15581191310E+03  0.15581191318E+03  0.50400001928E-02 0. -1.
        1   -1    0    0  501    0  0.00000000000E+00  0.00000000000E+00 -0.23126355808E+04  0.23126355808E+04  0.50400001928E-02 0.  1.
    10030    2    1    2    0    0  0.00000000000E+00  0.00000000000E+00 -0.21568236677E+04  0.24684474940E+04  0.12005601597E+04 0.  0.
        3    1    3    3  502    0 -0.14776924573E+03 -0.45530164582E+03 -0.33366571239E+03  0.58349649227E+03  0.10100000352E+00 0. -1.
       -3    1    3    3    0  502  0.14776924573E+03  0.45530164582E+03 -0.18231579553E+04  0.18849510017E+04  0.10100000352E+00 0.  1.
</event>
<event>
 5   0  0.4024486E-04  0.1197891E+04  0.7818609E-02  0.9114705E-01
       -2   -1    0    0    0  501  0.00000000000E+00  0.00000000000E+00  0.64219850997E+03  0.64219850998E+03  0.25500000920E-02 0.  1.
        2   -1    0    0  501    0  0.00000000000E+00  0.00000000000E+00 -0.55860550729E+03  0.55860550729E+03  0.25500000920E-02 0. -1.
    10030    2    1    2    0    0  0.00000000000E+00  0.00000000000E+00  0.83593002686E+02  0.12008040173E+04  0.11978908539E+04 0.  0.
        1    1    3    3  502    0 -0.16513578633E+03  0.14734032327E+03 -0.51611483427E+03  0.56156346121E+03  0.50400001928E-02 0. -1.
       -1    1    3    3    0  502  0.16513578633E+03 -0.14734032327E+03  0.59970783695E+03  0.63924055606E+03  0.50400001928E-02 0.  1.
</event>
<event>
 5   0  0.2315038E-04  0.1200234E+04  0.7818609E-02  0.9112652E-01
       -1   -1    0    0    0  501  0.00000000000E+00  0.00000000000E+00  0.14912266753E+04  0.14912266753E+04  0.50400001928E-02 0. -1.
        1   -1    0    0  501    0  0.00000000000E+00  0.00000000000E+00 -0.24150608287E+03  0.24150608292E+03  0.50400001928E-02 0.  1.
    10030    2    1    2    0    0  0.00000000000E+00  0.00000000000E+00  0.12497205924E+04  0.17327327582E+04  0.12002338323E+04 0.  0.
        1    1    3    3  502    0 -0.33729139456E+03 -0.49000507495E+03  0.73917299036E+03  0.94881355809E+03  0.50400001928E-02 0. -1.
       -1    1    3    3    0  502  0.33729139456E+03  0.49000507495E+03  0.51054760205E+03  0.78391920011E+03  0.50400001928E-02 0.  1.
</event>
<event>
 5   0  0.3993723E-04  0.1200036E+04  0.7818609E-02  0.9112825E-01
        2   -1    0    0  501    0  0.00000000000E+00  0.00000000000E+00  0.59021632131E+03  0.59021632132E+03  0.25500000920E-02 0.  1.
       -2   -1    0    0    0  501  0.00000000000E+00  0.00000000000E+00 -0.60998218139E+03  0.60998218140E+03  0.25500000920E-02 0. -1.
    10030    2    1    2    0    0  0.00000000000E+00  0.00000000000E+00 -0.19765860082E+02  0.12001985027E+04  0.12000357314E+04 0.  0.
        3    1    3    3  502    0  0.43427471783E+03 -0.40742671034E+03 -0.83583997628E+02  0.60131302140E+03  0.10100000352E+00 0. -1.
       -3    1    3    3    0  502 -0.43427471783E+03  0.40742671034E+03  0.63818137547E+02  0.59888548131E+03  0.10100000352E+00 0.  1.
</event>
<event>
 5   0  0.2315038E-04  0.1197706E+04  0.7818609E-02  0.9114867E-01
       -1   -1    0    0    0  501  0.00000000000E+00  0.00000000000E+00  0.70134326203E+03  0.70134326205E+03  0.50400001928E-02 0.  1.
        1   -1    0    0  501    0  0.00000000000E+00  0.00000000000E+00 -0.51134011175E+03  0.51134011178E+03  0.50400001928E-02 0. -1.
    10030    2    1    2    0    0  0.00000000000E+00  0.00000000000E+00  0.19000315028E+03  0.12126833738E+04  0.11977060441E+04 0.  0.
        1    1    3    3  502    0 -0.15391599727E+03 -0.55156123018E+03  0.27245016934E+03  0.63414432084E+03  0.50400001928E-02 0. -1.
       -1    1    3    3    0  502  0.15391599727E+03  0.55156123018E+03 -0.82447019063E+02  0.57853905299E+03  0.50400001928E-02 0.  1.
</event>
<event>
 5   0  0.2304842E-04  0.1196935E+04  0.7818609E-02  0.9115544E-01
       -1   -1    0    0    0  501  0.00000000000E+00  0.00000000000E+00  0.55486626758E+03  0.55486626760E+03  0.50400001928E-02 0. -1.
        1   -1    0    0  501    0  0.00000000000E+00  0.00000000000E+00 -0.64549465094E+03  0.64549465096E+03  0.50400001928E-02 0.  1.
    10030    2    1    2    0    0  0.00000000000E+00  0.00000000000E+00 -0.90628383358E+02  0.12003609186E+04  0.11969347647E+04 0.  0.
        4    1    3    3  502    0 -0.34827509796E+03 -0.47954491182E+03  0.38006288232E+02  0.59388968433E+03  0.12699999809E+01 0. -1.
       -4    1    3    3    0  502  0.34827509796E+03  0.47954491182E+03 -0.12863467159E+03  0.60647123423E+03  0.12699999809E+01 0.  1.
</event>
<event>
 5   0  0.4024486E-04  0.1201755E+04  0.7818609E-02  0.9111322E-01
       -2   -1    0    0    0  501  0.00000000000E+00  0.00000000000E+00  0.45822926775E+03  0.45822926776E+03  0.25500000920E-02 0.  1.
        2   -1    0    0  501    0  0.00000000000E+00  0.00000000000E+00 -0.78793272300E+03  0.78793272300E+03  0.25500000920E-02 0. -1.
    10030    2    1    2    0    0  0.00000000000E+00  0.00000000000E+00 -0.32970345525E+03  0.12461619908E+04  0.12017551077E+04 0.  0.
        1    1    3    3  502    0 -0.17767773055E+02 -0.44387559746E+03 -0.58441703473E+03  0.73408753585E+03  0.50400001928E-02 0. -1.
       -1    1    3    3    0  502  0.17767773055E+02  0.44387559746E+03  0.25471357948E+03  0.51207445492E+03  0.50400001928E-02 0.  1.
</event>
<event>
 5   0  0.2315038E-04  0.1200018E+04  0.7818609E-02  0.9112841E-01
        1   -1    0    0  501    0  0.00000000000E+00  0.00000000000E+00  0.10265026401E+04  0.10265026401E+04  0.50400001928E-02 0. -1.
       -1   -1    0    0    0  501  0.00000000000E+00  0.00000000000E+00 -0.35071576253E+03  0.35071576256E+03  0.50400001928E-02 0.  1.
    10030    2    1    2    0    0  0.00000000000E+00  0.00000000000E+00  0.67578687758E+03  0.13772184027E+04  0.12000177602E+04 0.  0.
        1    1    3    3  502    0 -0.49672999101E+03  0.75975474665E+02 -0.38389674471E+02  0.50397095537E+03  0.50400001928E-02 0.  1.
       -1    1    3    3    0  502  0.49672999101E+03 -0.75975474665E+02  0.71417655205E+03  0.87324744732E+03  0.50400001928E-02 0. -1.
</event>
<event>
 5   0  0.2315038E-04  0.1201148E+04  0.7818609E-02  0.9111852E-01
       -1   -1    0    0    0  501  0.00000000000E+00  0.00000000000E+00  0.10627685554E+04  0.10627685554E+04  0.50400001928E-02 0. -1.
        1   -1    0    0  501    0  0.00000000000E+00  0.00000000000E+00 -0.33938620600E+03  0.33938620603E+03  0.50400001928E-02 0.  1.
    10030    2    1    2    0    0  0.00000000000E+00  0.00000000000E+00  0.72338234942E+03  0.14021547615E+04  0.12011477643E+04 0.  0.
        1    1    3    3  502    0  0.45617349942E+03  0.18584191105E+03  0.76278532133E+03  0.90800491405E+03  0.50400001928E-02 0. -1.
       -1    1    3    3    0  502 -0.45617349942E+03 -0.18584191105E+03 -0.39402971909E+02  0.49414984741E+03  0.50400001928E-02 0.  1.
</event>
<event>
 5   0  0.3993723E-04  0.1195583E+04  0.7818609E-02  0.9116732E-01
       -2   -1    0    0    0  501  0.00000000000E+00  0.00000000000E+00  0.33415547105E+03  0.33415547106E+03  0.25500000920E-02 0.  1.
        2   -1    0    0  501    0  0.00000000000E+00  0.00000000000E+00 -0.10694259483E+04  0.10694259483E+04  0.25500000920E-02 0. -1.
    10030    2    1    2    0    0  0.00000000000E+00  0.00000000000E+00 -0.73527047729E+03  0.14035814194E+04  0.11955827559E+04 0.  0.
        3    1    3    3  502    0  0.11433699429E+03 -0.44697115071E+03 -0.81389675027E+03  0.93556618586E+03  0.10100000352E+00 0. -1.
       -3    1    3    3    0  502 -0.11433699429E+03  0.44697115071E+03  0.78626272975E+02  0.46801523354E+03  0.10100000352E+00 0.  1.
</event>
<event>
 5   0  0.4122956E-04  0.1200235E+04  0.7818609E-02  0.9112650E-01
       -2   -1    0    0    0  501  0.00000000000E+00  0.00000000000E+00  0.41051608640E+03  0.41051608641E+03  0.25500000920E-02 0.  1.
        2   -1    0    0  501    0  0.00000000000E+00  0.00000000000E+00 -0.87728913695E+03  0.87728913695E+03  0.25500000920E-02 0. -1.
    10030    2    1    2    0    0  0.00000000000E+00  0.00000000000E+00 -0.46677305055E+03  0.12878052234E+04  0.12002354821E+04 0.  0.
        5    1    3    3  502    0 -0.40351245636E+03 -0.23818940037E+03 -0.63565759226E+03  0.78970827365E+03  0.46999998093E+01 0. -1.
       -5    1    3    3    0  502  0.40351245636E+03  0.23818940037E+03  0.16888454171E+03  0.49809694971E+03  0.46999998093E+01 0.  1.
</event>
<event>
 5   0  0.3883890E-04  0.1183218E+04  0.7818609E-02  0.9127674E-01
        2   -1    0    0  501    0  0.00000000000E+00  0.00000000000E+00  0.54262334143E+03  0.54262334144E+03  0.25500000920E-02 0.  1.
       -2   -1    0    0    0  501  0.00000000000E+00  0.00000000000E+00 -0.64501722720E+03  0.64501722720E+03  0.25500000920E-02 0. -1.
    10030    2    1    2    0    0  0.00000000000E+00  0.00000000000E+00 -0.10239388577E+03  0.11876405686E+04  0.11832183283E+04 0.  0.
        2    1    3    3  502    0 -0.15060906249E+03 -0.31305115533E+03 -0.53185755364E+03  0.63526102739E+03  0.25500000920E-02 0. -1.
       -2    1    3    3    0  502  0.15060906249E+03  0.31305115533E+03  0.42946366787E+03  0.55237954124E+03  0.25500000920E-02 0.  1.
</event>
<event>
 5   0  0.3883890E-04  0.1199064E+04  0.7818609E-02  0.9113677E-01
        2   -1    0    0  501    0  0.00000000000E+00  0.00000000000E+00  0.52746438666E+03  0.52746438666E+03  0.25500000920E-02 0.  1.
       -2   -1    0    0    0  501  0.00000000000E+00  0.00000000000E+00 -0.68144579931E+03  0.68144579931E+03  0.25500000920E-02 0. -1.
    10030    2    1    2    0    0  0.00000000000E+00  0.00000000000E+00 -0.15398141265E+03  0.12089101860E+04  0.11990636190E+04 0.  0.
        2    1    3    3  502    0  0.55603176895E+03  0.14081829784E+03 -0.25288617658E+03  0.62685926602E+03  0.25500000920E-02 0. -1.
       -2    1    3    3    0  502 -0.55603176895E+03 -0.14081829784E+03  0.98904763926E+02  0.58205091995E+03  0.25500000920E-02 0.  1.
</event>
<event>
 5   0  0.3993723E-04  0.1200292E+04  0.7818609E-02  0.9112601E-01
        2   -1    0    0  501    0  0.00000000000E+00  0.00000000000E+00  0.99043831768E+03  0.99043831768E+03  0.25500000920E-02 0. -1.
       -2   -1    0    0    0  501  0.00000000000E+00  0.00000000000E+00 -0.36365226902E+03  0.36365226902E+03  0.25500000920E-02 0.  1.
    10030    2    1    2    0    0  0.00000000000E+00  0.00000000000E+00  0.62678604866E+03  0.13540905867E+04  0.12002918671E+04 0.  0.
        3    1    3    3  502    0  0.21866274207E+03  0.55564473474E+03  0.24551095901E+03  0.64562381246E+03  0.10100000352E+00 0.  1.
       -3    1    3    3    0  502 -0.21866274207E+03 -0.55564473474E+03  0.38127508965E+03  0.70846677424E+03  0.10100000352E+00 0. -1.
</event>
<event>
 5   0  0.2204090E-04  0.1201648E+04  0.7818609E-02  0.9111415E-01
       -1   -1    0    0    0  501  0.00000000000E+00  0.00000000000E+00  0.31470416156E+03  0.31470416160E+03  0.50400001928E-02 0. -1.
        1   -1    0    0  501    0  0.00000000000E+00  0.00000000000E+00 -0.11470759563E+04  0.11470759563E+04  0.50400001928E-02 0.  1.
    10030    2    1    2    0    0  0.00000000000E+00  0.00000000000E+00 -0.83237179473E+03  0.14617801179E+04  0.12016481633E+04 0.  0.
        2    1    3    3  502    0 -0.10661189621E+02 -0.79627508189E+02 -0.11405126263E+04  0.11433386427E+04  0.25500000920E-02 0.  1.
       -2    1    3    3    0  502  0.10661189621E+02  0.79627508189E+02  0.30814083161E+03  0.31844147521E+03  0.25500000920E-02 0. -1.
</event>
<event>
 5   0  0.4024486E-04  0.1201242E+04  0.7818609E-02  0.9111770E-01
       -2   -1    0    0    0  501  0.00000000000E+00  0.00000000000E+00  0.73018651256E+03  0.73018651256E+03  0.25500000920E-02 0.  1.
        2   -1    0    0  501    0  0.00000000000E+00  0.00000000000E+00 -0.49404563531E+03  0.49404563532E+03  0.25500000920E-02 0. -1.
    10030    2    1    2    0    0  0.00000000000E+00  0.00000000000E+00  0.23614087725E+03  0.12242321479E+04  0.12012417900E+04 0.  0.
        1    1    3    3  502    0  0.31320793960E+03  0.39606929762E+03 -0.21338534253E+03  0.54818190993E+03  0.50400001928E-02 0. -1.
       -1    1    3    3    0  502 -0.31320793960E+03 -0.39606929762E+03  0.44952621978E+03  0.67605023795E+03  0.50400001928E-02 0.  1.
</event>
<event>
 5   0  0.2315038E-04  0.1199392E+04  0.7818609E-02  0.9113388E-01
       -1   -1    0    0    0  501  0.00000000000E+00  0.00000000000E+00  0.18715517973E+03  0.18715517979E+03  0.50400001928E-02 0.  1.
        1   -1    0    0  501    0  0.00000000000E+00  0.00000000000E+00 -0.19215903415E+04  0.19215903415E+04  0.50400001928E-02 0. -1.
    10030    2    1    2    0    0  0.00000000000E+00  0.00000000000E+00 -0.17344351618E+04  0.21087455213E+04  0.11993924892E+04 0.  0.
        1    1    3    3  502    0 -0.35423825327E+03 -0.31321060802E+03 -0.15157206842E+04  0.15877640938E+04  0.50400001928E-02 0. -1.
       -1    1    3    3    0  502  0.35423825327E+03  0.31321060802E+03 -0.21871447757E+03  0.52098142748E+03  0.50400001928E-02 0.  1.
</event>
<event>
 5   0  0.2340731E-04  0.1193708E+04  0.7818609E-02  0.9118382E-01
        1   -1    0    0  501    0  0.00000000000E+00  0.00000000000E+00  0.11084805590E+04  0.11084805590E+04  0.50400001928E-02 0.  1.
       -1   -1    0    0    0  501  0.00000000000E+00  0.00000000000E+00 -0.32137222757E+03  0.32137222761E+03  0.50400001928E-02 0. -1.
    10030    2    1    2    0    0  0.00000000000E+00  0.00000000000E+00  0.78710833142E+03  0.14298527866E+04  0.11937082835E+04 0.  0.
        3    1    3    3  502    0  0.48276655190E+03 -0.22312317343E+03  0.71804598871E+03  0.89355332592E+03  0.10100000352E+00 0.  1.
       -3    1    3    3    0  502 -0.48276655190E+03  0.22312317343E+03  0.69062342717E+02  0.53629946069E+03  0.10100000352E+00 0. -1.
</event>
<event>
 5   0  0.2304842E-04  0.1199450E+04  0.7818609E-02  0.9113339E-01
       -1   -1    0    0    0  501  0.00000000000E+00  0.00000000000E+00  0.54603028953E+03  0.54603028955E+03  0.50400001928E-02 0. -1.
        1   -1    0    0  501    0  0.00000000000E+00  0.00000000000E+00 -0.65869933496E+03  0.65869933498E+03  0.50400001928E-02 0.  1.
    10030    2    1    2    0    0  0.00000000000E+00  0.00000000000E+00 -0.11266904544E+03  0.12047296245E+04  0.11994495214E+04 0.  0.
        4    1    3    3  502    0  0.34098753631E+03  0.32011522934E+03  0.32071368749E+03  0.56710240893E+03  0.12699999809E+01 0.  1.
       -4    1    3    3    0  502 -0.34098753631E+03 -0.32011522934E+03 -0.43338273292E+03  0.63762721560E+03  0.12699999809E+01 0. -1.
</event>
<event>
 5   0  0.3832662E-04  0.1199927E+04  0.7818609E-02  0.9112920E-01
        2   -1    0    0  501    0  0.00000000000E+00  0.00000000000E+00  0.14570235439E+04  0.14570235439E+04  0.25500000920E-02 0.  1.
       -2   -1    0    0    0  501  0.00000000000E+00  0.00000000000E+00 -0.24704913824E+03  0.24704913825E+03  0.25500000920E-02 0. -1.
    10030    2    1    2    0    0  0.00000000000E+00  0.00000000000E+00  0.12099744057E+04  0.17040726822E+04  0.11999273494E+04 0.  0.
        4    1    3    3  502    0 -0.25100182107E+03  0.50784545269E+03  0.88560859196E+03  0.10512911628E+04  0.12699999809E+01 0.  1.
       -4    1    3    3    0  502  0.25100182107E+03 -0.50784545269E+03  0.32436581374E+03  0.65278151936E+03  0.12699999809E+01 0. -1.
</event>
<event>
 5   0  0.2340731E-04  0.1197375E+04  0.7818609E-02  0.9115157E-01
       -1   -1    0    0    0  501  0.00000000000E+00  0.00000000000E+00  0.36718856549E+03  0.36718856552E+03  0.50400001928E-02 0.  1.
        1   -1    0    0  501    0  0.00000000000E+00  0.00000000000E+00 -0.97613816077E+03  0.97613816079E+03  0.50400001928E-02 0. -1.
    10030    2    1    2    0    0  0.00000000000E+00  0.00000000000E+00 -0.60894959529E+03  0.13433267263E+04  0.11973750808E+04 0.  0.
        3    1    3    3  502    0 -0.14158115713E+02  0.53617288362E+03 -0.60287502791E+03  0.80693253922E+03  0.10100000352E+00 0. -1.
       -3    1    3    3    0  502  0.14158115713E+02 -0.53617288362E+03 -0.60745673718E+01  0.53639418709E+03  0.10100000352E+00 0.  1.
</event>
<event>
 5   0  0.4122956E-04  0.1199578E+04  0.7818609E-02  0.9113226E-01
       -2   -1    0    0    0  501  0.00000000000E+00  0.00000000000E+00  0.57997911308E+03  0.57997911309E+03  0.25500000920E-02 0. -1.
        2   -1    0    0  501    0  0.00000000000E+00  0.00000000000E+00 -0.62027537148E+03  0.62027537148E+03  0.25500000920E-02 0.  1.
    10030    2    1    2    0    0  0.00000000000E+00  0.00000000000E+00 -0.40296258396E+02  0.12002544846E+04  0.11995778588E+04 0.  0.
        5    1    3    3  502    0 -0.52468740811E+03  0.92498342155E+02 -0.29575194985E+03  0.60938011567E+03  0.46999998093E+01 0.  1.
       -5    1    3    3    0  502  0.52468740811E+03 -0.92498342155E+02  0.25545569146E+03  0.59087436890E+03  0.46999998093E+01 0. -1.
</event>
<event>
 5   0  0.2340731E-04  0.1199371E+04  0.7818609E-02  0.9113407E-01
       -1   -1    0    0    0  501  0.00000000000E+00  0.00000000000E+00  0.80342280986E+03  0.80342280987E+03  0.50400001928E-02 0.  1.
        1   -1    0    0  501    0  0.00000000000E+00  0.00000000000E+00 -0.44761362050E+03  0.44761362053E+03  0.50400001928E-02 0. -1.
    10030    2    1    2    0    0  0.00000000000E+00  0.00000000000E+00  0.35580918935E+03  0.12510364304E+04  0.11993714900E+04 0.  0.
        3    1    3    3  502    0 -0.24386750484E+03 -0.53497666462E+03  0.30110952930E+03  0.66055911957E+03  0.10100000352E+00 0.  1.
       -3    1    3    3    0  502  0.24386750484E+03  0.53497666462E+03  0.54699660048E+02  0.59047731084E+03  0.10100000352E+00 0. -1.
</event>
<event>
 5   0  0.4024486E-04  0.1199187E+04  0.7818609E-02  0.9113569E-01
       -2   -1    0    0    0  501  0.00000000000E+00  0.00000000000E+00  0.52473837280E+03  0.52473837281E+03  0.25500000920E-02 0.  1.
        2   -1    0    0  501    0  0.00000000000E+00  0.00000000000E+00 -0.68512646137E+03  0.68512646138E+03  0.25500000920E-02 0. -1.
    10030    2    1    2    0    0  0.00000000000E+00  0.00000000000E+00 -0.16038808857E+03  0.12098648342E+04  0.11991866319E+04 0.  0.
        1    1    3    3  502    0 -0.54385291759E+03 -0.25193657130E+03 -0.96590297079E+02  0.60710601829E+03  0.50400001928E-02 0.  1.
       -1    1    3    3    0  502  0.54385291759E+03  0.25193657130E+03 -0.63797791491E+02  0.60275881590E+03  0.50400001928E-02 0. -1.
</event>
<event>
 5   0  0.2340731E-04  0.1197651E+04  0.7818609E-02  0.9114915E-01
        1   -1    0    0  501    0  0.00000000000E+00  0.00000000000E+00  0.79381285534E+03  0.79381285535E+03  0.50400001928E-02 0.  1.
       -1   -1    0    0    0  501  0.00000000000E+00  0.00000000000E+00 -0.45173396987E+03  0.45173396989E+03  0.50400001928E-02 0. -1.
    10030    2    1    2    0    0  0.00000000000E+00  0.00000000000E+00  0.34207888547E+03  0.12455468252E+04  0.11976514226E+04 0.  0.
        3    1    3    3  502    0 -0.12200277088E+03 -0.51545574576E+03  0.46151720633E+03  0.70255066998E+03  0.10100000352E+00 0.  1.
       -3    1    3    3    0  502  0.12200277088E+03  0.51545574576E+03 -0.11943832086E+03  0.54299615527E+03  0.10100000352E+00 0. -1.
</event>
<event>
 5   0  0.4122956E-04  0.1197002E+04  0.7818609E-02  0.9115485E-01
       -2   -1    0    0    0  501  0.00000000000E+00  0.00000000000E+00  0.60114685201E+03  0.60114685201E+03  0.25500000920E-02 0.  1.
        2   -1    0    0  501    0  0.00000000000E+00  0.00000000000E+00 -0.59586658194E+03  0.59586658195E+03  0.25500000920E-02 0. -1.
    10030    2    1    2    0    0  0.00000000000E+00  0.00000000000E+00  0.52802700661E+01  0.11970134340E+04  0.11970017877E+04 0.  0.
        5    1    3    3  502    0 -0.81216164007E+02  0.57391597236E+03 -0.14637682186E+03  0.59784937283E+03  0.46999998093E+01 0. -1.
       -5    1    3    3    0  502  0.81216164007E+02 -0.57391597236E+03  0.15165709193E+03  0.59916406113E+03  0.46999998093E+01 0.  1.
</event>
<event>
 5   0  0.3993723E-04  0.1197708E+04  0.7818609E-02  0.9114866E-01
        2   -1    0    0  501    0  0.00000000000E+00  0.00000000000E+00  0.15530617636E+04  0.15530617636E+04  0.25500000920E-02 0.  1.
       -2   -1    0    0    0  501  0.00000000000E+00  0.00000000000E+00 -0.23091536182E+03  0.23091536183E+03  0.25500000920E-02 0. -1.
    10030    2    1    2    0    0  0.00000000000E+00  0.00000000000E+00  0.13221464018E+04  0.17839771254E+04  0.11977075087E+04 0.  0.
        3    1    3    3  502    0  0.33889058284E+03  0.47547407763E+03  0.46289008846E+03  0.74511050847E+03  0.10100000352E+00 0.  1.
       -3    1    3    3    0  502 -0.33889058284E+03 -0.47547407763E+03  0.85925631329E+03  0.10388666169E+04  0.10100000352E+00 0. -1.
</event>
<event>
 5   0  0.3993723E-04  0.1228166E+04  0.7818609E-02  0.9088554E-01
       -2   -1    0    0    0  501  0.00000000000E+00  0.00000000000E+00  0.29255288733E+03  0.29255288734E+03  0.25500000920E-02 0.  1.
        2   -1    0    0  501    0  0.00000000000E+00  0.00000000000E+00 -0.12889896684E+04  0.12889896684E+04  0.25500000920E-02 0. -1.
    10030    2    1    2    0    0  0.00000000000E+00  0.00000000000E+00 -0.99643678107E+03  0.15815425557E+04  0.12281655413E+04 0.  0.
        3    1    3    3  502    0 -0.47688050163E+03  0.29989202808E+03 -0.18345553889E+03  0.59245775064E+03  0.10100000352E+00 0.  1.
       -3    1    3    3    0  502  0.47688050163E+03 -0.29989202808E+03 -0.81298124217E+03  0.98908480509E+03  0.10100000352E+00 0. -1.
</event>
<event>
 5   0  0.2304842E-04  0.1189857E+04  0.7818609E-02  0.9121781E-01
       -1   -1    0    0    0  501  0.00000000000E+00  0.00000000000E+00  0.74607300219E+03  0.74607300220E+03  0.50400001928E-02 0.  1.
        1   -1    0    0  501    0  0.00000000000E+00  0.00000000000E+00 -0.47440406344E+03  0.47440406346E+03  0.50400001928E-02 0. -1.
    10030    2    1    2    0    0  0.00000000000E+00  0.00000000000E+00  0.27166893875E+03  0.12204770657E+04  0.11898572417E+04 0.  0.
        4    1    3    3  502    0  0.13077587109E+02  0.20653892027E+03 -0.43629079150E+03  0.48288778875E+03  0.12699999809E+01 0. -1.
       -4    1    3    3    0  502 -0.13077587109E+02 -0.20653892027E+03  0.70795973025E+03  0.73758927692E+03  0.12699999809E+01 0.  1.
</event>
<event>
 5   0  0.2304842E-04  0.1198896E+04  0.7818609E-02  0.9113823E-01
       -1   -1    0    0    0  501  0.00000000000E+00  0.00000000000E+00  0.27185258411E+03  0.27185258415E+03  0.50400001928E-02 0.  1.
        1   -1    0    0  501    0  0.00000000000E+00  0.00000000000E+00 -0.13218119686E+04  0.13218119686E+04  0.50400001928E-02 0. -1.
    10030    2    1    2    0    0  0.00000000000E+00  0.00000000000E+00 -0.10499593845E+04  0.15936645527E+04  0.11988961580E+04 0.  0.
        4    1    3    3  502    0 -0.17964016619E+03 -0.42383811677E+03 -0.10353717753E+04  0.11330956113E+04  0.12699999809E+01 0. -1.
       -4    1    3    3    0  502  0.17964016619E+03  0.42383811677E+03 -0.14587609204E+02  0.46056894140E+03  0.12699999809E+01 0.  1.
</event>
<event>
 5   0  0.2315038E-04  0.1199185E+04  0.7818609E-02  0.9113570E-01
        1   -1    0    0  501    0  0.00000000000E+00  0.00000000000E+00  0.11092069886E+04  0.11092069886E+04  0.50400001928E-02 0. -1.
       -1   -1    0    0    0  501  0.00000000000E+00  0.00000000000E+00 -0.32411560420E+03  0.32411560424E+03  0.50400001928E-02 0.  1.
    10030    2    1    2    0    0  0.00000000000E+00  0.00000000000E+00  0.78509138441E+03  0.14333225929E+04  0.11991852123E+04 0.  0.
        1    1    3    3  502    0 -0.53650849079E+03  0.19460128600E+03  0.61229007404E+03  0.83702458506E+03  0.50400001928E-02 0. -1.
       -1    1    3    3    0  502  0.53650849079E+03 -0.19460128600E+03  0.17280131037E+03  0.59629800779E+03  0.50400001928E-02 0.  1.
</event>
<event>
 5   0  0.2244308E-04  0.1202400E+04  0.7818609E-02  0.9110758E-01
       -1   -1    0    0    0  501  0.00000000000E+00  0.00000000000E+00  0.33235714397E+03  0.33235714401E+03  0.50400001928E-02 0.  1.
        1   -1    0    0  501    0  0.00000000000E+00  0.00000000000E+00 -0.10875093255E+04  0.10875093255E+04  0.50400001928E-02 0. -1.
    10030    2    1    2    0    0  0.00000000000E+00  0.00000000000E+00 -0.75515218148E+03  0.14198664695E+04  0.12024000890E+04 0.  0.
        5    1    3    3  502    0  0.13215646727E+03  0.27666835483E+03 -0.98821751784E+03  0.10347012433E+04  0.46999998093E+01 0. -1.
       -5    1    3    3    0  502 -0.13215646727E+03 -0.27666835483E+03  0.23306533636E+03  0.38516522613E+03  0.46999998093E+01 0.  1.
</event>
<event>
 5   0  0.2340731E-04  0.1201524E+04  0.7818609E-02  0.9111524E-01
       -1   -1    0    0    0  501  0.00000000000E+00  0.00000000000E+00  0.71932002230E+03  0.71932002232E+03  0.50400001928E-02 0. -1.
        1   -1    0    0  501    0  0.00000000000E+00  0.00000000000E+00 -0.50174437605E+03  0.50174437608E+03  0.50400001928E-02 0.  1.
    10030    2    1    2    0    0  0.00000000000E+00  0.00000000000E+00  0.21757564625E+03  0.12210643984E+04  0.12015236590E+04 0.  0.
        3    1    3    3  502    0 -0.17843143658E+03 -0.71814737143E+02  0.68718328538E+03  0.71359373031E+03  0.10100000352E+00 0. -1.
       -3    1    3    3    0  502  0.17843143658E+03  0.71814737143E+02 -0.46960763913E+03  0.50747066808E+03  0.10100000352E+00 0.  1.
</event>
<event>
 5   0  0.2204090E-04  0.1199754E+04  0.7818609E-02  0.9113072E-01
        1   -1    0    0  501    0  0.00000000000E+00  0.00000000000E+00  0.87549386157E+03  0.87549386158E+03  0.50400001928E-02 0. -1.
       -1   -1    0    0    0  501  0.00000000000E+00  0.00000000000E+00 -0.41102767635E+03  0.41102767638E+03  0.50400001928E-02 0.  1.
    10030    2    1    2    0    0  0.00000000000E+00  0.00000000000E+00  0.46446618522E+03  0.12865215380E+04  0.11997536541E+04 0.  0.
        2    1    3    3  502    0 -0.47206316004E+03 -0.51767730837E+02 -0.16078211683E+03  0.50137253029E+03  0.25500000920E-02 0.  1.
       -2    1    3    3    0  502  0.47206316004E+03  0.51767730837E+02  0.62524830205E+03  0.78514900767E+03  0.25500000920E-02 0. -1.
</event>
<event>
 5   0  0.2204090E-04  0.1199830E+04  0.7818609E-02  0.9113006E-01
       -1   -1    0    0    0  501  0.00000000000E+00  0.00000000000E+00  0.41961972358E+03  0.41961972361E+03  0.50400001928E-02 0.  1.
        1   -1    0    0  501    0  0.00000000000E+00  0.00000000000E+00 -0.85767603553E+03  0.85767603554E+03  0.50400001928E-02 0. -1.
    10030    2    1    2    0    0  0.00000000000E+00  0.00000000000E+00 -0.43805631195E+03  0.12772957592E+04  0.11998296229E+04 0.  0.
        2    1    3    3  502    0  0.20955459361E+03 -0.54392272941E+03 -0.37007897766E+03  0.69045167317E+03  0.25500000920E-02 0. -1.
       -2    1    3    3    0  502 -0.20955459361E+03  0.54392272941E+03 -0.67977334294E+02  0.58684408598E+03  0.25500000920E-02 0.  1.
</event>
<event>
 5   0  0.3883890E-04  0.1201195E+04  0.7818609E-02  0.9111811E-01
        2   -1    0    0  501    0  0.00000000000E+00  0.00000000000E+00  0.70058449794E+03  0.70058449794E+03  0.25500000920E-02 0. -1.
       -2   -1    0    0    0  501  0.00000000000E+00  0.00000000000E+00 -0.51488084742E+03  0.51488084743E+03  0.25500000920E-02 0.  1.
    10030    2    1    2    0    0  0.00000000000E+00  0.00000000000E+00  0.18570365051E+03  0.12154653454E+04  0.12011953047E+04 0.  0.
        2    1    3    3  502    0 -0.22192631349E+03 -0.45433879482E+03 -0.23510109488E+03  0.55762671557E+03  0.25500000920E-02 0.  1.
       -2    1    3    3    0  502  0.22192631349E+03  0.45433879482E+03  0.42080474540E+03  0.65783862980E+03  0.25500000920E-02 0. -1.
</event>
<event>
 5   0  0.2340731E-04  0.1197909E+04  0.7818609E-02  0.9114689E-01
        1   -1    0    0  501    0  0.00000000000E+00  0.00000000000E+00  0.18360072740E+04  0.18360072740E+04  0.50400001928E-02 0.  1.
       -1   -1    0    0    0  501  0.00000000000E+00  0.00000000000E+00 -0.19539480235E+03  0.19539480242E+03  0.50400001928E-02 0. -1.
    10030    2    1    2    0    0  0.00000000000E+00  0.00000000000E+00  0.16406124716E+04  0.20314020764E+04  0.11979086417E+04 0.  0.
        3    1    3    3  502    0 -0.18082545534E+03 -0.63256788084E+02  0.17826535182E+04  0.17929174110E+04  0.10100000352E+00 0.  1.
       -3    1    3    3    0  502  0.18082545534E+03  0.63256788084E+02 -0.14204104654E+03  0.23848466542E+03  0.10100000352E+00 0. -1.
</event>
<event>
 5   0  0.2315038E-04  0.1199567E+04  0.7818609E-02  0.9113236E-01
        1   -1    0    0  501    0  0.00000000000E+00  0.00000000000E+00  0.57423759046E+03  0.57423759048E+03  0.50400001928E-02 0.  1.
       -1   -1    0    0    0  501  0.00000000000E+00  0.00000000000E+00 -0.62646548187E+03  0.62646548189E+03  0.50400001928E-02 0. -1.
    10030    2    1    2    0    0  0.00000000000E+00  0.00000000000E+00 -0.52227891411E+02  0.12007030724E+04  0.11995666365E+04 0.  0.
        1    1    3    3  502    0  0.28756043475E+03 -0.40076505263E+03  0.31543710385E+03  0.58549483136E+03  0.50400001928E-02 0.  1.
       -1    1    3    3    0  502 -0.28756043475E+03  0.40076505263E+03 -0.36766499527E+03  0.61520824101E+03  0.50400001928E-02 0. -1.
</event>
<event>
 5   0  0.3883890E-04  0.1187822E+04  0.7818609E-02  0.9123583E-01
       -2   -1    0    0    0  501  0.00000000000E+00  0.00000000000E+00  0.57182203455E+03  0.57182203455E+03  0.25500000920E-02 0.  1.
        2   -1    0    0  501    0  0.00000000000E+00  0.00000000000E+00 -0.61685316009E+03  0.61685316010E+03  0.25500000920E-02 0. -1.
    10030    2    1    2    0    0  0.00000000000E+00  0.00000000000E+00 -0.45031125546E+02  0.11886751946E+04  0.11878219210E+04 0.  0.
        2    1    3    3  502    0 -0.46920579048E+03 -0.26260101703E+03 -0.27492057938E+03  0.60389957190E+03  0.25500000920E-02 0. -1.
       -2    1    3    3    0  502  0.46920579048E+03  0.26260101703E+03  0.22988945384E+03  0.58477562275E+03  0.25500000920E-02 0.  1.
</event>
<event>
 5   0  0.2204090E-04  0.1201600E+04  0.7818609E-02  0.9111458E-01
        1   -1    0    0  501    0  0.00000000000E+00  0.00000000000E+00  0.25105309134E+03  0.25105309139E+03  0.50400001928E-02 0.  1.
       -1   -1    0    0    0  501  0.00000000000E+00  0.00000000000E+00 -0.14377849856E+04  0.14377849856E+04  0.50400001928E-02 0. -1.
    10030    2    1    2    0    0  0.00000000000E+00  0.00000000000E+00 -0.11867318942E+04  0.16888380770E+04  0.12015995429E+04 0.  0.
        2    1    3    3  502    0  0.17886466116E+03 -0.34696488513E+03  0.48534807336E+02  0.39336093610E+03  0.25500000920E-02 0.  1.
       -2    1    3    3    0  502 -0.17886466116E+03  0.34696488513E+03 -0.12352667016E+04  0.12954771409E+04  0.25500000920E-02 0. -1.
</event>
<event>
 5   0  0.2340731E-04  0.1200979E+04  0.7818609E-02  0.9112000E-01
        1   -1    0    0  501    0  0.00000000000E+00  0.00000000000E+00  0.10982486278E+04  0.10982486278E+04  0.50400001928E-02 0. -1.
       -1   -1    0    0    0  501  0.00000000000E+00  0.00000000000E+00 -0.32832987554E+03  0.32832987558E+03  0.50400001928E-02 0.  1.
    10030    2    1    2    0    0  0.00000000000E+00  0.00000000000E+00  0.76991875222E+03  0.14265785033E+04  0.12009793259E+04 0.  0.
        3    1    3    3  502    0  0.58490363016E+03 -0.13009291812E+03  0.33817269888E+03  0.68803866780E+03  0.10100000352E+00 0.  1.
       -3    1    3    3    0  502 -0.58490363016E+03  0.13009291812E+03  0.43174605334E+03  0.73853983555E+03  0.10100000352E+00 0. -1.
</event>
<event>
 5   0  0.4024486E-04  0.1198981E+04  0.7818609E-02  0.9113749E-01
        2   -1    0    0  501    0  0.00000000000E+00  0.00000000000E+00  0.69375620357E+03  0.69375620358E+03  0.25500000920E-02 0. -1.
       -2   -1    0    0    0  501  0.00000000000E+00  0.00000000000E+00 -0.51803350150E+03  0.51803350150E+03  0.25500000920E-02 0.  1.
    10030    2    1    2    0    0  0.00000000000E+00  0.00000000000E+00  0.17572270207E+03  0.12117897051E+04  0.11989811597E+04 0.  0.
        1    1    3    3  502    0  0.50655509442E+02 -0.54062538391E+03  0.34463680109E+03  0.64313008875E+03  0.50400001928E-02 0. -1.
       -1    1    3    3    0  502 -0.50655509442E+02  0.54062538391E+03 -0.16891409902E+03  0.56865961633E+03  0.50400001928E-02 0.  1.
</event>
<event>
 5   0  0.3883890E-04  0.1199244E+04  0.7818609E-02  0.9113518E-01
        2   -1    0    0  501    0  0.00000000000E+00  0.00000000000E+00  0.77146593166E+03  0.77146593167E+03  0.25500000920E-02 0. -1.
       -2   -1    0    0    0  501  0.00000000000E+00  0.00000000000E+00 -0.46605656662E+03  0.46605656662E+03  0.25500000920E-02 0.  1.
    10030    2    1    2    0    0  0.00000000000E+00  0.00000000000E+00  0.30540936505E+03  0.12375224983E+04  0.11992443677E+04 0.  0.
        2    1    3    3  502    0 -0.50855251296E+02  0.53030607890E+03 -0.13128104259E+03  0.54867613949E+03  0.25500000920E-02 0.  1.
       -2    1    3    3    0  502  0.50855251296E+02 -0.53030607890E+03  0.43669040764E+03  0.68884635880E+03  0.25500000920E-02 0. -1.
</event>
<event>
 5   0  0.3832662E-04  0.1200980E+04  0.7818609E-02  0.9111999E-01
        2   -1    0    0  501    0  0.00000000000E+00  0.00000000000E+00  0.12625765542E+04  0.12625765542E+04  0.25500000920E-02 0. -1.
       -2   -1    0    0    0  501  0.00000000000E+00  0.00000000000E+00 -0.28559695793E+03  0.28559695794E+03  0.25500000920E-02 0.  1.
    10030    2    1    2    0    0  0.00000000000E+00  0.00000000000E+00  0.97697959627E+03  0.15481735121E+04  0.12009796385E+04 0.  0.
        4    1    3    3  502    0  0.94347415702E+02 -0.60471757195E+02 -0.27199610796E+03  0.29417981561E+03  0.12699999809E+01 0.  1.
       -4    1    3    3    0  502 -0.94347415702E+02  0.60471757195E+02  0.12489757042E+04  0.12539936965E+04  0.12699999809E+01 0. -1.
</event>
<event>
 5   0  0.4122956E-04  0.1200350E+04  0.7818609E-02  0.9112550E-01
        2   -1    0    0  501    0  0.00000000000E+00  0.00000000000E+00  0.87317318309E+03  0.87317318309E+03  0.25500000920E-02 0. -1.
       -2   -1    0    0    0  501  0.00000000000E+00  0.00000000000E+00 -0.41253010424E+03  0.41253010425E+03  0.25500000920E-02 0.  1.
    10030    2    1    2    0    0  0.00000000000E+00  0.00000000000E+00  0.46064307884E+03  0.12857032873E+04  0.12003503226E+04 0.  0.
        5    1    3    3  502    0  0.14580881814E+03  0.30645490414E+03  0.76050671891E+03  0.83280692794E+03  0.46999998093E+01 0. -1.
       -5    1    3    3    0  502 -0.14580881814E+03 -0.30645490414E+03 -0.29986364007E+03  0.45289635940E+03  0.46999998093E+01 0.  1.
</event>
<event>
 5   0  0.3832662E-04  0.1200795E+04  0.7818609E-02  0.9112161E-01
        2   -1    0    0  501    0  0.00000000000E+00  0.00000000000E+00  0.96540955147E+03  0.96540955148E+03  0.25500000920E-02 0.  1.
       -2   -1    0    0    0  501  0.00000000000E+00  0.00000000000E+00 -0.37339308679E+03  0.37339308679E+03  0.25500000920E-02 0. -1.
    10030    2    1    2    0    0  0.00000000000E+00  0.00000000000E+00  0.59201646469E+03  0.13388026383E+04  0.12007951573E+04 0.  0.
        4    1    3    3  502    0 -0.16617115101E+03 -0.19293234574E+03  0.90222668778E+03  0.93747018646E+03  0.12699999809E+01 0.  1.
       -4    1    3    3    0  502  0.16617115101E+03  0.19293234574E+03 -0.31021022309E+03  0.40133245181E+03  0.12699999809E+01 0. -1.
</event>
<event>
 5   0  0.4024486E-04  0.1198036E+04  0.7818609E-02  0.9114577E-01
       -2   -1    0    0    0  501  0.00000000000E+00  0.00000000000E+00  0.21497725712E+03  0.21497725713E+03  0.25500000920E-02 0.  1.
        2   -1    0    0  501    0  0.00000000000E+00  0.00000000000E+00 -0.16691191584E+04  0.16691191584E+04  0.25500000920E-02 0. -1.
    10030    2    1    2    0    0  0.00000000000E+00  0.00000000000E+00 -0.14541419013E+04  0.18840964156E+04  0.11980361572E+04 0.  0.
        1    1    3    3  502    0 -0.32931532543E+02 -0.43624170818E+03 -0.13705754392E+04  0.14387037041E+04  0.50400001928E-02 0. -1.
       -1    1    3    3    0  502  0.32931532543E+02  0.43624170818E+03 -0.83566462170E+02  0.44539271146E+03  0.50400001928E-02 0.  1.
</event>
<event>
 5   0  0.2204090E-04  0.1201055E+04  0.7818609E-02  0.9111934E-01
        1   -1    0    0  501    0  0.00000000000E+00  0.00000000000E+00  0.18665616170E+04  0.18665616170E+04  0.50400001928E-02 0. -1.
       -1   -1    0    0    0  501  0.00000000000E+00  0.00000000000E+00 -0.19320716270E+03  0.19320716277E+03  0.50400001928E-02 0.  1.
    10030    2    1    2    0    0  0.00000000000E+00  0.00000000000E+00  0.16733544543E+04  0.20597687797E+04  0.12010546600E+04 0.  0.
        2    1    3    3  502    0 -0.10892167662E+03  0.58209565040E+03  0.10076052709E+04  0.11687461913E+04  0.25500000920E-02 0. -1.
       -2    1    3    3    0  502  0.10892167662E+03 -0.58209565040E+03  0.66574918339E+03  0.89102258841E+03  0.25500000920E-02 0.  1.
</event>
<event>
 5   0  0.3883890E-04  0.1203867E+04  0.7818609E-02  0.9109478E-01
       -2   -1    0    0    0  501  0.00000000000E+00  0.00000000000E+00  0.40597720356E+03  0.40597720357E+03  0.25500000920E-02 0.  1.
        2   -1    0    0  501    0  0.00000000000E+00  0.00000000000E+00 -0.89247423167E+03  0.89247423167E+03  0.25500000920E-02 0. -1.
    10030    2    1    2    0    0  0.00000000000E+00  0.00000000000E+00 -0.48649702811E+03  0.12984514352E+04  0.12038674227E+04 0.  0.
        2    1    3    3  502    0 -0.29035016383E+03  0.50274304197E+03 -0.71792318323E+02  0.58498540227E+03  0.25500000920E-02 0.  1.
       -2    1    3    3    0  502  0.29035016383E+03 -0.50274304197E+03 -0.41470470979E+03  0.71346603298E+03  0.25500000920E-02 0. -1.
</event>
<event>
 5   0  0.3993723E-04  0.1201773E+04  0.7818609E-02  0.9111306E-01
       -2   -1    0    0    0  501  0.00000000000E+00  0.00000000000E+00  0.22504100238E+03  0.22504100240E+03  0.25500000920E-02 0. -1.
        2   -1    0    0  501    0  0.00000000000E+00  0.00000000000E+00 -0.16044387746E+04  0.16044387746E+04  0.25500000920E-02 0.  1.
    10030    2    1    2    0    0  0.00000000000E+00  0.00000000000E+00 -0.13793977722E+04  0.18294797770E+04  0.12017728739E+04 0.  0.
        3    1    3    3  502    0 -0.17844951325E+03  0.44177795717E+03 -0.12470677285E+04  0.13349868621E+04  0.10100000352E+00 0.  1.
       -3    1    3    3    0  502  0.17844951325E+03 -0.44177795717E+03 -0.13233004366E+03  0.49449291489E+03  0.10100000352E+00 0. -1.
</event>
<event>
 5   0  0.4122956E-04  0.1202133E+04  0.7818609E-02  0.9110992E-01
        2   -1    0    0  501    0  0.00000000000E+00  0.00000000000E+00  0.22198903237E+04  0.22198903237E+04  0.25500000920E-02 0. -1.
       -2   -1    0    0    0  501  0.00000000000E+00  0.00000000000E+00 -0.16274712810E+03  0.16274712812E+03  0.25500000920E-02 0.  1.
    10030    2    1    2    0    0  0.00000000000E+00  0.00000000000E+00  0.20571431956E+04  0.23826374518E+04  0.12021327296E+04 0.  0.
        5    1    3    3  502    0 -0.52591934682E+03  0.11723586001E+03  0.50073445840E+03  0.73558989529E+03  0.46999998093E+01 0.  1.
       -5    1    3    3    0  502  0.52591934682E+03 -0.11723586001E+03  0.15564087372E+04  0.16470475565E+04  0.46999998093E+01 0. -1.
</event>
<event>
 5   0  0.4024486E-04  0.1196656E+04  0.7818609E-02  0.9115789E-01
       -2   -1    0    0    0  501  0.00000000000E+00  0.00000000000E+00  0.10843426199E+04  0.10843426199E+04  0.25500000920E-02 0. -1.
        2   -1    0    0  501    0  0.00000000000E+00  0.00000000000E+00 -0.33015043237E+03  0.33015043238E+03  0.25500000920E-02 0.  1.
    10030    2    1    2    0    0  0.00000000000E+00  0.00000000000E+00  0.75419218751E+03  0.14144930523E+04  0.11966556477E+04 0.  0.
        1    1    3    3  502    0  0.39258503238E+03  0.35651097162E+03  0.70461484872E+03  0.88187593549E+03  0.50400001928E-02 0. -1.
       -1    1    3    3    0  502 -0.39258503238E+03 -0.35651097162E+03  0.49577338785E+02  0.53261711677E+03  0.50400001928E-02 0.  1.
</event>
<event>
 5   0  0.2315038E-04  0.1199929E+04  0.7818609E-02  0.9112919E-01
       -1   -1    0    0    0  501  0.00000000000E+00  0.00000000000E+00  0.28279854358E+03  0.28279854362E+03  0.50400001928E-02 0.  1.
        1   -1    0    0  501    0  0.00000000000E+00  0.00000000000E+00 -0.12728400821E+04  0.12728400821E+04  0.50400001928E-02 0. -1.
    10030    2    1    2    0    0  0.00000000000E+00  0.00000000000E+00 -0.99004153849E+03  0.15556386257E+04  0.11999288670E+04 0.  0.
        1    1    3    3  502    0  0.37369105038E+03  0.43549187983E+03 -0.72202461845E+03  0.92228939504E+03  0.50400001928E-02 0. -1.
       -1    1    3    3    0  502 -0.37369105038E+03 -0.43549187983E+03 -0.26801692004E+03  0.63334923066E+03  0.50400001928E-02 0.  1.
</event>
<event>
 5   0  0.3883890E-04  0.1178815E+04  0.7818609E-02  0.9131605E-01
       -2   -1    0    0    0  501  0.00000000000E+00  0.00000000000E+00  0.23753637097E+03  0.23753637098E+03  0.25500000920E-02 0. -1.
        2   -1    0    0  501    0  0.00000000000E+00  0.00000000000E+00 -0.14625166902E+04  0.14625166902E+04  0.25500000920E-02 0.  1.
    10030    2    1    2    0    0  0.00000000000E+00  0.00000000000E+00 -0.12249803192E+04  0.17000530612E+04  0.11788145012E+04 0.  0.
        2    1    3    3  502    0  0.47463309669E+03  0.10898882363E+03 -0.10913384799E+04  0.11950626837E+04  0.25500000920E-02 0.  1.
       -2    1    3    3    0  502 -0.47463309669E+03 -0.10898882363E+03 -0.13364183930E+03  0.50499037750E+03  0.25500000920E-02 0. -1.
</event>
<event>
 5   0  0.2340731E-04  0.1200613E+04  0.7818609E-02  0.9112320E-01
        1   -1    0    0  501    0  0.00000000000E+00  0.00000000000E+00  0.37025814377E+03  0.37025814381E+03  0.50400001928E-02 0.  1.
       -1   -1    0    0    0  501  0.00000000000E+00  0.00000000000E+00 -0.97328761995E+03  0.97328761996E+03  0.50400001928E-02 0. -1.
    10030    2    1    2    0    0  0.00000000000E+00  0.00000000000E+00 -0.60302947617E+03  0.13435457638E+04  0.12006126229E+04 0.  0.
        3    1    3    3  502    0 -0.32411693960E+03  0.26930187112E+02  0.26312412726E+03  0.41834356940E+03  0.10100000352E+00 0.  1.
       -3    1    3    3    0  502  0.32411693960E+03 -0.26930187112E+02 -0.86615360343E+03  0.92520219436E+03  0.10100000352E+00 0. -1.
</event>
<event>
 5   0  0.4122956E-04  0.1203194E+04  0.7818609E-02  0.9110066E-01
        2   -1    0    0  501    0  0.00000000000E+00  0.00000000000E+00  0.10801308715E+04  0.10801308715E+04  0.25500000920E-02 0.  1.
       -2   -1    0    0    0  501  0.00000000000E+00  0.00000000000E+00 -0.33506943371E+03  0.33506943372E+03  0.25500000920E-02 0. -1.
    10030    2    1    2    0    0  0.00000000000E+00  0.00000000000E+00  0.74506143780E+03  0.14152003052E+04  0.12031938156E+04 0.  0.
        5    1    3    3  502    0  0.58301560884E+03  0.10479040575E+03  0.49593970778E+03  0.77257136436E+03  0.46999998093E+01 0.  1.
       -5    1    3    3    0  502 -0.58301560884E+03 -0.10479040575E+03  0.24912173002E+03  0.64262894088E+03  0.46999998093E+01 0. -1.
</event>
<event>
 5   0  0.2204090E-04  0.1199121E+04  0.7818609E-02  0.9113627E-01
        1   -1    0    0  501    0  0.00000000000E+00  0.00000000000E+00  0.31167313622E+03  0.31167313627E+03  0.50400001928E-02 0. -1.
       -1   -1    0    0    0  501  0.00000000000E+00  0.00000000000E+00 -0.11533640262E+04  0.11533640262E+04  0.50400001928E-02 0.  1.
    10030    2    1    2    0    0  0.00000000000E+00  0.00000000000E+00 -0.84169088998E+03  0.14650371625E+04  0.11991206500E+04 0.  0.
        2    1    3    3  502    0 -0.41757565481E+03  0.41345558272E+03 -0.27547331815E+03  0.64899961125E+03  0.25500000920E-02 0.  1.
       -2    1    3    3    0  502  0.41757565481E+03 -0.41345558272E+03 -0.56621757183E+03  0.81603755124E+03  0.25500000920E-02 0. -1.
</event>
<event>
 5   0  0.3832662E-04  0.1198119E+04  0.7818609E-02  0.9114505E-01
        2   -1    0    0  501    0  0.00000000000E+00  0.00000000000E+00  0.66988216475E+03  0.66988216476E+03  0.25500000920E-02 0.  1.
       -2   -1    0    0    0  501  0.00000000000E+00  0.00000000000E+00 -0.53572453943E+03  0.53572453943E+03  0.25500000920E-02 0. -1.
    10030    2    1    2    0    0  0.00000000000E+00  0.00000000000E+00  0.13415762533E+03  0.12056067042E+04  0.11981190495E+04 0.  0.
        4    1    3    3  502    0 -0.22138929507E+02 -0.45285722808E+03  0.46106231216E+03  0.64664508798E+03  0.12699999809E+01 0.  1.
       -4    1    3    3    0  502  0.22138929507E+02  0.45285722808E+03 -0.32690468683E+03  0.55896161621E+03  0.12699999809E+01 0. -1.
</event>
<event>
 5   0  0.2315038E-04  0.1201664E+04  0.7818609E-02  0.9111402E-01
        1   -1    0    0  501    0  0.00000000000E+00  0.00000000000E+00  0.45147603099E+03  0.45147603102E+03  0.50400001928E-02 0.  1.
       -1   -1    0    0    0  501  0.00000000000E+00  0.00000000000E+00 -0.79959682442E+03  0.79959682443E+03  0.50400001928E-02 0. -1.
    10030    2    1    2    0    0  0.00000000000E+00  0.00000000000E+00 -0.34812079343E+03  0.12510728555E+04  0.12016635148E+04 0.  0.
        1    1    3    3  502    0 -0.28582656343E+03  0.13931301925E+03  0.35669905274E+03  0.47784846546E+03  0.50400001928E-02 0.  1.
       -1    1    3    3    0  502  0.28582656343E+03 -0.13931301925E+03 -0.70481984617E+03  0.77322438999E+03  0.50400001928E-02 0. -1.
</event>
<event>
 5   0  0.4024486E-04  0.1197904E+04  0.7818609E-02  0.9114693E-01
       -2   -1    0    0    0  501  0.00000000000E+00  0.00000000000E+00  0.32061281083E+03  0.32061281084E+03  0.25500000920E-02 0. -1.
        2   -1    0    0  501    0  0.00000000000E+00  0.00000000000E+00 -0.11189302937E+04  0.11189302937E+04  0.25500000920E-02 0.  1.
    10030    2    1    2    0    0  0.00000000000E+00  0.00000000000E+00 -0.79831748282E+03  0.14395431045E+04  0.11979038135E+04 0.  0.
        1    1    3    3  502    0 -0.29915122501E+03 -0.29404688928E+03 -0.91293850186E+03  0.10046948476E+04  0.50400001928E-02 0.  1.
       -1    1    3    3    0  502  0.29915122501E+03  0.29404688928E+03  0.11462101904E+03  0.43484825693E+03  0.50400001928E-02 0. -1.
</event>
<event>
 5   0  0.2304842E-04  0.1197933E+04  0.7818609E-02  0.9114667E-01
        1   -1    0    0  501    0  0.00000000000E+00  0.00000000000E+00  0.24284927417E+03  0.24284927422E+03  0.50400001928E-02 0. -1.
       -1   -1    0    0    0  501  0.00000000000E+00  0.00000000000E+00 -0.14772995670E+04  0.14772995670E+04  0.50400001928E-02 0.  1.
    10030    2    1    2    0    0  0.00000000000E+00  0.00000000000E+00 -0.12344502928E+04  0.17201488412E+04  0.11979334333E+04 0.  0.
        4    1    3    3  502    0  0.33726875338E+03 -0.23806784386E+03 -0.12403808275E+04  0.13072768339E+04  0.12699999809E+01 0.  1.
       -4    1    3    3    0  502 -0.33726875338E+03  0.23806784386E+03  0.59305346943E+01  0.41287200732E+03  0.12699999809E+01 0. -1.
</event>
<event>
 5   0  0.1541375E-04  0.1211720E+04  0.7818609E-02  0.9102659E-01
        3   -1    0    0  501    0  0.00000000000E+00  0.00000000000E+00  0.61806275424E+03  0.61806276249E+03  0.10100000352E+00 0.  1.
       -3   -1    0    0    0  501  0.00000000000E+00  0.00000000000E+00 -0.59389846473E+03  0.59389847332E+03  0.10100000352E+00 0. -1.
    10030    2    1    2    0    0  0.00000000000E+00  0.00000000000E+00  0.24164289509E+02  0.12119612358E+04  0.12117203160E+04 0.  0.
        4    1    3    3  502    0 -0.16465777680E+02  0.13192848103E+03 -0.57912646491E+03  0.59419299996E+03  0.12699999809E+01 0. -1.
       -4    1    3    3    0  502  0.16465777680E+02 -0.13192848103E+03  0.60329075442E+03  0.61776823584E+03  0.12699999809E+01 0.  1.
</event>
<event>
 5   0  0.3993723E-04  0.1199046E+04  0.7818609E-02  0.9113692E-01
       -2   -1    0    0    0  501  0.00000000000E+00  0.00000000000E+00  0.32125347755E+03  0.32125347756E+03  0.25500000920E-02 0.  1.
        2   -1    0    0  501    0  0.00000000000E+00  0.00000000000E+00 -0.11188302921E+04  0.11188302922E+04  0.25500000920E-02 0. -1.
    10030    2    1    2    0    0  0.00000000000E+00  0.00000000000E+00 -0.79757681460E+03  0.14400837697E+04  0.11990464914E+04 0.  0.
        3    1    3    3  502    0  0.31452074274E+03  0.23315731797E+03  0.14651157148E+03  0.41803263427E+03  0.10100000352E+00 0.  1.
       -3    1    3    3    0  502 -0.31452074274E+03 -0.23315731797E+03 -0.94408838608E+03  0.10220511354E+04  0.10100000352E+00 0. -1.
</event>
<event>
 5   0  0.2340731E-04  0.1197101E+04  0.7818609E-02  0.9115398E-01
        1   -1    0    0  501    0  0.00000000000E+00  0.00000000000E+00  0.63866714276E+03  0.63866714278E+03  0.50400001928E-02 0.  1.
       -1   -1    0    0    0  501  0.00000000000E+00  0.00000000000E+00 -0.56095350691E+03  0.56095350693E+03  0.50400001928E-02 0. -1.
    10030    2    1    2    0    0  0.00000000000E+00  0.00000000000E+00  0.77713635852E+02  0.11996206497E+04  0.11971007869E+04 0.  0.
        3    1    3    3  502    0 -0.42538538495E+03 -0.10403523161E+03 -0.37002965102E+03  0.57332190607E+03  0.10100000352E+00 0. -1.
       -3    1    3    3    0  502  0.42538538495E+03  0.10403523161E+03  0.44774328687E+03  0.62629874364E+03  0.10100000352E+00 0.  1.
</event>
<event>
 5   0  0.4024486E-04  0.1199173E+04  0.7818609E-02  0.9113581E-01
       -2   -1    0    0    0  501  0.00000000000E+00  0.00000000000E+00  0.28265899058E+03  0.28265899059E+03  0.25500000920E-02 0. -1.
        2   -1    0    0  501    0  0.00000000000E+00  0.00000000000E+00 -0.12718635722E+04  0.12718635722E+04  0.25500000920E-02 0.  1.
    10030    2    1    2    0    0  0.00000000000E+00  0.00000000000E+00 -0.98920458166E+03  0.15545225628E+04  0.11991725039E+04 0.  0.
        1    1    3    3  502    0 -0.33238854383E+03 -0.16417985769E+03 -0.11054836817E+04  0.11659894254E+04  0.50400001928E-02 0.  1.
       -1    1    3    3    0  502  0.33238854383E+03  0.16417985769E+03  0.11627910001E+03  0.38853313741E+03  0.50400001928E-02 0. -1.
</event>
<event>
 5   0  0.2304842E-04  0.1200642E+04  0.7818609E-02  0.9112295E-01
        1   -1    0    0  501    0  0.00000000000E+00  0.00000000000E+00  0.68916422908E+03  0.68916422909E+03  0.50400001928E-02 0. -1.
       -1   -1    0    0    0  501  0.00000000000E+00  0.00000000000E+00 -0.52293056372E+03  0.52293056374E+03  0.50400001928E-02 0.  1.
    10030    2    1    2    0    0  0.00000000000E+00  0.00000000000E+00  0.16623366536E+03  0.12120947928E+04  0.12006415599E+04 0.  0.
        4    1    3    3  502    0  0.57529451441E+02  0.59364968207E+03  0.14246991233E+02  0.59660218946E+03  0.12699999809E+01 0.  1.
       -4    1    3    3    0  502 -0.57529451441E+02 -0.59364968207E+03  0.15198667412E+03  0.61549260338E+03  0.12699999809E+01 0. -1.
</event>
<event>
 5   0  0.3993723E-04  0.1185784E+04  0.7818609E-02  0.9125392E-01
       -2   -1    0    0    0  501  0.00000000000E+00  0.00000000000E+00  0.37715231934E+03  0.37715231935E+03  0.25500000920E-02 0. -1.
        2   -1    0    0  501    0  0.00000000000E+00  0.00000000000E+00 -0.93203893634E+03  0.93203893635E+03  0.25500000920E-02 0.  1.
    10030    2    1    2    0    0  0.00000000000E+00  0.00000000000E+00 -0.55488661700E+03  0.13091912557E+04  0.11857835326E+04 0.  0.
        3    1    3    3  502    0 -0.23469117516E+02 -0.84404865303E+02  0.36996676383E+03  0.38019783969E+03  0.10100000352E+00 0. -1.
       -3    1    3    3    0  502  0.23469117516E+02  0.84404865303E+02 -0.92485338083E+03  0.92899341601E+03  0.10100000352E+00 0.  1.
</event>
<event>
 5   0  0.2304842E-04  0.1201287E+04  0.7818609E-02  0.9111731E-01
        1   -1    0    0  501    0  0.00000000000E+00  0.00000000000E+00  0.25744707624E+03  0.25744707629E+03  0.50400001928E-02 0.  1.
       -1   -1    0    0    0  501  0.00000000000E+00  0.00000000000E+00 -0.14013466066E+04  0.14013466066E+04  0.50400001928E-02 0. -1.
    10030    2    1    2    0    0  0.00000000000E+00  0.00000000000E+00 -0.11438995303E+04  0.16587936829E+04  0.12012869544E+04 0.  0.
        4    1    3    3  502    0  0.26065260793E+03  0.21439287357E+03 -0.12580333567E+04  0.13025181863E+04  0.12699999809E+01 0. -1.
       -4    1    3    3    0  502 -0.26065260793E+03 -0.21439287357E+03  0.11413382632E+03  0.35627549659E+03  0.12699999809E+01 0.  1.
</event>
<event>
 5   0  0.2244308E-04  0.1193644E+04  0.7818609E-02  0.9118438E-01
        1   -1    0    0  501    0  0.00000000000E+00  0.00000000000E+00  0.79512614083E+03  0.79512614085E+03  0.50400001928E-02 0.  1.
       -1   -1    0    0    0  501  0.00000000000E+00  0.00000000000E+00 -0.44797488824E+03  0.44797488827E+03  0.50400001928E-02 0. -1.
    10030    2    1    2    0    0  0.00000000000E+00  0.00000000000E+00  0.34715125259E+03  0.12431010291E+04  0.11936440744E+04 0.  0.
        5    1    3    3  502    0 -0.32907121409E+03  0.30005838173E+03  0.58734278351E+03  0.73710008257E+03  0.46999998093E+01 0.  1.
       -5    1    3    3    0  502  0.32907121409E+03 -0.30005838173E+03 -0.24019153092E+03  0.50600094655E+03  0.46999998093E+01 0. -1.
</event>
<event>
 5   0  0.2304842E-04  0.1203662E+04  0.7818609E-02  0.9109657E-01
       -1   -1    0    0    0  501  0.00000000000E+00  0.00000000000E+00  0.30123323401E+03  0.30123323405E+03  0.50400001928E-02 0. -1.
        1   -1    0    0  501    0  0.00000000000E+00  0.00000000000E+00 -0.12023925585E+04  0.12023925585E+04  0.50400001928E-02 0.  1.
    10030    2    1    2    0    0  0.00000000000E+00  0.00000000000E+00 -0.90115932450E+03  0.15036257926E+04  0.12036620771E+04 0.  0.
        4    1    3    3  502    0 -0.56651330233E+03 -0.60005599194E+01 -0.19693893761E+03  0.59979987202E+03  0.12699999809E+01 0.  1.
       -4    1    3    3    0  502  0.56651330233E+03  0.60005599194E+01 -0.70422038690E+03  0.90382592055E+03  0.12699999809E+01 0. -1.
</event>
<event>
 5   0  0.2340731E-04  0.1212686E+04  0.7818609E-02  0.9101825E-01
       -1   -1    0    0    0  501  0.00000000000E+00  0.00000000000E+00  0.60605924991E+03  0.60605924993E+03  0.50400001928E-02 0. -1.
        1   -1    0    0  501    0  0.00000000000E+00  0.00000000000E+00 -0.60662661443E+03  0.60662661445E+03  0.50400001928E-02 0.  1.
    10030    2    1    2    0    0  0.00000000000E+00  0.00000000000E+00 -0.56736451960E+00  0.12126858644E+04  0.12126857317E+04 0.  0.
        3    1    3    3  502    0  0.13154532318E+03  0.37065293287E+02  0.59045630209E+03  0.60606654989E+03  0.10100000352E+00 0. -1.
       -3    1    3    3    0  502 -0.13154532318E+03 -0.37065293287E+02 -0.59102366661E+03  0.60661931449E+03  0.10100000352E+00 0.  1.
</event>
<event>
 5   0  0.3883890E-04  0.1199734E+04  0.7818609E-02  0.9113089E-01
       -2   -1    0    0    0  501  0.00000000000E+00  0.00000000000E+00  0.91818019540E+03  0.91818019540E+03  0.25500000920E-02 0. -1.
        2   -1    0    0  501    0  0.00000000000E+00  0.00000000000E+00 -0.39190606286E+03  0.39190606286E+03  0.25500000920E-02 0.  1.
    10030    2    1    2    0    0  0.00000000000E+00  0.00000000000E+00  0.52627413254E+03  0.13100862583E+04  0.11997339461E+04 0.  0.
        2    1    3    3  502    0  0.34154067953E+02 -0.48908820343E+03  0.64056863480E+03  0.80666098641E+03  0.25500000920E-02 0. -1.
       -2    1    3    3    0  502 -0.34154067953E+02  0.48908820343E+03 -0.11429450226E+03  0.50342527186E+03  0.25500000920E-02 0.  1.
</event>
<event>
 5   0  0.3832662E-04  0.1198013E+04  0.7818609E-02  0.9114598E-01
       -2   -1    0    0    0  501  0.00000000000E+00  0.00000000000E+00  0.40135985509E+03  0.40135985510E+03  0.25500000920E-02 0. -1.
        2   -1    0    0  501    0  0.00000000000E+00  0.00000000000E+00 -0.89398255120E+03  0.89398255120E+03  0.25500000920E-02 0.  1.
    10030    2    1    2    0    0  0.00000000000E+00  0.00000000000E+00 -0.49262269611E+03  0.12953424063E+04  0.11980128667E+04 0.  0.
        4    1    3    3  502    0  0.40875128303E+03  0.10941410982E+03  0.21211255839E+03  0.47333118336E+03  0.12699999809E+01 0. -1.
       -4    1    3    3    0  502 -0.40875128303E+03 -0.10941410982E+03 -0.70473525450E+03  0.82201122294E+03  0.12699999809E+01 0.  1.
</event>
<event>
 5   0  0.3993723E-04  0.1199586E+04  0.7818609E-02  0.9113219E-01
       -2   -1    0    0    0  501  0.00000000000E+00  0.00000000000E+00  0.61538345812E+03  0.61538345813E+03  0.25500000920E-02 0.  1.
        2   -1    0    0  501    0  0.00000000000E+00  0.00000000000E+00 -0.58459786459E+03  0.58459786459E+03  0.25500000920E-02 0. -1.
    10030    2    1    2    0    0  0.00000000000E+00  0.00000000000E+00  0.30785593539E+02  0.11999813227E+04  0.11995863546E+04 0.  0.
        3    1    3    3  502    0  0.59101853245E+03  0.92251953549E+02 -0.28650289331E+02  0.59886073332E+03  0.10100000352E+00 0.  1.
       -3    1    3    3    0  502 -0.59101853245E+03 -0.92251953549E+02  0.59435882871E+02  0.60112058940E+03  0.10100000352E+00 0. -1.
</event>
<event>
 5   0  0.4122956E-04  0.1199060E+04  0.7818609E-02  0.9113680E-01
        2   -1    0    0  501    0  0.00000000000E+00  0.00000000000E+00  0.40331716508E+03  0.40331716509E+03  0.25500000920E-02 0. -1.
       -2   -1    0    0    0  501  0.00000000000E+00  0.00000000000E+00 -0.89119964470E+03  0.89119964470E+03  0.25500000920E-02 0.  1.
    10030    2    1    2    0    0  0.00000000000E+00  0.00000000000E+00 -0.48788247961E+03  0.12945168098E+04  0.11990598221E+04 0.  0.
        5    1    3    3  502    0  0.10058298462E+03  0.37314745712E+03 -0.73874902172E+03  0.83374346693E+03  0.46999998093E+01 0.  1.
       -5    1    3    3    0  502 -0.10058298462E+03 -0.37314745712E+03  0.25086654211E+03  0.46077334287E+03  0.46999998093E+01 0. -1.
</event>
<event>
 5   0  0.2204090E-04  0.1227685E+04  0.7818609E-02  0.9088963E-01
       -1   -1    0    0    0  501  0.00000000000E+00  0.00000000000E+00  0.44795569570E+03  0.44795569573E+03  0.50400001928E-02 0. -1.
        1   -1    0    0  501    0  0.00000000000E+00  0.00000000000E+00 -0.84116054790E+03  0.84116054792E+03  0.50400001928E-02 0.  1.
    10030    2    1    2    0    0  0.00000000000E+00  0.00000000000E+00 -0.39320485220E+03  0.12891162436E+04  0.12276850711E+04 0.  0.
        2    1    3    3  502    0  0.59952236407E+03 -0.11891037720E+03 -0.13687088764E+03  0.62633887211E+03  0.25500000920E-02 0.  1.
       -2    1    3    3    0  502 -0.59952236407E+03  0.11891037720E+03 -0.25633396456E+03  0.66277737154E+03  0.25500000920E-02 0. -1.
</event>
<event>
 5   0  0.2304842E-04  0.1195562E+04  0.7818609E-02  0.9116750E-01
       -1   -1    0    0    0  501  0.00000000000E+00  0.00000000000E+00  0.68922865626E+03  0.68922865628E+03  0.50400001928E-02 0. -1.
        1   -1    0    0  501    0  0.00000000000E+00  0.00000000000E+00 -0.51846682863E+03  0.51846682865E+03  0.50400001928E-02 0.  1.
    10030    2    1    2    0    0  0.00000000000E+00  0.00000000000E+00  0.17076182764E+03  0.12076954849E+04  0.11955621199E+04 0.  0.
        4    1    3    3  502    0 -0.28130071724E+03  0.72319183183E+02  0.61315862937E+03  0.67847275218E+03  0.12699999809E+01 0. -1.
       -4    1    3    3    0  502  0.28130071724E+03 -0.72319183183E+02 -0.44239680174E+03  0.52922273275E+03  0.12699999809E+01 0.  1.
</event>
<event>
 5   0  0.3993723E-04  0.1201616E+04  0.7818609E-02  0.9111443E-01
        2   -1    0    0  501    0  0.00000000000E+00  0.00000000000E+00  0.74196058484E+03  0.74196058485E+03  0.25500000920E-02 0. -1.
       -2   -1    0    0    0  501  0.00000000000E+00  0.00000000000E+00 -0.48650870234E+03  0.48650870235E+03  0.25500000920E-02 0.  1.
    10030    2    1    2    0    0  0.00000000000E+00  0.00000000000E+00  0.25545188250E+03  0.12284692872E+04  0.12016160474E+04 0.  0.
        3    1    3    3  502    0 -0.44298315011E+03  0.35670091293E+03 -0.70252559375E+02  0.57306635294E+03  0.10100000352E+00 0.  1.
       -3    1    3    3    0  502  0.44298315011E+03 -0.35670091293E+03  0.32570444188E+03  0.65540293426E+03  0.10100000352E+00 0. -1.
</event>
<event>
 5   0  0.4024486E-04  0.1199667E+04  0.7818609E-02  0.9113148E-01
       -2   -1    0    0    0  501  0.00000000000E+00  0.00000000000E+00  0.32519785320E+03  0.32519785321E+03  0.25500000920E-02 0.  1.
        2   -1    0    0  501    0  0.00000000000E+00  0.00000000000E+00 -0.11064042879E+04  0.11064042879E+04  0.25500000920E-02 0. -1.
    10030    2    1    2    0    0  0.00000000000E+00  0.00000000000E+00 -0.78120643474E+03  0.14316021412E+04  0.11996671192E+04 0.  0.
        1    1    3    3  502    0  0.30751545971E+03 -0.39448395282E+03  0.44907921399E+01  0.50020347284E+03  0.50400001928E-02 0.  1.
       -1    1    3    3    0  502 -0.30751545971E+03  0.39448395282E+03 -0.78569722688E+03  0.93139866832E+03  0.50400001928E-02 0. -1.
</event>
<event>
 5   0  0.1541375E-04  0.1199573E+04  0.7818609E-02  0.9113230E-01
        3   -1    0    0  501    0  0.00000000000E+00  0.00000000000E+00  0.68771573496E+03  0.68771574237E+03  0.10100000352E+00 0.  1.
       -3   -1    0    0    0  501  0.00000000000E+00  0.00000000000E+00 -0.52309980435E+03  0.52309981410E+03  0.10100000352E+00 0. -1.
    10030    2    1    2    0    0  0.00000000000E+00  0.00000000000E+00  0.16461593061E+03  0.12108155565E+04  0.11995732188E+04 0.  0.
        4    1    3    3  502    0 -0.58498027808E+03  0.95172281376E+02  0.17527257386E+03  0.61804674333E+03  0.12699999809E+01 0. -1.
       -4    1    3    3    0  502  0.58498027808E+03 -0.95172281376E+02 -0.10656643252E+02  0.59276881314E+03  0.12699999809E+01 0.  1.
</event>
<event>
 5   0  0.3993723E-04  0.1212623E+04  0.7818609E-02  0.9101879E-01
       -2   -1    0    0    0  501  0.00000000000E+00  0.00000000000E+00  0.89055748558E+03  0.89055748558E+03  0.25500000920E-02 0.  1.
        2   -1    0    0  501    0  0.00000000000E+00  0.00000000000E+00 -0.41279036638E+03  0.41279036639E+03  0.25500000920E-02 0. -1.
    10030    2    1    2    0    0  0.00000000000E+00  0.00000000000E+00  0.47776711920E+03  0.13033478520E+04  0.12126228610E+04 0.  0.
        3    1    3    3  502    0 -0.55172449211E+03 -0.12221763008E+03  0.27257181481E+01  0.56510574589E+03  0.10100000352E+00 0. -1.
       -3    1    3    3    0  502  0.55172449211E+03  0.12221763008E+03  0.47504140105E+03  0.73824210609E+03  0.10100000352E+00 0.  1.
</event>
<event>
 5   0  0.2340731E-04  0.1199908E+04  0.7818609E-02  0.9112937E-01
        1   -1    0    0  501    0  0.00000000000E+00  0.00000000000E+00  0.11859223051E+04  0.11859223051E+04  0.50400001928E-02 0.  1.
       -1   -1    0    0    0  501  0.00000000000E+00  0.00000000000E+00 -0.30351465523E+03  0.30351465527E+03  0.50400001928E-02 0. -1.
    10030    2    1    2    0    0  0.00000000000E+00  0.00000000000E+00  0.88240764985E+03  0.14894369604E+04  0.11999079958E+04 0.  0.
        3    1    3    3  502    0 -0.44317485420E+03 -0.40422253487E+03  0.45614995220E+03  0.75357322019E+03  0.10100000352E+00 0.  1.
       -3    1    3    3    0  502  0.44317485420E+03  0.40422253487E+03  0.42625769764E+03  0.73586374017E+03  0.10100000352E+00 0. -1.
</event>
<event>
 5   0  0.1541375E-04  0.1199727E+04  0.7818609E-02  0.9113096E-01
        3   -1    0    0  501    0  0.00000000000E+00  0.00000000000E+00  0.10025574436E+04  0.10025574487E+04  0.10100000352E+00 0.  1.
       -3   -1    0    0    0  501  0.00000000000E+00  0.00000000000E+00 -0.35891802156E+03  0.35891803577E+03  0.10100000352E+00 0. -1.
    10030    2    1    2    0    0  0.00000000000E+00  0.00000000000E+00  0.64363942202E+03  0.13614754844E+04  0.11997265476E+04 0.  0.
        1    1    3    3  502    0  0.30073804562E+03 -0.63310122426E+01  0.91078277118E+03  0.95917084511E+03  0.50400001928E-02 0.  1.
       -1    1    3    3    0  502 -0.30073804562E+03  0.63310122426E+01 -0.26714334916E+03  0.40230463933E+03  0.50400001928E-02 0. -1.
</event>
<event>
 5   0  0.3883890E-04  0.1200423E+04  0.7818609E-02  0.9112486E-01
       -2   -1    0    0    0  501  0.00000000000E+00  0.00000000000E+00  0.65279438436E+03  0.65279438436E+03  0.25500000920E-02 0. -1.
        2   -1    0    0  501    0  0.00000000000E+00  0.00000000000E+00 -0.55186443861E+03  0.55186443862E+03  0.25500000920E-02 0.  1.
    10030    2    1    2    0    0  0.00000000000E+00  0.00000000000E+00  0.10092994575E+03  0.12046588230E+04  0.12004232694E+04 0.  0.
        2    1    3    3  502    0  0.22340743239E+03  0.43830529840E+03  0.39552641043E+03  0.63123969838E+03  0.25500000920E-02 0. -1.
       -2    1    3    3    0  502 -0.22340743239E+03 -0.43830529840E+03 -0.29459646468E+03  0.57341912460E+03  0.25500000920E-02 0.  1.
</event>
<event>
 5   0  0.2315038E-04  0.1187489E+04  0.7818609E-02  0.9123878E-01
        1   -1    0    0  501    0  0.00000000000E+00  0.00000000000E+00  0.10832818668E+04  0.10832818668E+04  0.50400001928E-02 0.  1.
       -1   -1    0    0    0  501  0.00000000000E+00  0.00000000000E+00 -0.32543007289E+03  0.32543007293E+03  0.50400001928E-02 0. -1.
    10030    2    1    2    0    0  0.00000000000E+00  0.00000000000E+00  0.75785179387E+03  0.14087119397E+04  0.11874889421E+04 0.  0.
        1    1    3    3  502    0 -0.12074260516E+03 -0.41874094590E+03 -0.99446266027E+02  0.44700370952E+03  0.50400001928E-02 0. -1.
       -1    1    3    3    0  502  0.12074260516E+03  0.41874094590E+03  0.85729805989E+03  0.96170823018E+03  0.50400001928E-02 0.  1.
</event>
<event>
 5   0  0.3993723E-04  0.1198250E+04  0.7818609E-02  0.9114390E-01
        2   -1    0    0  501    0  0.00000000000E+00  0.00000000000E+00  0.18129386265E+04  0.18129386265E+04  0.25500000920E-02 0.  1.
       -2   -1    0    0    0  501  0.00000000000E+00  0.00000000000E+00 -0.19799382109E+03  0.19799382111E+03  0.25500000920E-02 0. -1.
    10030    2    1    2    0    0  0.00000000000E+00  0.00000000000E+00  0.16149448054E+04  0.20109324477E+04  0.11982498005E+04 0.  0.
        3    1    3    3  502    0  0.16486485182E+03 -0.57123734020E+03  0.93145809297E+03  0.11050369710E+04  0.10100000352E+00 0.  1.
       -3    1    3    3    0  502 -0.16486485182E+03  0.57123734020E+03  0.68348671248E+03  0.90589547661E+03  0.10100000352E+00 0. -1.
</event>
<event>
 5   0  0.3883890E-04  0.1201678E+04  0.7818609E-02  0.9111389E-01
       -2   -1    0    0    0  501  0.00000000000E+00  0.00000000000E+00  0.23482185319E+03  0.23482185321E+03  0.25500000920E-02 0. -1.
        2   -1    0    0  501    0  0.00000000000E+00  0.00000000000E+00 -0.15373680643E+04  0.15373680643E+04  0.25500000920E-02 0.  1.
    10030    2    1    2    0    0  0.00000000000E+00  0.00000000000E+00 -0.13025462111E+04  0.17721899175E+04  0.12016781897E+04 0.  0.
        2    1    3    3  502    0 -0.47596852413E+02  0.12290195432E+03 -0.15157874642E+04  0.15215064862E+04  0.25500000920E-02 0.  1.
       -2    1    3    3    0  502  0.47596852413E+02 -0.12290195432E+03  0.21324125309E+03  0.25068343137E+03  0.25500000920E-02 0. -1.
</event>
<event>
 5   0  0.2315038E-04  0.1200971E+04  0.7818609E-02  0.9112007E-01
        1   -1    0    0  501    0  0.00000000000E+00  0.00000000000E+00  0.41421495336E+03  0.41421495339E+03  0.50400001928E-02 0.  1.
       -1   -1    0    0    0  501  0.00000000000E+00  0.00000000000E+00 -0.87052096255E+03  0.87052096257E+03  0.50400001928E-02 0. -1.
    10030    2    1    2    0    0  0.00000000000E+00  0.00000000000E+00 -0.45630600919E+03  0.12847359160E+04  0.12009709404E+04 0.  0.
        1    1    3    3  502    0  0.49057300074E+02  0.36992533327E+03 -0.73142516879E+03  0.82111762157E+03  0.50400001928E-02 0. -1.
       -1    1    3    3    0  502 -0.49057300074E+02 -0.36992533327E+03  0.27511915960E+03  0.46361829439E+03  0.50400001928E-02 0.  1.
</event>
<event>
 5   0  0.4122956E-04  0.1199992E+04  0.7818609E-02  0.9112863E-01
        2   -1    0    0  501    0  0.00000000000E+00  0.00000000000E+00  0.44783284215E+03  0.44783284216E+03  0.25500000920E-02 0. -1.
       -2   -1    0    0    0  501  0.00000000000E+00  0.00000000000E+00 -0.80386102040E+03  0.80386102041E+03  0.25500000920E-02 0.  1.
    10030    2    1    2    0    0  0.00000000000E+00  0.00000000000E+00 -0.35602817825E+03  0.12516938626E+04  0.11999922758E+04 0.  0.
        5    1    3    3  502    0  0.20918394091E+03  0.15086215341E+03  0.38704145846E+03  0.46512416733E+03  0.46999998093E+01 0. -1.
       -5    1    3    3    0  502 -0.20918394091E+03 -0.15086215341E+03 -0.74306963671E+03  0.78656969524E+03  0.46999998093E+01 0.  1.
</event>
<event>
 5   0  0.3883890E-04  0.1200539E+04  0.7818609E-02  0.9112385E-01
       -2   -1    0    0    0  501  0.00000000000E+00  0.00000000000E+00  0.18532571911E+03  0.18532571913E+03  0.25500000920E-02 0. -1.
        2   -1    0    0  501    0  0.00000000000E+00  0.00000000000E+00 -0.19442721717E+04  0.19442721717E+04  0.25500000920E-02 0.  1.
    10030    2    1    2    0    0  0.00000000000E+00  0.00000000000E+00 -0.17589464526E+04  0.21295978908E+04  0.12005392761E+04 0.  0.
        2    1    3    3  502    0 -0.47148996343E+03  0.35623844105E+03 -0.69245821217E+03  0.91033344886E+03  0.25500000920E-02 0. -1.
       -2    1    3    3    0  502  0.47148996343E+03 -0.35623844105E+03 -0.10664882404E+04  0.12192644420E+04  0.25500000920E-02 0.  1.
</event>
<event>
 5   0  0.4122956E-04  0.1202824E+04  0.7818609E-02  0.9110389E-01
       -2   -1    0    0    0  501  0.00000000000E+00  0.00000000000E+00  0.37416827121E+03  0.37416827122E+03  0.25500000920E-02 0. -1.
        2   -1    0    0  501    0  0.00000000000E+00  0.00000000000E+00 -0.96666697009E+03  0.96666697009E+03  0.25500000920E-02 0.  1.
    10030    2    1    2    0    0  0.00000000000E+00  0.00000000000E+00 -0.59249869888E+03  0.13408352413E+04  0.12028235266E+04 0.  0.
        5    1    3    3  502    0 -0.17818572817E+02  0.51233452933E+03 -0.64676340213E+03  0.82530549484E+03  0.46999998093E+01 0.  1.
       -5    1    3    3    0  502  0.17818572817E+02 -0.51233452933E+03  0.54264703259E+02  0.51552974647E+03  0.46999998093E+01 0. -1.
</event>
<event>
 5   0  0.2304842E-04  0.1203468E+04  0.7818609E-02  0.9109826E-01
        1   -1    0    0  501    0  0.00000000000E+00  0.00000000000E+00  0.41738012918E+03  0.41738012921E+03  0.50400001928E-02 0.  1.
       -1   -1    0    0    0  501  0.00000000000E+00  0.00000000000E+00 -0.86751583840E+03  0.86751583842E+03  0.50400001928E-02 0. -1.
    10030    2    1    2    0    0  0.00000000000E+00  0.00000000000E+00 -0.45013570922E+03  0.12848959676E+04  0.12034681096E+04 0.  0.
        4    1    3    3  502    0  0.49329009509E+03  0.30838757021E+03 -0.60896970557E+02  0.58493424014E+03  0.12699999809E+01 0. -1.
       -4    1    3    3    0  502 -0.49329009509E+03 -0.30838757021E+03 -0.38923873867E+03  0.69996172749E+03  0.12699999809E+01 0.  1.
</event>
<event>
 5   0  0.3832662E-04  0.1193153E+04  0.7818609E-02  0.9118871E-01
       -2   -1    0    0    0  501  0.00000000000E+00  0.00000000000E+00  0.47472643979E+03  0.47472643980E+03  0.25500000920E-02 0.  1.
        2   -1    0    0  501    0  0.00000000000E+00  0.00000000000E+00 -0.74970286901E+03  0.74970286902E+03  0.25500000920E-02 0. -1.
    10030    2    1    2    0    0  0.00000000000E+00  0.00000000000E+00 -0.27497642922E+03  0.12244293088E+04  0.11931534250E+04 0.  0.
        4    1    3    3  502    0  0.48741468825E+02 -0.58023663550E+03 -0.27070580237E+03  0.64213201781E+03  0.12699999809E+01 0.  1.
       -4    1    3    3    0  502 -0.48741468825E+02  0.58023663550E+03 -0.42706268512E+01  0.58229729101E+03  0.12699999809E+01 0. -1.
</event>
<event>
 5   0  0.3993723E-04  0.1199990E+04  0.7818609E-02  0.9112865E-01
        2   -1    0    0  501    0  0.00000000000E+00  0.00000000000E+00  0.38226005957E+03  0.38226005958E+03  0.25500000920E-02 0. -1.
       -2   -1    0    0    0  501  0.00000000000E+00  0.00000000000E+00 -0.94175197343E+03  0.94175197343E+03  0.25500000920E-02 0.  1.
    10030    2    1    2    0    0  0.00000000000E+00  0.00000000000E+00 -0.55949191386E+03  0.13240120330E+04  0.11999902757E+04 0.  0.
        3    1    3    3  502    0  0.19932076215E+03  0.44298301074E+03 -0.66832564966E+03  0.82620935496E+03  0.10100000352E+00 0.  1.
       -3    1    3    3    0  502 -0.19932076215E+03 -0.44298301074E+03  0.10883373580E+03  0.49780267805E+03  0.10100000352E+00 0. -1.
</event>
<event>
 5   0  0.4122956E-04  0.1196464E+04  0.7818609E-02  0.9115957E-01
       -2   -1    0    0    0  501  0.00000000000E+00  0.00000000000E+00  0.32077519236E+03  0.32077519237E+03  0.25500000920E-02 0. -1.
        2   -1    0    0  501    0  0.00000000000E+00  0.00000000000E+00 -0.11156771259E+04  0.11156771259E+04  0.25500000920E-02 0.  1.
    10030    2    1    2    0    0  0.00000000000E+00  0.00000000000E+00 -0.79490193350E+03  0.14364523182E+04  0.11964640315E+04 0.  0.
        5    1    3    3  502    0  0.64202411721E+02  0.58165822428E+03 -0.54649342631E+03  0.80070306265E+03  0.46999998093E+01 0.  1.
       -5    1    3    3    0  502 -0.64202411721E+02 -0.58165822428E+03 -0.24840850719E+03  0.63574925559E+03  0.46999998093E+01 0. -1.
</event>
<event>
 5   0  0.3993723E-04  0.1200462E+04  0.7818609E-02  0.9112453E-01
        2   -1    0    0  501    0  0.00000000000E+00  0.00000000000E+00  0.19850937679E+04  0.19850937679E+04  0.25500000920E-02 0.  1.
       -2   -1    0    0    0  501  0.00000000000E+00  0.00000000000E+00 -0.18149117359E+03  0.18149117361E+03  0.25500000920E-02 0. -1.
    10030    2    1    2    0    0  0.00000000000E+00  0.00000000000E+00  0.18036025943E+04  0.21665849415E+04  0.12004615740E+04 0.  0.
        3    1    3    3  502    0  0.34735386724E+03  0.19158264959E+01  0.17852629992E+04  0.18187419734E+04  0.10100000352E+00 0.  1.
       -3    1    3    3    0  502 -0.34735386724E+03 -0.19158264959E+01  0.18339595114E+02  0.34784296806E+03  0.10100000352E+00 0. -1.
</event>
<event>
 5   0  0.2340731E-04  0.1212030E+04  0.7818609E-02  0.9102391E-01
       -1   -1    0    0    0  501  0.00000000000E+00  0.00000000000E+00  0.75781922417E+03  0.75781922419E+03  0.50400001928E-02 0. -1.
        1   -1    0    0  501    0  0.00000000000E+00  0.00000000000E+00 -0.48462013429E+03  0.48462013432E+03  0.50400001928E-02 0.  1.
    10030    2    1    2    0    0  0.00000000000E+00  0.00000000000E+00  0.27319908988E+03  0.12424393585E+04  0.12120304521E+04 0.  0.
        3    1    3    3  502    0 -0.59586860825E+03 -0.92361389664E+02  0.19865275555E+03  0.63486451475E+03  0.10100000352E+00 0. -1.
       -3    1    3    3    0  502  0.59586860825E+03  0.92361389664E+02  0.74546334329E+02  0.60757484376E+03  0.10100000352E+00 0.  1.
</event>
<event>
 5   0  0.2340731E-04  0.1199927E+04  0.7818609E-02  0.9112920E-01
       -1   -1    0    0    0  501  0.00000000000E+00  0.00000000000E+00  0.30129097248E+03  0.30129097252E+03  0.50400001928E-02 0. -1.
        1   -1    0    0  501    0  0.00000000000E+00  0.00000000000E+00 -0.11947138398E+04  0.11947138398E+04  0.50400001928E-02 0.  1.
    10030    2    1    2    0    0  0.00000000000E+00  0.00000000000E+00 -0.89342286727E+03  0.14960048123E+04  0.11999274889E+04 0.  0.
        3    1    3    3  502    0  0.12228249431E+03 -0.35703329335E+03  0.13477323694E+03  0.40073634296E+03  0.10100000352E+00 0. -1.
       -3    1    3    3    0  502 -0.12228249431E+03  0.35703329335E+03 -0.10281961042E+04  0.10952684693E+04  0.10100000352E+00 0.  1.
</event>
<event>
 5   0  0.3832662E-04  0.1202219E+04  0.7818609E-02  0.9110917E-01
        2   -1    0    0  501    0  0.00000000000E+00  0.00000000000E+00  0.45243084227E+03  0.45243084228E+03  0.25500000920E-02 0. -1.
       -2   -1    0    0    0  501  0.00000000000E+00  0.00000000000E+00 -0.79864694194E+03  0.79864694195E+03  0.25500000920E-02 0.  1.
    10030    2    1    2    0    0  0.00000000000E+00  0.00000000000E+00 -0.34621609967E+03  0.12510777842E+04  0.12022187964E+04 0.  0.
        4    1    3    3  502    0  0.31571391179E+03 -0.99414652604E+02 -0.69526950974E+03  0.77003886352E+03  0.12699999809E+01 0.  1.
       -4    1    3    3    0  502 -0.31571391179E+03  0.99414652604E+02  0.34905341007E+03  0.48103892071E+03  0.12699999809E+01 0. -1.
</event>
<event>
 5   0  0.2244308E-04  0.1198772E+04  0.7818609E-02  0.9113932E-01
        1   -1    0    0  501    0  0.00000000000E+00  0.00000000000E+00  0.50058532117E+03  0.50058532119E+03  0.50400001928E-02 0. -1.
       -1   -1    0    0    0  501  0.00000000000E+00  0.00000000000E+00 -0.71768655694E+03  0.71768655696E+03  0.50400001928E-02 0.  1.
    10030    2    1    2    0    0  0.00000000000E+00  0.00000000000E+00 -0.21710123577E+03  0.12182718781E+04  0.11987716307E+04 0.  0.
        5    1    3    3  502    0  0.47431742665E+03  0.33197719662E+03 -0.26617156099E+03  0.63722466225E+03  0.46999998093E+01 0.  1.
       -5    1    3    3    0  502 -0.47431742665E+03 -0.33197719662E+03  0.49070325218E+02  0.58104721590E+03  0.46999998093E+01 0. -1.
</event>
<event>
 5   0  0.1541375E-04  0.1198647E+04  0.7818609E-02  0.9114042E-01
       -3   -1    0    0    0  501  0.00000000000E+00  0.00000000000E+00  0.12380394516E+04  0.12380394558E+04  0.10100000352E+00 0.  1.
        3   -1    0    0  501    0  0.00000000000E+00  0.00000000000E+00 -0.29012692109E+03  0.29012693867E+03  0.10100000352E+00 0. -1.
    10030    2    1    2    0    0  0.00000000000E+00  0.00000000000E+00  0.94791253054E+03  0.15281663944E+04  0.11986468886E+04 0.  0.
        2    1    3    3  502    0  0.46532261070E+03 -0.23335241856E+03  0.85260678605E+03  0.99895786443E+03  0.25500000920E-02 0.  1.
       -2    1    3    3    0  502 -0.46532261070E+03  0.23335241856E+03  0.95305744495E+02  0.52920853000E+03  0.25500000920E-02 0. -1.
</event>
<event>
 5   0  0.2340731E-04  0.1199370E+04  0.7818609E-02  0.9113408E-01
        1   -1    0    0  501    0  0.00000000000E+00  0.00000000000E+00  0.88688222851E+03  0.88688222852E+03  0.50400001928E-02 0.  1.
       -1   -1    0    0    0  501  0.00000000000E+00  0.00000000000E+00 -0.40549042208E+03  0.40549042211E+03  0.50400001928E-02 0. -1.
    10030    2    1    2    0    0  0.00000000000E+00  0.00000000000E+00  0.48139180642E+03  0.12923726506E+04  0.11993702501E+04 0.  0.
        3    1    3    3  502    0 -0.13694597279E+02 -0.19341794815E+03  0.85217094851E+03  0.87395273348E+03  0.10100000352E+00 0.  1.
       -3    1    3    3    0  502  0.13694597279E+02  0.19341794815E+03 -0.37077914209E+03  0.41841991715E+03  0.10100000352E+00 0. -1.
</event>
<event>
 5   0  0.2244308E-04  0.1200403E+04  0.7818609E-02  0.9112504E-01
       -1   -1    0    0    0  501  0.00000000000E+00  0.00000000000E+00  0.12356082918E+04  0.12356082918E+04  0.50400001928E-02 0. -1.
        1   -1    0    0  501    0  0.00000000000E+00  0.00000000000E+00 -0.29155020275E+03  0.29155020280E+03  0.50400001928E-02 0.  1.
    10030    2    1    2    0    0  0.00000000000E+00  0.00000000000E+00  0.94405808906E+03  0.15271584946E+04  0.12004030124E+04 0.  0.
        5    1    3    3  502    0  0.25648760041E+03  0.51999086454E+03  0.27476192526E+03  0.64163275629E+03  0.46999998093E+01 0.  1.
       -5    1    3    3    0  502 -0.25648760041E+03 -0.51999086454E+03  0.66929616380E+03  0.88552573833E+03  0.46999998093E+01 0. -1.
</event>
<event>
 5   0  0.2340731E-04  0.1203641E+04  0.7818609E-02  0.9109676E-01
       -1   -1    0    0    0  501  0.00000000000E+00  0.00000000000E+00  0.30324498669E+03  0.30324498673E+03  0.50400001928E-02 0. -1.
        1   -1    0    0  501    0  0.00000000000E+00  0.00000000000E+00 -0.11943731907E+04  0.11943731907E+04  0.50400001928E-02 0.  1.
    10030    2    1    2    0    0  0.00000000000E+00  0.00000000000E+00 -0.89112820398E+03  0.14976181774E+04  0.12036406147E+04 0.  0.
        3    1    3    3  502    0  0.38387160858E+03  0.12285579731E+03 -0.10016389074E+04  0.10796904509E+04  0.10100000352E+00 0. -1.
       -3    1    3    3    0  502 -0.38387160858E+03 -0.12285579731E+03  0.11051070340E+03  0.41792772650E+03  0.10100000352E+00 0.  1.
</event>
<event>
 5   0  0.4024486E-04  0.1200418E+04  0.7818609E-02  0.9112491E-01
        2   -1    0    0  501    0  0.00000000000E+00  0.00000000000E+00  0.10012631385E+04  0.10012631385E+04  0.25500000920E-02 0. -1.
       -2   -1    0    0    0  501  0.00000000000E+00  0.00000000000E+00 -0.35979642284E+03  0.35979642285E+03  0.25500000920E-02 0.  1.
    10030    2    1    2    0    0  0.00000000000E+00  0.00000000000E+00  0.64146671569E+03  0.13610595614E+04  0.12004180865E+04 0.  0.
        1    1    3    3  502    0  0.29203455286E+03  0.22643637922E+03  0.85698800769E+03  0.93326633886E+03  0.50400001928E-02 0. -1.
       -1    1    3    3    0  502 -0.29203455286E+03 -0.22643637922E+03 -0.21552129200E+03  0.42779322252E+03  0.50400001928E-02 0.  1.
</event>
<event>
 5   0  0.2204090E-04  0.1197320E+04  0.7818609E-02  0.9115206E-01
        1   -1    0    0  501    0  0.00000000000E+00  0.00000000000E+00  0.58865650375E+03  0.58865650377E+03  0.50400001928E-02 0.  1.
       -1   -1    0    0    0  501  0.00000000000E+00  0.00000000000E+00 -0.60883326099E+03  0.60883326101E+03  0.50400001928E-02 0. -1.
    10030    2    1    2    0    0  0.00000000000E+00  0.00000000000E+00 -0.20176757242E+02  0.11974897648E+04  0.11973197715E+04 0.  0.
        2    1    3    3  502    0 -0.30313748840E+03 -0.27231487671E+03  0.42854649411E+03  0.59135423104E+03  0.25500000920E-02 0.  1.
       -2    1    3    3    0  502  0.30313748840E+03  0.27231487671E+03 -0.44872325135E+03  0.60613553374E+03  0.25500000920E-02 0. -1.
</event>
<event>
 5   0  0.2340731E-04  0.1198389E+04  0.7818609E-02  0.9114267E-01
       -1   -1    0    0    0  501  0.00000000000E+00  0.00000000000E+00  0.82156727531E+03  0.82156727533E+03  0.50400001928E-02 0. -1.
        1   -1    0    0  501    0  0.00000000000E+00  0.00000000000E+00 -0.43701149570E+03  0.43701149573E+03  0.50400001928E-02 0.  1.
    10030    2    1    2    0    0  0.00000000000E+00  0.00000000000E+00  0.38455577961E+03  0.12585787711E+04  0.11983894923E+04 0.  0.
        3    1    3    3  502    0  0.48273986723E+03  0.26202836263E+02  0.56404863762E+03  0.74288306202E+03  0.10100000352E+00 0. -1.
       -3    1    3    3    0  502 -0.48273986723E+03 -0.26202836263E+02 -0.17949285801E+03  0.51569570903E+03  0.10100000352E+00 0.  1.
</event>
<event>
 5   0  0.2204090E-04  0.1199558E+04  0.7818609E-02  0.9113243E-01
       -1   -1    0    0    0  501  0.00000000000E+00  0.00000000000E+00  0.25912461326E+03  0.25912461331E+03  0.50400001928E-02 0. -1.
        1   -1    0    0  501    0  0.00000000000E+00  0.00000000000E+00 -0.13882697493E+04  0.13882697493E+04  0.50400001928E-02 0.  1.
    10030    2    1    2    0    0  0.00000000000E+00  0.00000000000E+00 -0.11291451361E+04  0.16473943626E+04  0.11995580218E+04 0.  0.
        2    1    3    3  502    0 -0.28364182495E+03  0.26172304297E+03 -0.11950859951E+04  0.12558591369E+04  0.25500000920E-02 0.  1.
       -2    1    3    3    0  502  0.28364182495E+03 -0.26172304297E+03  0.65940859050E+02  0.39153522572E+03  0.25500000920E-02 0. -1.
</event>
<event>
 5   0  0.2340731E-04  0.1199970E+04  0.7818609E-02  0.9112883E-01
       -1   -1    0    0    0  501  0.00000000000E+00  0.00000000000E+00  0.83680548077E+03  0.83680548079E+03  0.50400001928E-02 0.  1.
        1   -1    0    0  501    0  0.00000000000E+00  0.00000000000E+00 -0.43018621476E+03  0.43018621479E+03  0.50400001928E-02 0. -1.
    10030    2    1    2    0    0  0.00000000000E+00  0.00000000000E+00  0.40661926601E+03  0.12669916956E+04  0.11999703035E+04 0.  0.
        3    1    3    3  502    0  0.15212270410E+03  0.21575803757E+02  0.81568166087E+03  0.83002615289E+03  0.10100000352E+00 0.  1.
       -3    1    3    3    0  502 -0.15212270410E+03 -0.21575803757E+02 -0.40906239485E+03  0.43696554269E+03  0.10100000352E+00 0. -1.
</event>
<event>
 5   0  0.4122956E-04  0.1196922E+04  0.7818609E-02  0.9115555E-01
       -2   -1    0    0    0  501  0.00000000000E+00  0.00000000000E+00  0.60917078739E+03  0.60917078740E+03  0.25500000920E-02 0.  1.
        2   -1    0    0  501    0  0.00000000000E+00  0.00000000000E+00 -0.58793975887E+03  0.58793975887E+03  0.25500000920E-02 0. -1.
    10030    2    1    2    0    0  0.00000000000E+00  0.00000000000E+00  0.21231028528E+02  0.11971105463E+04  0.11969222629E+04 0.  0.
        5    1    3    3  502    0  0.28084846303E+03  0.18014747068E+03 -0.48625702415E+03  0.58974312536E+03  0.46999998093E+01 0. -1.
       -5    1    3    3    0  502 -0.28084846303E+03 -0.18014747068E+03  0.50748805268E+03  0.60736742091E+03  0.46999998093E+01 0.  1.
</event>
<event>
 5   0  0.4024486E-04  0.1199325E+04  0.7818609E-02  0.9113448E-01
       -2   -1    0    0    0  501  0.00000000000E+00  0.00000000000E+00  0.33570117274E+03  0.33570117275E+03  0.25500000920E-02 0. -1.
        2   -1    0    0  501    0  0.00000000000E+00  0.00000000000E+00 -0.10711761752E+04  0.10711761752E+04  0.25500000920E-02 0.  1.
    10030    2    1    2    0    0  0.00000000000E+00  0.00000000000E+00 -0.73547500249E+03  0.14068773480E+04  0.11993249739E+04 0.  0.
        1    1    3    3  502    0 -0.23020470054E+03  0.53319649486E+03 -0.54292176079E+03  0.79501996493E+03  0.50400001928E-02 0.  1.
       -1    1    3    3    0  502  0.23020470054E+03 -0.53319649486E+03 -0.19255324170E+03  0.61185738305E+03  0.50400001928E-02 0. -1.
</event>
<event>
 5   0  0.2315038E-04  0.1201040E+04  0.7818609E-02  0.9111947E-01
       -1   -1    0    0    0  501  0.00000000000E+00  0.00000000000E+00  0.60211858616E+03  0.60211858619E+03  0.50400001928E-02 0. -1.
        1   -1    0    0  501    0  0.00000000000E+00  0.00000000000E+00 -0.59892589252E+03  0.59892589255E+03  0.50400001928E-02 0.  1.
    10030    2    1    2    0    0  0.00000000000E+00  0.00000000000E+00  0.31926936404E+01  0.12010444787E+04  0.12010402352E+04 0.  0.
        1    1    3    3  502    0  0.52307957682E+03  0.15114818564E+03 -0.25171541236E+03  0.59984886976E+03  0.50400001928E-02 0.  1.
       -1    1    3    3    0  502 -0.52307957682E+03 -0.15114818564E+03  0.25490810600E+03  0.60119560897E+03  0.50400001928E-02 0. -1.
</event>
<event>
 5   0  0.3883890E-04  0.1220665E+04  0.7818609E-02  0.9094959E-01
       -2   -1    0    0    0  501  0.00000000000E+00  0.00000000000E+00  0.25810916750E+03  0.25810916752E+03  0.25500000920E-02 0. -1.
        2   -1    0    0  501    0  0.00000000000E+00  0.00000000000E+00 -0.14432093407E+04  0.14432093407E+04  0.25500000920E-02 0.  1.
    10030    2    1    2    0    0  0.00000000000E+00  0.00000000000E+00 -0.11851001732E+04  0.17013185082E+04  0.12206646738E+04 0.  0.
        2    1    3    3  502    0  0.14788140063E+03  0.16649260711E+03  0.19946711477E+03  0.29895790131E+03  0.25500000920E-02 0. -1.
       -2    1    3    3    0  502 -0.14788140063E+03 -0.16649260711E+03 -0.13845672879E+04  0.14023606069E+04  0.25500000920E-02 0.  1.
</event>
<event>
 5   0  0.4122956E-04  0.1202008E+04  0.7818609E-02  0.9111101E-01
       -2   -1    0    0    0  501  0.00000000000E+00  0.00000000000E+00  0.17408952730E+03  0.17408952732E+03  0.25500000920E-02 0.  1.
        2   -1    0    0  501    0  0.00000000000E+00  0.00000000000E+00 -0.20748265051E+04  0.20748265051E+04  0.25500000920E-02 0. -1.
    10030    2    1    2    0    0  0.00000000000E+00  0.00000000000E+00 -0.19007369778E+04  0.22489160324E+04  0.12020075965E+04 0.  0.
        5    1    3    3  502    0 -0.33662456223E+03 -0.71365742998E+02 -0.28503348640E+02  0.34531680535E+03  0.46999998093E+01 0.  1.
       -5    1    3    3    0  502  0.33662456223E+03  0.71365742998E+02 -0.18722336292E+04  0.19035992271E+04  0.46999998093E+01 0. -1.
</event>
<event>
 5   0  0.2204090E-04  0.1207187E+04  0.7818609E-02  0.9106589E-01
       -1   -1    0    0    0  501  0.00000000000E+00  0.00000000000E+00  0.46809652812E+03  0.46809652815E+03  0.50400001928E-02 0. -1.
        1   -1    0    0  501    0  0.00000000000E+00  0.00000000000E+00 -0.77831142931E+03  0.77831142932E+03  0.50400001928E-02 0.  1.
    10030    2    1    2    0    0  0.00000000000E+00  0.00000000000E+00 -0.31021490119E+03  0.12464079575E+04  0.12071866101E+04 0.  0.
        2    1    3    3  502    0  0.78802919949E+02  0.56176923115E+03 -0.36803657609E+03  0.67619929799E+03  0.25500000920E-02 0.  1.
       -2    1    3    3    0  502 -0.78802919949E+02 -0.56176923115E+03  0.57821674900E+02  0.57020865949E+03  0.25500000920E-02 0. -1.
</event>
<event>
 5   0  0.3883890E-04  0.1200507E+04  0.7818609E-02  0.9112413E-01
       -2   -1    0    0    0  501  0.00000000000E+00  0.00000000000E+00  0.16434799172E+03  0.16434799174E+03  0.25500000920E-02 0.  1.
        2   -1    0    0  501    0  0.00000000000E+00  0.00000000000E+00 -0.21923263034E+04  0.21923263034E+04  0.25500000920E-02 0. -1.
    10030    2    1    2    0    0  0.00000000000E+00  0.00000000000E+00 -0.20279783116E+04  0.23566742951E+04  0.12005072681E+04 0.  0.
        2    1    3    3  502    0 -0.54898316926E+03  0.18863060411E+03 -0.13138977566E+04  0.14364161443E+04  0.25500000920E-02 0. -1.
       -2    1    3    3    0  502  0.54898316926E+03 -0.18863060411E+03 -0.71408055508E+03  0.92025815079E+03  0.25500000920E-02 0.  1.
</event>
<event>
 5   0  0.3993723E-04  0.1199974E+04  0.7818609E-02  0.9112879E-01
       -2   -1    0    0    0  501  0.00000000000E+00  0.00000000000E+00  0.65473109713E+03  0.65473109714E+03  0.25500000920E-02 0. -1.
        2   -1    0    0  501    0  0.00000000000E+00  0.00000000000E+00 -0.54982021829E+03  0.54982021830E+03  0.25500000920E-02 0.  1.
    10030    2    1    2    0    0  0.00000000000E+00  0.00000000000E+00  0.10491087884E+03  0.12045513154E+04  0.11999739910E+04 0.  0.
        3    1    3    3  502    0  0.13962169974E+03 -0.33624119775E+03  0.53117291308E+03  0.64396974765E+03  0.10100000352E+00 0. -1.
       -3    1    3    3    0  502 -0.13962169974E+03  0.33624119775E+03 -0.42626203424E+03  0.56058156778E+03  0.10100000352E+00 0.  1.
</event>
<event>
 5   0  0.2244308E-04  0.1202322E+04  0.7818609E-02  0.9110826E-01
       -1   -1    0    0    0  501  0.00000000000E+00  0.00000000000E+00  0.52991661634E+03  0.52991661637E+03  0.50400001928E-02 0.  1.
        1   -1    0    0  501    0  0.00000000000E+00  0.00000000000E+00 -0.68198387427E+03  0.68198387428E+03  0.50400001928E-02 0. -1.
    10030    2    1    2    0    0  0.00000000000E+00  0.00000000000E+00 -0.15206725792E+03  0.12119004907E+04  0.12023220651E+04 0.  0.
        5    1    3    3  502    0  0.57828121781E+03 -0.89517548964E+01 -0.24130080088E+03  0.62668769518E+03  0.46999998093E+01 0.  1.
       -5    1    3    3    0  502 -0.57828121781E+03  0.89517548964E+01  0.89233542954E+02  0.58521279547E+03  0.46999998093E+01 0. -1.
</event>
<event>
 5   0  0.2244308E-04  0.1200042E+04  0.7818609E-02  0.9112819E-01
        1   -1    0    0  501    0  0.00000000000E+00  0.00000000000E+00  0.15413047280E+04  0.15413047280E+04  0.50400001928E-02 0.  1.
       -1   -1    0    0    0  501  0.00000000000E+00  0.00000000000E+00 -0.23358488745E+03  0.23358488750E+03  0.50400001928E-02 0. -1.
    10030    2    1    2    0    0  0.00000000000E+00  0.00000000000E+00  0.13077198406E+04  0.17748896155E+04  0.12000424850E+04 0.  0.
        5    1    3    3  502    0  0.26541001923E+03 -0.14047031575E+03  0.14221390746E+04  0.14535047387E+04  0.46999998093E+01 0.  1.
       -5    1    3    3    0  502 -0.26541001923E+03  0.14047031575E+03 -0.11441923407E+03  0.32138487680E+03  0.46999998093E+01 0. -1.
</event>
<event>
 5   0  0.4024486E-04  0.1192487E+04  0.7818609E-02  0.9119458E-01
        2   -1    0    0  501    0  0.00000000000E+00  0.00000000000E+00  0.97342521843E+03  0.97342521843E+03  0.25500000920E-02 0.  1.
       -2   -1    0    0    0  501  0.00000000000E+00  0.00000000000E+00 -0.36521160030E+03  0.36521160031E+03  0.25500000920E-02 0. -1.
    10030    2    1    2    0    0  0.00000000000E+00  0.00000000000E+00  0.60821361813E+03  0.13386368187E+04  0.11924867828E+04 0.  0.
        1    1    3    3  502    0  0.15006454248E+03  0.93477388441E+02  0.94332389611E+03  0.95974859315E+03  0.50400001928E-02 0.  1.
       -1    1    3    3    0  502 -0.15006454248E+03 -0.93477388441E+02 -0.33511027798E+03  0.37888822559E+03  0.50400001928E-02 0. -1.
</event>
<event>
 5   0  0.2304842E-04  0.1204135E+04  0.7818609E-02  0.9109245E-01
        1   -1    0    0  501    0  0.00000000000E+00  0.00000000000E+00  0.20278867524E+04  0.20278867525E+04  0.50400001928E-02 0.  1.
       -1   -1    0    0    0  501  0.00000000000E+00  0.00000000000E+00 -0.17875037329E+03  0.17875037336E+03  0.50400001928E-02 0. -1.
    10030    2    1    2    0    0  0.00000000000E+00  0.00000000000E+00  0.18491363792E+04  0.22066371258E+04  0.12041353978E+04 0.  0.
        4    1    3    3  502    0  0.31752405348E+03  0.72636442838E+02 -0.33357634418E+01  0.32574578675E+03  0.12699999809E+01 0. -1.
       -4    1    3    3    0  502 -0.31752405348E+03 -0.72636442838E+02  0.18524721426E+04  0.18808913391E+04  0.12699999809E+01 0.  1.
</event>
<event>
 5   0  0.2204090E-04  0.1199562E+04  0.7818609E-02  0.9113240E-01
       -1   -1    0    0    0  501  0.00000000000E+00  0.00000000000E+00  0.57790679973E+03  0.57790679976E+03  0.50400001928E-02 0. -1.
        1   -1    0    0  501    0  0.00000000000E+00  0.00000000000E+00 -0.62248272949E+03  0.62248272951E+03  0.50400001928E-02 0.  1.
    10030    2    1    2    0    0  0.00000000000E+00  0.00000000000E+00 -0.44575929750E+02  0.12003895293E+04  0.11995615901E+04 0.  0.
        2    1    3    3  502    0  0.36145369500E+03 -0.44172906763E+03  0.16213155417E+03  0.59334642805E+03  0.25500000920E-02 0. -1.
       -2    1    3    3    0  502 -0.36145369500E+03  0.44172906763E+03 -0.20670748392E+03  0.60704310121E+03  0.25500000920E-02 0.  1.
</event>
<event>
 5   0  0.3832662E-04  0.1199033E+04  0.7818609E-02  0.9113703E-01
        2   -1    0    0  501    0  0.00000000000E+00  0.00000000000E+00  0.23022808852E+04  0.23022808852E+04  0.25500000920E-02 0. -1.
       -2   -1    0    0    0  501  0.00000000000E+00  0.00000000000E+00 -0.15611477465E+03  0.15611477467E+03  0.25500000920E-02 0.  1.
    10030    2    1    2    0    0  0.00000000000E+00  0.00000000000E+00  0.21461661106E+04  0.24583956599E+04  0.11990330464E+04 0.  0.
        4    1    3    3  502    0 -0.13487525536E+03  0.25282897061E+03  0.21527733185E+04  0.21717615883E+04  0.12699999809E+01 0. -1.
       -4    1    3    3    0  502  0.13487525536E+03 -0.25282897061E+03 -0.66072079039E+01  0.28663407156E+03  0.12699999809E+01 0.  1.
</event>
<event>
 5   0  0.3883890E-04  0.1200532E+04  0.7818609E-02  0.9112391E-01
       -2   -1    0    0    0  501  0.00000000000E+00  0.00000000000E+00  0.32583307263E+03  0.32583307264E+03  0.25500000920E-02 0. -1.
        2   -1    0    0  501    0  0.00000000000E+00  0.00000000000E+00 -0.11058403426E+04  0.11058403426E+04  0.25500000920E-02 0.  1.
    10030    2    1    2    0    0  0.00000000000E+00  0.00000000000E+00 -0.78000726996E+03  0.14316734152E+04  0.12005321431E+04 0.  0.
        2    1    3    3  502    0 -0.32606200316E+02  0.31295672595E+03 -0.99961315400E+03  0.10479654261E+04  0.25500000920E-02 0.  1.
       -2    1    3    3    0  502  0.32606200316E+02 -0.31295672595E+03  0.21960588404E+03  0.38370798914E+03  0.25500000920E-02 0. -1.
</event>
<event>
 5   0  0.3993723E-04  0.1201635E+04  0.7818609E-02  0.9111427E-01
        2   -1    0    0  501    0  0.00000000000E+00  0.00000000000E+00  0.82630751775E+03  0.82630751776E+03  0.25500000920E-02 0. -1.
       -2   -1    0    0    0  501  0.00000000000E+00  0.00000000000E+00 -0.43686123874E+03  0.43686123874E+03  0.25500000920E-02 0.  1.
    10030    2    1    2    0    0  0.00000000000E+00  0.00000000000E+00  0.38944627902E+03  0.12631687565E+04  0.12016350957E+04 0.  0.
        3    1    3    3  502    0  0.34480990199E+02 -0.36706596215E+03  0.69341634127E+03  0.78533597383E+03  0.10100000352E+00 0. -1.
       -3    1    3    3    0  502 -0.34480990199E+02  0.36706596215E+03 -0.30397006225E+03  0.47783278267E+03  0.10100000352E+00 0.  1.
</event>
<event>
 5   0  0.1541375E-04  0.1200308E+04  0.7818609E-02  0.9112587E-01
       -4   -1    0    0    0  501  0.00000000000E+00  0.00000000000E+00  0.38954863036E+03  0.38955070057E+03  0.12699999809E+01 0.  1.
        4   -1    0    0  501    0  0.00000000000E+00  0.00000000000E+00 -0.92461607437E+03  0.92461694657E+03  0.12699999809E+01 0. -1.
    10030    2    1    2    0    0  0.00000000000E+00  0.00000000000E+00 -0.53506744401E+03  0.13141676471E+04  0.12003080584E+04 0.  0.
        2    1    3    3  502    0 -0.38274079151E+03  0.97968242525E+02  0.22709109344E+03  0.45569579190E+03  0.25500000920E-02 0.  1.
       -2    1    3    3    0  502  0.38274079151E+03 -0.97968242525E+02 -0.76215853745E+03  0.85847185524E+03  0.25500000920E-02 0. -1.
</event>
<event>
 5   0  0.3832662E-04  0.1202578E+04  0.7818609E-02  0.9110603E-01
        2   -1    0    0  501    0  0.00000000000E+00  0.00000000000E+00  0.11420497991E+04  0.11420497991E+04  0.25500000920E-02 0.  1.
       -2   -1    0    0    0  501  0.00000000000E+00  0.00000000000E+00 -0.31657828720E+03  0.31657828721E+03  0.25500000920E-02 0. -1.
    10030    2    1    2    0    0  0.00000000000E+00  0.00000000000E+00  0.82547151192E+03  0.14586280863E+04  0.12025775140E+04 0.  0.
        4    1    3    3  502    0  0.12019986557E+03  0.38420382158E+02  0.11258062199E+04  0.11328571804E+04  0.12699999809E+01 0.  1.
       -4    1    3    3    0  502 -0.12019986557E+03 -0.38420382158E+02 -0.30033470799E+03  0.32577090596E+03  0.12699999809E+01 0. -1.
</event>
<event>
 5   0  0.3993723E-04  0.1199299E+04  0.7818609E-02  0.9113470E-01
       -2   -1    0    0    0  501  0.00000000000E+00  0.00000000000E+00  0.59220005163E+03  0.59220005164E+03  0.25500000920E-02 0. -1.
        2   -1    0    0  501    0  0.00000000000E+00  0.00000000000E+00 -0.60719261175E+03  0.60719261176E+03  0.25500000920E-02 0.  1.
    10030    2    1    2    0    0  0.00000000000E+00  0.00000000000E+00 -0.14992560122E+02  0.11993926634E+04  0.11992989553E+04 0.  0.
        3    1    3    3  502    0 -0.24820556907E+03  0.54190416258E+03 -0.73177586241E+02  0.60051735634E+03  0.10100000352E+00 0. -1.
       -3    1    3    3    0  502  0.24820556907E+03 -0.54190416258E+03  0.58185026120E+02  0.59887530705E+03  0.10100000352E+00 0.  1.
</event>
<event>
 5   0  0.2340731E-04  0.1203515E+04  0.7818609E-02  0.9109785E-01
       -1   -1    0    0    0  501  0.00000000000E+00  0.00000000000E+00  0.49712792777E+03  0.49712792779E+03  0.50400001928E-02 0.  1.
        1   -1    0    0  501    0  0.00000000000E+00  0.00000000000E+00 -0.72840816757E+03  0.72840816759E+03  0.50400001928E-02 0. -1.
    10030    2    1    2    0    0  0.00000000000E+00  0.00000000000E+00 -0.23128023980E+03  0.12255360954E+04  0.12035149238E+04 0.  0.
        3    1    3    3  502    0  0.50766418301E+03 -0.22496416174E+03  0.12050880821E+03  0.56820258697E+03  0.10100000352E+00 0.  1.
       -3    1    3    3    0  502 -0.50766418301E+03  0.22496416174E+03 -0.35178904802E+03  0.65733350841E+03  0.10100000352E+00 0. -1.
</event>
<event>
 5   0  0.4024486E-04  0.1199977E+04  0.7818609E-02  0.9112876E-01
       -2   -1    0    0    0  501  0.00000000000E+00  0.00000000000E+00  0.19692601121E+03  0.19692601122E+03  0.25500000920E-02 0.  1.
        2   -1    0    0  501    0  0.00000000000E+00  0.00000000000E+00 -0.18280287323E+04  0.18280287323E+04  0.25500000920E-02 0. -1.
    10030    2    1    2    0    0  0.00000000000E+00  0.00000000000E+00 -0.16311027211E+04  0.20249547436E+04  0.11999773442E+04 0.  0.
        1    1    3    3  502    0 -0.20518869132E+03 -0.55629812645E+03 -0.66073904282E+03  0.88777592177E+03  0.50400001928E-02 0. -1.
       -1    1    3    3    0  502  0.20518869132E+03  0.55629812645E+03 -0.97036367831E+03  0.11371788218E+04  0.50400001928E-02 0.  1.
</event>
<event>
 5   0  0.2204090E-04  0.1199618E+04  0.7818609E-02  0.9113191E-01
       -1   -1    0    0    0  501  0.00000000000E+00  0.00000000000E+00  0.23007413296E+03  0.23007413301E+03  0.50400001928E-02 0. -1.
        1   -1    0    0  501    0  0.00000000000E+00  0.00000000000E+00 -0.15637164847E+04  0.15637164847E+04  0.50400001928E-02 0.  1.
    10030    2    1    2    0    0  0.00000000000E+00  0.00000000000E+00 -0.13336423517E+04  0.17937906177E+04  0.11996177966E+04 0.  0.
        2    1    3    3  502    0  0.49115879391E+03 -0.27212287629E+03 -0.98219479675E+03  0.11313683924E+04  0.25500000920E-02 0.  1.
       -2    1    3    3    0  502 -0.49115879391E+03  0.27212287629E+03 -0.35144755498E+03  0.66242222527E+03  0.25500000920E-02 0. -1.
</event>
<event>
 5   0  0.2315038E-04  0.1200598E+04  0.7818609E-02  0.9112334E-01
       -1   -1    0    0    0  501  0.00000000000E+00  0.00000000000E+00  0.57175077438E+03  0.57175077440E+03  0.50400001928E-02 0. -1.
        1   -1    0    0  501    0  0.00000000000E+00  0.00000000000E+00 -0.63027225908E+03  0.63027225910E+03  0.50400001928E-02 0.  1.
    10030    2    1    2    0    0  0.00000000000E+00  0.00000000000E+00 -0.58521484703E+02  0.12020230335E+04  0.12005976049E+04 0.  0.
        1    1    3    3  502    0  0.15626076480E+03  0.57951863580E+03 -0.19280138562E+02  0.60052560281E+03  0.50400001928E-02 0.  1.
       -1    1    3    3    0  502 -0.15626076480E+03 -0.57951863580E+03 -0.39241346141E+02  0.60149743069E+03  0.50400001928E-02 0. -1.
</event>
<event>
 5   0  0.3832662E-04  0.1200739E+04  0.7818609E-02  0.9112210E-01
        2   -1    0    0  501    0  0.00000000000E+00  0.00000000000E+00  0.22266807265E+03  0.22266807266E+03  0.25500000920E-02 0.  1.
       -2   -1    0    0    0  501  0.00000000000E+00  0.00000000000E+00 -0.16187490373E+04  0.16187490373E+04  0.25500000920E-02 0. -1.
    10030    2    1    2    0    0  0.00000000000E+00  0.00000000000E+00 -0.13960809646E+04  0.18414171099E+04  0.12007393193E+04 0.  0.
        4    1    3    3  502    0 -0.51791838015E+03  0.14847883463E+03 -0.11042387117E+04  0.12286700771E+04  0.12699999809E+01 0.  1.
       -4    1    3    3    0  502  0.51791838015E+03 -0.14847883463E+03 -0.29184225288E+03  0.61274703288E+03  0.12699999809E+01 0. -1.
</event>
<event>
 5   0  0.3832662E-04  0.1195893E+04  0.7818609E-02  0.9116459E-01
        2   -1    0    0  501    0  0.00000000000E+00  0.00000000000E+00  0.46085875244E+03  0.46085875245E+03  0.25500000920E-02 0.  1.
       -2   -1    0    0    0  501  0.00000000000E+00  0.00000000000E+00 -0.77581238843E+03  0.77581238844E+03  0.25500000920E-02 0. -1.
    10030    2    1    2    0    0  0.00000000000E+00  0.00000000000E+00 -0.31495363599E+03  0.12366711409E+04  0.11958928538E+04 0.  0.
        4    1    3    3  502    0 -0.46588021809E+03  0.16675958152E+03  0.18965574799E+03  0.52992834542E+03  0.12699999809E+01 0. -1.
       -4    1    3    3    0  502  0.46588021809E+03 -0.16675958152E+03 -0.50460938399E+03  0.70674279546E+03  0.12699999809E+01 0.  1.
</event>
<event>
 5   0  0.3832662E-04  0.1200507E+04  0.7818609E-02  0.9112413E-01
       -2   -1    0    0    0  501  0.00000000000E+00  0.00000000000E+00  0.13656785061E+03  0.13656785063E+03  0.25500000920E-02 0.  1.
        2   -1    0    0  501    0  0.00000000000E+00  0.00000000000E+00 -0.26382792113E+04  0.26382792113E+04  0.25500000920E-02 0. -1.
    10030    2    1    2    0    0  0.00000000000E+00  0.00000000000E+00 -0.25017113607E+04  0.27748470619E+04  0.12005067617E+04 0.  0.
        4    1    3    3  502    0 -0.45754857704E+03 -0.24720394962E+03 -0.19436657377E+04  0.20120384206E+04  0.12699999809E+01 0. -1.
       -4    1    3    3    0  502  0.45754857704E+03  0.24720394962E+03 -0.55804562292E+03  0.76280864129E+03  0.12699999809E+01 0.  1.
</event>
<event>
 5   0  0.1541375E-04  0.1201134E+04  0.7818609E-02  0.9111865E-01
        3   -1    0    0  501    0  0.00000000000E+00  0.00000000000E+00  0.58721054378E+03  0.58721055247E+03  0.10100000352E+00 0. -1.
       -3   -1    0    0    0  501  0.00000000000E+00  0.00000000000E+00 -0.61422715960E+03  0.61422716791E+03  0.10100000352E+00 0.  1.
    10030    2    1    2    0    0  0.00000000000E+00  0.00000000000E+00 -0.27016615823E+02  0.12014377204E+04  0.12011339219E+04 0.  0.
        4    1    3    3  502    0  0.45592548852E+03 -0.35711944551E+03  0.14551841993E+03  0.59714284127E+03  0.12699999809E+01 0. -1.
       -4    1    3    3    0  502 -0.45592548852E+03  0.35711944551E+03 -0.17253503575E+03  0.60429487910E+03  0.12699999809E+01 0.  1.
</event>
<event>
 5   0  0.2315038E-04  0.1201042E+04  0.7818609E-02  0.9111945E-01
       -1   -1    0    0    0  501  0.00000000000E+00  0.00000000000E+00  0.39763421168E+03  0.39763421171E+03  0.50400001928E-02 0.  1.
        1   -1    0    0  501    0  0.00000000000E+00  0.00000000000E+00 -0.90692738072E+03  0.90692738073E+03  0.50400001928E-02 0. -1.
    10030    2    1    2    0    0  0.00000000000E+00  0.00000000000E+00 -0.50929316904E+03  0.13045615924E+04  0.12010418046E+04 0.  0.
        1    1    3    3  502    0  0.43639140119E+03  0.18361525102E+03  0.14661757640E+03  0.49562962903E+03  0.50400001928E-02 0.  1.
       -1    1    3    3    0  502 -0.43639140119E+03 -0.18361525102E+03 -0.65591074543E+03  0.80893196342E+03  0.50400001928E-02 0. -1.
</event>
<event>
 5   0  0.1541375E-04  0.1200022E+04  0.7818609E-02  0.9112837E-01
        3   -1    0    0  501    0  0.00000000000E+00  0.00000000000E+00  0.10558766368E+04  0.10558766416E+04  0.10100000352E+00 0.  1.
       -3   -1    0    0    0  501  0.00000000000E+00  0.00000000000E+00 -0.34096139789E+03  0.34096141285E+03  0.10100000352E+00 0. -1.
    10030    2    1    2    0    0  0.00000000000E+00  0.00000000000E+00  0.71491523886E+03  0.13968380544E+04  0.12000219796E+04 0.  0.
        4    1    3    3  502    0  0.37642629930E+03  0.35266360788E+03  0.68663833656E+00  0.51582018524E+03  0.12699999809E+01 0. -1.
       -4    1    3    3    0  502 -0.37642629930E+03 -0.35266360788E+03  0.71422860052E+03  0.88101786919E+03  0.12699999809E+01 0.  1.
</event>
<event>
 5   0  0.3993723E-04  0.1202383E+04  0.7818609E-02  0.9110774E-01
       -2   -1    0    0    0  501  0.00000000000E+00  0.00000000000E+00  0.82364042589E+03  0.82364042590E+03  0.25500000920E-02 0. -1.
        2   -1    0    0  501    0  0.00000000000E+00  0.00000000000E+00 -0.43882126424E+03  0.43882126424E+03  0.25500000920E-02 0.  1.
    10030    2    1    2    0    0  0.00000000000E+00  0.00000000000E+00  0.38481916166E+03  0.12624616901E+04  0.12023825231E+04 0.  0.
        3    1    3    3  502    0  0.18099408730E+03 -0.48620584900E+03  0.51135750619E+03  0.72845143735E+03  0.10100000352E+00 0. -1.
       -3    1    3    3    0  502 -0.18099408730E+03  0.48620584900E+03 -0.12653834453E+03  0.53401025279E+03  0.10100000352E+00 0.  1.
</event>
<event>
 5   0  0.1541375E-04  0.1199142E+04  0.7818609E-02  0.9113608E-01
       -3   -1    0    0    0  501  0.00000000000E+00  0.00000000000E+00  0.12298169718E+04  0.12298169759E+04  0.10100000352E+00 0.  1.
        3   -1    0    0  501    0  0.00000000000E+00  0.00000000000E+00 -0.29230794837E+03  0.29230796582E+03  0.10100000352E+00 0. -1.
    10030    2    1    2    0    0  0.00000000000E+00  0.00000000000E+00  0.93750902340E+03  0.15221249417E+04  0.11991418470E+04 0.  0.
        5    1    3    3  502    0  0.76396420980E+02  0.47633052011E+03  0.92064144535E+03  0.10393892141E+04  0.46999998093E+01 0.  1.
       -5    1    3    3    0  502 -0.76396420980E+02 -0.47633052011E+03  0.16867578045E+02  0.48273572762E+03  0.46999998093E+01 0. -1.
</event>
<event>
 5   0  0.4024486E-04  0.1199230E+04  0.7818609E-02  0.9113531E-01
       -2   -1    0    0    0  501  0.00000000000E+00  0.00000000000E+00  0.61032773123E+03  0.61032773123E+03  0.25500000920E-02 0.  1.
        2   -1    0    0  501    0  0.00000000000E+00  0.00000000000E+00 -0.58909030734E+03  0.58909030735E+03  0.25500000920E-02 0. -1.
    10030    2    1    2    0    0  0.00000000000E+00  0.00000000000E+00  0.21237423882E+02  0.11994180386E+04  0.11992300043E+04 0.  0.
        1    1    3    3  502    0 -0.17679272563E+03  0.57188179586E+03 -0.24510782625E+02  0.59908700099E+03  0.50400001928E-02 0. -1.
       -1    1    3    3    0  502  0.17679272563E+03 -0.57188179586E+03  0.45748206506E+02  0.60033103759E+03  0.50400001928E-02 0.  1.
</event>
<event>
 5   0  0.1541375E-04  0.1200436E+04  0.7818609E-02  0.9112475E-01
        4   -1    0    0  501    0  0.00000000000E+00  0.00000000000E+00  0.10956163028E+04  0.10956170389E+04  0.12699999809E+01 0.  1.
       -4   -1    0    0    0  501  0.00000000000E+00  0.00000000000E+00 -0.32881869537E+03  0.32882114793E+03  0.12699999809E+01 0. -1.
    10030    2    1    2    0    0  0.00000000000E+00  0.00000000000E+00  0.76679760745E+03  0.14244381868E+04  0.12004355781E+04 0.  0.
        4    1    3    3  502    0  0.16219470056E+03  0.15124341060E+03  0.10452181560E+04  0.10684869192E+04  0.12699999809E+01 0.  1.
       -4    1    3    3    0  502 -0.16219470056E+03 -0.15124341060E+03 -0.27842054852E+03  0.35595126756E+03  0.12699999809E+01 0. -1.
</event>
<event>
 5   0  0.2315038E-04  0.1200531E+04  0.7818609E-02  0.9112392E-01
        1   -1    0    0  501    0  0.00000000000E+00  0.00000000000E+00  0.88517842802E+03  0.88517842804E+03  0.50400001928E-02 0.  1.
       -1   -1    0    0    0  501  0.00000000000E+00  0.00000000000E+00 -0.40705794491E+03  0.40705794494E+03  0.50400001928E-02 0. -1.
    10030    2    1    2    0    0  0.00000000000E+00  0.00000000000E+00  0.47812048312E+03  0.12922363730E+04  0.12005314020E+04 0.  0.
        1    1    3    3  502    0  0.42802916237E+03 -0.31938768878E+03 -0.55919780841E+02  0.53697717036E+03  0.50400001928E-02 0. -1.
       -1    1    3    3    0  502 -0.42802916237E+03  0.31938768878E+03  0.53404026396E+03  0.75525920261E+03  0.50400001928E-02 0.  1.
</event>
<event>
 5   0  0.2204090E-04  0.1198325E+04  0.7818609E-02  0.9114324E-01
       -1   -1    0    0    0  501  0.00000000000E+00  0.00000000000E+00  0.88603129747E+03  0.88603129749E+03  0.50400001928E-02 0.  1.
        1   -1    0    0  501    0  0.00000000000E+00  0.00000000000E+00 -0.40517265693E+03  0.40517265696E+03  0.50400001928E-02 0. -1.
    10030    2    1    2    0    0  0.00000000000E+00  0.00000000000E+00  0.48085864054E+03  0.12912039544E+04  0.11983249225E+04 0.  0.
        2    1    3    3  502    0 -0.47790628509E+03  0.20799773995E+03 -0.78006796369E+02  0.52701284371E+03  0.25500000920E-02 0. -1.
       -2    1    3    3    0  502  0.47790628509E+03 -0.20799773995E+03  0.55886543691E+03  0.76419111074E+03  0.25500000920E-02 0.  1.
</event>
<event>
 5   0  0.3993723E-04  0.1202069E+04  0.7818609E-02  0.9111048E-01
        2   -1    0    0  501    0  0.00000000000E+00  0.00000000000E+00  0.29498963759E+03  0.29498963760E+03  0.25500000920E-02 0. -1.
       -2   -1    0    0    0  501  0.00000000000E+00  0.00000000000E+00 -0.12245930268E+04  0.12245930268E+04  0.25500000920E-02 0.  1.
    10030    2    1    2    0    0  0.00000000000E+00  0.00000000000E+00 -0.92960338922E+03  0.15195826644E+04  0.12020686389E+04 0.  0.
        3    1    3    3  502    0 -0.56651915242E+03 -0.19362071981E+03 -0.39779859734E+03  0.71880224502E+03  0.10100000352E+00 0. -1.
       -3    1    3    3    0  502  0.56651915242E+03  0.19362071981E+03 -0.53180479189E+03  0.80078041939E+03  0.10100000352E+00 0.  1.
</event>
<event>
 5   0  0.2204090E-04  0.1202603E+04  0.7818609E-02  0.9110582E-01
        1   -1    0    0  501    0  0.00000000000E+00  0.00000000000E+00  0.14932666109E+04  0.14932666109E+04  0.50400001928E-02 0. -1.
       -1   -1    0    0    0  501  0.00000000000E+00  0.00000000000E+00 -0.24212904794E+03  0.24212904799E+03  0.50400001928E-02 0.  1.
    10030    2    1    2    0    0  0.00000000000E+00  0.00000000000E+00  0.12511375630E+04  0.17353956589E+04  0.12026025493E+04 0.  0.
        2    1    3    3  502    0  0.29594927608E+03 -0.48472594854E+03  0.34052674693E+03  0.66219610734E+03  0.25500000920E-02 0.  1.
       -2    1    3    3    0  502 -0.29594927608E+03  0.48472594854E+03  0.91061081606E+03  0.10731995516E+04  0.25500000920E-02 0. -1.
</event>
<event>
 5   0  0.3883890E-04  0.1200430E+04  0.7818609E-02  0.9112480E-01
        2   -1    0    0  501    0  0.00000000000E+00  0.00000000000E+00  0.16126943309E+04  0.16126943309E+04  0.25500000920E-02 0.  1.
       -2   -1    0    0    0  501  0.00000000000E+00  0.00000000000E+00 -0.22338890554E+03  0.22338890556E+03  0.25500000920E-02 0. -1.
    10030    2    1    2    0    0  0.00000000000E+00  0.00000000000E+00  0.13893054253E+04  0.18360832364E+04  0.12004299589E+04 0.  0.
        2    1    3    3  502    0 -0.57659774064E+03  0.13449894072E+03  0.54398824618E+03  0.80403863810E+03  0.25500000920E-02 0.  1.
       -2    1    3    3    0  502  0.57659774064E+03 -0.13449894072E+03  0.84531717917E+03  0.10320445983E+04  0.25500000920E-02 0. -1.
</event>
<event>
 5   0  0.2340731E-04  0.1194662E+04  0.7818609E-02  0.9117541E-01
        1   -1    0    0  501    0  0.00000000000E+00  0.00000000000E+00  0.12451735183E+04  0.12451735183E+04  0.50400001928E-02 0. -1.
       -1   -1    0    0    0  501  0.00000000000E+00  0.00000000000E+00 -0.28655001981E+03  0.28655001985E+03  0.50400001928E-02 0.  1.
    10030    2    1    2    0    0  0.00000000000E+00  0.00000000000E+00  0.95862349846E+03  0.15317235381E+04  0.11946622893E+04 0.  0.
        3    1    3    3  502    0  0.51503131901E+03  0.17050483412E+03  0.15884018200E+03  0.56529582666E+03  0.10100000352E+00 0.  1.
       -3    1    3    3    0  502 -0.51503131901E+03 -0.17050483412E+03  0.79978331646E+03  0.96642771148E+03  0.10100000352E+00 0. -1.
</event>
<event>
 5   0  0.2315038E-04  0.1199726E+04  0.7818609E-02  0.9113097E-01
       -1   -1    0    0    0  501  0.00000000000E+00  0.00000000000E+00  0.91597880759E+03  0.91597880760E+03  0.50400001928E-02 0.  1.
        1   -1    0    0  501    0  0.00000000000E+00  0.00000000000E+00 -0.39284248957E+03  0.39284248960E+03  0.50400001928E-02 0. -1.
    10030    2    1    2    0    0  0.00000000000E+00  0.00000000000E+00  0.52313631802E+03  0.13088212972E+04  0.11997256273E+04 0.  0.
        1    1    3    3  502    0  0.27756678792E+03  0.31909604412E+01  0.84169667646E+03  0.88628821450E+03  0.50400001928E-02 0.  1.
       -1    1    3    3    0  502 -0.27756678792E+03 -0.31909604412E+01 -0.31856035844E+03  0.42253308270E+03  0.50400001928E-02 0. -1.
</event>
<event>
 5   0  0.3832662E-04  0.1193431E+04  0.7818609E-02  0.9118626E-01
        2   -1    0    0  501    0  0.00000000000E+00  0.00000000000E+00  0.54816225110E+03  0.54816225110E+03  0.25500000920E-02 0.  1.
       -2   -1    0    0    0  501  0.00000000000E+00  0.00000000000E+00 -0.64956930576E+03  0.64956930576E+03  0.25500000920E-02 0. -1.
    10030    2    1    2    0    0  0.00000000000E+00  0.00000000000E+00 -0.10140705466E+03  0.11977315569E+04  0.11934309748E+04 0.  0.
        4    1    3    3  502    0 -0.33673937031E+03 -0.14170486491E+03 -0.52420245427E+03  0.63895500485E+03  0.12699999809E+01 0. -1.
       -4    1    3    3    0  502  0.33673937031E+03  0.14170486491E+03  0.42279539961E+03  0.55877655202E+03  0.12699999809E+01 0.  1.
</event>
<event>
 5   0  0.4122956E-04  0.1201098E+04  0.7818609E-02  0.9111896E-01
       -2   -1    0    0    0  501  0.00000000000E+00  0.00000000000E+00  0.44930327316E+03  0.44930327317E+03  0.25500000920E-02 0.  1.
        2   -1    0    0  501    0  0.00000000000E+00  0.00000000000E+00 -0.80270733638E+03  0.80270733639E+03  0.25500000920E-02 0. -1.
    10030    2    1    2    0    0  0.00000000000E+00  0.00000000000E+00 -0.35340406322E+03  0.12520106096E+04  0.12010978872E+04 0.  0.
        5    1    3    3  502    0  0.47579248729E+03  0.81041268078E+02  0.19578345133E+03  0.52086411655E+03  0.46999998093E+01 0.  1.
       -5    1    3    3    0  502 -0.47579248729E+03 -0.81041268078E+02 -0.54918751456E+03  0.73114649301E+03  0.46999998093E+01 0. -1.
</event>
<event>
 5   0  0.2204090E-04  0.1202456E+04  0.7818609E-02  0.9110709E-01
        1   -1    0    0  501    0  0.00000000000E+00  0.00000000000E+00  0.55482360564E+03  0.55482360566E+03  0.50400001928E-02 0. -1.
       -1   -1    0    0    0  501  0.00000000000E+00  0.00000000000E+00 -0.65151374802E+03  0.65151374804E+03  0.50400001928E-02 0.  1.
    10030    2    1    2    0    0  0.00000000000E+00  0.00000000000E+00 -0.96690142377E+02  0.12063373537E+04  0.12024561644E+04 0.  0.
        2    1    3    3  502    0 -0.22580204762E+03 -0.13229137592E+03  0.49468536003E+03  0.55964379590E+03  0.25500000920E-02 0. -1.
       -2    1    3    3    0  502  0.22580204762E+03  0.13229137592E+03 -0.59137550241E+03  0.64669355780E+03  0.25500000920E-02 0.  1.
</event>
<event>
 5   0  0.2204090E-04  0.1198861E+04  0.7818609E-02  0.9113854E-01
        1   -1    0    0  501    0  0.00000000000E+00  0.00000000000E+00  0.67379211037E+03  0.67379211039E+03  0.50400001928E-02 0. -1.
       -1   -1    0    0    0  501  0.00000000000E+00  0.00000000000E+00 -0.53327597876E+03  0.53327597879E+03  0.50400001928E-02 0.  1.
    10030    2    1    2    0    0  0.00000000000E+00  0.00000000000E+00  0.14051613160E+03  0.12070680892E+04  0.11988613717E+04 0.  0.
        2    1    3    3  502    0  0.41440852413E+02  0.59351274286E+03 -0.33341871980E+01  0.59496708900E+03  0.25500000920E-02 0.  1.
       -2    1    3    3    0  502 -0.41440852413E+02 -0.59351274286E+03  0.14385031880E+03  0.61210100017E+03  0.25500000920E-02 0. -1.
</event>
<event>
 5   0  0.2315038E-04  0.1202698E+04  0.7818609E-02  0.9110498E-01
        1   -1    0    0  501    0  0.00000000000E+00  0.00000000000E+00  0.61867600587E+03  0.61867600589E+03  0.50400001928E-02 0. -1.
       -1   -1    0    0    0  501  0.00000000000E+00  0.00000000000E+00 -0.58450735638E+03  0.58450735640E+03  0.50400001928E-02 0.  1.
    10030    2    1    2    0    0  0.00000000000E+00  0.00000000000E+00  0.34168649494E+02  0.12031833623E+04  0.12026980946E+04 0.  0.
        1    1    3    3  502    0  0.52096592645E+03  0.23985751668E+03 -0.16377454736E+03  0.59645555343E+03  0.50400001928E-02 0. -1.
       -1    1    3    3    0  502 -0.52096592645E+03 -0.23985751668E+03  0.19794319685E+03  0.60672780886E+03  0.50400001928E-02 0.  1.
</event>
<event>
 5   0  0.2244308E-04  0.1194961E+04  0.7818609E-02  0.9117278E-01
        1   -1    0    0  501    0  0.00000000000E+00  0.00000000000E+00  0.33015166010E+03  0.33015166014E+03  0.50400001928E-02 0. -1.
       -1   -1    0    0    0  501  0.00000000000E+00  0.00000000000E+00 -0.10812700416E+04  0.10812700416E+04  0.50400001928E-02 0.  1.
    10030    2    1    2    0    0  0.00000000000E+00  0.00000000000E+00 -0.75111838145E+03  0.14114217017E+04  0.11949612534E+04 0.  0.
        5    1    3    3  502    0  0.61694910292E+02  0.17037369485E+03 -0.10480106517E+04  0.10635703427E+04  0.46999998093E+01 0.  1.
       -5    1    3    3    0  502 -0.61694910292E+02 -0.17037369485E+03  0.29689227022E+03  0.34785135901E+03  0.46999998093E+01 0. -1.
</event>
<event>
 5   0  0.2340731E-04  0.1199700E+04  0.7818609E-02  0.9113119E-01
        1   -1    0    0  501    0  0.00000000000E+00  0.00000000000E+00  0.71101837684E+03  0.71101837685E+03  0.50400001928E-02 0. -1.
       -1   -1    0    0    0  501  0.00000000000E+00  0.00000000000E+00 -0.50606258276E+03  0.50606258278E+03  0.50400001928E-02 0.  1.
    10030    2    1    2    0    0  0.00000000000E+00  0.00000000000E+00  0.20495579408E+03  0.12170809596E+04  0.11996996227E+04 0.  0.
        3    1    3    3  502    0 -0.49927907887E+03 -0.33112213600E+03  0.72071700034E+02  0.60342009222E+03  0.10100000352E+00 0. -1.
       -3    1    3    3    0  502  0.49927907887E+03  0.33112213600E+03  0.13288409405E+03  0.61366086742E+03  0.10100000352E+00 0.  1.
</event>
<event>
 5   0  0.4024486E-04  0.1199920E+04  0.7818609E-02  0.9112926E-01
        2   -1    0    0  501    0  0.00000000000E+00  0.00000000000E+00  0.84155822705E+03  0.84155822706E+03  0.25500000920E-02 0. -1.
       -2   -1    0    0    0  501  0.00000000000E+00  0.00000000000E+00 -0.42772109742E+03  0.42772109743E+03  0.25500000920E-02 0.  1.
    10030    2    1    2    0    0  0.00000000000E+00  0.00000000000E+00  0.41383712963E+03  0.12692793245E+04  0.11999203447E+04 0.  0.
        1    1    3    3  502    0 -0.46410779925E+03  0.37963509206E+03  0.18489806480E+03  0.62746007589E+03  0.50400001928E-02 0.  1.
       -1    1    3    3    0  502  0.46410779925E+03 -0.37963509206E+03  0.22893906483E+03  0.64181924860E+03  0.50400001928E-02 0. -1.
</event>
<event>
 5   0  0.2340731E-04  0.1201655E+04  0.7818609E-02  0.9111409E-01
       -1   -1    0    0    0  501  0.00000000000E+00  0.00000000000E+00  0.57925379198E+03  0.57925379201E+03  0.50400001928E-02 0. -1.
        1   -1    0    0  501    0  0.00000000000E+00  0.00000000000E+00 -0.62320431893E+03  0.62320431895E+03  0.50400001928E-02 0.  1.
    10030    2    1    2    0    0  0.00000000000E+00  0.00000000000E+00 -0.43950526947E+02  0.12024581110E+04  0.12016546342E+04 0.  0.
        3    1    3    3  502    0 -0.16635026018E+03  0.31009215203E+03  0.46534512854E+03  0.58341721835E+03  0.10100000352E+00 0. -1.
       -3    1    3    3    0  502  0.16635026018E+03 -0.31009215203E+03 -0.50929565549E+03  0.61904089260E+03  0.10100000352E+00 0.  1.
</event>
<event>
 5   0  0.2315038E-04  0.1200222E+04  0.7818609E-02  0.9112662E-01
        1   -1    0    0  501    0  0.00000000000E+00  0.00000000000E+00  0.29311188078E+03  0.29311188083E+03  0.50400001928E-02 0. -1.
       -1   -1    0    0    0  501  0.00000000000E+00  0.00000000000E+00 -0.12286546208E+04  0.12286546209E+04  0.50400001928E-02 0.  1.
    10030    2    1    2    0    0  0.00000000000E+00  0.00000000000E+00 -0.93554274006E+03  0.15217665017E+04  0.12002220908E+04 0.  0.
        1    1    3    3  502    0  0.92643807734E+02  0.36635739895E+03  0.12331220250E+03  0.39750033734E+03  0.50400001928E-02 0. -1.
       -1    1    3    3    0  502 -0.92643807734E+02 -0.36635739895E+03 -0.10588549426E+04  0.11242661643E+04  0.50400001928E-02 0.  1.
</event>
<event>
 5   0  0.2315038E-04  0.1198904E+04  0.7818609E-02  0.9113816E-01
        1   -1    0    0  501    0  0.00000000000E+00  0.00000000000E+00  0.98433927038E+03  0.98433927039E+03  0.50400001928E-02 0. -1.
       -1   -1    0    0    0  501  0.00000000000E+00  0.00000000000E+00 -0.36506009491E+03  0.36506009495E+03  0.50400001928E-02 0.  1.
    10030    2    1    2    0    0  0.00000000000E+00  0.00000000000E+00  0.61927917546E+03  0.13493993653E+04  0.11989044791E+04 0.  0.
        1    1    3    3  502    0 -0.34745494570E+03  0.43691587530E+03  0.55551653529E+03  0.78753986717E+03  0.50400001928E-02 0. -1.
       -1    1    3    3    0  502  0.34745494570E+03 -0.43691587530E+03  0.63762640175E+02  0.56185949817E+03  0.50400001928E-02 0.  1.
</event>
<event>
 5   0  0.2204090E-04  0.1200588E+04  0.7818609E-02  0.9112342E-01
       -1   -1    0    0    0  501  0.00000000000E+00  0.00000000000E+00  0.23118877443E+03  0.23118877449E+03  0.50400001928E-02 0. -1.
        1   -1    0    0  501    0  0.00000000000E+00  0.00000000000E+00 -0.15586943662E+04  0.15586943662E+04  0.50400001928E-02 0.  1.
    10030    2    1    2    0    0  0.00000000000E+00  0.00000000000E+00 -0.13275055918E+04  0.17898831407E+04  0.12005875900E+04 0.  0.
        2    1    3    3  502    0  0.25438413403E+02  0.39604966265E+03 -0.13352103113E+04  0.13929425773E+04  0.25500000920E-02 0.  1.
       -2    1    3    3    0  502 -0.25438413403E+02 -0.39604966265E+03  0.77047195590E+01  0.39694056340E+03  0.25500000920E-02 0. -1.
</event>
<event>
 5   0  0.2340731E-04  0.1197543E+04  0.7818609E-02  0.9115010E-01
        1   -1    0    0  501    0  0.00000000000E+00  0.00000000000E+00  0.62527020069E+03  0.62527020071E+03  0.50400001928E-02 0. -1.
       -1   -1    0    0    0  501  0.00000000000E+00  0.00000000000E+00 -0.57339558303E+03  0.57339558306E+03  0.50400001928E-02 0.  1.
    10030    2    1    2    0    0  0.00000000000E+00  0.00000000000E+00  0.51874617659E+02  0.11986657838E+04  0.11975427697E+04 0.  0.
        3    1    3    3  502    0 -0.98285475208E+01  0.58468711228E+03  0.15478852727E+03  0.60490918161E+03  0.10100000352E+00 0. -1.
       -3    1    3    3    0  502  0.98285475208E+01 -0.58468711228E+03 -0.10291390961E+03  0.59375660216E+03  0.10100000352E+00 0.  1.
</event>
<event>
 5   0  0.4024486E-04  0.1206687E+04  0.7818609E-02  0.9107024E-01
        2   -1    0    0  501    0  0.00000000000E+00  0.00000000000E+00  0.47827410593E+03  0.47827410593E+03  0.25500000920E-02 0. -1.
       -2   -1    0    0    0  501  0.00000000000E+00  0.00000000000E+00 -0.76111866494E+03  0.76111866495E+03  0.25500000920E-02 0.  1.
    10030    2    1    2    0    0  0.00000000000E+00  0.00000000000E+00 -0.28284455901E+03  0.12393927709E+04  0.12066869503E+04 0.  0.
        1    1    3    3  502    0  0.59546797392E+03  0.94106361539E+02 -0.16626956850E+03  0.62536684009E+03  0.50400001928E-02 0. -1.
       -1    1    3    3    0  502 -0.59546797392E+03 -0.94106361539E+02 -0.11657499052E+03  0.61402593079E+03  0.50400001928E-02 0.  1.
</event>
<event>
 5   0  0.3993723E-04  0.1189901E+04  0.7818609E-02  0.9121742E-01
        2   -1    0    0  501    0  0.00000000000E+00  0.00000000000E+00  0.31237426725E+03  0.31237426726E+03  0.25500000920E-02 0.  1.
       -2   -1    0    0    0  501  0.00000000000E+00  0.00000000000E+00 -0.11331472209E+04  0.11331472209E+04  0.25500000920E-02 0. -1.
    10030    2    1    2    0    0  0.00000000000E+00  0.00000000000E+00 -0.82077295363E+03  0.14455214881E+04  0.11899008914E+04 0.  0.
        3    1    3    3  502    0 -0.31024270815E+03 -0.61584508852E+02 -0.10225460414E+04  0.10703474234E+04  0.10100000352E+00 0. -1.
       -3    1    3    3    0  502  0.31024270815E+03  0.61584508852E+02  0.20177308782E+03  0.37517406475E+03  0.10100000352E+00 0.  1.
</event>
<event>
 5   0  0.2340731E-04  0.1199368E+04  0.7818609E-02  0.9113410E-01
        1   -1    0    0  501    0  0.00000000000E+00  0.00000000000E+00  0.82919143962E+03  0.82919143963E+03  0.50400001928E-02 0. -1.
       -1   -1    0    0    0  501  0.00000000000E+00  0.00000000000E+00 -0.43370071248E+03  0.43370071251E+03  0.50400001928E-02 0.  1.
    10030    2    1    2    0    0  0.00000000000E+00  0.00000000000E+00  0.39549072714E+03  0.12628921521E+04  0.11993680305E+04 0.  0.
        3    1    3    3  502    0 -0.53258903684E+03  0.30812842167E+02 -0.90660089783E+02  0.54112824310E+03  0.10100000352E+00 0.  1.
       -3    1    3    3    0  502  0.53258903684E+03 -0.30812842167E+02  0.48615081692E+03  0.72176390904E+03  0.10100000352E+00 0. -1.
</event>
<event>
 5   0  0.4122956E-04  0.1204745E+04  0.7818609E-02  0.9108713E-01
        2   -1    0    0  501    0  0.00000000000E+00  0.00000000000E+00  0.96163702347E+03  0.96163702348E+03  0.25500000920E-02 0. -1.
       -2   -1    0    0    0  501  0.00000000000E+00  0.00000000000E+00 -0.37732823797E+03  0.37732823798E+03  0.25500000920E-02 0.  1.
    10030    2    1    2    0    0  0.00000000000E+00  0.00000000000E+00  0.58430878550E+03  0.13389652615E+04  0.12047452903E+04 0.  0.
        5    1    3    3  502    0  0.20875678142E+03  0.52366364730E+03  0.56316288366E+02  0.56656563929E+03  0.46999998093E+01 0.  1.
       -5    1    3    3    0  502 -0.20875678142E+03 -0.52366364730E+03  0.52799249713E+03  0.77239962216E+03  0.46999998093E+01 0. -1.
</event>
<event>
 5   0  0.2204090E-04  0.1198651E+04  0.7818609E-02  0.9114038E-01
       -1   -1    0    0    0  501  0.00000000000E+00  0.00000000000E+00  0.62745045495E+03  0.62745045497E+03  0.50400001928E-02 0. -1.
        1   -1    0    0  501    0  0.00000000000E+00  0.00000000000E+00 -0.57246088019E+03  0.57246088021E+03  0.50400001928E-02 0.  1.
    10030    2    1    2    0    0  0.00000000000E+00  0.00000000000E+00  0.54989574755E+02  0.11999113352E+04  0.11986506409E+04 0.  0.
        2    1    3    3  502    0  0.18829565429E+02 -0.44468896977E+03 -0.37428505010E+03  0.58154288845E+03  0.25500000920E-02 0.  1.
       -2    1    3    3    0  502 -0.18829565429E+02  0.44468896977E+03  0.42927462485E+03  0.61836844674E+03  0.25500000920E-02 0. -1.
</event>
<event>
 5   0  0.2204090E-04  0.1200199E+04  0.7818609E-02  0.9112683E-01
       -1   -1    0    0    0  501  0.00000000000E+00  0.00000000000E+00  0.46103055917E+03  0.46103055920E+03  0.50400001928E-02 0.  1.
        1   -1    0    0  501    0  0.00000000000E+00  0.00000000000E+00 -0.78111795344E+03  0.78111795346E+03  0.50400001928E-02 0. -1.
    10030    2    1    2    0    0  0.00000000000E+00  0.00000000000E+00 -0.32008739427E+03  0.12421485127E+04  0.12001987283E+04 0.  0.
        2    1    3    3  502    0 -0.22476678639E+03 -0.36239456405E+03  0.27693338821E+03  0.50847028412E+03  0.25500000920E-02 0.  1.
       -2    1    3    3    0  502  0.22476678639E+03  0.36239456405E+03 -0.59702078248E+03  0.73367822854E+03  0.25500000920E-02 0. -1.
</event>
<event>
 5   0  0.2315038E-04  0.1213997E+04  0.7818609E-02  0.9100693E-01
       -1   -1    0    0    0  501  0.00000000000E+00  0.00000000000E+00  0.40780669454E+03  0.40780669457E+03  0.50400001928E-02 0. -1.
        1   -1    0    0  501    0  0.00000000000E+00  0.00000000000E+00 -0.90348450699E+03  0.90348450701E+03  0.50400001928E-02 0.  1.
    10030    2    1    2    0    0  0.00000000000E+00  0.00000000000E+00 -0.49567781245E+03  0.13112912016E+04  0.12139967552E+04 0.  0.
        1    1    3    3  502    0 -0.58530084723E+03 -0.15258974818E+03 -0.19290727089E+03  0.63488103469E+03  0.50400001928E-02 0. -1.
       -1    1    3    3    0  502  0.58530084723E+03  0.15258974818E+03 -0.30277054156E+03  0.67641016689E+03  0.50400001928E-02 0.  1.
</event>
<event>
 5   0  0.2244308E-04  0.1203940E+04  0.7818609E-02  0.9109415E-01
       -1   -1    0    0    0  501  0.00000000000E+00  0.00000000000E+00  0.40765008329E+03  0.40765008332E+03  0.50400001928E-02 0. -1.
        1   -1    0    0  501    0  0.00000000000E+00  0.00000000000E+00 -0.88891831851E+03  0.88891831852E+03  0.50400001928E-02 0.  1.
    10030    2    1    2    0    0  0.00000000000E+00  0.00000000000E+00 -0.48126823521E+03  0.12965684018E+04  0.12039395776E+04 0.  0.
        5    1    3    3  502    0  0.13083924502E+03  0.12487815636E+03  0.37767474830E+03  0.41877651256E+03  0.46999998093E+01 0. -1.
       -5    1    3    3    0  502 -0.13083924502E+03 -0.12487815636E+03 -0.85894298351E+03  0.87779188929E+03  0.46999998093E+01 0.  1.
</event>
<event>
 5   0  0.4122956E-04  0.1199612E+04  0.7818609E-02  0.9113197E-01
       -2   -1    0    0    0  501  0.00000000000E+00  0.00000000000E+00  0.13281272245E+04  0.13281272245E+04  0.25500000920E-02 0. -1.
        2   -1    0    0  501    0  0.00000000000E+00  0.00000000000E+00 -0.27088291580E+03  0.27088291581E+03  0.25500000920E-02 0.  1.
    10030    2    1    2    0    0  0.00000000000E+00  0.00000000000E+00  0.10572443087E+04  0.15990101403E+04  0.11996115623E+04 0.  0.
        5    1    3    3  502    0  0.25082186325E+03 -0.51265134492E+03  0.77448319037E+03  0.96206512809E+03  0.46999998093E+01 0. -1.
       -5    1    3    3    0  502 -0.25082186325E+03  0.51265134492E+03  0.28276111830E+03  0.63694501219E+03  0.46999998093E+01 0.  1.
</event>
<event>
 5   0  0.3832662E-04  0.1199491E+04  0.7818609E-02  0.9113302E-01
        2   -1    0    0  501    0  0.00000000000E+00  0.00000000000E+00  0.13037657720E+04  0.13037657720E+04  0.25500000920E-02 0. -1.
       -2   -1    0    0    0  501  0.00000000000E+00  0.00000000000E+00 -0.27588897383E+03  0.27588897384E+03  0.25500000920E-02 0.  1.
    10030    2    1    2    0    0  0.00000000000E+00  0.00000000000E+00  0.10278767982E+04  0.15796547458E+04  0.11994908936E+04 0.  0.
        4    1    3    3  502    0 -0.38691642603E+03 -0.44255888755E+03  0.67048400714E+03  0.89169114967E+03  0.12699999809E+01 0. -1.
       -4    1    3    3    0  502  0.38691642603E+03  0.44255888755E+03  0.35739279103E+03  0.68796359617E+03  0.12699999809E+01 0.  1.
</event>
<event>
 5   0  0.2244308E-04  0.1208684E+04  0.7818609E-02  0.9105289E-01
       -1   -1    0    0    0  501  0.00000000000E+00  0.00000000000E+00  0.27080491718E+03  0.27080491722E+03  0.50400001928E-02 0. -1.
        1   -1    0    0  501    0  0.00000000000E+00  0.00000000000E+00 -0.13486805547E+04  0.13486805547E+04  0.50400001928E-02 0.  1.
    10030    2    1    2    0    0  0.00000000000E+00  0.00000000000E+00 -0.10778756376E+04  0.16194854720E+04  0.12086841208E+04 0.  0.
        5    1    3    3  502    0  0.56377452706E+03  0.77589284753E+02 -0.26649337728E+03  0.62841278201E+03  0.46999998093E+01 0. -1.
       -5    1    3    3    0  502 -0.56377452706E+03 -0.77589284753E+02 -0.81138226029E+03  0.99107268995E+03  0.46999998093E+01 0.  1.
</event>
<event>
 5   0  0.2244308E-04  0.1192617E+04  0.7818609E-02  0.9119344E-01
        1   -1    0    0  501    0  0.00000000000E+00  0.00000000000E+00  0.13594923540E+04  0.13594923540E+04  0.50400001928E-02 0.  1.
       -1   -1    0    0    0  501  0.00000000000E+00  0.00000000000E+00 -0.26155627300E+03  0.26155627305E+03  0.50400001928E-02 0. -1.
    10030    2    1    2    0    0  0.00000000000E+00  0.00000000000E+00  0.10979360810E+04  0.16210486271E+04  0.11926168762E+04 0.  0.
        5    1    3    3  502    0  0.21712414623E+03 -0.53424961118E+03  0.75508911073E+03  0.95013009481E+03  0.46999998093E+01 0.  1.
       -5    1    3    3    0  502 -0.21712414623E+03  0.53424961118E+03  0.34284697031E+03  0.67091853229E+03  0.46999998093E+01 0. -1.
</event>
<event>
 5   0  0.4024486E-04  0.1197550E+04  0.7818609E-02  0.9115004E-01
       -2   -1    0    0    0  501  0.00000000000E+00  0.00000000000E+00  0.37719559459E+03  0.37719559460E+03  0.25500000920E-02 0.  1.
        2   -1    0    0  501    0  0.00000000000E+00  0.00000000000E+00 -0.95051871928E+03  0.95051871928E+03  0.25500000920E-02 0. -1.
    10030    2    1    2    0    0  0.00000000000E+00  0.00000000000E+00 -0.57332312468E+03  0.13277143139E+04  0.11975499547E+04 0.  0.
        1    1    3    3  502    0  0.21378346552E+03 -0.53786713971E+03 -0.11660449900E+03  0.59042445691E+03  0.50400001928E-02 0.  1.
       -1    1    3    3    0  502 -0.21378346552E+03  0.53786713971E+03 -0.45671862569E+03  0.73728985697E+03  0.50400001928E-02 0. -1.
</event>
<event>
 5   0  0.3832662E-04  0.1197205E+04  0.7818609E-02  0.9115307E-01
       -2   -1    0    0    0  501  0.00000000000E+00  0.00000000000E+00  0.65808196718E+03  0.65808196718E+03  0.25500000920E-02 0.  1.
        2   -1    0    0  501    0  0.00000000000E+00  0.00000000000E+00 -0.54449892565E+03  0.54449892566E+03  0.25500000920E-02 0. -1.
    10030    2    1    2    0    0  0.00000000000E+00  0.00000000000E+00  0.11358304152E+03  0.12025808928E+04  0.11972049518E+04 0.  0.
        4    1    3    3  502    0  0.15321019675E+03  0.56456061226E+03  0.18433119747E+03  0.61333649212E+03  0.12699999809E+01 0.  1.
       -4    1    3    3    0  502 -0.15321019675E+03 -0.56456061226E+03 -0.70748155951E+02  0.58924440072E+03  0.12699999809E+01 0. -1.
</event>
<event>
 5   0  0.3832662E-04  0.1201919E+04  0.7818609E-02  0.9111178E-01
       -2   -1    0    0    0  501  0.00000000000E+00  0.00000000000E+00  0.34178782477E+03  0.34178782478E+03  0.25500000920E-02 0. -1.
        2   -1    0    0  501    0  0.00000000000E+00  0.00000000000E+00 -0.10566568586E+04  0.10566568586E+04  0.25500000920E-02 0.  1.
    10030    2    1    2    0    0  0.00000000000E+00  0.00000000000E+00 -0.71486903386E+03  0.13984446834E+04  0.12019192140E+04 0.  0.
        4    1    3    3  502    0  0.21497076771E+03 -0.55050253621E+03 -0.48428036007E+03  0.76406449557E+03  0.12699999809E+01 0. -1.
       -4    1    3    3    0  502 -0.21497076771E+03  0.55050253621E+03 -0.23058867379E+03  0.63438018784E+03  0.12699999809E+01 0.  1.
</event>
<event>
 5   0  0.2304842E-04  0.1200171E+04  0.7818609E-02  0.9112707E-01
        1   -1    0    0  501    0  0.00000000000E+00  0.00000000000E+00  0.88602868075E+03  0.88602868077E+03  0.50400001928E-02 0.  1.
       -1   -1    0    0    0  501  0.00000000000E+00  0.00000000000E+00 -0.40642316060E+03  0.40642316063E+03  0.50400001928E-02 0. -1.
    10030    2    1    2    0    0  0.00000000000E+00  0.00000000000E+00  0.47960552015E+03  0.12924518414E+04  0.12001709492E+04 0.  0.
        4    1    3    3  502    0  0.47830104103E+03  0.20636006881E+03  0.56060857208E+03  0.76527115968E+03  0.12699999809E+01 0.  1.
       -4    1    3    3    0  502 -0.47830104103E+03 -0.20636006881E+03 -0.81003051928E+02  0.52718068171E+03  0.12699999809E+01 0. -1.
</event>
<event>
 5   0  0.2340731E-04  0.1202307E+04  0.7818609E-02  0.9110839E-01
       -1   -1    0    0    0  501  0.00000000000E+00  0.00000000000E+00  0.66009503261E+03  0.66009503262E+03  0.50400001928E-02 0.  1.
        1   -1    0    0  501    0  0.00000000000E+00  0.00000000000E+00 -0.54747520634E+03  0.54747520637E+03  0.50400001928E-02 0. -1.
    10030    2    1    2    0    0  0.00000000000E+00  0.00000000000E+00  0.11261982626E+03  0.12075702390E+04  0.12023072223E+04 0.  0.
        3    1    3    3  502    0 -0.30216155373E+03 -0.39478933526E+03  0.39576189329E+03  0.63544292440E+03  0.10100000352E+00 0.  1.
       -3    1    3    3    0  502  0.30216155373E+03  0.39478933526E+03 -0.28314206703E+03  0.57212731459E+03  0.10100000352E+00 0. -1.
</event>
<event>
 5   0  0.2315038E-04  0.1200261E+04  0.7818609E-02  0.9112629E-01
        1   -1    0    0  501    0  0.00000000000E+00  0.00000000000E+00  0.55010261796E+03  0.55010261799E+03  0.50400001928E-02 0. -1.
       -1   -1    0    0    0  501  0.00000000000E+00  0.00000000000E+00 -0.65470755997E+03  0.65470755999E+03  0.50400001928E-02 0.  1.
    10030    2    1    2    0    0  0.00000000000E+00  0.00000000000E+00 -0.10460494201E+03  0.12048101780E+04  0.12002605430E+04 0.  0.
        1    1    3    3  502    0 -0.11836492798E+03  0.26747066993E+03 -0.57831699464E+03  0.64807512046E+03  0.50400001928E-02 0.  1.
       -1    1    3    3    0  502  0.11836492798E+03 -0.26747066993E+03  0.47371205263E+03  0.55673505752E+03  0.50400001928E-02 0. -1.
</event>
<event>
 5   0  0.3832662E-04  0.1203034E+04  0.7818609E-02  0.9110205E-01
        2   -1    0    0  501    0  0.00000000000E+00  0.00000000000E+00  0.14957674210E+04  0.14957674210E+04  0.25500000920E-02 0. -1.
       -2   -1    0    0    0  501  0.00000000000E+00  0.00000000000E+00 -0.24189762843E+03  0.24189762845E+03  0.25500000920E-02 0.  1.
    10030    2    1    2    0    0  0.00000000000E+00  0.00000000000E+00  0.12538697926E+04  0.17376650495E+04  0.12030338181E+04 0.  0.
        4    1    3    3  502    0  0.14421335678E+03  0.32823811369E+02 -0.21522246974E+03  0.26114597306E+03  0.12699999809E+01 0.  1.
       -4    1    3    3    0  502 -0.14421335678E+03 -0.32823811369E+02  0.14690922623E+04  0.14765190764E+04  0.12699999809E+01 0. -1.
</event>
<event>
 5   0  0.2304842E-04  0.1194052E+04  0.7818609E-02  0.9118079E-01
       -1   -1    0    0    0  501  0.00000000000E+00  0.00000000000E+00  0.23212384466E+03  0.23212384471E+03  0.50400001928E-02 0.  1.
        1   -1    0    0  501    0  0.00000000000E+00  0.00000000000E+00 -0.15355602548E+04  0.15355602548E+04  0.50400001928E-02 0. -1.
    10030    2    1    2    0    0  0.00000000000E+00  0.00000000000E+00 -0.13034364102E+04  0.17676840995E+04  0.11940521766E+04 0.  0.
        4    1    3    3  502    0  0.16994968659E+03 -0.25953398281E+02 -0.14981206233E+04  0.15079534110E+04  0.12699999809E+01 0. -1.
       -4    1    3    3    0  502 -0.16994968659E+03  0.25953398281E+02  0.19468421311E+03  0.25973068858E+03  0.12699999809E+01 0.  1.
</event>
<event>
 5   0  0.4024486E-04  0.1197652E+04  0.7818609E-02  0.9114914E-01
        2   -1    0    0  501    0  0.00000000000E+00  0.00000000000E+00  0.20235446301E+04  0.20235446301E+04  0.25500000920E-02 0. -1.
       -2   -1    0    0    0  501  0.00000000000E+00  0.00000000000E+00 -0.17721013501E+03  0.17721013503E+03  0.25500000920E-02 0.  1.
    10030    2    1    2    0    0  0.00000000000E+00  0.00000000000E+00  0.18463344951E+04  0.22007547651E+04  0.11976520649E+04 0.  0.
        1    1    3    3  502    0  0.23431909612E+03  0.24017213996E+02  0.19348430616E+04  0.19491279944E+04  0.50400001928E-02 0. -1.
       -1    1    3    3    0  502 -0.23431909612E+03 -0.24017213996E+02 -0.88508566543E+02  0.25162677073E+03  0.50400001928E-02 0.  1.
</event>
<event>
 5   0  0.2244308E-04  0.1201857E+04  0.7818609E-02  0.9111232E-01
        1   -1    0    0  501    0  0.00000000000E+00  0.00000000000E+00  0.83240222737E+03  0.83240222738E+03  0.50400001928E-02 0. -1.
       -1   -1    0    0    0  501  0.00000000000E+00  0.00000000000E+00 -0.43382299494E+03  0.43382299497E+03  0.50400001928E-02 0.  1.
    10030    2    1    2    0    0  0.00000000000E+00  0.00000000000E+00  0.39857923243E+03  0.12662252223E+04  0.12018572749E+04 0.  0.
        5    1    3    3  502    0  0.63441142794E+02  0.16712098706E+03 -0.40514272348E+03  0.44285089962E+03  0.46999998093E+01 0.  1.
       -5    1    3    3    0  502 -0.63441142794E+02 -0.16712098706E+03  0.80372195591E+03  0.82337432272E+03  0.46999998093E+01 0. -1.
</event>
<event>
 5   0  0.3993723E-04  0.1204117E+04  0.7818609E-02  0.9109260E-01
        2   -1    0    0  501    0  0.00000000000E+00  0.00000000000E+00  0.57369586172E+03  0.57369586172E+03  0.25500000920E-02 0.  1.
       -2   -1    0    0    0  501  0.00000000000E+00  0.00000000000E+00 -0.63182375293E+03  0.63182375293E+03  0.25500000920E-02 0. -1.
    10030    2    1    2    0    0  0.00000000000E+00  0.00000000000E+00 -0.58127891212E+02  0.12055196147E+04  0.12041173903E+04 0.  0.
        3    1    3    3  502    0  0.19171976553E+02  0.21608898340E+03 -0.59133406584E+03  0.62987141628E+03  0.10100000352E+00 0. -1.
       -3    1    3    3    0  502 -0.19171976553E+02 -0.21608898340E+03  0.53320617462E+03  0.57564819837E+03  0.10100000352E+00 0.  1.
</event>
<event>
 5   0  0.4024486E-04  0.1201224E+04  0.7818609E-02  0.9111786E-01
       -2   -1    0    0    0  501  0.00000000000E+00  0.00000000000E+00  0.52174940751E+03  0.52174940752E+03  0.25500000920E-02 0. -1.
        2   -1    0    0  501    0  0.00000000000E+00  0.00000000000E+00 -0.69139462013E+03  0.69139462013E+03  0.25500000920E-02 0.  1.
    10030    2    1    2    0    0  0.00000000000E+00  0.00000000000E+00 -0.16964521262E+03  0.12131440276E+04  0.12012239315E+04 0.  0.
        1    1    3    3  502    0  0.14686868379E+03 -0.56964094847E+02  0.50051434505E+03  0.52471890380E+03  0.50400001928E-02 0. -1.
       -1    1    3    3    0  502 -0.14686868379E+03  0.56964094847E+02 -0.67015955767E+03  0.68842512384E+03  0.50400001928E-02 0.  1.
</event>
<event>
 5   0  0.2244308E-04  0.1213254E+04  0.7818609E-02  0.9101334E-01
        1   -1    0    0  501    0  0.00000000000E+00  0.00000000000E+00  0.56173233001E+03  0.56173233004E+03  0.50400001928E-02 0.  1.
       -1   -1    0    0    0  501  0.00000000000E+00  0.00000000000E+00 -0.65511001534E+03  0.65511001536E+03  0.50400001928E-02 0. -1.
    10030    2    1    2    0    0  0.00000000000E+00  0.00000000000E+00 -0.93377685328E+02  0.12168423454E+04  0.12132542608E+04 0.  0.
        5    1    3    3  502    0 -0.90541561470E+01  0.36357938106E+03 -0.53361659715E+03  0.64578688964E+03  0.46999998093E+01 0. -1.
       -5    1    3    3    0  502  0.90541561470E+01 -0.36357938106E+03  0.44023891182E+03  0.57105545576E+03  0.46999998093E+01 0.  1.
</event>
<event>
 5   0  0.2204090E-04  0.1204978E+04  0.7818609E-02  0.9108511E-01
        1   -1    0    0  501    0  0.00000000000E+00  0.00000000000E+00  0.20828812944E+04  0.20828812944E+04  0.50400001928E-02 0.  1.
       -1   -1    0    0    0  501  0.00000000000E+00  0.00000000000E+00 -0.17427437514E+03  0.17427437521E+03  0.50400001928E-02 0. -1.
    10030    2    1    2    0    0  0.00000000000E+00  0.00000000000E+00  0.19086069193E+04  0.22571556696E+04  0.12049777361E+04 0.  0.
        2    1    3    3  502    0 -0.86297888630E+02  0.33991688504E+03  0.18719806553E+04  0.19045478173E+04  0.25500000920E-02 0. -1.
       -2    1    3    3    0  502  0.86297888630E+02 -0.33991688504E+03  0.36626263924E+02  0.35260785234E+03  0.25500000920E-02 0.  1.
</event>
<event>
 5   0  0.3883890E-04  0.1200669E+04  0.7818609E-02  0.9112271E-01
       -2   -1    0    0    0  501  0.00000000000E+00  0.00000000000E+00  0.28792309350E+03  0.28792309351E+03  0.25500000920E-02 0.  1.
        2   -1    0    0  501    0  0.00000000000E+00  0.00000000000E+00 -0.12517279015E+04  0.12517279015E+04  0.25500000920E-02 0. -1.
    10030    2    1    2    0    0  0.00000000000E+00  0.00000000000E+00 -0.96380480804E+03  0.15396509951E+04  0.12006687630E+04 0.  0.
        2    1    3    3  502    0  0.22082420570E+03 -0.48153462767E+03 -0.84406058180E+03  0.99653258513E+03  0.25500000920E-02 0. -1.
       -2    1    3    3    0  502 -0.22082420570E+03  0.48153462767E+03 -0.11974422624E+03  0.54311840992E+03  0.25500000920E-02 0.  1.
</event>
<event>
 5   0  0.3883890E-04  0.1198900E+04  0.7818609E-02  0.9113820E-01
        2   -1    0    0  501    0  0.00000000000E+00  0.00000000000E+00  0.16745324230E+04  0.16745324231E+04  0.25500000920E-02 0.  1.
       -2   -1    0    0    0  501  0.00000000000E+00  0.00000000000E+00 -0.21459156010E+03  0.21459156012E+03  0.25500000920E-02 0. -1.
    10030    2    1    2    0    0  0.00000000000E+00  0.00000000000E+00  0.14599408629E+04  0.18891239832E+04  0.11989003714E+04 0.  0.
        2    1    3    3  502    0  0.45971072374E+02 -0.92177695933E+01  0.16716387577E+04  0.16722961588E+04  0.25500000920E-02 0.  1.
       -2    1    3    3    0  502 -0.45971072374E+02  0.92177695933E+01 -0.21169789471E+03  0.21682782433E+03  0.25500000920E-02 0. -1.
</event>
<event>
 5   0  0.2315038E-04  0.1192996E+04  0.7818609E-02  0.9119009E-01
        1   -1    0    0  501    0  0.00000000000E+00  0.00000000000E+00  0.28666596204E+03  0.28666596209E+03  0.50400001928E-02 0.  1.
       -1   -1    0    0    0  501  0.00000000000E+00  0.00000000000E+00 -0.12412001252E+04  0.12412001252E+04  0.50400001928E-02 0. -1.
    10030    2    1    2    0    0  0.00000000000E+00  0.00000000000E+00 -0.95453416313E+03  0.15278660873E+04  0.11929959397E+04 0.  0.
        1    1    3    3  502    0 -0.87184296719E+02  0.29334081620E+03 -0.11330037207E+04  0.11736044339E+04  0.50400001928E-02 0. -1.
       -1    1    3    3    0  502  0.87184296719E+02 -0.29334081620E+03  0.17846955759E+03  0.35426165338E+03  0.50400001928E-02 0.  1.
</event>
<event>
 5   0  0.2204090E-04  0.1183139E+04  0.7818609E-02  0.9127745E-01
        1   -1    0    0  501    0  0.00000000000E+00  0.00000000000E+00  0.99363105719E+03  0.99363105720E+03  0.50400001928E-02 0. -1.
       -1   -1    0    0    0  501  0.00000000000E+00  0.00000000000E+00 -0.35219744102E+03  0.35219744106E+03  0.50400001928E-02 0.  1.
    10030    2    1    2    0    0  0.00000000000E+00  0.00000000000E+00  0.64143361616E+03  0.13458284983E+04  0.11831387335E+04 0.  0.
        2    1    3    3  502    0 -0.89990162873E+02  0.53319439006E+03  0.47810361804E+02  0.54284465339E+03  0.25500000920E-02 0.  1.
       -2    1    3    3    0  502  0.89990162873E+02 -0.53319439006E+03  0.59362325436E+03  0.80298384487E+03  0.25500000920E-02 0. -1.
</event>
<event>
 5   0  0.4024486E-04  0.1199662E+04  0.7818609E-02  0.9113153E-01
        2   -1    0    0  501    0  0.00000000000E+00  0.00000000000E+00  0.12034593813E+04  0.12034593813E+04  0.25500000920E-02 0. -1.
       -2   -1    0    0    0  501  0.00000000000E+00  0.00000000000E+00 -0.29896893610E+03  0.29896893611E+03  0.25500000920E-02 0.  1.
    10030    2    1    2    0    0  0.00000000000E+00  0.00000000000E+00  0.90449044521E+03  0.15024283174E+04  0.11996615704E+04 0.  0.
        1    1    3    3  502    0 -0.20804770777E+03 -0.48002069900E+03  0.84777188062E+02  0.52999140731E+03  0.50400001928E-02 0.  1.
       -1    1    3    3    0  502  0.20804770777E+03  0.48002069900E+03  0.81971325715E+03  0.97243691012E+03  0.50400001928E-02 0. -1.
</event>
<event>
 5   0  0.2304842E-04  0.1199254E+04  0.7818609E-02  0.9113510E-01
       -1   -1    0    0    0  501  0.00000000000E+00  0.00000000000E+00  0.52042942849E+03  0.52042942852E+03  0.50400001928E-02 0.  1.
        1   -1    0    0  501    0  0.00000000000E+00  0.00000000000E+00 -0.69087662243E+03  0.69087662244E+03  0.50400001928E-02 0. -1.
    10030    2    1    2    0    0  0.00000000000E+00  0.00000000000E+00 -0.17044719393E+03  0.12113060510E+04  0.11992539778E+04 0.  0.
        4    1    3    3  502    0  0.36928998109E+03  0.24858392216E+03 -0.49098438239E+03  0.66274907254E+03  0.12699999809E+01 0. -1.
       -4    1    3    3    0  502 -0.36928998109E+03 -0.24858392216E+03  0.32053718846E+03  0.54855697843E+03  0.12699999809E+01 0.  1.
</event>
<event>
 5   0  0.4024486E-04  0.1196436E+04  0.7818609E-02  0.9115981E-01
       -2   -1    0    0    0  501  0.00000000000E+00  0.00000000000E+00  0.21913746838E+03  0.21913746840E+03  0.25500000920E-02 0.  1.
        2   -1    0    0  501    0  0.00000000000E+00  0.00000000000E+00 -0.16330619798E+04  0.16330619798E+04  0.25500000920E-02 0. -1.
    10030    2    1    2    0    0  0.00000000000E+00  0.00000000000E+00 -0.14139245114E+04  0.18521994482E+04  0.11964364889E+04 0.  0.
        1    1    3    3  502    0  0.53607894136E+01  0.47286965576E+03 -0.12741461583E+04  0.13590742740E+04  0.50400001928E-02 0. -1.
       -1    1    3    3    0  502 -0.53607894136E+01 -0.47286965576E+03 -0.13977835306E+03  0.49312517418E+03  0.50400001928E-02 0.  1.
</event>
<event>
 5   0  0.2315038E-04  0.1205138E+04  0.7818609E-02  0.9108371E-01
        1   -1    0    0  501    0  0.00000000000E+00  0.00000000000E+00  0.53753113157E+03  0.53753113159E+03  0.50400001928E-02 0. -1.
       -1   -1    0    0    0  501  0.00000000000E+00  0.00000000000E+00 -0.67547592718E+03  0.67547592720E+03  0.50400001928E-02 0.  1.
    10030    2    1    2    0    0  0.00000000000E+00  0.00000000000E+00 -0.13794479561E+03  0.12130070588E+04  0.12051379000E+04 0.  0.
        1    1    3    3  502    0 -0.53161724395E+03 -0.10180121118E+03  0.19753749970E+03  0.57619566509E+03  0.50400001928E-02 0. -1.
       -1    1    3    3    0  502  0.53161724395E+03  0.10180121118E+03 -0.33548229531E+03  0.63681139370E+03  0.50400001928E-02 0.  1.
</event>
<event>
 5   0  0.3832662E-04  0.1202154E+04  0.7818609E-02  0.9110973E-01
        2   -1    0    0  501    0  0.00000000000E+00  0.00000000000E+00  0.79018460220E+03  0.79018460221E+03  0.25500000920E-02 0.  1.
       -2   -1    0    0    0  501  0.00000000000E+00  0.00000000000E+00 -0.45722657347E+03  0.45722657348E+03  0.25500000920E-02 0. -1.
    10030    2    1    2    0    0  0.00000000000E+00  0.00000000000E+00  0.33295802873E+03  0.12474111757E+04  0.12021537307E+04 0.  0.
        4    1    3    3  502    0  0.27160860678E+03 -0.17665283704E+03 -0.35885565336E+03  0.48348366359E+03  0.12699999809E+01 0. -1.
       -4    1    3    3    0  502 -0.27160860678E+03  0.17665283704E+03  0.69181368209E+03  0.76392751210E+03  0.12699999809E+01 0.  1.
</event>
<event>
 5   0  0.2244308E-04  0.1199802E+04  0.7818609E-02  0.9113030E-01
        1   -1    0    0  501    0  0.00000000000E+00  0.00000000000E+00  0.71567275237E+03  0.71567275238E+03  0.50400001928E-02 0. -1.
       -1   -1    0    0    0  501  0.00000000000E+00  0.00000000000E+00 -0.50285741768E+03  0.50285741770E+03  0.50400001928E-02 0.  1.
    10030    2    1    2    0    0  0.00000000000E+00  0.00000000000E+00  0.21281533469E+03  0.12185301701E+04  0.11998022373E+04 0.  0.
        5    1    3    3  502    0  0.49928550264E+03 -0.33224713964E+03  0.92590632499E+02  0.60685195079E+03  0.46999998093E+01 0.  1.
       -5    1    3    3    0  502 -0.49928550264E+03  0.33224713964E+03  0.12022470219E+03  0.61167821930E+03  0.46999998093E+01 0. -1.
</event>
<event>
 5   0  0.3993723E-04  0.1202030E+04  0.7818609E-02  0.9111081E-01
        2   -1    0    0  501    0  0.00000000000E+00  0.00000000000E+00  0.13871919429E+04  0.13871919429E+04  0.25500000920E-02 0.  1.
       -2   -1    0    0    0  501  0.00000000000E+00  0.00000000000E+00 -0.26039604697E+03  0.26039604698E+03  0.25500000920E-02 0. -1.
    10030    2    1    2    0    0  0.00000000000E+00  0.00000000000E+00  0.11267958959E+04  0.16475879899E+04  0.12020304461E+04 0.  0.
        3    1    3    3  502    0  0.58637166473E+03 -0.12430678732E+03  0.50309806777E+03  0.78255452370E+03  0.10100000352E+00 0.  1.
       -3    1    3    3    0  502 -0.58637166473E+03  0.12430678732E+03  0.62369782818E+03  0.86503346620E+03  0.10100000352E+00 0. -1.
</event>
<event>
 5   0  0.3883890E-04  0.1202929E+04  0.7818609E-02  0.9110297E-01
       -2   -1    0    0    0  501  0.00000000000E+00  0.00000000000E+00  0.43573085734E+03  0.43573085735E+03  0.25500000920E-02 0.  1.
        2   -1    0    0  501    0  0.00000000000E+00  0.00000000000E+00 -0.83023575408E+03  0.83023575408E+03  0.25500000920E-02 0. -1.
    10030    2    1    2    0    0  0.00000000000E+00  0.00000000000E+00 -0.39450489674E+03  0.12659666114E+04  0.12029286545E+04 0.  0.
        2    1    3    3  502    0  0.42799577683E+03 -0.12784504292E+03  0.22663847637E+03  0.50088894873E+03  0.25500000920E-02 0.  1.
       -2    1    3    3    0  502 -0.42799577683E+03  0.12784504292E+03 -0.62114337312E+03  0.76507766270E+03  0.25500000920E-02 0. -1.
</event>
<event>
 5   0  0.4024486E-04  0.1201571E+04  0.7818609E-02  0.9111482E-01
        2   -1    0    0  501    0  0.00000000000E+00  0.00000000000E+00  0.51417344810E+03  0.51417344810E+03  0.25500000920E-02 0. -1.
       -2   -1    0    0    0  501  0.00000000000E+00  0.00000000000E+00 -0.70198755556E+03  0.70198755556E+03  0.25500000920E-02 0.  1.
    10030    2    1    2    0    0  0.00000000000E+00  0.00000000000E+00 -0.18781410746E+03  0.12161610037E+04  0.12015712413E+04 0.  0.
        1    1    3    3  502    0  0.51107677147E+03  0.12429697052E+03  0.19995282069E+03  0.56269915030E+03  0.50400001928E-02 0. -1.
       -1    1    3    3    0  502 -0.51107677147E+03 -0.12429697052E+03 -0.38776692815E+03  0.65346185337E+03  0.50400001928E-02 0.  1.
</event>
<event>
 5   0  0.2204090E-04  0.1201949E+04  0.7818609E-02  0.9111152E-01
       -1   -1    0    0    0  501  0.00000000000E+00  0.00000000000E+00  0.37654984318E+03  0.37654984321E+03  0.50400001928E-02 0.  1.
        1   -1    0    0  501    0  0.00000000000E+00  0.00000000000E+00 -0.95915672224E+03  0.95915672226E+03  0.50400001928E-02 0. -1.
    10030    2    1    2    0    0  0.00000000000E+00  0.00000000000E+00 -0.58260687906E+03  0.13357065655E+04  0.12019489396E+04 0.  0.
        2    1    3    3  502    0  0.51857915728E+03  0.23874536179E+03 -0.82670056586E+02  0.57685182534E+03  0.25500000920E-02 0.  1.
       -2    1    3    3    0  502 -0.51857915728E+03 -0.23874536179E+03 -0.49993682248E+03  0.75885474013E+03  0.25500000920E-02 0. -1.
</event>
<event>
 5   0  0.3883890E-04  0.1200806E+04  0.7818609E-02  0.9112152E-01
       -2   -1    0    0    0  501  0.00000000000E+00  0.00000000000E+00  0.37815564212E+03  0.37815564213E+03  0.25500000920E-02 0.  1.
        2   -1    0    0  501    0  0.00000000000E+00  0.00000000000E+00 -0.95326792572E+03  0.95326792572E+03  0.25500000920E-02 0. -1.
    10030    2    1    2    0    0  0.00000000000E+00  0.00000000000E+00 -0.57511228360E+03  0.13314235678E+04  0.12008058037E+04 0.  0.
        2    1    3    3  502    0  0.16595256914E+03 -0.16859918272E+03  0.32430058062E+03  0.40141849262E+03  0.25500000920E-02 0.  1.
       -2    1    3    3    0  502 -0.16595256914E+03  0.16859918272E+03 -0.89941286422E+03  0.93000507523E+03  0.25500000920E-02 0. -1.
</event>
<event>
 5   0  0.2340731E-04  0.1201356E+04  0.7818609E-02  0.9111671E-01
       -1   -1    0    0    0  501  0.00000000000E+00  0.00000000000E+00  0.50036341071E+03  0.50036341073E+03  0.50400001928E-02 0.  1.
        1   -1    0    0  501    0  0.00000000000E+00  0.00000000000E+00 -0.72110373440E+03  0.72110373442E+03  0.50400001928E-02 0. -1.
    10030    2    1    2    0    0  0.00000000000E+00  0.00000000000E+00 -0.22074032370E+03  0.12214671452E+04  0.12013557742E+04 0.  0.
        3    1    3    3  502    0  0.33211123857E+03 -0.34596054393E+03  0.25738553349E+03  0.54427373241E+03  0.10100000352E+00 0.  1.
       -3    1    3    3    0  502 -0.33211123857E+03  0.34596054393E+03 -0.47812585719E+03  0.67719341274E+03  0.10100000352E+00 0. -1.
</event>
<event>
 5   0  0.2204090E-04  0.1201208E+04  0.7818609E-02  0.9111800E-01
       -1   -1    0    0    0  501  0.00000000000E+00  0.00000000000E+00  0.10078162951E+04  0.10078162951E+04  0.50400001928E-02 0. -1.
        1   -1    0    0  501    0  0.00000000000E+00  0.00000000000E+00 -0.35792737052E+03  0.35792737055E+03  0.50400001928E-02 0.  1.
    10030    2    1    2    0    0  0.00000000000E+00  0.00000000000E+00  0.64988892461E+03  0.13657436657E+04  0.12012077864E+04 0.  0.
        2    1    3    3  502    0  0.18302310759E+03  0.30067852721E+03  0.87824392229E+03  0.94615930038E+03  0.25500000920E-02 0. -1.
       -2    1    3    3    0  502 -0.18302310759E+03 -0.30067852721E+03 -0.22835499768E+03  0.41958436531E+03  0.25500000920E-02 0.  1.
</event>
<event>
 5   0  0.2204090E-04  0.1198810E+04  0.7818609E-02  0.9113899E-01
       -1   -1    0    0    0  501  0.00000000000E+00  0.00000000000E+00  0.39715912579E+03  0.39715912583E+03  0.50400001928E-02 0. -1.
        1   -1    0    0  501    0  0.00000000000E+00  0.00000000000E+00 -0.90464123533E+03  0.90464123535E+03  0.50400001928E-02 0.  1.
    10030    2    1    2    0    0  0.00000000000E+00  0.00000000000E+00 -0.50748210954E+03  0.13018003612E+04  0.11988102806E+04 0.  0.
        2    1    3    3  502    0 -0.49787135074E+03 -0.25651569376E+02  0.10764464842E+03  0.51002083804E+03  0.25500000920E-02 0. -1.
       -2    1    3    3    0  502  0.49787135074E+03  0.25651569376E+02 -0.61512675796E+03  0.79177952314E+03  0.25500000920E-02 0.  1.
</event>
<event>
 5   0  0.2244308E-04  0.1200355E+04  0.7818609E-02  0.9112546E-01
        1   -1    0    0  501    0  0.00000000000E+00  0.00000000000E+00  0.58003308304E+03  0.58003308306E+03  0.50400001928E-02 0.  1.
       -1   -1    0    0    0  501  0.00000000000E+00  0.00000000000E+00 -0.62102179627E+03  0.62102179629E+03  0.50400001928E-02 0. -1.
    10030    2    1    2    0    0  0.00000000000E+00  0.00000000000E+00 -0.40988713232E+02  0.12010548794E+04  0.12003552593E+04 0.  0.
        5    1    3    3  502    0  0.50231575949E+02  0.18739957277E+03 -0.58875960062E+03  0.61992077592E+03  0.46999998093E+01 0. -1.
       -5    1    3    3    0  502 -0.50231575949E+02 -0.18739957277E+03  0.54777088739E+03  0.58113410343E+03  0.46999998093E+01 0.  1.
</event>
<event>
 5   0  0.4024486E-04  0.1205879E+04  0.7818609E-02  0.9107726E-01
       -2   -1    0    0    0  501  0.00000000000E+00  0.00000000000E+00  0.61279174533E+03  0.61279174534E+03  0.25500000920E-02 0. -1.
        2   -1    0    0  501    0  0.00000000000E+00  0.00000000000E+00 -0.59324563036E+03  0.59324563037E+03  0.25500000920E-02 0.  1.
    10030    2    1    2    0    0  0.00000000000E+00  0.00000000000E+00  0.19546114973E+02  0.12060373757E+04  0.12058789744E+04 0.  0.
        1    1    3    3  502    0 -0.85969263713E+02 -0.56396538292E+03  0.20496108178E+03  0.60618207867E+03  0.50400001928E-02 0. -1.
       -1    1    3    3    0  502  0.85969263713E+02  0.56396538292E+03 -0.18541496681E+03  0.59985529703E+03  0.50400001928E-02 0.  1.
</event>
<event>
 5   0  0.3832662E-04  0.1201310E+04  0.7818609E-02  0.9111710E-01
       -2   -1    0    0    0  501  0.00000000000E+00  0.00000000000E+00  0.30973443618E+03  0.30973443619E+03  0.25500000920E-02 0.  1.
        2   -1    0    0  501    0  0.00000000000E+00  0.00000000000E+00 -0.11648256450E+04  0.11648256450E+04  0.25500000920E-02 0. -1.
    10030    2    1    2    0    0  0.00000000000E+00  0.00000000000E+00 -0.85509120879E+03  0.14745600812E+04  0.12013103086E+04 0.  0.
        4    1    3    3  502    0  0.39233079860E+03 -0.36993090529E+03 -0.75233032730E+03  0.92562133969E+03  0.12699999809E+01 0. -1.
       -4    1    3    3    0  502 -0.39233079860E+03  0.36993090529E+03 -0.10276088149E+03  0.54893874146E+03  0.12699999809E+01 0.  1.
</event>
<event>
 5   0  0.3993723E-04  0.1201112E+04  0.7818609E-02  0.9111884E-01
        2   -1    0    0  501    0  0.00000000000E+00  0.00000000000E+00  0.63115502827E+03  0.63115502828E+03  0.25500000920E-02 0.  1.
       -2   -1    0    0    0  501  0.00000000000E+00  0.00000000000E+00 -0.57144071501E+03  0.57144071502E+03  0.25500000920E-02 0. -1.
    10030    2    1    2    0    0  0.00000000000E+00  0.00000000000E+00  0.59714313262E+02  0.12025957433E+04  0.12011122856E+04 0.  0.
        3    1    3    3  502    0 -0.37501487566E+03  0.37716741607E+03  0.30908554094E+03  0.61516282278E+03  0.10100000352E+00 0.  1.
       -3    1    3    3    0  502  0.37501487566E+03 -0.37716741607E+03 -0.24937122768E+03  0.58743292051E+03  0.10100000352E+00 0. -1.
</event>
<event>
 5   0  0.2204090E-04  0.1187466E+04  0.7818609E-02  0.9123899E-01
       -1   -1    0    0    0  501  0.00000000000E+00  0.00000000000E+00  0.48890942012E+03  0.48890942015E+03  0.50400001928E-02 0.  1.
        1   -1    0    0  501    0  0.00000000000E+00  0.00000000000E+00 -0.72103092745E+03  0.72103092747E+03  0.50400001928E-02 0. -1.
    10030    2    1    2    0    0  0.00000000000E+00  0.00000000000E+00 -0.23212150733E+03  0.12099403476E+04  0.11874658945E+04 0.  0.
        2    1    3    3  502    0 -0.46772964033E+03 -0.32915437829E+03  0.46345986931E+02  0.57381318537E+03  0.25500000920E-02 0.  1.
       -2    1    3    3    0  502  0.46772964033E+03  0.32915437829E+03 -0.27846749426E+03  0.63612716225E+03  0.25500000920E-02 0. -1.
</event>
<event>
 5   0  0.1541375E-04  0.1199131E+04  0.7818609E-02  0.9113617E-01
        4   -1    0    0  501    0  0.00000000000E+00  0.00000000000E+00  0.41557009735E+03  0.41557203793E+03  0.12699999809E+01 0. -1.
       -4   -1    0    0    0  501  0.00000000000E+00  0.00000000000E+00 -0.86502159386E+03  0.86502252615E+03  0.12699999809E+01 0.  1.
    10030    2    1    2    0    0  0.00000000000E+00  0.00000000000E+00 -0.44945149652E+03  0.12805945641E+04  0.11991312646E+04 0.  0.
        4    1    3    3  502    0 -0.14518342915E+03 -0.34364058621E+02  0.39542952669E+03  0.42264079324E+03  0.12699999809E+01 0. -1.
       -4    1    3    3    0  502  0.14518342915E+03  0.34364058621E+02 -0.84488102321E+03  0.85795377085E+03  0.12699999809E+01 0.  1.
</event>
<event>
 5   0  0.2244308E-04  0.1202465E+04  0.7818609E-02  0.9110702E-01
        1   -1    0    0  501    0  0.00000000000E+00  0.00000000000E+00  0.28451942308E+03  0.28451942312E+03  0.50400001928E-02 0.  1.
       -1   -1    0    0    0  501  0.00000000000E+00  0.00000000000E+00 -0.12704944104E+04  0.12704944104E+04  0.50400001928E-02 0. -1.
    10030    2    1    2    0    0  0.00000000000E+00  0.00000000000E+00 -0.98597498733E+03  0.15550138335E+04  0.12024646967E+04 0.  0.
        5    1    3    3  502    0  0.32630758892E+03 -0.49475827993E+03 -0.62356657546E+03  0.86030213424E+03  0.46999998093E+01 0. -1.
       -5    1    3    3    0  502 -0.32630758892E+03  0.49475827993E+03 -0.36240841187E+03  0.69471169929E+03  0.46999998093E+01 0.  1.
</event>
<event>
 5   0  0.2244308E-04  0.1199570E+04  0.7818609E-02  0.9113233E-01
        1   -1    0    0  501    0  0.00000000000E+00  0.00000000000E+00  0.23506112881E+04  0.23506112881E+04  0.50400001928E-02 0. -1.
       -1   -1    0    0    0  501  0.00000000000E+00  0.00000000000E+00 -0.15304191324E+03  0.15304191332E+03  0.50400001928E-02 0.  1.
    10030    2    1    2    0    0  0.00000000000E+00  0.00000000000E+00  0.21975693748E+04  0.25036532014E+04  0.11995700045E+04 0.  0.
        5    1    3    3  502    0 -0.20922580932E+01 -0.49148739223E+03  0.38136059337E+03  0.62211110458E+03  0.46999998093E+01 0.  1.
       -5    1    3    3    0  502  0.20922580932E+01  0.49148739223E+03  0.18162087814E+04  0.18815420968E+04  0.46999998093E+01 0. -1.
</event>
<event>
 5   0  0.2304842E-04  0.1200716E+04  0.7818609E-02  0.9112230E-01
       -1   -1    0    0    0  501  0.00000000000E+00  0.00000000000E+00  0.36688066555E+03  0.36688066559E+03  0.50400001928E-02 0.  1.
        1   -1    0    0  501    0  0.00000000000E+00  0.00000000000E+00 -0.98241676446E+03  0.98241676447E+03  0.50400001928E-02 0. -1.
    10030    2    1    2    0    0  0.00000000000E+00  0.00000000000E+00 -0.61553609891E+03  0.13492974301E+04  0.12007159804E+04 0.  0.
        4    1    3    3  502    0 -0.34203983525E+03  0.48607718838E+03 -0.21264179495E+03  0.63125306164E+03  0.12699999809E+01 0. -1.
       -4    1    3    3    0  502  0.34203983525E+03 -0.48607718838E+03 -0.40289430396E+03  0.71804436842E+03  0.12699999809E+01 0.  1.
</event>
<event>
 5   0  0.2315038E-04  0.1202450E+04  0.7818609E-02  0.9110715E-01
       -1   -1    0    0    0  501  0.00000000000E+00  0.00000000000E+00  0.43140995646E+03  0.43140995649E+03  0.50400001928E-02 0.  1.
        1   -1    0    0  501    0  0.00000000000E+00  0.00000000000E+00 -0.83788362763E+03  0.83788362765E+03  0.50400001928E-02 0. -1.
    10030    2    1    2    0    0  0.00000000000E+00  0.00000000000E+00 -0.40647367117E+03  0.12692935841E+04  0.12024497317E+04 0.  0.
        1    1    3    3  502    0  0.11951967279E+03  0.47046723385E+03  0.17123273709E+03  0.51472810356E+03  0.50400001928E-02 0.  1.
       -1    1    3    3    0  502 -0.11951967279E+03 -0.47046723385E+03 -0.57770640827E+03  0.75456548058E+03  0.50400001928E-02 0. -1.
</event>
<event>
 5   0  0.3832662E-04  0.1203682E+04  0.7818609E-02  0.9109640E-01
       -2   -1    0    0    0  501  0.00000000000E+00  0.00000000000E+00  0.40177143149E+03  0.40177143150E+03  0.25500000920E-02 0.  1.
        2   -1    0    0  501    0  0.00000000000E+00  0.00000000000E+00 -0.90153862313E+03  0.90153862313E+03  0.25500000920E-02 0. -1.
    10030    2    1    2    0    0  0.00000000000E+00  0.00000000000E+00 -0.49976719164E+03  0.13033100546E+04  0.12036817905E+04 0.  0.
        4    1    3    3  502    0  0.41045608512E+03 -0.33317213229E+03  0.61557125250E+02  0.53222998799E+03  0.12699999809E+01 0.  1.
       -4    1    3    3    0  502 -0.41045608512E+03  0.33317213229E+03 -0.56132431689E+03  0.77108006664E+03  0.12699999809E+01 0. -1.
</event>
<event>
 5   0  0.4122956E-04  0.1199358E+04  0.7818609E-02  0.9113419E-01
       -2   -1    0    0    0  501  0.00000000000E+00  0.00000000000E+00  0.32330445702E+03  0.32330445703E+03  0.25500000920E-02 0.  1.
        2   -1    0    0  501    0  0.00000000000E+00  0.00000000000E+00 -0.11123104332E+04  0.11123104332E+04  0.25500000920E-02 0. -1.
    10030    2    1    2    0    0  0.00000000000E+00  0.00000000000E+00 -0.78900597615E+03  0.14356148902E+04  0.11993580294E+04 0.  0.
        5    1    3    3  502    0 -0.42591823120E+03 -0.42158552784E+03 -0.41995502493E+03  0.73179574330E+03  0.46999998093E+01 0.  1.
       -5    1    3    3    0  502  0.42591823120E+03  0.42158552784E+03 -0.36905095122E+03  0.70381914691E+03  0.46999998093E+01 0. -1.
</event>
<event>
 5   0  0.2244308E-04  0.1199376E+04  0.7818609E-02  0.9113402E-01
        1   -1    0    0  501    0  0.00000000000E+00  0.00000000000E+00  0.10162162271E+04  0.10162162271E+04  0.50400001928E-02 0.  1.
       -1   -1    0    0    0  501  0.00000000000E+00  0.00000000000E+00 -0.35388725907E+03  0.35388725911E+03  0.50400001928E-02 0. -1.
    10030    2    1    2    0    0  0.00000000000E+00  0.00000000000E+00  0.66232896802E+03  0.13701034862E+04  0.11993764634E+04 0.  0.
        5    1    3    3  502    0  0.21097452973E+03  0.53945471137E+03  0.15388994827E+03  0.59935452279E+03  0.46999998093E+01 0. -1.
       -5    1    3    3    0  502 -0.21097452973E+03 -0.53945471137E+03  0.50843901975E+03  0.77074896342E+03  0.46999998093E+01 0.  1.
</event>
<event>
 5   0  0.4024486E-04  0.1200441E+04  0.7818609E-02  0.9112470E-01
       -2   -1    0    0    0  501  0.00000000000E+00  0.00000000000E+00  0.26514097296E+03  0.26514097297E+03  0.25500000920E-02 0. -1.
        2   -1    0    0  501    0  0.00000000000E+00  0.00000000000E+00 -0.13587674296E+04  0.13587674296E+04  0.25500000920E-02 0.  1.
    10030    2    1    2    0    0  0.00000000000E+00  0.00000000000E+00 -0.10936264567E+04  0.16239084026E+04  0.12004414493E+04 0.  0.
        1    1    3    3  502    0 -0.67467280122E+01  0.33072283641E+03  0.13070425312E+03  0.35567782426E+03  0.50400001928E-02 0. -1.
       -1    1    3    3    0  502  0.67467280122E+01 -0.33072283641E+03 -0.12243307098E+04  0.12682305784E+04  0.50400001928E-02 0.  1.
</event>
<event>
 5   0  0.3883890E-04  0.1203270E+04  0.7818609E-02  0.9109999E-01
       -2   -1    0    0    0  501  0.00000000000E+00  0.00000000000E+00  0.31782638472E+03  0.31782638473E+03  0.25500000920E-02 0.  1.
        2   -1    0    0  501    0  0.00000000000E+00  0.00000000000E+00 -0.11388763277E+04  0.11388763277E+04  0.25500000920E-02 0. -1.
    10030    2    1    2    0    0  0.00000000000E+00  0.00000000000E+00 -0.82104994301E+03  0.14567027125E+04  0.12032704532E+04 0.  0.
        2    1    3    3  502    0 -0.55198836415E+03  0.23479657004E+03 -0.46658544626E+03  0.75994905232E+03  0.25500000920E-02 0. -1.
       -2    1    3    3    0  502  0.55198836415E+03 -0.23479657004E+03 -0.35446449675E+03  0.69675366014E+03  0.25500000920E-02 0.  1.
</event>
<event>
 5   0  0.3883890E-04  0.1199738E+04  0.7818609E-02  0.9113085E-01
        2   -1    0    0  501    0  0.00000000000E+00  0.00000000000E+00  0.26038864577E+03  0.26038864578E+03  0.25500000920E-02 0.  1.
       -2   -1    0    0    0  501  0.00000000000E+00  0.00000000000E+00 -0.13819461524E+04  0.13819461524E+04  0.25500000920E-02 0. -1.
    10030    2    1    2    0    0  0.00000000000E+00  0.00000000000E+00 -0.11215575066E+04  0.16423347982E+04  0.11997384501E+04 0.  0.
        2    1    3    3  502    0  0.39843640841E+03  0.44492700453E+03 -0.48417506542E+03  0.76885441072E+03  0.25500000920E-02 0.  1.
       -2    1    3    3    0  502 -0.39843640841E+03 -0.44492700453E+03 -0.63738244122E+03  0.87348038747E+03  0.25500000920E-02 0. -1.
</event>
<event>
 5   0  0.2304842E-04  0.1200167E+04  0.7818609E-02  0.9112711E-01
        1   -1    0    0  501    0  0.00000000000E+00  0.00000000000E+00  0.30659702027E+03  0.30659702031E+03  0.50400001928E-02 0.  1.
       -1   -1    0    0    0  501  0.00000000000E+00  0.00000000000E+00 -0.11745061026E+04  0.11745061026E+04  0.50400001928E-02 0. -1.
    10030    2    1    2    0    0  0.00000000000E+00  0.00000000000E+00 -0.86790908229E+03  0.14811031229E+04  0.12001667740E+04 0.  0.
        4    1    3    3  502    0  0.89241850040E+02  0.21989083087E+02 -0.11657665337E+04  0.11693848176E+04  0.12699999809E+01 0. -1.
       -4    1    3    3    0  502 -0.89241850040E+02 -0.21989083087E+02  0.29785745144E+03  0.31171830528E+03  0.12699999809E+01 0.  1.
</event>
<event>
 5   0  0.2315038E-04  0.1200701E+04  0.7818609E-02  0.9112243E-01
       -1   -1    0    0    0  501  0.00000000000E+00  0.00000000000E+00  0.49782002073E+03  0.49782002075E+03  0.50400001928E-02 0.  1.
        1   -1    0    0  501    0  0.00000000000E+00  0.00000000000E+00 -0.72399859680E+03  0.72399859682E+03  0.50400001928E-02 0. -1.
    10030    2    1    2    0    0  0.00000000000E+00  0.00000000000E+00 -0.22617857607E+03  0.12218186176E+04  0.12007014558E+04 0.  0.
        1    1    3    3  502    0 -0.16119346746E+02  0.81045549598E+02  0.49200547856E+03  0.49889638745E+03  0.50400001928E-02 0.  1.
       -1    1    3    3    0  502  0.16119346746E+02 -0.81045549598E+02 -0.71818405463E+03  0.72292223012E+03  0.50400001928E-02 0. -1.
</event>
<event>
 5   0  0.4122956E-04  0.1201090E+04  0.7818609E-02  0.9111903E-01
       -2   -1    0    0    0  501  0.00000000000E+00  0.00000000000E+00  0.84581471362E+03  0.84581471362E+03  0.25500000920E-02 0.  1.
        2   -1    0    0  501    0  0.00000000000E+00  0.00000000000E+00 -0.42639850896E+03  0.42639850897E+03  0.25500000920E-02 0. -1.
    10030    2    1    2    0    0  0.00000000000E+00  0.00000000000E+00  0.41941620466E+03  0.12722132226E+04  0.12010897265E+04 0.  0.
        5    1    3    3  502    0  0.25095903083E+03  0.44071411554E+03  0.55034550924E+03  0.74840606380E+03  0.46999998093E+01 0.  1.
       -5    1    3    3    0  502 -0.25095903083E+03 -0.44071411554E+03 -0.13092930458E+03  0.52380715878E+03  0.46999998093E+01 0. -1.
</event>
<event>
 5   0  0.2244308E-04  0.1200046E+04  0.7818609E-02  0.9112817E-01
       -1   -1    0    0    0  501  0.00000000000E+00  0.00000000000E+00  0.29704817286E+03  0.29704817291E+03  0.50400001928E-02 0. -1.
        1   -1    0    0  501    0  0.00000000000E+00  0.00000000000E+00 -0.12120166813E+04  0.12120166814E+04  0.50400001928E-02 0.  1.
    10030    2    1    2    0    0  0.00000000000E+00  0.00000000000E+00 -0.91496850848E+03  0.15090648543E+04  0.12000455670E+04 0.  0.
        5    1    3    3  502    0 -0.56332375373E+03 -0.16743569177E+03 -0.30534735967E+03  0.66228956089E+03  0.46999998093E+01 0. -1.
       -5    1    3    3    0  502  0.56332375373E+03  0.16743569177E+03 -0.60962114881E+03  0.84677529338E+03  0.46999998093E+01 0.  1.
</event>
<event>
 5   0  0.3883890E-04  0.1198612E+04  0.7818609E-02  0.9114072E-01
        2   -1    0    0  501    0  0.00000000000E+00  0.00000000000E+00  0.16065648677E+04  0.16065648677E+04  0.25500000920E-02 0.  1.
       -2   -1    0    0    0  501  0.00000000000E+00  0.00000000000E+00 -0.22356247892E+03  0.22356247893E+03  0.25500000920E-02 0. -1.
    10030    2    1    2    0    0  0.00000000000E+00  0.00000000000E+00  0.13830023888E+04  0.18301273466E+04  0.11986119045E+04 0.  0.
        2    1    3    3  502    0  0.44116168063E+03 -0.39864309411E+03  0.80604388993E+03  0.10016220332E+04  0.25500000920E-02 0.  1.
       -2    1    3    3    0  502 -0.44116168063E+03  0.39864309411E+03  0.57695849883E+03  0.82850531339E+03  0.25500000920E-02 0. -1.
</event>
<event>
 5   0  0.3832662E-04  0.1196687E+04  0.7818609E-02  0.9115762E-01
        2   -1    0    0  501    0  0.00000000000E+00  0.00000000000E+00  0.62408752464E+03  0.62408752464E+03  0.25500000920E-02 0.  1.
       -2   -1    0    0    0  501  0.00000000000E+00  0.00000000000E+00 -0.57366102611E+03  0.57366102612E+03  0.25500000920E-02 0. -1.
    10030    2    1    2    0    0  0.00000000000E+00  0.00000000000E+00  0.50426498526E+02  0.11977485508E+04  0.11966865751E+04 0.  0.
        4    1    3    3  502    0 -0.39378361566E+03  0.33479077513E+03  0.32691511850E+03  0.61157624764E+03  0.12699999809E+01 0.  1.
       -4    1    3    3    0  502  0.39378361566E+03 -0.33479077513E+03 -0.27648861997E+03  0.58617230312E+03  0.12699999809E+01 0. -1.
</event>
<event>
 5   0  0.2304842E-04  0.1198669E+04  0.7818609E-02  0.9114023E-01
       -1   -1    0    0    0  501  0.00000000000E+00  0.00000000000E+00  0.10362829963E+04  0.10362829963E+04  0.50400001928E-02 0. -1.
        1   -1    0    0  501    0  0.00000000000E+00  0.00000000000E+00 -0.34662505463E+03  0.34662505466E+03  0.50400001928E-02 0.  1.
    10030    2    1    2    0    0  0.00000000000E+00  0.00000000000E+00  0.68965794164E+03  0.13829080509E+04  0.11986686785E+04 0.  0.
        4    1    3    3  502    0 -0.23424736858E+03  0.21561074594E+03 -0.24099815087E+03  0.39930132115E+03  0.12699999809E+01 0.  1.
       -4    1    3    3    0  502  0.23424736858E+03 -0.21561074594E+03  0.93065609251E+03  0.98360672978E+03  0.12699999809E+01 0. -1.
</event>
<event>
 5   0  0.4122956E-04  0.1199233E+04  0.7818609E-02  0.9113528E-01
       -2   -1    0    0    0  501  0.00000000000E+00  0.00000000000E+00  0.16568499192E+03  0.16568499194E+03  0.25500000920E-02 0.  1.
        2   -1    0    0  501    0  0.00000000000E+00  0.00000000000E+00 -0.21700200867E+04  0.21700200867E+04  0.25500000920E-02 0. -1.
    10030    2    1    2    0    0  0.00000000000E+00  0.00000000000E+00 -0.20043350948E+04  0.23357050786E+04  0.11992326889E+04 0.  0.
        5    1    3    3  502    0 -0.79306893811E+02  0.30474680043E+03 -0.19959688743E+04  0.20206617809E+04  0.46999998093E+01 0. -1.
       -5    1    3    3    0  502  0.79306893811E+02 -0.30474680043E+03 -0.83662204714E+01  0.31504329770E+03  0.46999998093E+01 0.  1.
</event>
<event>
 5   0  0.3993723E-04  0.1199673E+04  0.7818609E-02  0.9113143E-01
       -2   -1    0    0    0  501  0.00000000000E+00  0.00000000000E+00  0.37957438637E+03  0.37957438638E+03  0.25500000920E-02 0. -1.
        2   -1    0    0  501    0  0.00000000000E+00  0.00000000000E+00 -0.94791402421E+03  0.94791402421E+03  0.25500000920E-02 0.  1.
    10030    2    1    2    0    0  0.00000000000E+00  0.00000000000E+00 -0.56833963784E+03  0.13274884106E+04  0.11996730956E+04 0.  0.
        3    1    3    3  502    0  0.34317525934E+03  0.26288015408E+03  0.17598214693E+03  0.46673864236E+03  0.10100000352E+00 0. -1.
       -3    1    3    3    0  502 -0.34317525934E+03 -0.26288015408E+03 -0.74432178477E+03  0.86074976823E+03  0.10100000352E+00 0.  1.
</event>
<event>
 5   0  0.3832662E-04  0.1200040E+04  0.7818609E-02  0.9112821E-01
       -2   -1    0    0    0  501  0.00000000000E+00  0.00000000000E+00  0.20754055590E+03  0.20754055591E+03  0.25500000920E-02 0. -1.
        2   -1    0    0  501    0  0.00000000000E+00  0.00000000000E+00 -0.17347169677E+04  0.17347169677E+04  0.25500000920E-02 0.  1.
    10030    2    1    2    0    0  0.00000000000E+00  0.00000000000E+00 -0.15271764118E+04  0.19422575236E+04  0.12000402057E+04 0.  0.
        4    1    3    3  502    0 -0.12996582809E+03 -0.50013884667E+03 -0.12571426241E+04  0.13592053460E+04  0.12699999809E+01 0.  1.
       -4    1    3    3    0  502  0.12996582809E+03  0.50013884667E+03 -0.27003378774E+03  0.58305217763E+03  0.12699999809E+01 0. -1.
</event>
<event>
 5   0  0.2204090E-04  0.1199508E+04  0.7818609E-02  0.9113287E-01
        1   -1    0    0  501    0  0.00000000000E+00  0.00000000000E+00  0.20035912836E+04  0.20035912836E+04  0.50400001928E-02 0.  1.
       -1   -1    0    0    0  501  0.00000000000E+00  0.00000000000E+00 -0.17953008012E+03  0.17953008019E+03  0.50400001928E-02 0. -1.
    10030    2    1    2    0    0  0.00000000000E+00  0.00000000000E+00  0.18240612035E+04  0.21831213638E+04  0.11995080721E+04 0.  0.
        2    1    3    3  502    0  0.15847410136E+03  0.45019033204E+03  0.25098830463E+03  0.53924067440E+03  0.25500000920E-02 0. -1.
       -2    1    3    3    0  502 -0.15847410136E+03 -0.45019033204E+03  0.15730728988E+04  0.16438806894E+04  0.25500000920E-02 0.  1.
</event>
<event>
 5   0  0.3993723E-04  0.1199011E+04  0.7818609E-02  0.9113723E-01
       -2   -1    0    0    0  501  0.00000000000E+00  0.00000000000E+00  0.48615839335E+03  0.48615839336E+03  0.25500000920E-02 0.  1.
        2   -1    0    0  501    0  0.00000000000E+00  0.00000000000E+00 -0.73927911051E+03  0.73927911052E+03  0.25500000920E-02 0. -1.
    10030    2    1    2    0    0  0.00000000000E+00  0.00000000000E+00 -0.25312071716E+03  0.12254375039E+04  0.11990108333E+04 0.  0.
        3    1    3    3  502    0 -0.55946979778E+03  0.96219910167E+02  0.70409944896E+02  0.57203347479E+03  0.10100000352E+00 0.  1.
       -3    1    3    3    0  502  0.55946979778E+03 -0.96219910167E+02 -0.32353066205E+03  0.65340402909E+03  0.10100000352E+00 0. -1.
</event>
<event>
 5   0  0.2340731E-04  0.1204731E+04  0.7818609E-02  0.9108726E-01
        1   -1    0    0  501    0  0.00000000000E+00  0.00000000000E+00  0.14130923210E+04  0.14130923210E+04  0.50400001928E-02 0. -1.
       -1   -1    0    0    0  501  0.00000000000E+00  0.00000000000E+00 -0.25677316813E+03  0.25677316818E+03  0.50400001928E-02 0.  1.
    10030    2    1    2    0    0  0.00000000000E+00  0.00000000000E+00  0.11563191529E+04  0.16698654892E+04  0.12047309943E+04 0.  0.
        3    1    3    3  502    0 -0.68866533685E+02  0.41073932547E+03 -0.25059987733E+02  0.41722584548E+03  0.10100000352E+00 0.  1.
       -3    1    3    3    0  502  0.68866533685E+02 -0.41073932547E+03  0.11813791406E+04  0.12526396437E+04  0.10100000352E+00 0. -1.
</event>
<event>
 5   0  0.3832662E-04  0.1197721E+04  0.7818609E-02  0.9114854E-01
        2   -1    0    0  501    0  0.00000000000E+00  0.00000000000E+00  0.10544100920E+04  0.10544100921E+04  0.25500000920E-02 0.  1.
       -2   -1    0    0    0  501  0.00000000000E+00  0.00000000000E+00 -0.34012728077E+03  0.34012728078E+03  0.25500000920E-02 0. -1.
    10030    2    1    2    0    0  0.00000000000E+00  0.00000000000E+00  0.71428281128E+03  0.13945373728E+04  0.11977205641E+04 0.  0.
        4    1    3    3  502    0 -0.27245985017E+03  0.18130021460E+03  0.94108072922E+03  0.99636272992E+03  0.12699999809E+01 0.  1.
       -4    1    3    3    0  502  0.27245985017E+03 -0.18130021460E+03 -0.22679791794E+03  0.39817464291E+03  0.12699999809E+01 0. -1.
</event>
<event>
 5   0  0.2315038E-04  0.1199771E+04  0.7818609E-02  0.9113057E-01
        1   -1    0    0  501    0  0.00000000000E+00  0.00000000000E+00  0.31704237441E+03  0.31704237445E+03  0.50400001928E-02 0.  1.
       -1   -1    0    0    0  501  0.00000000000E+00  0.00000000000E+00 -0.11350612091E+04  0.11350612091E+04  0.50400001928E-02 0. -1.
    10030    2    1    2    0    0  0.00000000000E+00  0.00000000000E+00 -0.81801883470E+03  0.14521035836E+04  0.11997708129E+04 0.  0.
        1    1    3    3  502    0 -0.54105214720E+03  0.13529048895E+03 -0.67643633826E+03  0.87670237945E+03  0.50400001928E-02 0. -1.
       -1    1    3    3    0  502  0.54105214720E+03 -0.13529048895E+03 -0.14158249644E+03  0.57540120413E+03  0.50400001928E-02 0.  1.
</event>
<event>
 5   0  0.4122956E-04  0.1199590E+04  0.7818609E-02  0.9113215E-01
       -2   -1    0    0    0  501  0.00000000000E+00  0.00000000000E+00  0.24353249586E+03  0.24353249587E+03  0.25500000920E-02 0.  1.
        2   -1    0    0  501    0  0.00000000000E+00  0.00000000000E+00 -0.14772324648E+04  0.14772324648E+04  0.25500000920E-02 0. -1.
    10030    2    1    2    0    0  0.00000000000E+00  0.00000000000E+00 -0.12336999689E+04  0.17207649607E+04  0.11995901119E+04 0.  0.
        5    1    3    3  502    0 -0.32781289493E+03 -0.38190596643E+03 -0.14890223659E+03  0.52488801409E+03  0.46999998093E+01 0.  1.
       -5    1    3    3    0  502  0.32781289493E+03  0.38190596643E+03 -0.10847977324E+04  0.11958769466E+04  0.46999998093E+01 0. -1.
</event>
<event>
 5   0  0.2244308E-04  0.1199277E+04  0.7818609E-02  0.9113489E-01
       -1   -1    0    0    0  501  0.00000000000E+00  0.00000000000E+00  0.74229609521E+03  0.74229609523E+03  0.50400001928E-02 0. -1.
        1   -1    0    0  501    0  0.00000000000E+00  0.00000000000E+00 -0.48439766050E+03  0.48439766053E+03  0.50400001928E-02 0.  1.
    10030    2    1    2    0    0  0.00000000000E+00  0.00000000000E+00  0.25789843471E+03  0.12266937558E+04  0.11992772689E+04 0.  0.
        5    1    3    3  502    0  0.21724712236E+03 -0.19800929879E+02  0.70024791361E+03  0.73345594245E+03  0.46999998093E+01 0. -1.
       -5    1    3    3    0  502 -0.21724712236E+03  0.19800929879E+02 -0.44234947890E+03  0.49323781331E+03  0.46999998093E+01 0.  1.
</event>
<event>
 5   0  0.2244308E-04  0.1196852E+04  0.7818609E-02  0.9115617E-01
       -1   -1    0    0    0  501  0.00000000000E+00  0.00000000000E+00  0.58298297005E+03  0.58298297007E+03  0.50400001928E-02 0.  1.
        1   -1    0    0  501    0  0.00000000000E+00  0.00000000000E+00 -0.61427763094E+03  0.61427763096E+03  0.50400001928E-02 0. -1.
    10030    2    1    2    0    0  0.00000000000E+00  0.00000000000E+00 -0.31294660895E+02  0.11972606010E+04  0.11968515326E+04 0.  0.
        5    1    3    3  502    0  0.15861209117E+03  0.83790729776E+02  0.55543536887E+03  0.58370302453E+03  0.46999998093E+01 0.  1.
       -5    1    3    3    0  502 -0.15861209117E+03 -0.83790729776E+02 -0.58673002976E+03  0.61355757650E+03  0.46999998093E+01 0. -1.
</event>
<event>
 5   0  0.4122956E-04  0.1200322E+04  0.7818609E-02  0.9112574E-01
        2   -1    0    0  501    0  0.00000000000E+00  0.00000000000E+00  0.10585232020E+04  0.10585232020E+04  0.25500000920E-02 0. -1.
       -2   -1    0    0    0  501  0.00000000000E+00  0.00000000000E+00 -0.34027923253E+03  0.34027923253E+03  0.25500000920E-02 0.  1.
    10030    2    1    2    0    0  0.00000000000E+00  0.00000000000E+00  0.71824396949E+03  0.13988024346E+04  0.12003223947E+04 0.  0.
        5    1    3    3  502    0  0.43830901632E+03 -0.34705653981E+03  0.10484914272E+03  0.56883958049E+03  0.46999998093E+01 0. -1.
       -5    1    3    3    0  502 -0.43830901632E+03  0.34705653981E+03  0.61339482677E+03  0.82996285406E+03  0.46999998093E+01 0.  1.
</event>
<event>
 5   0  0.2304842E-04  0.1199976E+04  0.7818609E-02  0.9112878E-01
       -1   -1    0    0    0  501  0.00000000000E+00  0.00000000000E+00  0.32507114348E+03  0.32507114352E+03  0.50400001928E-02 0. -1.
        1   -1    0    0  501    0  0.00000000000E+00  0.00000000000E+00 -0.11074048394E+04  0.11074048395E+04  0.50400001928E-02 0.  1.
    10030    2    1    2    0    0  0.00000000000E+00  0.00000000000E+00 -0.78233369597E+03  0.14324759830E+04  0.11999755956E+04 0.  0.
        4    1    3    3  502    0 -0.30369497798E+02  0.55749021484E+03 -0.65342924922E+03  0.85947021046E+03  0.12699999809E+01 0. -1.
       -4    1    3    3    0  502  0.30369497798E+02 -0.55749021484E+03 -0.12890444675E+03  0.57300577251E+03  0.12699999809E+01 0.  1.
</event>
<event>
 5   0  0.2304842E-04  0.1201508E+04  0.7818609E-02  0.9111538E-01
        1   -1    0    0  501    0  0.00000000000E+00  0.00000000000E+00  0.14567561889E+04  0.14567561889E+04  0.50400001928E-02 0. -1.
       -1   -1    0    0    0  501  0.00000000000E+00  0.00000000000E+00 -0.24774589450E+03  0.24774589455E+03  0.50400001928E-02 0.  1.
    10030    2    1    2    0    0  0.00000000000E+00  0.00000000000E+00  0.12090102944E+04  0.17045020835E+04  0.12015079944E+04 0.  0.
        4    1    3    3  502    0 -0.37756936057E+03 -0.32078142048E+03  0.10865165661E+04  0.11941437112E+04  0.12699999809E+01 0. -1.
       -4    1    3    3    0  502  0.37756936057E+03  0.32078142048E+03  0.12249372834E+03  0.51035837227E+03  0.12699999809E+01 0.  1.
</event>
<event>
 5   0  0.2244308E-04  0.1200411E+04  0.7818609E-02  0.9112497E-01
        1   -1    0    0  501    0  0.00000000000E+00  0.00000000000E+00  0.74443628877E+03  0.74443628879E+03  0.50400001928E-02 0.  1.
       -1   -1    0    0    0  501  0.00000000000E+00  0.00000000000E+00 -0.48391891445E+03  0.48391891447E+03  0.50400001928E-02 0. -1.
    10030    2    1    2    0    0  0.00000000000E+00  0.00000000000E+00  0.26051737432E+03  0.12283552033E+04  0.12004112641E+04 0.  0.
        5    1    3    3  502    0 -0.30139514474E+02 -0.41374913128E+03 -0.31357534544E+03  0.52004646065E+03  0.46999998093E+01 0. -1.
       -5    1    3    3    0  502  0.30139514474E+02  0.41374913128E+03  0.57409271976E+03  0.70830874261E+03  0.46999998093E+01 0.  1.
</event>
<event>
 5   0  0.2204090E-04  0.1199464E+04  0.7818609E-02  0.9113326E-01
       -1   -1    0    0    0  501  0.00000000000E+00  0.00000000000E+00  0.30800020742E+03  0.30800020746E+03  0.50400001928E-02 0.  1.
        1   -1    0    0  501    0  0.00000000000E+00  0.00000000000E+00 -0.11677867995E+04  0.11677867995E+04  0.50400001928E-02 0. -1.
    10030    2    1    2    0    0  0.00000000000E+00  0.00000000000E+00 -0.85978659207E+03  0.14757870070E+04  0.11994641745E+04 0.  0.
        2    1    3    3  502    0  0.20352080147E+03 -0.43496373996E+03 -0.87191097813E+03  0.99541093298E+03  0.25500000920E-02 0. -1.
       -2    1    3    3    0  502 -0.20352080147E+03  0.43496373996E+03  0.12124386061E+02  0.48037607398E+03  0.25500000920E-02 0.  1.
</event>
<event>
 5   0  0.2304842E-04  0.1200102E+04  0.7818609E-02  0.9112768E-01
       -1   -1    0    0    0  501  0.00000000000E+00  0.00000000000E+00  0.26962330475E+03  0.26962330479E+03  0.50400001928E-02 0.  1.
        1   -1    0    0  501    0  0.00000000000E+00  0.00000000000E+00 -0.13354222251E+04  0.13354222251E+04  0.50400001928E-02 0. -1.
    10030    2    1    2    0    0  0.00000000000E+00  0.00000000000E+00 -0.10657989203E+04  0.16050455299E+04  0.12001015850E+04 0.  0.
        4    1    3    3  502    0 -0.14397098087E+03 -0.26384538760E+03  0.16168291009E+03  0.34129900118E+03  0.12699999809E+01 0.  1.
       -4    1    3    3    0  502  0.14397098087E+03  0.26384538760E+03 -0.12274818304E+04  0.12637465287E+04  0.12699999809E+01 0. -1.
</event>
<event>
 5   0  0.2304842E-04  0.1201981E+04  0.7818609E-02  0.9111124E-01
        1   -1    0    0  501    0  0.00000000000E+00  0.00000000000E+00  0.11465593408E+04  0.11465593408E+04  0.50400001928E-02 0.  1.
       -1   -1    0    0    0  501  0.00000000000E+00  0.00000000000E+00 -0.31502039955E+03  0.31502039960E+03  0.50400001928E-02 0. -1.
    10030    2    1    2    0    0  0.00000000000E+00  0.00000000000E+00  0.83153894126E+03  0.14615797404E+04  0.12019810010E+04 0.  0.
        4    1    3    3  502    0  0.23225324407E+03  0.36602341551E+03 -0.90393864375E+02  0.44281753996E+03  0.12699999809E+01 0. -1.
       -4    1    3    3    0  502 -0.23225324407E+03 -0.36602341551E+03  0.92193280564E+03  0.10187622005E+04  0.12699999809E+01 0.  1.
</event>
<event>
 5   0  0.2315038E-04  0.1197367E+04  0.7818609E-02  0.9115164E-01
        1   -1    0    0  501    0  0.00000000000E+00  0.00000000000E+00  0.14339683701E+04  0.14339683701E+04  0.50400001928E-02 0.  1.
       -1   -1    0    0    0  501  0.00000000000E+00  0.00000000000E+00 -0.24995120117E+03  0.24995120122E+03  0.50400001928E-02 0. -1.
    10030    2    1    2    0    0  0.00000000000E+00  0.00000000000E+00  0.11840171689E+04  0.16839195713E+04  0.11973673064E+04 0.  0.
        1    1    3    3  502    0  0.32418027860E+03  0.11087287159E+03 -0.98446334404E+02  0.35647907017E+03  0.50400001928E-02 0. -1.
       -1    1    3    3    0  502 -0.32418027860E+03 -0.11087287159E+03  0.12824635033E+04  0.13274405011E+04  0.50400001928E-02 0.  1.
</event>
<event>
 5   0  0.3883890E-04  0.1201554E+04  0.7818609E-02  0.9111497E-01
        2   -1    0    0  501    0  0.00000000000E+00  0.00000000000E+00  0.73928839317E+03  0.73928839317E+03  0.25500000920E-02 0. -1.
       -2   -1    0    0    0  501  0.00000000000E+00  0.00000000000E+00 -0.48821687662E+03  0.48821687663E+03  0.25500000920E-02 0.  1.
    10030    2    1    2    0    0  0.00000000000E+00  0.00000000000E+00  0.25107151655E+03  0.12275052698E+04  0.12015541107E+04 0.  0.
        2    1    3    3  502    0 -0.30385508357E+03  0.25274141251E+03  0.58777575980E+03  0.70829829678E+03  0.25500000920E-02 0. -1.
       -2    1    3    3    0  502  0.30385508357E+03 -0.25274141251E+03 -0.33670424325E+03  0.51920697302E+03  0.25500000920E-02 0.  1.
</event>
<event>
 5   0  0.2315038E-04  0.1195768E+04  0.7818609E-02  0.9116569E-01
        1   -1    0    0  501    0  0.00000000000E+00  0.00000000000E+00  0.78765536601E+03  0.78765536603E+03  0.50400001928E-02 0.  1.
       -1   -1    0    0    0  501  0.00000000000E+00  0.00000000000E+00 -0.45383427498E+03  0.45383427501E+03  0.50400001928E-02 0. -1.
    10030    2    1    2    0    0  0.00000000000E+00  0.00000000000E+00  0.33382109102E+03  0.12414896410E+04  0.11957675393E+04 0.  0.
        1    1    3    3  502    0 -0.32197733122E+03  0.15449675771E+03  0.66475160803E+03  0.75460807733E+03  0.50400001928E-02 0.  1.
       -1    1    3    3    0  502  0.32197733122E+03 -0.15449675771E+03 -0.33093051701E+03  0.48688156371E+03  0.50400001928E-02 0. -1.
</event>
<event>
 5   0  0.2304842E-04  0.1199372E+04  0.7818609E-02  0.9113406E-01
       -1   -1    0    0    0  501  0.00000000000E+00  0.00000000000E+00  0.46764121304E+03  0.46764121307E+03  0.50400001928E-02 0. -1.
        1   -1    0    0  501    0  0.00000000000E+00  0.00000000000E+00 -0.76901572451E+03  0.76901572452E+03  0.50400001928E-02 0.  1.
    10030    2    1    2    0    0  0.00000000000E+00  0.00000000000E+00 -0.30137451147E+03  0.12366569376E+04  0.11993722463E+04 0.  0.
        4    1    3    3  502    0 -0.47719210981E+03  0.15278936289E+03  0.18904754038E+03  0.53553476498E+03  0.12699999809E+01 0. -1.
       -4    1    3    3    0  502  0.47719210981E+03 -0.15278936289E+03 -0.49042205185E+03  0.70112217261E+03  0.12699999809E+01 0.  1.
</event>
<event>
 5   0  0.4122956E-04  0.1200654E+04  0.7818609E-02  0.9112284E-01
        2   -1    0    0  501    0  0.00000000000E+00  0.00000000000E+00  0.13729336803E+04  0.13729336803E+04  0.25500000920E-02 0. -1.
       -2   -1    0    0    0  501  0.00000000000E+00  0.00000000000E+00 -0.26249805992E+03  0.26249805993E+03  0.25500000920E-02 0.  1.
    10030    2    1    2    0    0  0.00000000000E+00  0.00000000000E+00  0.11104356204E+04  0.16354317402E+04  0.12006538677E+04 0.  0.
        5    1    3    3  502    0 -0.53122670808E+03  0.23539955718E+03  0.34974305914E+03  0.67820134496E+03  0.46999998093E+01 0. -1.
       -5    1    3    3    0  502  0.53122670808E+03 -0.23539955718E+03  0.76069256122E+03  0.95723039525E+03  0.46999998093E+01 0.  1.
</event>
<event>
 5   0  0.4122956E-04  0.1198426E+04  0.7818609E-02  0.9114236E-01
       -2   -1    0    0    0  501  0.00000000000E+00  0.00000000000E+00  0.40931494639E+03  0.40931494640E+03  0.25500000920E-02 0. -1.
        2   -1    0    0  501    0  0.00000000000E+00  0.00000000000E+00 -0.87721193570E+03  0.87721193570E+03  0.25500000920E-02 0.  1.
    10030    2    1    2    0    0  0.00000000000E+00  0.00000000000E+00 -0.46789698931E+03  0.12865268821E+04  0.11984255612E+04 0.  0.
        5    1    3    3  502    0 -0.46781807470E+03  0.32005170899E+02 -0.63440784059E+03  0.78890650915E+03  0.46999998093E+01 0.  1.
       -5    1    3    3    0  502  0.46781807470E+03 -0.32005170899E+02  0.16651085128E+03  0.49762037295E+03  0.46999998093E+01 0. -1.
</event>
<event>
 5   0  0.2340731E-04  0.1200661E+04  0.7818609E-02  0.9112278E-01
        1   -1    0    0  501    0  0.00000000000E+00  0.00000000000E+00  0.10620882555E+04  0.10620882555E+04  0.50400001928E-02 0.  1.
       -1   -1    0    0    0  501  0.00000000000E+00  0.00000000000E+00 -0.33932846622E+03  0.33932846626E+03  0.50400001928E-02 0. -1.
    10030    2    1    2    0    0  0.00000000000E+00  0.00000000000E+00  0.72275978930E+03  0.14014167218E+04  0.12006611158E+04 0.  0.
        3    1    3    3  502    0  0.15466117752E+03  0.63060711130E+02 -0.31166292791E+03  0.35359655535E+03  0.10100000352E+00 0. -1.
       -3    1    3    3    0  502 -0.15466117752E+03 -0.63060711130E+02  0.10344227172E+04  0.10478201664E+04  0.10100000352E+00 0.  1.
</event>
<event>
 5   0  0.2304842E-04  0.1201144E+04  0.7818609E-02  0.9111855E-01
        1   -1    0    0  501    0  0.00000000000E+00  0.00000000000E+00  0.31419221403E+03  0.31419221407E+03  0.50400001928E-02 0. -1.
       -1   -1    0    0    0  501  0.00000000000E+00  0.00000000000E+00 -0.11479817983E+04  0.11479817983E+04  0.50400001928E-02 0.  1.
    10030    2    1    2    0    0  0.00000000000E+00  0.00000000000E+00 -0.83378958427E+03  0.14621740124E+04  0.12011443592E+04 0.  0.
        4    1    3    3  502    0 -0.16177294772E+03 -0.18616794774E+02  0.28680342754E+03  0.32981038585E+03  0.12699999809E+01 0. -1.
       -4    1    3    3    0  502  0.16177294772E+03  0.18616794774E+02 -0.11205930118E+04  0.11323636265E+04  0.12699999809E+01 0.  1.
</event>
<event>
 5   0  0.2204090E-04  0.1217588E+04  0.7818609E-02  0.9097600E-01
        1   -1    0    0  501    0  0.00000000000E+00  0.00000000000E+00  0.99055916479E+03  0.99055916481E+03  0.50400001928E-02 0. -1.
       -1   -1    0    0    0  501  0.00000000000E+00  0.00000000000E+00 -0.37416235384E+03  0.37416235387E+03  0.50400001928E-02 0.  1.
    10030    2    1    2    0    0  0.00000000000E+00  0.00000000000E+00  0.61639681096E+03  0.13647215187E+04  0.12175876950E+04 0.  0.
        2    1    3    3  502    0  0.36990146498E+03 -0.11474121160E+03  0.83468008755E+03  0.92015405666E+03  0.25500000920E-02 0. -1.
       -2    1    3    3    0  502 -0.36990146498E+03  0.11474121160E+03 -0.21828327659E+03  0.44456746201E+03  0.25500000920E-02 0.  1.
</event>
<event>
 5   0  0.3832662E-04  0.1199021E+04  0.7818609E-02  0.9113714E-01
        2   -1    0    0  501    0  0.00000000000E+00  0.00000000000E+00  0.43534082294E+03  0.43534082295E+03  0.25500000920E-02 0.  1.
       -2   -1    0    0    0  501  0.00000000000E+00  0.00000000000E+00 -0.82558993409E+03  0.82558993410E+03  0.25500000920E-02 0. -1.
    10030    2    1    2    0    0  0.00000000000E+00  0.00000000000E+00 -0.39024911115E+03  0.12609307570E+04  0.11990212697E+04 0.  0.
        4    1    3    3  502    0  0.25587851289E+03  0.30909308307E+02  0.37410174934E+03  0.45429388116E+03  0.12699999809E+01 0.  1.
       -4    1    3    3    0  502 -0.25587851289E+03 -0.30909308307E+02 -0.76435086049E+03  0.80663687588E+03  0.12699999809E+01 0. -1.
</event>
<event>
 5   0  0.2244308E-04  0.1202836E+04  0.7818609E-02  0.9110378E-01
       -1   -1    0    0    0  501  0.00000000000E+00  0.00000000000E+00  0.36887870902E+03  0.36887870906E+03  0.50400001928E-02 0. -1.
        1   -1    0    0  501    0  0.00000000000E+00  0.00000000000E+00 -0.98054939106E+03  0.98054939108E+03  0.50400001928E-02 0.  1.
    10030    2    1    2    0    0  0.00000000000E+00  0.00000000000E+00 -0.61167068204E+03  0.13494281001E+04  0.12028363040E+04 0.  0.
        5    1    3    3  502    0  0.50246931774E+03 -0.64685660160E+02  0.57730837451E+02  0.50991625734E+03  0.46999998093E+01 0. -1.
       -5    1    3    3    0  502 -0.50246931774E+03  0.64685660160E+02 -0.66940151949E+03  0.83951184280E+03  0.46999998093E+01 0.  1.
</event>
<event>
 5   0  0.2340731E-04  0.1202563E+04  0.7818609E-02  0.9110616E-01
       -1   -1    0    0    0  501  0.00000000000E+00  0.00000000000E+00  0.48284580669E+03  0.48284580671E+03  0.50400001928E-02 0.  1.
        1   -1    0    0  501    0  0.00000000000E+00  0.00000000000E+00 -0.74876771759E+03  0.74876771761E+03  0.50400001928E-02 0. -1.
    10030    2    1    2    0    0  0.00000000000E+00  0.00000000000E+00 -0.26592191091E+03  0.12316135243E+04  0.12025628510E+04 0.  0.
        3    1    3    3  502    0 -0.44146931944E+03 -0.40792074517E+03 -0.11693532837E+03  0.61234661391E+03  0.10100000352E+00 0. -1.
       -3    1    3    3    0  502  0.44146931944E+03  0.40792074517E+03 -0.14898658254E+03  0.61926691041E+03  0.10100000352E+00 0.  1.
</event>
<event>
 5   0  0.3883890E-04  0.1199808E+04  0.7818609E-02  0.9113025E-01
       -2   -1    0    0    0  501  0.00000000000E+00  0.00000000000E+00  0.19323724300E+03  0.19323724302E+03  0.25500000920E-02 0.  1.
        2   -1    0    0  501    0  0.00000000000E+00  0.00000000000E+00 -0.18623984694E+04  0.18623984694E+04  0.25500000920E-02 0. -1.
    10030    2    1    2    0    0  0.00000000000E+00  0.00000000000E+00 -0.16691612264E+04  0.20556357124E+04  0.11998078940E+04 0.  0.
        2    1    3    3  502    0  0.32028186927E+03 -0.66788574462E+02 -0.16960907344E+04  0.17273577999E+04  0.25500000920E-02 0. -1.
       -2    1    3    3    0  502 -0.32028186927E+03  0.66788574462E+02  0.26929507994E+02  0.32827791255E+03  0.25500000920E-02 0.  1.
</event>
<event>
 5   0  0.4122956E-04  0.1199593E+04  0.7818609E-02  0.9113213E-01
       -2   -1    0    0    0  501  0.00000000000E+00  0.00000000000E+00  0.50465095101E+03  0.50465095102E+03  0.25500000920E-02 0.  1.
        2   -1    0    0  501    0  0.00000000000E+00  0.00000000000E+00 -0.71288054207E+03  0.71288054208E+03  0.25500000920E-02 0. -1.
    10030    2    1    2    0    0  0.00000000000E+00  0.00000000000E+00 -0.20822959106E+03  0.12175314931E+04  0.11995930035E+04 0.  0.
        5    1    3    3  502    0 -0.45499911333E+01  0.37791107580E+03 -0.57680034010E+03  0.68960728387E+03  0.46999998093E+01 0. -1.
       -5    1    3    3    0  502  0.45499911333E+01 -0.37791107580E+03  0.36857074904E+03  0.52792420922E+03  0.46999998093E+01 0.  1.
</event>
<event>
 5   0  0.3993723E-04  0.1202227E+04  0.7818609E-02  0.9110910E-01
        2   -1    0    0  501    0  0.00000000000E+00  0.00000000000E+00  0.48324446393E+03  0.48324446394E+03  0.25500000920E-02 0. -1.
       -2   -1    0    0    0  501  0.00000000000E+00  0.00000000000E+00 -0.74773186637E+03  0.74773186637E+03  0.25500000920E-02 0.  1.
    10030    2    1    2    0    0  0.00000000000E+00  0.00000000000E+00 -0.26448740244E+03  0.12309763303E+04  0.12022267422E+04 0.  0.
        3    1    3    3  502    0 -0.43974117623E+03  0.13169552956E+03  0.26513671147E+03  0.53010706517E+03  0.10100000352E+00 0. -1.
       -3    1    3    3    0  502  0.43974117623E+03 -0.13169552956E+03 -0.52962411391E+03  0.70086926513E+03  0.10100000352E+00 0.  1.
</event>
<event>
 5   0  0.1541375E-04  0.1194148E+04  0.7818609E-02  0.9117994E-01
       -4   -1    0    0    0  501  0.00000000000E+00  0.00000000000E+00  0.10066028574E+04  0.10066036586E+04  0.12699999809E+01 0.  1.
        4   -1    0    0  501    0  0.00000000000E+00  0.00000000000E+00 -0.35415703369E+03  0.35415931078E+03  0.12699999809E+01 0. -1.
    10030    2    1    2    0    0  0.00000000000E+00  0.00000000000E+00  0.65244582373E+03  0.13607629694E+04  0.11941483601E+04 0.  0.
        5    1    3    3  502    0  0.14237978405E+03 -0.56877513382E+03  0.45463251761E+03  0.74195011411E+03  0.46999998093E+01 0.  1.
       -5    1    3    3    0  502 -0.14237978405E+03  0.56877513382E+03  0.19781330612E+03  0.61881285526E+03  0.46999998093E+01 0. -1.
</event>
<event>
 5   0  0.3993723E-04  0.1200759E+04  0.7818609E-02  0.9112193E-01
        2   -1    0    0  501    0  0.00000000000E+00  0.00000000000E+00  0.52751622149E+03  0.52751622150E+03  0.25500000920E-02 0. -1.
       -2   -1    0    0    0  501  0.00000000000E+00  0.00000000000E+00 -0.68330672596E+03  0.68330672596E+03  0.25500000920E-02 0.  1.
    10030    2    1    2    0    0  0.00000000000E+00  0.00000000000E+00 -0.15579050447E+03  0.12108229475E+04  0.12007587305E+04 0.  0.
        3    1    3    3  502    0  0.30174847828E+03  0.23605408659E+03  0.38823635374E+03  0.54543666222E+03  0.10100000352E+00 0. -1.
       -3    1    3    3    0  502 -0.30174847828E+03 -0.23605408659E+03 -0.54402685820E+03  0.66538628524E+03  0.10100000352E+00 0.  1.
</event>
<event>
 5   0  0.2244308E-04  0.1200381E+04  0.7818609E-02  0.9112523E-01
        1   -1    0    0  501    0  0.00000000000E+00  0.00000000000E+00  0.20830338295E+04  0.20830338295E+04  0.50400001928E-02 0. -1.
       -1   -1    0    0    0  501  0.00000000000E+00  0.00000000000E+00 -0.17293456156E+03  0.17293456164E+03  0.50400001928E-02 0.  1.
    10030    2    1    2    0    0  0.00000000000E+00  0.00000000000E+00  0.19100992680E+04  0.22559683912E+04  0.12003808431E+04 0.  0.
        5    1    3    3  502    0 -0.38919908540E+02 -0.43754371618E+02  0.20776173030E+04  0.20784477265E+04  0.46999998093E+01 0. -1.
       -5    1    3    3    0  502  0.38919908540E+02  0.43754371618E+02 -0.16751803502E+03  0.17752066463E+03  0.46999998093E+01 0.  1.
</event>
<event>
 5   0  0.2340731E-04  0.1201723E+04  0.7818609E-02  0.9111350E-01
       -1   -1    0    0    0  501  0.00000000000E+00  0.00000000000E+00  0.19861882451E+03  0.19861882457E+03  0.50400001928E-02 0.  1.
        1   -1    0    0  501    0  0.00000000000E+00  0.00000000000E+00 -0.18177248671E+04  0.18177248671E+04  0.50400001928E-02 0. -1.
    10030    2    1    2    0    0  0.00000000000E+00  0.00000000000E+00 -0.16191060426E+04  0.20163436917E+04  0.12017227242E+04 0.  0.
        3    1    3    3  502    0 -0.37386248900E+03  0.40032641776E+03 -0.12239581099E+04  0.13409354445E+04  0.10100000352E+00 0.  1.
       -3    1    3    3    0  502  0.37386248900E+03 -0.40032641776E+03 -0.39514793277E+03  0.67540824722E+03  0.10100000352E+00 0. -1.
</event>
<event>
 5   0  0.1541375E-04  0.1198727E+04  0.7818609E-02  0.9113972E-01
        3   -1    0    0  501    0  0.00000000000E+00  0.00000000000E+00  0.34496094893E+03  0.34496096371E+03  0.10100000352E+00 0. -1.
       -3   -1    0    0    0  501  0.00000000000E+00  0.00000000000E+00 -0.10413832297E+04  0.10413832346E+04  0.10100000352E+00 0.  1.
    10030    2    1    2    0    0  0.00000000000E+00  0.00000000000E+00 -0.69642228074E+03  0.13863441983E+04  0.11987269259E+04 0.  0.
        3    1    3    3  502    0 -0.31418999959E+03 -0.12749747598E+03 -0.91979762739E+03  0.98030538496E+03  0.10100000352E+00 0.  1.
       -3    1    3    3    0  502  0.31418999959E+03  0.12749747598E+03  0.22337534666E+03  0.40603881331E+03  0.10100000352E+00 0. -1.
</event>
<event>
 5   0  0.2304842E-04  0.1199597E+04  0.7818609E-02  0.9113209E-01
        1   -1    0    0  501    0  0.00000000000E+00  0.00000000000E+00  0.70804486625E+03  0.70804486627E+03  0.50400001928E-02 0.  1.
       -1   -1    0    0    0  501  0.00000000000E+00  0.00000000000E+00 -0.50810123032E+03  0.50810123034E+03  0.50400001928E-02 0. -1.
    10030    2    1    2    0    0  0.00000000000E+00  0.00000000000E+00  0.19994363593E+03  0.12161460966E+04  0.11995973786E+04 0.  0.
        4    1    3    3  502    0  0.34286390427E+02  0.55936892472E+03  0.31666732671E+03  0.64369943236E+03  0.12699999809E+01 0.  1.
       -4    1    3    3    0  502 -0.34286390427E+02 -0.55936892472E+03 -0.11672369078E+03  0.57244666424E+03  0.12699999809E+01 0. -1.
</event>
<event>
 5   0  0.3832662E-04  0.1200191E+04  0.7818609E-02  0.9112690E-01
        2   -1    0    0  501    0  0.00000000000E+00  0.00000000000E+00  0.79190920826E+03  0.79190920827E+03  0.25500000920E-02 0. -1.
       -2   -1    0    0    0  501  0.00000000000E+00  0.00000000000E+00 -0.45474211288E+03  0.45474211288E+03  0.25500000920E-02 0.  1.
    10030    2    1    2    0    0  0.00000000000E+00  0.00000000000E+00  0.33716709539E+03  0.12466513212E+04  0.12001907625E+04 0.  0.
        4    1    3    3  502    0  0.48227586473E+02  0.56234798646E+03 -0.43149718854E+02  0.56606065851E+03  0.12699999809E+01 0.  1.
       -4    1    3    3    0  502 -0.48227586473E+02 -0.56234798646E+03  0.38031681424E+03  0.68059066264E+03  0.12699999809E+01 0. -1.
</event>
<event>
 5   0  0.2304842E-04  0.1201391E+04  0.7818609E-02  0.9111639E-01
        1   -1    0    0  501    0  0.00000000000E+00  0.00000000000E+00  0.87756334524E+03  0.87756334525E+03  0.50400001928E-02 0. -1.
       -1   -1    0    0    0  501  0.00000000000E+00  0.00000000000E+00 -0.41117870309E+03  0.41117870312E+03  0.50400001928E-02 0.  1.
    10030    2    1    2    0    0  0.00000000000E+00  0.00000000000E+00  0.46638464215E+03  0.12887420484E+04  0.12013914569E+04 0.  0.
        4    1    3    3  502    0 -0.10302973250E+03  0.11726322563E+03  0.85542571334E+03  0.86955192703E+03  0.12699999809E+01 0. -1.
       -4    1    3    3    0  502  0.10302973250E+03 -0.11726322563E+03 -0.38904107118E+03  0.41919012134E+03  0.12699999809E+01 0.  1.
</event>
<event>
 5   0  0.4122956E-04  0.1188343E+04  0.7818609E-02  0.9123121E-01
       -2   -1    0    0    0  501  0.00000000000E+00  0.00000000000E+00  0.26760582176E+03  0.26760582178E+03  0.25500000920E-02 0. -1.
        2   -1    0    0  501    0  0.00000000000E+00  0.00000000000E+00 -0.13192536377E+04  0.13192536377E+04  0.25500000920E-02 0.  1.
    10030    2    1    2    0    0  0.00000000000E+00  0.00000000000E+00 -0.10516478159E+04  0.15868594595E+04  0.11883433070E+04 0.  0.
        5    1    3    3  502    0  0.48720098503E+03  0.11218364312E+03 -0.97119210566E+02  0.50931738695E+03  0.46999998093E+01 0. -1.
       -5    1    3    3    0  502 -0.48720098503E+03 -0.11218364312E+03 -0.95452860537E+03  0.10775420725E+04  0.46999998093E+01 0.  1.
</event>
<event>
 5   0  0.2340731E-04  0.1196130E+04  0.7818609E-02  0.9116251E-01
        1   -1    0    0  501    0  0.00000000000E+00  0.00000000000E+00  0.11591946551E+04  0.11591946551E+04  0.50400001928E-02 0.  1.
       -1   -1    0    0    0  501  0.00000000000E+00  0.00000000000E+00 -0.30856038557E+03  0.30856038561E+03  0.50400001928E-02 0. -1.
    10030    2    1    2    0    0  0.00000000000E+00  0.00000000000E+00  0.85063426951E+03  0.14677550407E+04  0.11961296748E+04 0.  0.
        3    1    3    3  502    0 -0.42038404135E+03  0.15136811017E+03  0.91314628351E+03  0.10165978518E+04  0.10100000352E+00 0.  1.
       -3    1    3    3    0  502  0.42038404135E+03 -0.15136811017E+03 -0.62512014001E+02  0.45115718890E+03  0.10100000352E+00 0. -1.
</event>
<event>
 5   0  0.3883890E-04  0.1199294E+04  0.7818609E-02  0.9113474E-01
       -2   -1    0    0    0  501  0.00000000000E+00  0.00000000000E+00  0.30145561644E+03  0.30145561645E+03  0.25500000920E-02 0.  1.
        2   -1    0    0  501    0  0.00000000000E+00  0.00000000000E+00 -0.11928015011E+04  0.11928015011E+04  0.25500000920E-02 0. -1.
    10030    2    1    2    0    0  0.00000000000E+00  0.00000000000E+00 -0.89134588469E+03  0.14942571176E+04  0.11992943122E+04 0.  0.
        2    1    3    3  502    0 -0.24481061541E+03 -0.17584646921E+03  0.20020666068E+03  0.36185207632E+03  0.25500000920E-02 0.  1.
       -2    1    3    3    0  502  0.24481061541E+03  0.17584646921E+03 -0.10915525454E+04  0.11324050413E+04  0.25500000920E-02 0. -1.
</event>
<event>
 5   0  0.3832662E-04  0.1204401E+04  0.7818609E-02  0.9109013E-01
       -2   -1    0    0    0  501  0.00000000000E+00  0.00000000000E+00  0.26989415017E+03  0.26989415018E+03  0.25500000920E-02 0.  1.
        2   -1    0    0  501    0  0.00000000000E+00  0.00000000000E+00 -0.13436590582E+04  0.13436590582E+04  0.25500000920E-02 0. -1.
    10030    2    1    2    0    0  0.00000000000E+00  0.00000000000E+00 -0.10737649080E+04  0.16135532084E+04  0.12044014607E+04 0.  0.
        4    1    3    3  502    0 -0.39724670283E+03 -0.41296651320E+03 -0.78499303959E+03  0.97188577984E+03  0.12699999809E+01 0. -1.
       -4    1    3    3    0  502  0.39724670283E+03  0.41296651320E+03 -0.28877186842E+03  0.64166742852E+03  0.12699999809E+01 0.  1.
</event>
<event>
 5   0  0.3883890E-04  0.1199254E+04  0.7818609E-02  0.9113510E-01
        2   -1    0    0  501    0  0.00000000000E+00  0.00000000000E+00  0.50016810895E+03  0.50016810896E+03  0.25500000920E-02 0. -1.
       -2   -1    0    0    0  501  0.00000000000E+00  0.00000000000E+00 -0.71886368347E+03  0.71886368347E+03  0.25500000920E-02 0.  1.
    10030    2    1    2    0    0  0.00000000000E+00  0.00000000000E+00 -0.21869557452E+03  0.12190317924E+04  0.11992542502E+04 0.  0.
        2    1    3    3  502    0  0.20510699599E+03  0.55031982979E+03 -0.23230500950E+03  0.63157455008E+03  0.25500000920E-02 0.  1.
       -2    1    3    3    0  502 -0.20510699599E+03 -0.55031982979E+03  0.13609434981E+02  0.58745724235E+03  0.25500000920E-02 0. -1.
</event>
<event>
 5   0  0.2304842E-04  0.1200288E+04  0.7818609E-02  0.9112605E-01
       -1   -1    0    0    0  501  0.00000000000E+00  0.00000000000E+00  0.40607066254E+03  0.40607066258E+03  0.50400001928E-02 0. -1.
        1   -1    0    0  501    0  0.00000000000E+00  0.00000000000E+00 -0.88697026931E+03  0.88697026932E+03  0.50400001928E-02 0.  1.
    10030    2    1    2    0    0  0.00000000000E+00  0.00000000000E+00 -0.48089960677E+03  0.12930409319E+04  0.12002876404E+04 0.  0.
        4    1    3    3  502    0 -0.21664970793E+03  0.27278934072E+03 -0.76690591182E+03  0.84231669272E+03  0.12699999809E+01 0.  1.
       -4    1    3    3    0  502  0.21664970793E+03 -0.27278934072E+03  0.28600630505E+03  0.45072423918E+03  0.12699999809E+01 0. -1.
</event>
<event>
 5   0  0.4122956E-04  0.1202559E+04  0.7818609E-02  0.9110620E-01
       -2   -1    0    0    0  501  0.00000000000E+00  0.00000000000E+00  0.46022121640E+03  0.46022121641E+03  0.25500000920E-02 0. -1.
        2   -1    0    0  501    0  0.00000000000E+00  0.00000000000E+00 -0.78557190664E+03  0.78557190664E+03  0.25500000920E-02 0.  1.
    10030    2    1    2    0    0  0.00000000000E+00  0.00000000000E+00 -0.32535069023E+03  0.12457931231E+04  0.12025587029E+04 0.  0.
        5    1    3    3  502    0 -0.51616267263E+01 -0.46271540086E+02 -0.78368263456E+03  0.78507850532E+03  0.46999998093E+01 0.  1.
       -5    1    3    3    0  502  0.51616267263E+01  0.46271540086E+02  0.45833194432E+03  0.46071461774E+03  0.46999998093E+01 0. -1.
</event>
<event>
 5   0  0.2204090E-04  0.1193301E+04  0.7818609E-02  0.9118740E-01
        1   -1    0    0  501    0  0.00000000000E+00  0.00000000000E+00  0.17267113572E+04  0.17267113572E+04  0.50400001928E-02 0. -1.
       -1   -1    0    0    0  501  0.00000000000E+00  0.00000000000E+00 -0.20616768090E+03  0.20616768096E+03  0.50400001928E-02 0.  1.
    10030    2    1    2    0    0  0.00000000000E+00  0.00000000000E+00  0.15205436763E+04  0.19328790381E+04  0.11933014307E+04 0.  0.
        2    1    3    3  502    0  0.57277579277E+03 -0.64101521127E+02  0.51032768089E+03  0.76981520879E+03  0.25500000920E-02 0.  1.
       -2    1    3    3    0  502 -0.57277579277E+03  0.64101521127E+02  0.10102159954E+04  0.11630638294E+04  0.25500000920E-02 0. -1.
</event>
<event>
 5   0  0.2315038E-04  0.1197768E+04  0.7818609E-02  0.9114813E-01
       -1   -1    0    0    0  501  0.00000000000E+00  0.00000000000E+00  0.40392711005E+03  0.40392711008E+03  0.50400001928E-02 0. -1.
        1   -1    0    0  501    0  0.00000000000E+00  0.00000000000E+00 -0.88793722912E+03  0.88793722914E+03  0.50400001928E-02 0.  1.
    10030    2    1    2    0    0  0.00000000000E+00  0.00000000000E+00 -0.48401011907E+03  0.12918643392E+04  0.11977677887E+04 0.  0.
        1    1    3    3  502    0 -0.19869324008E+03  0.24940519500E+03  0.30475138723E+03  0.44108430372E+03  0.50400001928E-02 0. -1.
       -1    1    3    3    0  502  0.19869324008E+03 -0.24940519500E+03 -0.78876150630E+03  0.85078003549E+03  0.50400001928E-02 0.  1.
</event>
<event>
 5   0  0.2244308E-04  0.1198886E+04  0.7818609E-02  0.9113832E-01
        1   -1    0    0  501    0  0.00000000000E+00  0.00000000000E+00  0.78679450106E+03  0.78679450108E+03  0.50400001928E-02 0.  1.
       -1   -1    0    0    0  501  0.00000000000E+00  0.00000000000E+00 -0.45670350301E+03  0.45670350304E+03  0.50400001928E-02 0. -1.
    10030    2    1    2    0    0  0.00000000000E+00  0.00000000000E+00  0.33009099805E+03  0.12434980041E+04  0.11988858241E+04 0.  0.
        5    1    3    3  502    0 -0.66711918859E+02 -0.17799924166E+03  0.75468488510E+03  0.77827088854E+03  0.46999998093E+01 0.  1.
       -5    1    3    3    0  502  0.66711918859E+02  0.17799924166E+03 -0.42459388705E+03  0.46522711558E+03  0.46999998093E+01 0. -1.
</event>
<event>
 5   0  0.2204090E-04  0.1199789E+04  0.7818609E-02  0.9113041E-01
       -1   -1    0    0    0  501  0.00000000000E+00  0.00000000000E+00  0.75197400259E+03  0.75197400260E+03  0.50400001928E-02 0. -1.
        1   -1    0    0  501    0  0.00000000000E+00  0.00000000000E+00 -0.47857194583E+03  0.47857194586E+03  0.50400001928E-02 0.  1.
    10030    2    1    2    0    0  0.00000000000E+00  0.00000000000E+00  0.27340205675E+03  0.12305459485E+04  0.11997894176E+04 0.  0.
        2    1    3    3  502    0  0.29341761334E+02 -0.30784232777E+03 -0.39052503822E+03  0.49813416185E+03  0.25500000920E-02 0.  1.
       -2    1    3    3    0  502 -0.29341761334E+02  0.30784232777E+03  0.66392709497E+03  0.73241178661E+03  0.25500000920E-02 0. -1.
</event>
<event>
 5   0  0.4024486E-04  0.1197582E+04  0.7818609E-02  0.9114976E-01
       -2   -1    0    0    0  501  0.00000000000E+00  0.00000000000E+00  0.35904428258E+03  0.35904428259E+03  0.25500000920E-02 0.  1.
        2   -1    0    0  501    0  0.00000000000E+00  0.00000000000E+00 -0.99862521364E+03  0.99862521364E+03  0.25500000920E-02 0. -1.
    10030    2    1    2    0    0  0.00000000000E+00  0.00000000000E+00 -0.63958093106E+03  0.13576694962E+04  0.11975820196E+04 0.  0.
        1    1    3    3  502    0  0.59045831536E+02 -0.13492478893E+03  0.33819035567E+03  0.36886830384E+03  0.50400001928E-02 0.  1.
       -1    1    3    3    0  502 -0.59045831536E+02  0.13492478893E+03 -0.97777128673E+03  0.98880119238E+03  0.50400001928E-02 0. -1.
</event>
<event>
 5   0  0.2304842E-04  0.1188242E+04  0.7818609E-02  0.9123211E-01
       -1   -1    0    0    0  501  0.00000000000E+00  0.00000000000E+00  0.23146016572E+03  0.23146016577E+03  0.50400001928E-02 0.  1.
        1   -1    0    0  501    0  0.00000000000E+00  0.00000000000E+00 -0.15250126553E+04  0.15250126554E+04  0.50400001928E-02 0. -1.
    10030    2    1    2    0    0  0.00000000000E+00  0.00000000000E+00 -0.12935524896E+04  0.17564728211E+04  0.11882418642E+04 0.  0.
        4    1    3    3  502    0  0.21278294423E+03  0.55465140329E+03 -0.65853788238E+03  0.88689825570E+03  0.12699999809E+01 0. -1.
       -4    1    3    3    0  502 -0.21278294423E+03 -0.55465140329E+03 -0.63501460725E+03  0.86957456543E+03  0.12699999809E+01 0.  1.
</event>
<event>
 5   0  0.3993723E-04  0.1200398E+04  0.7818609E-02  0.9112508E-01
        2   -1    0    0  501    0  0.00000000000E+00  0.00000000000E+00  0.92806001968E+03  0.92806001968E+03  0.25500000920E-02 0. -1.
       -2   -1    0    0    0  501  0.00000000000E+00  0.00000000000E+00 -0.38816361030E+03  0.38816361031E+03  0.25500000920E-02 0.  1.
    10030    2    1    2    0    0  0.00000000000E+00  0.00000000000E+00  0.53989640937E+03  0.13162236300E+04  0.12003984802E+04 0.  0.
        3    1    3    3  502    0 -0.47017639479E+03 -0.34538639442E+03  0.42455514043E+03  0.72152940420E+03  0.10100000352E+00 0. -1.
       -3    1    3    3    0  502  0.47017639479E+03  0.34538639442E+03  0.11534126894E+03  0.59469422579E+03  0.10100000352E+00 0.  1.
</event>
<event>
 5   0  0.4024486E-04  0.1201042E+04  0.7818609E-02  0.9111945E-01
        2   -1    0    0  501    0  0.00000000000E+00  0.00000000000E+00  0.57213446699E+03  0.57213446699E+03  0.25500000920E-02 0. -1.
       -2   -1    0    0    0  501  0.00000000000E+00  0.00000000000E+00 -0.63031552923E+03  0.63031552924E+03  0.25500000920E-02 0.  1.
    10030    2    1    2    0    0  0.00000000000E+00  0.00000000000E+00 -0.58181062246E+02  0.12024499962E+04  0.12010416135E+04 0.  0.
        1    1    3    3  502    0 -0.34084574809E+03  0.40746239765E+02  0.46422366792E+03  0.57735577760E+03  0.50400001928E-02 0. -1.
       -1    1    3    3    0  502  0.34084574809E+03 -0.40746239765E+02 -0.52240473017E+03  0.62509421863E+03  0.50400001928E-02 0.  1.
</event>
<event>
 5   0  0.4024486E-04  0.1198786E+04  0.7818609E-02  0.9113920E-01
        2   -1    0    0  501    0  0.00000000000E+00  0.00000000000E+00  0.10784172140E+04  0.10784172140E+04  0.25500000920E-02 0.  1.
       -2   -1    0    0    0  501  0.00000000000E+00  0.00000000000E+00 -0.33314727647E+03  0.33314727648E+03  0.25500000920E-02 0. -1.
    10030    2    1    2    0    0  0.00000000000E+00  0.00000000000E+00  0.74526993754E+03  0.14115644905E+04  0.11987856485E+04 0.  0.
        1    1    3    3  502    0  0.18998689640E+03 -0.26126853042E+03  0.96714242300E+03  0.10196669712E+04  0.50400001928E-02 0.  1.
       -1    1    3    3    0  502 -0.18998689640E+03  0.26126853042E+03 -0.22187248546E+03  0.39189751928E+03  0.50400001928E-02 0. -1.
</event>
<event>
 5   0  0.4122956E-04  0.1199134E+04  0.7818609E-02  0.9113615E-01
       -2   -1    0    0    0  501  0.00000000000E+00  0.00000000000E+00  0.57384995768E+03  0.57384995769E+03  0.25500000920E-02 0. -1.
        2   -1    0    0  501    0  0.00000000000E+00  0.00000000000E+00 -0.62643615945E+03  0.62643615945E+03  0.25500000920E-02 0.  1.
    10030    2    1    2    0    0  0.00000000000E+00  0.00000000000E+00 -0.52586201764E+02  0.12002861171E+04  0.11991336266E+04 0.  0.
        5    1    3    3  502    0  0.77033798613E+02 -0.47143183648E+03 -0.38896175392E+03  0.61603207594E+03  0.46999998093E+01 0.  1.
       -5    1    3    3    0  502 -0.77033798613E+02  0.47143183648E+03  0.33637555215E+03  0.58425404120E+03  0.46999998093E+01 0. -1.
</event>
<event>
 5   0  0.2244308E-04  0.1196484E+04  0.7818609E-02  0.9115940E-01
        1   -1    0    0  501    0  0.00000000000E+00  0.00000000000E+00  0.98654773584E+03  0.98654773585E+03  0.50400001928E-02 0. -1.
       -1   -1    0    0    0  501  0.00000000000E+00  0.00000000000E+00 -0.36277354168E+03  0.36277354172E+03  0.50400001928E-02 0.  1.
    10030    2    1    2    0    0  0.00000000000E+00  0.00000000000E+00  0.62377419416E+03  0.13493212776E+04  0.11964838757E+04 0.  0.
        5    1    3    3  502    0  0.54566180699E+03  0.23877942283E+03  0.37476706371E+03  0.70372925363E+03  0.46999998093E+01 0. -1.
       -5    1    3    3    0  502 -0.54566180699E+03 -0.23877942283E+03  0.24900713045E+03  0.64559202395E+03  0.46999998093E+01 0.  1.
</event>
<event>
 5   0  0.3993723E-04  0.1201468E+04  0.7818609E-02  0.9111572E-01
       -2   -1    0    0    0  501  0.00000000000E+00  0.00000000000E+00  0.45362831745E+03  0.45362831746E+03  0.25500000920E-02 0. -1.
        2   -1    0    0  501    0  0.00000000000E+00  0.00000000000E+00 -0.79554423133E+03  0.79554423134E+03  0.25500000920E-02 0.  1.
    10030    2    1    2    0    0  0.00000000000E+00  0.00000000000E+00 -0.34191591388E+03  0.12491725488E+04  0.12014680872E+04 0.  0.
        3    1    3    3  502    0 -0.17342794971E+03 -0.55457602134E+03 -0.32949019695E+03  0.66797875510E+03  0.10100000352E+00 0.  1.
       -3    1    3    3    0  502  0.17342794971E+03  0.55457602134E+03 -0.12425716932E+02  0.58119379369E+03  0.10100000352E+00 0. -1.
</event>
<event>
 5   0  0.2204090E-04  0.1195710E+04  0.7818609E-02  0.9116620E-01
       -1   -1    0    0    0  501  0.00000000000E+00  0.00000000000E+00  0.27824675235E+03  0.27824675240E+03  0.50400001928E-02 0. -1.
        1   -1    0    0  501    0  0.00000000000E+00  0.00000000000E+00 -0.12845819805E+04  0.12845819805E+04  0.50400001928E-02 0.  1.
    10030    2    1    2    0    0  0.00000000000E+00  0.00000000000E+00 -0.10063352281E+04  0.15628287329E+04  0.11957102730E+04 0.  0.
        2    1    3    3  502    0 -0.45670176393E+03  0.19340995839E+03 -0.66833340506E+02  0.50045040573E+03  0.25500000920E-02 0. -1.
       -2    1    3    3    0  502  0.45670176393E+03 -0.19340995839E+03 -0.93950188761E+03  0.10623783272E+04  0.25500000920E-02 0.  1.
</event>
<event>
 5   0  0.2315038E-04  0.1201632E+04  0.7818609E-02  0.9111429E-01
        1   -1    0    0  501    0  0.00000000000E+00  0.00000000000E+00  0.70364355197E+03  0.70364355199E+03  0.50400001928E-02 0.  1.
       -1   -1    0    0    0  501  0.00000000000E+00  0.00000000000E+00 -0.51301510854E+03  0.51301510857E+03  0.50400001928E-02 0. -1.
    10030    2    1    2    0    0  0.00000000000E+00  0.00000000000E+00  0.19062844343E+03  0.12166586606E+04  0.12016318458E+04 0.  0.
        1    1    3    3  502    0  0.15715457832E+03 -0.21349596590E+03  0.64122428022E+03  0.69386357918E+03  0.50400001928E-02 0.  1.
       -1    1    3    3    0  502 -0.15715457832E+03  0.21349596590E+03 -0.45059583680E+03  0.52279508137E+03  0.50400001928E-02 0. -1.
</event>
<event>
 5   0  0.2340731E-04  0.1199384E+04  0.7818609E-02  0.9113396E-01
       -1   -1    0    0    0  501  0.00000000000E+00  0.00000000000E+00  0.31146535996E+03  0.31146536001E+03  0.50400001928E-02 0. -1.
        1   -1    0    0  501    0  0.00000000000E+00  0.00000000000E+00 -0.11546401641E+04  0.11546401641E+04  0.50400001928E-02 0.  1.
    10030    2    1    2    0    0  0.00000000000E+00  0.00000000000E+00 -0.84317480409E+03  0.14661055241E+04  0.11993838658E+04 0.  0.
        3    1    3    3  502    0  0.42201199687E+03  0.38739792141E+03 -0.63839793444E+03  0.85774308969E+03  0.10100000352E+00 0.  1.
       -3    1    3    3    0  502 -0.42201199687E+03 -0.38739792141E+03 -0.20477686965E+03  0.60836243438E+03  0.10100000352E+00 0. -1.
</event>
<event>
 5   0  0.2340731E-04  0.1203664E+04  0.7818609E-02  0.9109655E-01
        1   -1    0    0  501    0  0.00000000000E+00  0.00000000000E+00  0.13314965672E+04  0.13314965672E+04  0.50400001928E-02 0. -1.
       -1   -1    0    0    0  501  0.00000000000E+00  0.00000000000E+00 -0.27202615818E+03  0.27202615823E+03  0.50400001928E-02 0.  1.
    10030    2    1    2    0    0  0.00000000000E+00  0.00000000000E+00  0.10594704090E+04  0.16035227255E+04  0.12036642320E+04 0.  0.
        3    1    3    3  502    0 -0.21597932941E+03 -0.51040677542E+03  0.84227688648E+03  0.10082621241E+04  0.10100000352E+00 0. -1.
       -3    1    3    3    0  502  0.21597932941E+03  0.51040677542E+03  0.21719352256E+03  0.59526060139E+03  0.10100000352E+00 0.  1.
</event>
<event>
 5   0  0.3883890E-04  0.1199781E+04  0.7818609E-02  0.9113048E-01
        2   -1    0    0  501    0  0.00000000000E+00  0.00000000000E+00  0.16094549698E+04  0.16094549698E+04  0.25500000920E-02 0.  1.
       -2   -1    0    0    0  501  0.00000000000E+00  0.00000000000E+00 -0.22359647404E+03  0.22359647405E+03  0.25500000920E-02 0. -1.
    10030    2    1    2    0    0  0.00000000000E+00  0.00000000000E+00  0.13858584957E+04  0.18330514438E+04  0.11997807406E+04 0.  0.
        2    1    3    3  502    0 -0.16887568233E+03 -0.30769305154E+03 -0.50343915012E+02  0.35458217641E+03  0.25500000920E-02 0. -1.
       -2    1    3    3    0  502  0.16887568233E+03  0.30769305154E+03  0.14362024107E+04  0.14784692674E+04  0.25500000920E-02 0.  1.
</event>
<event>
 5   0  0.2244308E-04  0.1201013E+04  0.7818609E-02  0.9111970E-01
        1   -1    0    0  501    0  0.00000000000E+00  0.00000000000E+00  0.66415409054E+03  0.66415409056E+03  0.50400001928E-02 0. -1.
       -1   -1    0    0    0  501  0.00000000000E+00  0.00000000000E+00 -0.54295877366E+03  0.54295877368E+03  0.50400001928E-02 0.  1.
    10030    2    1    2    0    0  0.00000000000E+00  0.00000000000E+00  0.12119531688E+03  0.12071128642E+04  0.12010133897E+04 0.  0.
        5    1    3    3  502    0  0.17331822832E+03 -0.27073464111E+03 -0.44917613646E+03  0.55237464255E+03  0.46999998093E+01 0.  1.
       -5    1    3    3    0  502 -0.17331822832E+03  0.27073464111E+03  0.57037145334E+03  0.65473822169E+03  0.46999998093E+01 0. -1.
</event>
<event>
 5   0  0.4122956E-04  0.1199556E+04  0.7818609E-02  0.9113245E-01
        2   -1    0    0  501    0  0.00000000000E+00  0.00000000000E+00  0.10272698159E+04  0.10272698160E+04  0.25500000920E-02 0.  1.
       -2   -1    0    0    0  501  0.00000000000E+00  0.00000000000E+00 -0.35018426425E+03  0.35018426426E+03  0.25500000920E-02 0. -1.
    10030    2    1    2    0    0  0.00000000000E+00  0.00000000000E+00  0.67708555170E+03  0.13774540802E+04  0.11995561257E+04 0.  0.
        5    1    3    3  502    0 -0.26377237175E+03 -0.14222938079E+03 -0.25802980404E+03  0.39548265528E+03  0.46999998093E+01 0. -1.
       -5    1    3    3    0  502  0.26377237175E+03  0.14222938079E+03  0.93511535574E+03  0.98197142493E+03  0.46999998093E+01 0.  1.
</event>
<event>
 5   0  0.1541375E-04  0.1203921E+04  0.7818609E-02  0.9109432E-01
       -4   -1    0    0    0  501  0.00000000000E+00  0.00000000000E+00  0.17456192098E+04  0.17456196718E+04  0.12699999809E+01 0. -1.
        4   -1    0    0  501    0  0.00000000000E+00  0.00000000000E+00 -0.20757798062E+03  0.20758186563E+03  0.12699999809E+01 0.  1.
    10030    2    1    2    0    0  0.00000000000E+00  0.00000000000E+00  0.15380412292E+04  0.19532015374E+04  0.12039208542E+04 0.  0.
        5    1    3    3  502    0 -0.24979129038E+03  0.39926714551E+03  0.16085078472E+03  0.49769971587E+03  0.46999998093E+01 0.  1.
       -5    1    3    3    0  502  0.24979129038E+03 -0.39926714551E+03  0.13771904444E+04  0.14555018215E+04  0.46999998093E+01 0. -1.
</event>
<event>
 5   0  0.4122956E-04  0.1199350E+04  0.7818609E-02  0.9113425E-01
        2   -1    0    0  501    0  0.00000000000E+00  0.00000000000E+00  0.64001876497E+03  0.64001876498E+03  0.25500000920E-02 0. -1.
       -2   -1    0    0    0  501  0.00000000000E+00  0.00000000000E+00 -0.56187468437E+03  0.56187468438E+03  0.25500000920E-02 0.  1.
    10030    2    1    2    0    0  0.00000000000E+00  0.00000000000E+00  0.78144080599E+02  0.12018934494E+04  0.11993503935E+04 0.  0.
        5    1    3    3  502    0 -0.40896689433E+03  0.15377867794E+03 -0.37251338205E+03  0.57418647864E+03  0.46999998093E+01 0.  1.
       -5    1    3    3    0  502  0.40896689433E+03 -0.15377867794E+03  0.45065746265E+03  0.62770697072E+03  0.46999998093E+01 0. -1.
</event>
<event>
 5   0  0.2315038E-04  0.1200400E+04  0.7818609E-02  0.9112506E-01
       -1   -1    0    0    0  501  0.00000000000E+00  0.00000000000E+00  0.32072696685E+03  0.32072696689E+03  0.50400001928E-02 0.  1.
        1   -1    0    0  501    0  0.00000000000E+00  0.00000000000E+00 -0.11231993216E+04  0.11231993216E+04  0.50400001928E-02 0. -1.
    10030    2    1    2    0    0  0.00000000000E+00  0.00000000000E+00 -0.80247235475E+03  0.14439262885E+04  0.12004004525E+04 0.  0.
        1    1    3    3  502    0  0.10911635394E+02  0.14925057581E+03  0.29792603962E+03  0.33339874516E+03  0.50400001928E-02 0.  1.
       -1    1    3    3    0  502 -0.10911635394E+02 -0.14925057581E+03 -0.11003983944E+04  0.11105275433E+04  0.50400001928E-02 0. -1.
</event>
<event>
 5   0  0.2204090E-04  0.1200599E+04  0.7818609E-02  0.9112332E-01
        1   -1    0    0  501    0  0.00000000000E+00  0.00000000000E+00  0.10102226320E+04  0.10102226320E+04  0.50400001928E-02 0.  1.
       -1   -1    0    0    0  501  0.00000000000E+00  0.00000000000E+00 -0.35671312307E+03  0.35671312310E+03  0.50400001928E-02 0. -1.
    10030    2    1    2    0    0  0.00000000000E+00  0.00000000000E+00  0.65350950896E+03  0.13669357551E+04  0.12005993005E+04 0.  0.
        2    1    3    3  502    0 -0.14950373881E+03  0.34822022916E+03  0.85682148487E+03  0.93688406585E+03  0.25500000920E-02 0.  1.
       -2    1    3    3    0  502  0.14950373881E+03 -0.34822022916E+03 -0.20331197590E+03  0.43005168930E+03  0.25500000920E-02 0. -1.
</event>
<event>
 5   0  0.4024486E-04  0.1196986E+04  0.7818609E-02  0.9115499E-01
       -2   -1    0    0    0  501  0.00000000000E+00  0.00000000000E+00  0.84945331518E+03  0.84945331518E+03  0.25500000920E-02 0.  1.
        2   -1    0    0  501    0  0.00000000000E+00  0.00000000000E+00 -0.42167566573E+03  0.42167566574E+03  0.25500000920E-02 0. -1.
    10030    2    1    2    0    0  0.00000000000E+00  0.00000000000E+00  0.42777764945E+03  0.12711289809E+04  0.11969858682E+04 0.  0.
        1    1    3    3  502    0 -0.51032873773E+03 -0.31009623213E+03  0.17142844514E+03  0.62127514481E+03  0.50400001928E-02 0. -1.
       -1    1    3    3    0  502  0.51032873773E+03  0.31009623213E+03  0.25634920431E+03  0.64985383611E+03  0.50400001928E-02 0.  1.
</event>
<event>
 5   0  0.4024486E-04  0.1201933E+04  0.7818609E-02  0.9111166E-01
       -2   -1    0    0    0  501  0.00000000000E+00  0.00000000000E+00  0.31460145571E+03  0.31460145572E+03  0.25500000920E-02 0. -1.
        2   -1    0    0  501    0  0.00000000000E+00  0.00000000000E+00 -0.11479939706E+04  0.11479939706E+04  0.25500000920E-02 0.  1.
    10030    2    1    2    0    0  0.00000000000E+00  0.00000000000E+00 -0.83339251492E+03  0.14625954264E+04  0.12019327341E+04 0.  0.
        1    1    3    3  502    0  0.58812697406E+02 -0.82997270397E+02  0.30404925218E+03  0.32061414199E+03  0.50400001928E-02 0. -1.
       -1    1    3    3    0  502 -0.58812697406E+02  0.82997270397E+02 -0.11374417671E+04  0.11419812844E+04  0.50400001928E-02 0.  1.
</event>
<event>
 5   0  0.2244308E-04  0.1199141E+04  0.7818609E-02  0.9113609E-01
        1   -1    0    0  501    0  0.00000000000E+00  0.00000000000E+00  0.76116047584E+03  0.76116047586E+03  0.50400001928E-02 0.  1.
       -1   -1    0    0    0  501  0.00000000000E+00  0.00000000000E+00 -0.47228486033E+03  0.47228486035E+03  0.50400001928E-02 0. -1.
    10030    2    1    2    0    0  0.00000000000E+00  0.00000000000E+00  0.28887561552E+03  0.12334453362E+04  0.11991406407E+04 0.  0.
        5    1    3    3  502    0 -0.19660667466E+03 -0.46103778064E+03 -0.19399204963E+03  0.53746164981E+03  0.46999998093E+01 0. -1.
       -5    1    3    3    0  502  0.19660667466E+03  0.46103778064E+03  0.48286766515E+03  0.69598368640E+03  0.46999998093E+01 0.  1.
</event>
<event>
 5   0  0.2304842E-04  0.1198558E+04  0.7818609E-02  0.9114120E-01
       -1   -1    0    0    0  501  0.00000000000E+00  0.00000000000E+00  0.51206494742E+03  0.51206494745E+03  0.50400001928E-02 0. -1.
        1   -1    0    0  501    0  0.00000000000E+00  0.00000000000E+00 -0.70134686040E+03  0.70134686042E+03  0.50400001928E-02 0.  1.
    10030    2    1    2    0    0  0.00000000000E+00  0.00000000000E+00 -0.18928191298E+03  0.12134118079E+04  0.11985577053E+04 0.  0.
        4    1    3    3  502    0  0.13727422186E+03 -0.54250578265E+03 -0.31172035588E+03  0.64056844237E+03  0.12699999809E+01 0. -1.
       -4    1    3    3    0  502 -0.13727422186E+03  0.54250578265E+03  0.12243844290E+03  0.57284336550E+03  0.12699999809E+01 0.  1.
</event>
<event>
 5   0  0.4122956E-04  0.1202509E+04  0.7818609E-02  0.9110663E-01
        2   -1    0    0  501    0  0.00000000000E+00  0.00000000000E+00  0.22779441132E+03  0.22779441133E+03  0.25500000920E-02 0. -1.
       -2   -1    0    0    0  501  0.00000000000E+00  0.00000000000E+00 -0.15869875670E+04  0.15869875670E+04  0.25500000920E-02 0.  1.
    10030    2    1    2    0    0  0.00000000000E+00  0.00000000000E+00 -0.13591931557E+04  0.18147819784E+04  0.12025088750E+04 0.  0.
        5    1    3    3  502    0 -0.40181356098E+03  0.42133059896E+03 -0.45316579722E+03  0.73780413469E+03  0.46999998093E+01 0. -1.
       -5    1    3    3    0  502  0.40181356098E+03 -0.42133059896E+03 -0.90602735849E+03  0.10769778437E+04  0.46999998093E+01 0.  1.
</event>
<event>
 5   0  0.2244308E-04  0.1197008E+04  0.7818609E-02  0.9115479E-01
       -1   -1    0    0    0  501  0.00000000000E+00  0.00000000000E+00  0.76302335214E+03  0.76302335215E+03  0.50400001928E-02 0. -1.
        1   -1    0    0  501    0  0.00000000000E+00  0.00000000000E+00 -0.46945748350E+03  0.46945748352E+03  0.50400001928E-02 0.  1.
    10030    2    1    2    0    0  0.00000000000E+00  0.00000000000E+00  0.29356586864E+03  0.12324808357E+04  0.11970079745E+04 0.  0.
        5    1    3    3  502    0  0.23327905969E+03  0.35206852024E+03  0.58339362275E+03  0.72023716350E+03  0.46999998093E+01 0. -1.
       -5    1    3    3    0  502 -0.23327905969E+03 -0.35206852024E+03 -0.28982775411E+03  0.51224367217E+03  0.46999998093E+01 0.  1.
</event>
<event>
 5   0  0.2204090E-04  0.1199610E+04  0.7818609E-02  0.9113198E-01
        1   -1    0    0  501    0  0.00000000000E+00  0.00000000000E+00  0.47733416976E+03  0.47733416979E+03  0.50400001928E-02 0. -1.
       -1   -1    0    0    0  501  0.00000000000E+00  0.00000000000E+00 -0.75369821121E+03  0.75369821122E+03  0.50400001928E-02 0.  1.
    10030    2    1    2    0    0  0.00000000000E+00  0.00000000000E+00 -0.27636404145E+03  0.12310323810E+04  0.11996097864E+04 0.  0.
        2    1    3    3  502    0  0.44301459299E+03 -0.29176451647E+03 -0.42547501377E+03  0.68001283077E+03  0.25500000920E-02 0. -1.
       -2    1    3    3    0  502 -0.44301459299E+03  0.29176451647E+03  0.14911097233E+03  0.55101955024E+03  0.25500000920E-02 0.  1.
</event>
<event>
 5   0  0.4122956E-04  0.1200607E+04  0.7818609E-02  0.9112326E-01
        2   -1    0    0  501    0  0.00000000000E+00  0.00000000000E+00  0.26882682091E+03  0.26882682092E+03  0.25500000920E-02 0. -1.
       -2   -1    0    0    0  501  0.00000000000E+00  0.00000000000E+00 -0.13405064680E+04  0.13405064680E+04  0.25500000920E-02 0.  1.
    10030    2    1    2    0    0  0.00000000000E+00  0.00000000000E+00 -0.10716796471E+04  0.16093332890E+04  0.12006066670E+04 0.  0.
        5    1    3    3  502    0 -0.52242206471E+03 -0.28498031468E+03 -0.43026498063E+03  0.73436274211E+03  0.46999998093E+01 0.  1.
       -5    1    3    3    0  502  0.52242206471E+03  0.28498031468E+03 -0.64141466649E+03  0.87497054684E+03  0.46999998093E+01 0. -1.
</event>
<event>
 5   0  0.4024486E-04  0.1204080E+04  0.7818609E-02  0.9109292E-01
        2   -1    0    0  501    0  0.00000000000E+00  0.00000000000E+00  0.16270176071E+04  0.16270176072E+04  0.25500000920E-02 0. -1.
       -2   -1    0    0    0  501  0.00000000000E+00  0.00000000000E+00 -0.22277105663E+03  0.22277105664E+03  0.25500000920E-02 0.  1.
    10030    2    1    2    0    0  0.00000000000E+00  0.00000000000E+00  0.14042465505E+04  0.18497886638E+04  0.12040804483E+04 0.  0.
        1    1    3    3  502    0 -0.52225643624E+03 -0.21520574707E+03  0.38212540764E+03  0.68197149937E+03  0.50400001928E-02 0.  1.
       -1    1    3    3    0  502  0.52225643624E+03  0.21520574707E+03  0.10221211429E+04  0.11678171644E+04  0.50400001928E-02 0. -1.
</event>
<event>
 5   0  0.2204090E-04  0.1201330E+04  0.7818609E-02  0.9111694E-01
       -1   -1    0    0    0  501  0.00000000000E+00  0.00000000000E+00  0.27190241843E+03  0.27190241848E+03  0.50400001928E-02 0.  1.
        1   -1    0    0  501    0  0.00000000000E+00  0.00000000000E+00 -0.13269399363E+04  0.13269399363E+04  0.50400001928E-02 0. -1.
    10030    2    1    2    0    0  0.00000000000E+00  0.00000000000E+00 -0.10550375178E+04  0.15988423547E+04  0.12013295598E+04 0.  0.
        2    1    3    3  502    0 -0.40590658177E+03 -0.16728120593E+03  0.18074793998E+02  0.43939714742E+03  0.25500000920E-02 0.  1.
       -2    1    3    3    0  502  0.40590658177E+03  0.16728120593E+03 -0.10731123118E+04  0.11594452073E+04  0.25500000920E-02 0. -1.
</event>
<event>
 5   0  0.2244308E-04  0.1199781E+04  0.7818609E-02  0.9113048E-01
       -1   -1    0    0    0  501  0.00000000000E+00  0.00000000000E+00  0.23618783198E+03  0.23618783203E+03  0.50400001928E-02 0. -1.
        1   -1    0    0  501    0  0.00000000000E+00  0.00000000000E+00 -0.15236548138E+04  0.15236548138E+04  0.50400001928E-02 0.  1.
    10030    2    1    2    0    0  0.00000000000E+00  0.00000000000E+00 -0.12874669818E+04  0.17598426458E+04  0.11997811921E+04 0.  0.
        5    1    3    3  502    0 -0.30750954248E+03 -0.51868717078E+02 -0.13953811605E+04  0.14298122798E+04  0.46999998093E+01 0.  1.
       -5    1    3    3    0  502  0.30750954248E+03  0.51868717078E+02  0.10791417867E+03  0.33003036600E+03  0.46999998093E+01 0. -1.
</event>
<event>
 5   0  0.2340731E-04  0.1194607E+04  0.7818609E-02  0.9117590E-01
        1   -1    0    0  501    0  0.00000000000E+00  0.00000000000E+00  0.50593096589E+03  0.50593096592E+03  0.50400001928E-02 0. -1.
       -1   -1    0    0    0  501  0.00000000000E+00  0.00000000000E+00 -0.70517835207E+03  0.70517835209E+03  0.50400001928E-02 0.  1.
    10030    2    1    2    0    0  0.00000000000E+00  0.00000000000E+00 -0.19924738618E+03  0.12111093180E+04  0.11946071569E+04 0.  0.
        3    1    3    3  502    0  0.43673918930E+03 -0.40717175135E+03 -0.83865488267E+02  0.60296217534E+03  0.10100000352E+00 0. -1.
       -3    1    3    3    0  502 -0.43673918930E+03  0.40717175135E+03 -0.11538189791E+03  0.60814714267E+03  0.10100000352E+00 0.  1.
</event>
<event>
 5   0  0.2340731E-04  0.1199674E+04  0.7818609E-02  0.9113142E-01
       -1   -1    0    0    0  501  0.00000000000E+00  0.00000000000E+00  0.60303069652E+03  0.60303069654E+03  0.50400001928E-02 0.  1.
        1   -1    0    0  501    0  0.00000000000E+00  0.00000000000E+00 -0.59666036765E+03  0.59666036767E+03  0.50400001928E-02 0. -1.
    10030    2    1    2    0    0  0.00000000000E+00  0.00000000000E+00  0.63703288734E+01  0.11996910642E+04  0.11996741509E+04 0.  0.
        3    1    3    3  502    0  0.50633454872E+03 -0.30064343058E+03 -0.11102397315E+03  0.59923908450E+03  0.10100000352E+00 0.  1.
       -3    1    3    3    0  502 -0.50633454872E+03  0.30064343058E+03  0.11739430202E+03  0.60045197970E+03  0.10100000352E+00 0. -1.
</event>
<event>
 5   0  0.2244308E-04  0.1199713E+04  0.7818609E-02  0.9113108E-01
       -1   -1    0    0    0  501  0.00000000000E+00  0.00000000000E+00  0.28217848098E+03  0.28217848103E+03  0.50400001928E-02 0. -1.
        1   -1    0    0  501    0  0.00000000000E+00  0.00000000000E+00 -0.12751770436E+04  0.12751770436E+04  0.50400001928E-02 0.  1.
    10030    2    1    2    0    0  0.00000000000E+00  0.00000000000E+00 -0.99299856260E+03  0.15573555246E+04  0.11997125009E+04 0.  0.
        5    1    3    3  502    0 -0.55099616830E+03 -0.13932564417E+03 -0.24748921744E+03  0.61990435985E+03  0.46999998093E+01 0. -1.
       -5    1    3    3    0  502  0.55099616830E+03  0.13932564417E+03 -0.74550934516E+03  0.93745116477E+03  0.46999998093E+01 0.  1.
</event>
<event>
 5   0  0.2304842E-04  0.1216578E+04  0.7818609E-02  0.9098468E-01
        1   -1    0    0  501    0  0.00000000000E+00  0.00000000000E+00  0.13092261294E+04  0.13092261294E+04  0.50400001928E-02 0. -1.
       -1   -1    0    0    0  501  0.00000000000E+00  0.00000000000E+00 -0.28262161185E+03  0.28262161189E+03  0.50400001928E-02 0.  1.
    10030    2    1    2    0    0  0.00000000000E+00  0.00000000000E+00  0.10266045175E+04  0.15918477413E+04  0.12165781504E+04 0.  0.
        4    1    3    3  502    0  0.15193006166E+03  0.33288407566E+03  0.11491122973E+04  0.12059665154E+04  0.12699999809E+01 0. -1.
       -4    1    3    3    0  502 -0.15193006166E+03 -0.33288407566E+03 -0.12250777982E+03  0.38588122587E+03  0.12699999809E+01 0.  1.
</event>
<event>
 5   0  0.2340731E-04  0.1213883E+04  0.7818609E-02  0.9100791E-01
       -1   -1    0    0    0  501  0.00000000000E+00  0.00000000000E+00  0.34316969084E+03  0.34316969088E+03  0.50400001928E-02 0. -1.
        1   -1    0    0  501    0  0.00000000000E+00  0.00000000000E+00 -0.10734570266E+04  0.10734570266E+04  0.50400001928E-02 0.  1.
    10030    2    1    2    0    0  0.00000000000E+00  0.00000000000E+00 -0.73028733579E+03  0.14166267175E+04  0.12138828873E+04 0.  0.
        3    1    3    3  502    0 -0.42519250338E+03  0.26128402302E+03 -0.76826434982E+03  0.91612669812E+03  0.10100000352E+00 0.  1.
       -3    1    3    3    0  502  0.42519250338E+03 -0.26128402302E+03  0.37977014035E+02  0.50050001939E+03  0.10100000352E+00 0. -1.
</event>
<event>
 5   0  0.3832662E-04  0.1204264E+04  0.7818609E-02  0.9109133E-01
       -2   -1    0    0    0  501  0.00000000000E+00  0.00000000000E+00  0.28312197395E+03  0.28312197396E+03  0.25500000920E-02 0. -1.
        2   -1    0    0  501    0  0.00000000000E+00  0.00000000000E+00 -0.12805884660E+04  0.12805884660E+04  0.25500000920E-02 0.  1.
    10030    2    1    2    0    0  0.00000000000E+00  0.00000000000E+00 -0.99746649201E+03  0.15637104399E+04  0.12042636494E+04 0.  0.
        4    1    3    3  502    0  0.59860823685E+02 -0.43731130532E+03  0.33067214491E+02  0.44262800357E+03  0.12699999809E+01 0. -1.
       -4    1    3    3    0  502 -0.59860823685E+02  0.43731130532E+03 -0.10305337065E+04  0.11210824364E+04  0.12699999809E+01 0.  1.
</event>
<event>
 5   0  0.2340731E-04  0.1207391E+04  0.7818609E-02  0.9106412E-01
        1   -1    0    0  501    0  0.00000000000E+00  0.00000000000E+00  0.21929362932E+04  0.21929362932E+04  0.50400001928E-02 0.  1.
       -1   -1    0    0    0  501  0.00000000000E+00  0.00000000000E+00 -0.16619190523E+03  0.16619190531E+03  0.50400001928E-02 0. -1.
    10030    2    1    2    0    0  0.00000000000E+00  0.00000000000E+00  0.20267443880E+04  0.23591281985E+04  0.12073910066E+04 0.  0.
        3    1    3    3  502    0  0.49150368888E+02  0.18058361236E+03  0.21348222534E+04  0.21430100942E+04  0.10100000352E+00 0.  1.
       -3    1    3    3    0  502 -0.49150368888E+02 -0.18058361236E+03 -0.10807786547E+03  0.21611810433E+03  0.10100000352E+00 0. -1.
</event>
<event>
 5   0  0.3993723E-04  0.1200183E+04  0.7818609E-02  0.9112696E-01
       -2   -1    0    0    0  501  0.00000000000E+00  0.00000000000E+00  0.34403237915E+03  0.34403237916E+03  0.25500000920E-02 0. -1.
        2   -1    0    0  501    0  0.00000000000E+00  0.00000000000E+00 -0.10467323209E+04  0.10467323209E+04  0.25500000920E-02 0.  1.
    10030    2    1    2    0    0  0.00000000000E+00  0.00000000000E+00 -0.70269994179E+03  0.13907647001E+04  0.12001830039E+04 0.  0.
        3    1    3    3  502    0  0.28124212145E+03  0.51936946376E+03 -0.47435707078E+03  0.75753310922E+03  0.10100000352E+00 0.  1.
       -3    1    3    3    0  502 -0.28124212145E+03 -0.51936946376E+03 -0.22834287101E+03  0.63323159090E+03  0.10100000352E+00 0. -1.
</event>
<event>
 5   0  0.3993723E-04  0.1201605E+04  0.7818609E-02  0.9111453E-01
       -2   -1    0    0    0  501  0.00000000000E+00  0.00000000000E+00  0.32858938431E+03  0.32858938432E+03  0.25500000920E-02 0. -1.
        2   -1    0    0  501    0  0.00000000000E+00  0.00000000000E+00 -0.10985250586E+04  0.10985250586E+04  0.25500000920E-02 0.  1.
    10030    2    1    2    0    0  0.00000000000E+00  0.00000000000E+00 -0.76993567432E+03  0.14271144429E+04  0.12016050477E+04 0.  0.
        3    1    3    3  502    0  0.24692069792E+03 -0.36592620519E+03  0.99060970897E+02  0.45242115873E+03  0.10100000352E+00 0. -1.
       -3    1    3    3    0  502 -0.24692069792E+03  0.36592620519E+03 -0.86899664521E+03  0.97469328422E+03  0.10100000352E+00 0.  1.
</event>
<event>
 5   0  0.1541375E-04  0.1199928E+04  0.7818609E-02  0.9112920E-01
       -4   -1    0    0    0  501  0.00000000000E+00  0.00000000000E+00  0.45478401306E+03  0.45478578631E+03  0.12699999809E+01 0. -1.
        4   -1    0    0  501    0  0.00000000000E+00  0.00000000000E+00 -0.79148527284E+03  0.79148629174E+03  0.12699999809E+01 0.  1.
    10030    2    1    2    0    0  0.00000000000E+00  0.00000000000E+00 -0.33670125978E+03  0.12462720781E+04  0.11999276454E+04 0.  0.
        2    1    3    3  502    0  0.20058495341E+03 -0.40041620599E+03 -0.58300586397E+03  0.73516209028E+03  0.25500000920E-02 0.  1.
       -2    1    3    3    0  502 -0.20058495341E+03  0.40041620599E+03  0.24630460419E+03  0.51110998778E+03  0.25500000920E-02 0. -1.
</event>
<event>
 5   0  0.4122956E-04  0.1200279E+04  0.7818609E-02  0.9112612E-01
       -2   -1    0    0    0  501  0.00000000000E+00  0.00000000000E+00  0.11061837193E+04  0.11061837193E+04  0.25500000920E-02 0.  1.
        2   -1    0    0  501    0  0.00000000000E+00  0.00000000000E+00 -0.32559480378E+03  0.32559480379E+03  0.25500000920E-02 0. -1.
    10030    2    1    2    0    0  0.00000000000E+00  0.00000000000E+00  0.78058891556E+03  0.14317785231E+04  0.12002794192E+04 0.  0.
        5    1    3    3  502    0  0.19153071759E+03 -0.70493397078E+02  0.10634926113E+04  0.10829090262E+04  0.46999998093E+01 0.  1.
       -5    1    3    3    0  502 -0.19153071759E+03  0.70493397078E+02 -0.28290369573E+03  0.34886949690E+03  0.46999998093E+01 0. -1.
</event>
<event>
 5   0  0.2244308E-04  0.1199821E+04  0.7818609E-02  0.9113013E-01
       -1   -1    0    0    0  501  0.00000000000E+00  0.00000000000E+00  0.50298561381E+03  0.50298561383E+03  0.50400001928E-02 0.  1.
        1   -1    0    0  501    0  0.00000000000E+00  0.00000000000E+00 -0.71551316030E+03  0.71551316032E+03  0.50400001928E-02 0. -1.
    10030    2    1    2    0    0  0.00000000000E+00  0.00000000000E+00 -0.21252754649E+03  0.12184987741E+04  0.11998213636E+04 0.  0.
        5    1    3    3  502    0 -0.26135392125E+03  0.55488537277E+02 -0.65173367446E+03  0.70438889993E+03  0.46999998093E+01 0. -1.
       -5    1    3    3    0  502  0.26135392125E+03 -0.55488537277E+02  0.43920612797E+03  0.51410987422E+03  0.46999998093E+01 0.  1.
</event>
<event>
 5   0  0.2204090E-04  0.1200272E+04  0.7818609E-02  0.9112619E-01
        1   -1    0    0  501    0  0.00000000000E+00  0.00000000000E+00  0.15749776467E+04  0.15749776467E+04  0.50400001928E-02 0. -1.
       -1   -1    0    0    0  501  0.00000000000E+00  0.00000000000E+00 -0.22867815799E+03  0.22867815804E+03  0.50400001928E-02 0.  1.
    10030    2    1    2    0    0  0.00000000000E+00  0.00000000000E+00  0.13462994887E+04  0.18036558047E+04  0.12002716145E+04 0.  0.
        2    1    3    3  502    0  0.21451659706E+03 -0.66512041850E+02 -0.16314620083E+03  0.27759305643E+03  0.25500000920E-02 0.  1.
       -2    1    3    3    0  502 -0.21451659706E+03  0.66512041850E+02  0.15094456895E+04  0.15260627483E+04  0.25500000920E-02 0. -1.
</event>
<event>
 5   0  0.4122956E-04  0.1199619E+04  0.7818609E-02  0.9113190E-01
        2   -1    0    0  501    0  0.00000000000E+00  0.00000000000E+00  0.17541230684E+04  0.17541230684E+04  0.25500000920E-02 0.  1.
       -2   -1    0    0    0  501  0.00000000000E+00  0.00000000000E+00 -0.20510042368E+03  0.20510042369E+03  0.25500000920E-02 0. -1.
    10030    2    1    2    0    0  0.00000000000E+00  0.00000000000E+00  0.15490226447E+04  0.19592234920E+04  0.11996189137E+04 0.  0.
        5    1    3    3  502    0  0.58259793752E+03  0.14084507649E+03  0.81072290961E+03  0.10082417461E+04  0.46999998093E+01 0.  1.
       -5    1    3    3    0  502 -0.58259793752E+03 -0.14084507649E+03  0.73829973507E+03  0.95098174597E+03  0.46999998093E+01 0. -1.
</event>
<event>
 5   0  0.4024486E-04  0.1200788E+04  0.7818609E-02  0.9112167E-01
        2   -1    0    0  501    0  0.00000000000E+00  0.00000000000E+00  0.20844979619E+04  0.20844979619E+04  0.25500000920E-02 0. -1.
       -2   -1    0    0    0  501  0.00000000000E+00  0.00000000000E+00 -0.17293043413E+03  0.17293043415E+03  0.25500000920E-02 0.  1.
    10030    2    1    2    0    0  0.00000000000E+00  0.00000000000E+00  0.19115675278E+04  0.22574283961E+04  0.12007883036E+04 0.  0.
        1    1    3    3  502    0 -0.56301875787E+03 -0.16351034675E+03  0.71249558827E+03  0.92270023222E+03  0.50400001928E-02 0. -1.
       -1    1    3    3    0  502  0.56301875787E+03  0.16351034675E+03  0.11990719395E+04  0.13347281639E+04  0.50400001928E-02 0.  1.
</event>
<event>
 5   0  0.2204090E-04  0.1194557E+04  0.7818609E-02  0.9117634E-01
       -1   -1    0    0    0  501  0.00000000000E+00  0.00000000000E+00  0.17789915263E+03  0.17789915270E+03  0.50400001928E-02 0. -1.
        1   -1    0    0  501    0  0.00000000000E+00  0.00000000000E+00 -0.20053024246E+04  0.20053024246E+04  0.50400001928E-02 0.  1.
    10030    2    1    2    0    0  0.00000000000E+00  0.00000000000E+00 -0.18274032719E+04  0.21832015773E+04  0.11945569927E+04 0.  0.
        2    1    3    3  502    0 -0.46570867434E+02  0.47127263654E+02  0.17116210679E+03  0.18353825618E+03  0.25500000920E-02 0. -1.
       -2    1    3    3    0  502  0.46570867434E+02 -0.47127263654E+02 -0.19985653787E+04  0.19996633211E+04  0.25500000920E-02 0.  1.
</event>
<event>
 5   0  0.4024486E-04  0.1202481E+04  0.7818609E-02  0.9110687E-01
       -2   -1    0    0    0  501  0.00000000000E+00  0.00000000000E+00  0.77842310194E+03  0.77842310194E+03  0.25500000920E-02 0. -1.
        2   -1    0    0  501    0  0.00000000000E+00  0.00000000000E+00 -0.46438803049E+03  0.46438803050E+03  0.25500000920E-02 0.  1.
    10030    2    1    2    0    0  0.00000000000E+00  0.00000000000E+00  0.31403507145E+03  0.12428111324E+04  0.12024813865E+04 0.  0.
        1    1    3    3  502    0 -0.25785105137E+03 -0.68610937528E+02 -0.39984385529E+03  0.48069713342E+03  0.50400001928E-02 0.  1.
       -1    1    3    3    0  502  0.25785105137E+03  0.68610937528E+02  0.71387892673E+03  0.76211399902E+03  0.50400001928E-02 0. -1.
</event>
<event>
 5   0  0.2304842E-04  0.1200554E+04  0.7818609E-02  0.9112371E-01
        1   -1    0    0  501    0  0.00000000000E+00  0.00000000000E+00  0.16256037444E+04  0.16256037444E+04  0.50400001928E-02 0. -1.
       -1   -1    0    0    0  501  0.00000000000E+00  0.00000000000E+00 -0.22166083843E+03  0.22166083849E+03  0.50400001928E-02 0.  1.
    10030    2    1    2    0    0  0.00000000000E+00  0.00000000000E+00  0.14039429060E+04  0.18472645829E+04  0.12005543536E+04 0.  0.
        4    1    3    3  502    0  0.30771998631E+03 -0.31055755163E+03  0.69065609695E+02  0.44261637361E+03  0.12699999809E+01 0.  1.
       -4    1    3    3    0  502 -0.30771998631E+03  0.31055755163E+03  0.13348772963E+04  0.14046482093E+04  0.12699999809E+01 0. -1.
</event>
<event>
 5   0  0.1541375E-04  0.1211413E+04  0.7818609E-02  0.9102925E-01
        3   -1    0    0  501    0  0.00000000000E+00  0.00000000000E+00  0.22696618386E+03  0.22696620633E+03  0.10100000352E+00 0.  1.
       -3   -1    0    0    0  501  0.00000000000E+00  0.00000000000E+00 -0.16164535352E+04  0.16164535384E+04  0.10100000352E+00 0. -1.
    10030    2    1    2    0    0  0.00000000000E+00  0.00000000000E+00 -0.13894873514E+04  0.18434197447E+04  0.12114129171E+04 0.  0.
        3    1    3    3  502    0  0.17165706059E+03  0.43955222197E+03 -0.12726091051E+04  0.13572789864E+04  0.10100000352E+00 0. -1.
       -3    1    3    3    0  502 -0.17165706059E+03 -0.43955222197E+03 -0.11687824630E+03  0.48614075837E+03  0.10100000352E+00 0.  1.
</event>
<event>
 5   0  0.3993723E-04  0.1199051E+04  0.7818609E-02  0.9113687E-01
       -2   -1    0    0    0  501  0.00000000000E+00  0.00000000000E+00  0.63465312171E+03  0.63465312172E+03  0.25500000920E-02 0. -1.
        2   -1    0    0  501    0  0.00000000000E+00  0.00000000000E+00 -0.56634251289E+03  0.56634251289E+03  0.25500000920E-02 0.  1.
    10030    2    1    2    0    0  0.00000000000E+00  0.00000000000E+00  0.68310608826E+02  0.12009956346E+04  0.11990513647E+04 0.  0.
        3    1    3    3  502    0  0.53562416732E+03  0.34761082027E+02  0.30166411186E+03  0.61571326770E+03  0.10100000352E+00 0. -1.
       -3    1    3    3    0  502 -0.53562416732E+03 -0.34761082027E+02 -0.23335350303E+03  0.58528236691E+03  0.10100000352E+00 0.  1.
</event>
<event>
 5   0  0.2304842E-04  0.1200802E+04  0.7818609E-02  0.9112155E-01
       -1   -1    0    0    0  501  0.00000000000E+00  0.00000000000E+00  0.90191688307E+03  0.90191688308E+03  0.50400001928E-02 0.  1.
        1   -1    0    0  501    0  0.00000000000E+00  0.00000000000E+00 -0.39968340472E+03  0.39968340475E+03  0.50400001928E-02 0. -1.
    10030    2    1    2    0    0  0.00000000000E+00  0.00000000000E+00  0.50223347835E+03  0.13016002878E+04  0.12008017499E+04 0.  0.
        4    1    3    3  502    0  0.69363578909E+02 -0.20046293594E+03  0.85994420734E+03  0.88572137120E+03  0.12699999809E+01 0.  1.
       -4    1    3    3    0  502 -0.69363578909E+02  0.20046293594E+03 -0.35771072899E+03  0.41587891663E+03  0.12699999809E+01 0. -1.
</event>
<event>
 5   0  0.3993723E-04  0.1203227E+04  0.7818609E-02  0.9110037E-01
       -2   -1    0    0    0  501  0.00000000000E+00  0.00000000000E+00  0.22600612456E+03  0.22600612457E+03  0.25500000920E-02 0. -1.
        2   -1    0    0  501    0  0.00000000000E+00  0.00000000000E+00 -0.16014558856E+04  0.16014558856E+04  0.25500000920E-02 0.  1.
    10030    2    1    2    0    0  0.00000000000E+00  0.00000000000E+00 -0.13754497610E+04  0.18274620101E+04  0.12032270581E+04 0.  0.
        3    1    3    3  502    0 -0.51221396067E+03 -0.22839326200E+02 -0.11657347794E+04  0.12735078965E+04  0.10100000352E+00 0.  1.
       -3    1    3    3    0  502  0.51221396067E+03  0.22839326200E+02 -0.20971498163E+03  0.55395411366E+03  0.10100000352E+00 0. -1.
</event>
<event>
 5   0  0.3832662E-04  0.1201170E+04  0.7818609E-02  0.9111833E-01
        2   -1    0    0  501    0  0.00000000000E+00  0.00000000000E+00  0.15285873141E+04  0.15285873141E+04  0.25500000920E-02 0. -1.
       -2   -1    0    0    0  501  0.00000000000E+00  0.00000000000E+00 -0.23597086132E+03  0.23597086133E+03  0.25500000920E-02 0.  1.
    10030    2    1    2    0    0  0.00000000000E+00  0.00000000000E+00  0.12926164528E+04  0.17645581754E+04  0.12011695386E+04 0.  0.
        4    1    3    3  502    0 -0.13398702900E+03 -0.44263195997E+03  0.83407909876E+02  0.46992985462E+03  0.12699999809E+01 0.  1.
       -4    1    3    3    0  502  0.13398702900E+03  0.44263195997E+03  0.12092085429E+04  0.12946283208E+04  0.12699999809E+01 0. -1.
</event>
<event>
 5   0  0.3883890E-04  0.1216286E+04  0.7818609E-02  0.9098719E-01
        2   -1    0    0  501    0  0.00000000000E+00  0.00000000000E+00  0.49660898076E+03  0.49660898076E+03  0.25500000920E-02 0.  1.
       -2   -1    0    0    0  501  0.00000000000E+00  0.00000000000E+00 -0.74472704208E+03  0.74472704209E+03  0.25500000920E-02 0. -1.
    10030    2    1    2    0    0  0.00000000000E+00  0.00000000000E+00 -0.24811806132E+03  0.12413360229E+04  0.12162863763E+04 0.  0.
        2    1    3    3  502    0  0.69186883178E+02 -0.59258679246E+03 -0.37663723643E+01  0.59662393261E+03  0.25500000920E-02 0.  1.
       -2    1    3    3    0  502 -0.69186883178E+02  0.59258679246E+03 -0.24435168896E+03  0.64471209024E+03  0.25500000920E-02 0. -1.
</event>
<event>
 5   0  0.3883890E-04  0.1198686E+04  0.7818609E-02  0.9114007E-01
       -2   -1    0    0    0  501  0.00000000000E+00  0.00000000000E+00  0.56109365889E+03  0.56109365890E+03  0.25500000920E-02 0. -1.
        2   -1    0    0  501    0  0.00000000000E+00  0.00000000000E+00 -0.64020015222E+03  0.64020015223E+03  0.25500000920E-02 0.  1.
    10030    2    1    2    0    0  0.00000000000E+00  0.00000000000E+00 -0.79106493329E+02  0.12012938111E+04  0.11986863574E+04 0.  0.
        2    1    3    3  502    0 -0.45238790255E+03 -0.44385445818E+02 -0.43102728138E+03  0.62642589304E+03  0.25500000920E-02 0.  1.
       -2    1    3    3    0  502  0.45238790255E+03  0.44385445818E+02  0.35192078805E+03  0.57486791809E+03  0.25500000920E-02 0. -1.
</event>
<event>
 5   0  0.2204090E-04  0.1195611E+04  0.7818609E-02  0.9116706E-01
        1   -1    0    0  501    0  0.00000000000E+00  0.00000000000E+00  0.13041349679E+04  0.13041349679E+04  0.50400001928E-02 0. -1.
       -1   -1    0    0    0  501  0.00000000000E+00  0.00000000000E+00 -0.27402968578E+03  0.27402968582E+03  0.50400001928E-02 0.  1.
    10030    2    1    2    0    0  0.00000000000E+00  0.00000000000E+00  0.10301052821E+04  0.15781646537E+04  0.11956114678E+04 0.  0.
        2    1    3    3  502    0  0.46565556415E+03 -0.37486217089E+03  0.52015527411E+03  0.79241293577E+03  0.25500000920E-02 0.  1.
       -2    1    3    3    0  502 -0.46565556415E+03  0.37486217089E+03  0.50995000800E+03  0.78575171794E+03  0.25500000920E-02 0. -1.
</event>
<event>
 5   0  0.3883890E-04  0.1197554E+04  0.7818609E-02  0.9115001E-01
        2   -1    0    0  501    0  0.00000000000E+00  0.00000000000E+00  0.22476665629E+04  0.22476665629E+04  0.25500000920E-02 0.  1.
       -2   -1    0    0    0  501  0.00000000000E+00  0.00000000000E+00 -0.15951370755E+03  0.15951370757E+03  0.25500000920E-02 0. -1.
    10030    2    1    2    0    0  0.00000000000E+00  0.00000000000E+00  0.20881528554E+04  0.24071802705E+04  0.11975535509E+04 0.  0.
        2    1    3    3  502    0  0.53884742322E+03  0.92001780920E+02  0.55288902308E+03  0.77750057560E+03  0.25500000920E-02 0. -1.
       -2    1    3    3    0  502 -0.53884742322E+03 -0.92001780920E+02  0.15352638323E+04  0.16296796949E+04  0.25500000920E-02 0.  1.
</event>
<event>
 5   0  0.4122956E-04  0.1200844E+04  0.7818609E-02  0.9112118E-01
        2   -1    0    0  501    0  0.00000000000E+00  0.00000000000E+00  0.69425587055E+03  0.69425587056E+03  0.25500000920E-02 0.  1.
       -2   -1    0    0    0  501  0.00000000000E+00  0.00000000000E+00 -0.51927051886E+03  0.51927051886E+03  0.25500000920E-02 0. -1.
    10030    2    1    2    0    0  0.00000000000E+00  0.00000000000E+00  0.17498535170E+03  0.12135263894E+04  0.12008440467E+04 0.  0.
        5    1    3    3  502    0  0.19835345104E+03  0.20301238909E+03  0.62216110492E+03  0.68386011153E+03  0.46999998093E+01 0.  1.
       -5    1    3    3    0  502 -0.19835345104E+03 -0.20301238909E+03 -0.44717575322E+03  0.52966627789E+03  0.46999998093E+01 0. -1.
</event>
<event>
 5   0  0.4122956E-04  0.1199948E+04  0.7818609E-02  0.9112902E-01
       -2   -1    0    0    0  501  0.00000000000E+00  0.00000000000E+00  0.16173181044E+03  0.16173181046E+03  0.25500000920E-02 0.  1.
        2   -1    0    0  501    0  0.00000000000E+00  0.00000000000E+00 -0.22257142107E+04  0.22257142107E+04  0.25500000920E-02 0. -1.
    10030    2    1    2    0    0  0.00000000000E+00  0.00000000000E+00 -0.20639824003E+04  0.23874460212E+04  0.11999479803E+04 0.  0.
        5    1    3    3  502    0 -0.52753376570E+03 -0.93511965052E+02 -0.49475447165E+03  0.72927391204E+03  0.46999998093E+01 0. -1.
       -5    1    3    3    0  502  0.52753376570E+03  0.93511965052E+02 -0.15692279286E+04  0.16581721091E+04  0.46999998093E+01 0.  1.
</event>
<event>
 5   0  0.3993723E-04  0.1201733E+04  0.7818609E-02  0.9111341E-01
       -2   -1    0    0    0  501  0.00000000000E+00  0.00000000000E+00  0.11221524512E+04  0.11221524512E+04  0.25500000920E-02 0. -1.
        2   -1    0    0  501    0  0.00000000000E+00  0.00000000000E+00 -0.32173911083E+03  0.32173911084E+03  0.25500000920E-02 0.  1.
    10030    2    1    2    0    0  0.00000000000E+00  0.00000000000E+00  0.80041334032E+03  0.14438915620E+04  0.12017326356E+04 0.  0.
        3    1    3    3  502    0  0.16849783692E+03 -0.48623929893E+03  0.27506384235E+02  0.51534142881E+03  0.10100000352E+00 0.  1.
       -3    1    3    3    0  502 -0.16849783692E+03  0.48623929893E+03  0.77290695609E+03  0.92855013319E+03  0.10100000352E+00 0. -1.
</event>
<event>
 5   0  0.2244308E-04  0.1199932E+04  0.7818609E-02  0.9112916E-01
        1   -1    0    0  501    0  0.00000000000E+00  0.00000000000E+00  0.37282932955E+03  0.37282932958E+03  0.50400001928E-02 0.  1.
       -1   -1    0    0    0  501  0.00000000000E+00  0.00000000000E+00 -0.96548038375E+03  0.96548038376E+03  0.50400001928E-02 0. -1.
    10030    2    1    2    0    0  0.00000000000E+00  0.00000000000E+00 -0.59265105420E+03  0.13383097133E+04  0.11999323384E+04 0.  0.
        5    1    3    3  502    0  0.74299805744E+02  0.10632151646E+03 -0.94963386081E+03  0.95846298082E+03  0.46999998093E+01 0. -1.
       -5    1    3    3    0  502 -0.74299805744E+02 -0.10632151646E+03  0.35698280661E+03  0.37984673253E+03  0.46999998093E+01 0.  1.
</event>
<event>
 5   0  0.2315038E-04  0.1200219E+04  0.7818609E-02  0.9112665E-01
        1   -1    0    0  501    0  0.00000000000E+00  0.00000000000E+00  0.54813796342E+03  0.54813796344E+03  0.50400001928E-02 0.  1.
       -1   -1    0    0    0  501  0.00000000000E+00  0.00000000000E+00 -0.65700843673E+03  0.65700843675E+03  0.50400001928E-02 0. -1.
    10030    2    1    2    0    0  0.00000000000E+00  0.00000000000E+00 -0.10887047331E+03  0.12051464002E+04  0.12002187575E+04 0.  0.
        1    1    3    3  502    0 -0.48672491297E+02 -0.47046306600E+02 -0.65316254597E+03  0.65666100680E+03  0.50400001928E-02 0. -1.
       -1    1    3    3    0  502  0.48672491297E+02  0.47046306600E+02  0.54429207266E+03  0.54848539339E+03  0.50400001928E-02 0.  1.
</event>
<event>
 5   0  0.3993723E-04  0.1218671E+04  0.7818609E-02  0.9096669E-01
       -2   -1    0    0    0  501  0.00000000000E+00  0.00000000000E+00  0.17719697824E+03  0.17719697826E+03  0.25500000920E-02 0. -1.
        2   -1    0    0  501    0  0.00000000000E+00  0.00000000000E+00 -0.20953506307E+04  0.20953506307E+04  0.25500000920E-02 0.  1.
    10030    2    1    2    0    0  0.00000000000E+00  0.00000000000E+00 -0.19181536525E+04  0.22725476090E+04  0.12186710797E+04 0.  0.
        3    1    3    3  502    0 -0.59779967343E+03 -0.34345198281E+02 -0.74854917521E+03  0.95857702878E+03  0.10100000352E+00 0. -1.
       -3    1    3    3    0  502  0.59779967343E+03  0.34345198281E+02 -0.11696044773E+04  0.13139705802E+04  0.10100000352E+00 0.  1.
</event>
<event>
 5   0  0.1541375E-04  0.1199399E+04  0.7818609E-02  0.9113383E-01
        4   -1    0    0  501    0  0.00000000000E+00  0.00000000000E+00  0.86647261169E+03  0.86647354241E+03  0.12699999809E+01 0.  1.
       -4   -1    0    0    0  501  0.00000000000E+00  0.00000000000E+00 -0.41505940455E+03  0.41506134752E+03  0.12699999809E+01 0. -1.
    10030    2    1    2    0    0  0.00000000000E+00  0.00000000000E+00  0.45141320714E+03  0.12815348899E+04  0.11993989289E+04 0.  0.
        1    1    3    3  502    0 -0.53007015639E+03  0.61433126880E+02  0.51810954107E+03  0.74376467807E+03  0.50400001928E-02 0. -1.
       -1    1    3    3    0  502  0.53007015639E+03 -0.61433126880E+02 -0.66696333928E+02  0.53777021186E+03  0.50400001928E-02 0.  1.
</event>
<event>
 5   0  0.3832662E-04  0.1204371E+04  0.7818609E-02  0.9109039E-01
       -2   -1    0    0    0  501  0.00000000000E+00  0.00000000000E+00  0.45627423611E+03  0.45627423612E+03  0.25500000920E-02 0.  1.
        2   -1    0    0  501    0  0.00000000000E+00  0.00000000000E+00 -0.79475768312E+03  0.79475768312E+03  0.25500000920E-02 0. -1.
    10030    2    1    2    0    0  0.00000000000E+00  0.00000000000E+00 -0.33848344701E+03  0.12510319192E+04  0.12043711301E+04 0.  0.
        4    1    3    3  502    0 -0.14686164871E+02  0.60023775962E+03 -0.12136040543E+03  0.61256102751E+03  0.12699999809E+01 0. -1.
       -4    1    3    3    0  502  0.14686164871E+02 -0.60023775962E+03 -0.21712304158E+03  0.63847089174E+03  0.12699999809E+01 0.  1.
</event>
<event>
 5   0  0.1541375E-04  0.1196138E+04  0.7818609E-02  0.9116244E-01
        3   -1    0    0  501    0  0.00000000000E+00  0.00000000000E+00  0.56250185337E+03  0.56250186244E+03  0.10100000352E+00 0.  1.
       -3   -1    0    0    0  501  0.00000000000E+00  0.00000000000E+00 -0.63588509861E+03  0.63588510663E+03  0.10100000352E+00 0. -1.
    10030    2    1    2    0    0  0.00000000000E+00  0.00000000000E+00 -0.73383245233E+02  0.11983869691E+04  0.11961380468E+04 0.  0.
        1    1    3    3  502    0 -0.24364742314E+02 -0.50345955977E+03 -0.35919961028E+03  0.61894226632E+03  0.50400001928E-02 0. -1.
       -1    1    3    3    0  502  0.24364742314E+02  0.50345955977E+03  0.28581636505E+03  0.57944470275E+03  0.50400001928E-02 0.  1.
</event>
<event>
 5   0  0.2304842E-04  0.1199616E+04  0.7818609E-02  0.9113193E-01
        1   -1    0    0  501    0  0.00000000000E+00  0.00000000000E+00  0.75647105621E+03  0.75647105622E+03  0.50400001928E-02 0.  1.
       -1   -1    0    0    0  501  0.00000000000E+00  0.00000000000E+00 -0.47558917280E+03  0.47558917283E+03  0.50400001928E-02 0. -1.
    10030    2    1    2    0    0  0.00000000000E+00  0.00000000000E+00  0.28088188341E+03  0.12320602290E+04  0.11996156783E+04 0.  0.
        4    1    3    3  502    0  0.14322628491E+03 -0.26778886088E+03  0.67167603260E+03  0.73713970750E+03  0.12699999809E+01 0.  1.
       -4    1    3    3    0  502 -0.14322628491E+03  0.26778886088E+03 -0.39079414920E+03  0.49492052155E+03  0.12699999809E+01 0. -1.
</event>
<event>
 5   0  0.3832662E-04  0.1199594E+04  0.7818609E-02  0.9113212E-01
       -2   -1    0    0    0  501  0.00000000000E+00  0.00000000000E+00  0.20533010494E+03  0.20533010496E+03  0.25500000920E-02 0. -1.
        2   -1    0    0  501    0  0.00000000000E+00  0.00000000000E+00 -0.17520871030E+04  0.17520871030E+04  0.25500000920E-02 0.  1.
    10030    2    1    2    0    0  0.00000000000E+00  0.00000000000E+00 -0.15467569980E+04  0.19574172079E+04  0.11995936458E+04 0.  0.
        4    1    3    3  502    0 -0.49486694174E+03 -0.13470860959E+03 -0.26592532241E+03  0.57771756899E+03  0.12699999809E+01 0. -1.
       -4    1    3    3    0  502  0.49486694174E+03  0.13470860959E+03 -0.12808316756E+04  0.13796996389E+04  0.12699999809E+01 0.  1.
</event>
<event>
 5   0  0.4024486E-04  0.1199515E+04  0.7818609E-02  0.9113281E-01
        2   -1    0    0  501    0  0.00000000000E+00  0.00000000000E+00  0.40566027300E+03  0.40566027301E+03  0.25500000920E-02 0.  1.
       -2   -1    0    0    0  501  0.00000000000E+00  0.00000000000E+00 -0.88672468553E+03  0.88672468554E+03  0.25500000920E-02 0. -1.
    10030    2    1    2    0    0  0.00000000000E+00  0.00000000000E+00 -0.48106441253E+03  0.12923849585E+04  0.11995148653E+04 0.  0.
        1    1    3    3  502    0 -0.21820165793E+03 -0.51868409000E+02  0.35877721521E+03  0.42311155214E+03  0.50400001928E-02 0.  1.
       -1    1    3    3    0  502  0.21820165793E+03  0.51868409000E+02 -0.83984162774E+03  0.86927340641E+03  0.50400001928E-02 0. -1.
</event>
<event>
 5   0  0.3883890E-04  0.1201546E+04  0.7818609E-02  0.9111505E-01
       -2   -1    0    0    0  501  0.00000000000E+00  0.00000000000E+00  0.21255133906E+03  0.21255133907E+03  0.25500000920E-02 0. -1.
        2   -1    0    0  501    0  0.00000000000E+00  0.00000000000E+00 -0.16980746654E+04  0.16980746654E+04  0.25500000920E-02 0.  1.
    10030    2    1    2    0    0  0.00000000000E+00  0.00000000000E+00 -0.14855233263E+04  0.19106260045E+04  0.12015457444E+04 0.  0.
        2    1    3    3  502    0 -0.20506062349E+03 -0.27025478166E+03  0.45666489351E+02  0.34230532361E+03  0.25500000920E-02 0. -1.
       -2    1    3    3    0  502  0.20506062349E+03  0.27025478166E+03 -0.15311898157E+04  0.15683206808E+04  0.25500000920E-02 0.  1.
</event>
<event>
 5   0  0.2340731E-04  0.1204543E+04  0.7818609E-02  0.9108890E-01
        1   -1    0    0  501    0  0.00000000000E+00  0.00000000000E+00  0.83711450177E+03  0.83711450178E+03  0.50400001928E-02 0.  1.
       -1   -1    0    0    0  501  0.00000000000E+00  0.00000000000E+00 -0.43331089694E+03  0.43331089697E+03  0.50400001928E-02 0. -1.
    10030    2    1    2    0    0  0.00000000000E+00  0.00000000000E+00  0.40380360483E+03  0.12704253987E+04  0.12045427940E+04 0.  0.
        3    1    3    3  502    0  0.25133657854E+03 -0.52471495339E+03  0.37711253855E+02  0.58302487673E+03  0.10100000352E+00 0. -1.
       -3    1    3    3    0  502 -0.25133657854E+03  0.52471495339E+03  0.36609235097E+03  0.68740052201E+03  0.10100000352E+00 0.  1.
</event>
<event>
 5   0  0.1541375E-04  0.1199478E+04  0.7818609E-02  0.9113313E-01
       -3   -1    0    0    0  501  0.00000000000E+00  0.00000000000E+00  0.59734121024E+03  0.59734121878E+03  0.10100000352E+00 0.  1.
        3   -1    0    0  501    0  0.00000000000E+00  0.00000000000E+00 -0.60214647803E+03  0.60214648650E+03  0.10100000352E+00 0. -1.
    10030    2    1    2    0    0  0.00000000000E+00  0.00000000000E+00 -0.48052677958E+01  0.11994877053E+04  0.11994780801E+04 0.  0.
        4    1    3    3  502    0  0.50970124933E+03  0.96211082472E+02 -0.30345881114E+03  0.60094991382E+03  0.12699999809E+01 0. -1.
       -4    1    3    3    0  502 -0.50970124933E+03 -0.96211082472E+02  0.29865354335E+03  0.59853779146E+03  0.12699999809E+01 0.  1.
</event>
<event>
 5   0  0.2304842E-04  0.1199933E+04  0.7818609E-02  0.9112915E-01
       -1   -1    0    0    0  501  0.00000000000E+00  0.00000000000E+00  0.17540148638E+03  0.17540148645E+03  0.50400001928E-02 0.  1.
        1   -1    0    0  501    0  0.00000000000E+00  0.00000000000E+00 -0.20522054928E+04  0.20522054928E+04  0.50400001928E-02 0. -1.
    10030    2    1    2    0    0  0.00000000000E+00  0.00000000000E+00 -0.18768040064E+04  0.22276069792E+04  0.11999331546E+04 0.  0.
        4    1    3    3  502    0  0.18533591443E+02  0.39618130845E+03 -0.10268286561E+03  0.40969318638E+03  0.12699999809E+01 0.  1.
       -4    1    3    3    0  502 -0.18533591443E+02 -0.39618130845E+03 -0.17741211408E+04  0.18179137929E+04  0.12699999809E+01 0. -1.
</event>
<event>
 5   0  0.2204090E-04  0.1191790E+04  0.7818609E-02  0.9120073E-01
       -1   -1    0    0    0  501  0.00000000000E+00  0.00000000000E+00  0.34860620497E+03  0.34860620500E+03  0.50400001928E-02 0. -1.
        1   -1    0    0  501    0  0.00000000000E+00  0.00000000000E+00 -0.10186015894E+04  0.10186015894E+04  0.50400001928E-02 0.  1.
    10030    2    1    2    0    0  0.00000000000E+00  0.00000000000E+00 -0.66999538441E+03  0.13672077944E+04  0.11917899722E+04 0.  0.
        2    1    3    3  502    0 -0.41942278790E+03 -0.70403290833E+02  0.14383327334E+03  0.44895446194E+03  0.25500000920E-02 0. -1.
       -2    1    3    3    0  502  0.41942278790E+03  0.70403290833E+02 -0.81382865775E+03  0.91825333245E+03  0.25500000920E-02 0.  1.
</event>
<event>
 5   0  0.3883890E-04  0.1199426E+04  0.7818609E-02  0.9113359E-01
        2   -1    0    0  501    0  0.00000000000E+00  0.00000000000E+00  0.45445590243E+03  0.45445590244E+03  0.25500000920E-02 0. -1.
       -2   -1    0    0    0  501  0.00000000000E+00  0.00000000000E+00 -0.79139839194E+03  0.79139839194E+03  0.25500000920E-02 0.  1.
    10030    2    1    2    0    0  0.00000000000E+00  0.00000000000E+00 -0.33694248951E+03  0.12458542944E+04  0.11994259800E+04 0.  0.
        2    1    3    3  502    0 -0.28208097519E+02 -0.57872799679E+02  0.45085594649E+03  0.45542951398E+03  0.25500000920E-02 0. -1.
       -2    1    3    3    0  502  0.28208097519E+02  0.57872799679E+02 -0.78779843600E+03  0.79042478040E+03  0.25500000920E-02 0.  1.
</event>
<event>
 5   0  0.4122956E-04  0.1202381E+04  0.7818609E-02  0.9110775E-01
        2   -1    0    0  501    0  0.00000000000E+00  0.00000000000E+00  0.64051272437E+03  0.64051272437E+03  0.25500000920E-02 0.  1.
       -2   -1    0    0    0  501  0.00000000000E+00  0.00000000000E+00 -0.56428276998E+03  0.56428276999E+03  0.25500000920E-02 0. -1.
    10030    2    1    2    0    0  0.00000000000E+00  0.00000000000E+00  0.76229954385E+02  0.12047954944E+04  0.12023814608E+04 0.  0.
        5    1    3    3  502    0 -0.90817360198E+02  0.31261679210E+03  0.54453164931E+03  0.63443979913E+03  0.46999998093E+01 0.  1.
       -5    1    3    3    0  502  0.90817360198E+02 -0.31261679210E+03 -0.46830169493E+03  0.57035569523E+03  0.46999998093E+01 0. -1.
</event>
<event>
 5   0  0.2315038E-04  0.1200288E+04  0.7818609E-02  0.9112604E-01
        1   -1    0    0  501    0  0.00000000000E+00  0.00000000000E+00  0.46646650099E+03  0.46646650101E+03  0.50400001928E-02 0.  1.
       -1   -1    0    0    0  501  0.00000000000E+00  0.00000000000E+00 -0.77213054428E+03  0.77213054430E+03  0.50400001928E-02 0. -1.
    10030    2    1    2    0    0  0.00000000000E+00  0.00000000000E+00 -0.30566404330E+03  0.12385970453E+04  0.12002883542E+04 0.  0.
        1    1    3    3  502    0 -0.14526921696E+02  0.67020543831E+02 -0.76807416463E+03  0.77112950089E+03  0.50400001928E-02 0. -1.
       -1    1    3    3    0  502  0.14526921696E+02 -0.67020543831E+02  0.46241012133E+03  0.46746754442E+03  0.50400001928E-02 0.  1.
</event>
<event>
 5   0  0.4024486E-04  0.1208574E+04  0.7818609E-02  0.9105384E-01
       -2   -1    0    0    0  501  0.00000000000E+00  0.00000000000E+00  0.29757830094E+03  0.29757830095E+03  0.25500000920E-02 0.  1.
        2   -1    0    0  501    0  0.00000000000E+00  0.00000000000E+00 -0.12271158207E+04  0.12271158207E+04  0.25500000920E-02 0. -1.
    10030    2    1    2    0    0  0.00000000000E+00  0.00000000000E+00 -0.92953751979E+03  0.15246941217E+04  0.12085744346E+04 0.  0.
        1    1    3    3  502    0  0.53096575347E+03 -0.20156382562E+03 -0.72518454210E+03  0.92111086590E+03  0.50400001928E-02 0. -1.
       -1    1    3    3    0  502 -0.53096575347E+03  0.20156382562E+03 -0.20435297769E+03  0.60358325579E+03  0.50400001928E-02 0.  1.
</event>
<event>
 5   0  0.2304842E-04  0.1203505E+04  0.7818609E-02  0.9109795E-01
       -1   -1    0    0    0  501  0.00000000000E+00  0.00000000000E+00  0.30022826569E+03  0.30022826573E+03  0.50400001928E-02 0. -1.
        1   -1    0    0  501    0  0.00000000000E+00  0.00000000000E+00 -0.12061016276E+04  0.12061016276E+04  0.50400001928E-02 0.  1.
    10030    2    1    2    0    0  0.00000000000E+00  0.00000000000E+00 -0.90587336193E+03  0.15063298934E+04  0.12035045491E+04 0.  0.
        4    1    3    3  502    0 -0.29025942166E+03  0.76228219743E+02 -0.11057530979E+04  0.11457542493E+04  0.12699999809E+01 0.  1.
       -4    1    3    3    0  502  0.29025942166E+03 -0.76228219743E+02  0.19987973596E+03  0.36057564407E+03  0.12699999809E+01 0. -1.
</event>
<event>
 5   0  0.4122956E-04  0.1201212E+04  0.7818609E-02  0.9111796E-01
        2   -1    0    0  501    0  0.00000000000E+00  0.00000000000E+00  0.73919153094E+03  0.73919153094E+03  0.25500000920E-02 0.  1.
       -2   -1    0    0    0  501  0.00000000000E+00  0.00000000000E+00 -0.48800324589E+03  0.48800324590E+03  0.25500000920E-02 0. -1.
    10030    2    1    2    0    0  0.00000000000E+00  0.00000000000E+00  0.25118828505E+03  0.12271947768E+04  0.12012124982E+04 0.  0.
        5    1    3    3  502    0  0.46961427208E+02  0.21636243690E+03  0.69595995447E+03  0.73034267845E+03  0.46999998093E+01 0.  1.
       -5    1    3    3    0  502 -0.46961427208E+02 -0.21636243690E+03 -0.44477166942E+03  0.49685209838E+03  0.46999998093E+01 0. -1.
</event>
<event>
 5   0  0.3832662E-04  0.1188824E+04  0.7818609E-02  0.9122696E-01
       -2   -1    0    0    0  501  0.00000000000E+00  0.00000000000E+00  0.47502982479E+03  0.47502982480E+03  0.25500000920E-02 0. -1.
        2   -1    0    0  501    0  0.00000000000E+00  0.00000000000E+00 -0.74379630231E+03  0.74379630232E+03  0.25500000920E-02 0.  1.
    10030    2    1    2    0    0  0.00000000000E+00  0.00000000000E+00 -0.26876647752E+03  0.12188261271E+04  0.11888236659E+04 0.  0.
        4    1    3    3  502    0 -0.26707399686E+03  0.40045212279E+03 -0.49194471533E+03  0.68825986247E+03  0.12699999809E+01 0.  1.
       -4    1    3    3    0  502  0.26707399686E+03 -0.40045212279E+03  0.22317823781E+03  0.53056626465E+03  0.12699999809E+01 0. -1.
</event>
<event>
 5   0  0.4122956E-04  0.1203537E+04  0.7818609E-02  0.9109766E-01
        2   -1    0    0  501    0  0.00000000000E+00  0.00000000000E+00  0.61765061269E+03  0.61765061269E+03  0.25500000920E-02 0. -1.
       -2   -1    0    0    0  501  0.00000000000E+00  0.00000000000E+00 -0.58629513552E+03  0.58629513552E+03  0.25500000920E-02 0.  1.
    10030    2    1    2    0    0  0.00000000000E+00  0.00000000000E+00  0.31355477170E+02  0.12039457482E+04  0.12035373691E+04 0.  0.
        5    1    3    3  502    0  0.64579219295E+02 -0.38829910885E+03  0.47097697332E+03  0.61383065489E+03  0.46999998093E+01 0. -1.
       -5    1    3    3    0  502 -0.64579219295E+02  0.38829910885E+03 -0.43962149615E+03  0.59011509332E+03  0.46999998093E+01 0.  1.
</event>
<event>
 5   0  0.4122956E-04  0.1201952E+04  0.7818609E-02  0.9111150E-01
       -2   -1    0    0    0  501  0.00000000000E+00  0.00000000000E+00  0.23264081088E+03  0.23264081089E+03  0.25500000920E-02 0. -1.
        2   -1    0    0  501    0  0.00000000000E+00  0.00000000000E+00 -0.15524875115E+04  0.15524875115E+04  0.25500000920E-02 0.  1.
    10030    2    1    2    0    0  0.00000000000E+00  0.00000000000E+00 -0.13198467006E+04  0.17851283224E+04  0.12019516689E+04 0.  0.
        5    1    3    3  502    0  0.28059071267E+03  0.20515662267E+03 -0.13880148406E+04  0.14308835297E+04  0.46999998093E+01 0.  1.
       -5    1    3    3    0  502 -0.28059071267E+03 -0.20515662267E+03  0.68168139946E+02  0.35424479271E+03  0.46999998093E+01 0. -1.
</event>
<event>
 5   0  0.1541375E-04  0.1199847E+04  0.7818609E-02  0.9112990E-01
       -4   -1    0    0    0  501  0.00000000000E+00  0.00000000000E+00  0.29466360043E+03  0.29466633727E+03  0.12699999809E+01 0.  1.
        4   -1    0    0  501    0  0.00000000000E+00  0.00000000000E+00 -0.12214121620E+04  0.12214128223E+04  0.12699999809E+01 0. -1.
    10030    2    1    2    0    0  0.00000000000E+00  0.00000000000E+00 -0.92674856160E+03  0.15160791596E+04  0.11998471243E+04 0.  0.
        2    1    3    3  502    0  0.24500932182E+03  0.44912786833E+03 -0.85925977396E+03  0.10000363839E+04  0.25500000920E-02 0. -1.
       -2    1    3    3    0  502 -0.24500932182E+03 -0.44912786833E+03 -0.67488787637E+02  0.51604277570E+03  0.25500000920E-02 0.  1.
</event>
<event>
 5   0  0.4024486E-04  0.1200033E+04  0.7818609E-02  0.9112828E-01
        2   -1    0    0  501    0  0.00000000000E+00  0.00000000000E+00  0.10530877629E+04  0.10530877629E+04  0.25500000920E-02 0.  1.
       -2   -1    0    0    0  501  0.00000000000E+00  0.00000000000E+00 -0.34187051209E+03  0.34187051210E+03  0.25500000920E-02 0. -1.
    10030    2    1    2    0    0  0.00000000000E+00  0.00000000000E+00  0.71121725084E+03  0.13949582750E+04  0.12000327542E+04 0.  0.
        1    1    3    3  502    0  0.36358503523E+03 -0.47724878736E+03  0.36455029269E+03  0.70203803231E+03  0.50400001928E-02 0. -1.
       -1    1    3    3    0  502 -0.36358503523E+03  0.47724878736E+03  0.34666695815E+03  0.69292024273E+03  0.50400001928E-02 0.  1.
</event>
<event>
 5   0  0.2204090E-04  0.1206040E+04  0.7818609E-02  0.9107586E-01
        1   -1    0    0  501    0  0.00000000000E+00  0.00000000000E+00  0.41182738268E+03  0.41182738271E+03  0.50400001928E-02 0. -1.
       -1   -1    0    0    0  501  0.00000000000E+00  0.00000000000E+00 -0.88297444143E+03  0.88297444145E+03  0.50400001928E-02 0.  1.
    10030    2    1    2    0    0  0.00000000000E+00  0.00000000000E+00 -0.47114705876E+03  0.12948018242E+04  0.12060398886E+04 0.  0.
        2    1    3    3  502    0 -0.15089266597E+02 -0.16471209277E+03  0.38699779187E+03  0.42086227010E+03  0.25500000920E-02 0. -1.
       -2    1    3    3    0  502  0.15089266597E+02  0.16471209277E+03 -0.85814485063E+03  0.87393955406E+03  0.25500000920E-02 0.  1.
</event>
<event>
 5   0  0.3832662E-04  0.1199994E+04  0.7818609E-02  0.9112862E-01
        2   -1    0    0  501    0  0.00000000000E+00  0.00000000000E+00  0.12575342394E+04  0.12575342394E+04  0.25500000920E-02 0.  1.
       -2   -1    0    0    0  501  0.00000000000E+00  0.00000000000E+00 -0.28627169027E+03  0.28627169028E+03  0.25500000920E-02 0. -1.
    10030    2    1    2    0    0  0.00000000000E+00  0.00000000000E+00  0.97126254910E+03  0.15438059296E+04  0.11999940871E+04 0.  0.
        4    1    3    3  502    0 -0.98054210794E+02 -0.32391488627E+03 -0.15175600982E+03  0.37090023081E+03  0.12699999809E+01 0. -1.
       -4    1    3    3    0  502  0.98054210794E+02  0.32391488627E+03  0.11230185589E+04  0.11729056988E+04  0.12699999809E+01 0.  1.
</event>
<event>
 5   0  0.2340731E-04  0.1202483E+04  0.7818609E-02  0.9110686E-01
       -1   -1    0    0    0  501  0.00000000000E+00  0.00000000000E+00  0.24725762730E+03  0.24725762735E+03  0.50400001928E-02 0. -1.
        1   -1    0    0  501    0  0.00000000000E+00  0.00000000000E+00 -0.14620018853E+04  0.14620018853E+04  0.50400001928E-02 0.  1.
    10030    2    1    2    0    0  0.00000000000E+00  0.00000000000E+00 -0.12147442580E+04  0.17092595127E+04  0.12024826274E+04 0.  0.
        3    1    3    3  502    0 -0.27259398460E+03 -0.44556540047E+03 -0.18413763265E+03  0.55384355597E+03  0.10100000352E+00 0. -1.
       -3    1    3    3    0  502  0.27259398460E+03  0.44556540047E+03 -0.10306066254E+04  0.11554159567E+04  0.10100000352E+00 0.  1.
</event>
<event>
 5   0  0.3993723E-04  0.1201852E+04  0.7818609E-02  0.9111237E-01
        2   -1    0    0  501    0  0.00000000000E+00  0.00000000000E+00  0.50787762057E+03  0.50787762058E+03  0.25500000920E-02 0.  1.
       -2   -1    0    0    0  501  0.00000000000E+00  0.00000000000E+00 -0.71102213307E+03  0.71102213307E+03  0.25500000920E-02 0. -1.
    10030    2    1    2    0    0  0.00000000000E+00  0.00000000000E+00 -0.20314451250E+03  0.12188997537E+04  0.12018522856E+04 0.  0.
        3    1    3    3  502    0  0.44054435476E+03  0.33846878754E+03  0.13074408203E+03  0.57073152518E+03  0.10100000352E+00 0.  1.
       -3    1    3    3    0  502 -0.44054435476E+03 -0.33846878754E+03 -0.33388859452E+03  0.64816822847E+03  0.10100000352E+00 0. -1.
</event>
<event>
 5   0  0.2304842E-04  0.1201598E+04  0.7818609E-02  0.9111459E-01
        1   -1    0    0  501    0  0.00000000000E+00  0.00000000000E+00  0.11431307538E+04  0.11431307538E+04  0.50400001928E-02 0.  1.
       -1   -1    0    0    0  501  0.00000000000E+00  0.00000000000E+00 -0.31576410212E+03  0.31576410216E+03  0.50400001928E-02 0. -1.
    10030    2    1    2    0    0  0.00000000000E+00  0.00000000000E+00  0.82736665163E+03  0.14588948559E+04  0.12015983623E+04 0.  0.
        4    1    3    3  502    0 -0.22124768934E+03 -0.51685569877E+03  0.15650668489E+03  0.58359772850E+03  0.12699999809E+01 0. -1.
       -4    1    3    3    0  502  0.22124768934E+03  0.51685569877E+03  0.67085996675E+03  0.87529712742E+03  0.12699999809E+01 0.  1.
</event>
<event>
 5   0  0.4024486E-04  0.1193590E+04  0.7818609E-02  0.9118486E-01
       -2   -1    0    0    0  501  0.00000000000E+00  0.00000000000E+00  0.35237498813E+03  0.35237498814E+03  0.25500000920E-02 0.  1.
        2   -1    0    0  501    0  0.00000000000E+00  0.00000000000E+00 -0.10107528667E+04  0.10107528667E+04  0.25500000920E-02 0. -1.
    10030    2    1    2    0    0  0.00000000000E+00  0.00000000000E+00 -0.65837787856E+03  0.13631278548E+04  0.11935895935E+04 0.  0.
        1    1    3    3  502    0  0.38208117076E+03  0.13256152898E+03 -0.83039446919E+03  0.92364146427E+03  0.50400001928E-02 0. -1.
       -1    1    3    3    0  502 -0.38208117076E+03 -0.13256152898E+03  0.17201659064E+03  0.43948639057E+03  0.50400001928E-02 0.  1.
</event>
<event>
 5   0  0.2244308E-04  0.1200472E+04  0.7818609E-02  0.9112443E-01
       -1   -1    0    0    0  501  0.00000000000E+00  0.00000000000E+00  0.27645928458E+03  0.27645928462E+03  0.50400001928E-02 0.  1.
        1   -1    0    0  501    0  0.00000000000E+00  0.00000000000E+00 -0.13032056899E+04  0.13032056899E+04  0.50400001928E-02 0. -1.
    10030    2    1    2    0    0  0.00000000000E+00  0.00000000000E+00 -0.10267464053E+04  0.15796649745E+04  0.12004720950E+04 0.  0.
        5    1    3    3  502    0 -0.89492713915E+02 -0.19824637927E+03 -0.12494969841E+04  0.12682962493E+04  0.46999998093E+01 0. -1.
       -5    1    3    3    0  502  0.89492713915E+02  0.19824637927E+03  0.22275057875E+03  0.31136872526E+03  0.46999998093E+01 0.  1.
</event>
<event>
 5   0  0.2304842E-04  0.1194024E+04  0.7818609E-02  0.9118104E-01
       -1   -1    0    0    0  501  0.00000000000E+00  0.00000000000E+00  0.56543023020E+03  0.56543023022E+03  0.50400001928E-02 0. -1.
        1   -1    0    0  501    0  0.00000000000E+00  0.00000000000E+00 -0.63035739197E+03  0.63035739199E+03  0.50400001928E-02 0.  1.
    10030    2    1    2    0    0  0.00000000000E+00  0.00000000000E+00 -0.64927161770E+02  0.11957876222E+04  0.11940236602E+04 0.  0.
        4    1    3    3  502    0 -0.49712524447E+03 -0.15650765984E+03  0.25915959377E+03  0.58205967411E+03  0.12699999809E+01 0. -1.
       -4    1    3    3    0  502  0.49712524447E+03  0.15650765984E+03 -0.32408675554E+03  0.61372794811E+03  0.12699999809E+01 0.  1.
</event>
<event>
 5   0  0.3993723E-04  0.1202227E+04  0.7818609E-02  0.9110909E-01
       -2   -1    0    0    0  501  0.00000000000E+00  0.00000000000E+00  0.37859449081E+03  0.37859449081E+03  0.25500000920E-02 0. -1.
        2   -1    0    0  501    0  0.00000000000E+00  0.00000000000E+00 -0.95441832843E+03  0.95441832843E+03  0.25500000920E-02 0.  1.
    10030    2    1    2    0    0  0.00000000000E+00  0.00000000000E+00 -0.57582383762E+03  0.13330128192E+04  0.12022271351E+04 0.  0.
        3    1    3    3  502    0 -0.16128288811E+03  0.17817382541E+03 -0.89883139347E+03  0.93040634464E+03  0.10100000352E+00 0.  1.
       -3    1    3    3    0  502  0.16128288811E+03 -0.17817382541E+03  0.32300755585E+03  0.40260647460E+03  0.10100000352E+00 0. -1.
</event>
<event>
 5   0  0.2244308E-04  0.1205674E+04  0.7818609E-02  0.9107905E-01
        1   -1    0    0  501    0  0.00000000000E+00  0.00000000000E+00  0.20536101126E+04  0.20536101126E+04  0.50400001928E-02 0.  1.
       -1   -1    0    0    0  501  0.00000000000E+00  0.00000000000E+00 -0.17696258449E+03  0.17696258456E+03  0.50400001928E-02 0. -1.
    10030    2    1    2    0    0  0.00000000000E+00  0.00000000000E+00  0.18766475281E+04  0.22305726972E+04  0.12056735100E+04 0.  0.
        5    1    3    3  502    0  0.75559781794E+02  0.47693896671E+03  0.27073527457E+03  0.55362418434E+03  0.46999998093E+01 0. -1.
       -5    1    3    3    0  502 -0.75559781794E+02 -0.47693896671E+03  0.16059122536E+04  0.16769485128E+04  0.46999998093E+01 0.  1.
</event>
<event>
 5   0  0.2340731E-04  0.1200872E+04  0.7818609E-02  0.9112093E-01
       -1   -1    0    0    0  501  0.00000000000E+00  0.00000000000E+00  0.87738120474E+03  0.87738120475E+03  0.50400001928E-02 0. -1.
        1   -1    0    0  501    0  0.00000000000E+00  0.00000000000E+00 -0.41090882091E+03  0.41090882094E+03  0.50400001928E-02 0.  1.
    10030    2    1    2    0    0  0.00000000000E+00  0.00000000000E+00  0.46647238383E+03  0.12882900257E+04  0.12008724768E+04 0.  0.
        3    1    3    3  502    0  0.38765854021E+03  0.29767490149E+03  0.60738516777E+03  0.77961929363E+03  0.10100000352E+00 0.  1.
       -3    1    3    3    0  502 -0.38765854021E+03 -0.29767490149E+03 -0.14091278395E+03  0.50867073206E+03  0.10100000352E+00 0. -1.
</event>
<event>
 5   0  0.2204090E-04  0.1199932E+04  0.7818609E-02  0.9112916E-01
        1   -1    0    0  501    0  0.00000000000E+00  0.00000000000E+00  0.51142130729E+03  0.51142130732E+03  0.50400001928E-02 0. -1.
       -1   -1    0    0    0  501  0.00000000000E+00  0.00000000000E+00 -0.70384094417E+03  0.70384094419E+03  0.50400001928E-02 0.  1.
    10030    2    1    2    0    0  0.00000000000E+00  0.00000000000E+00 -0.19241963688E+03  0.12152622515E+04  0.11999320911E+04 0.  0.
        2    1    3    3  502    0 -0.97167958750E+02 -0.21034012494E+03 -0.65670112887E+03  0.69637701932E+03  0.25500000920E-02 0.  1.
       -2    1    3    3    0  502  0.97167958750E+02  0.21034012494E+03  0.46428149199E+03  0.51888523219E+03  0.25500000920E-02 0. -1.
</event>
<event>
 5   0  0.3883890E-04  0.1200482E+04  0.7818609E-02  0.9112435E-01
       -2   -1    0    0    0  501  0.00000000000E+00  0.00000000000E+00  0.46788239649E+03  0.46788239650E+03  0.25500000920E-02 0.  1.
        2   -1    0    0  501    0  0.00000000000E+00  0.00000000000E+00 -0.77004208442E+03  0.77004208443E+03  0.25500000920E-02 0. -1.
    10030    2    1    2    0    0  0.00000000000E+00  0.00000000000E+00 -0.30215968793E+03  0.12379244809E+04  0.12004817964E+04 0.  0.
        2    1    3    3  502    0 -0.14156987151E+03  0.48377614053E+02 -0.75050778522E+03  0.76527404095E+03  0.25500000920E-02 0. -1.
       -2    1    3    3    0  502  0.14156987151E+03 -0.48377614053E+02  0.44834809729E+03  0.47265043998E+03  0.25500000920E-02 0.  1.
</event>
<event>
 5   0  0.2204090E-04  0.1201824E+04  0.7818609E-02  0.9111262E-01
       -1   -1    0    0    0  501  0.00000000000E+00  0.00000000000E+00  0.68364621412E+03  0.68364621414E+03  0.50400001928E-02 0. -1.
        1   -1    0    0  501    0  0.00000000000E+00  0.00000000000E+00 -0.52818990613E+03  0.52818990615E+03  0.50400001928E-02 0.  1.
    10030    2    1    2    0    0  0.00000000000E+00  0.00000000000E+00  0.15545630799E+03  0.12118361203E+04  0.12018236637E+04 0.  0.
        2    1    3    3  502    0  0.37044833512E+02 -0.10021503998E+03 -0.51853548333E+03  0.52942839120E+03  0.25500000920E-02 0.  1.
       -2    1    3    3    0  502 -0.37044833512E+02  0.10021503998E+03  0.67399179133E+03  0.68240772908E+03  0.25500000920E-02 0. -1.
</event>
<event>
 5   0  0.2204090E-04  0.1203663E+04  0.7818609E-02  0.9109656E-01
       -1   -1    0    0    0  501  0.00000000000E+00  0.00000000000E+00  0.25318642934E+03  0.25318642939E+03  0.50400001928E-02 0. -1.
        1   -1    0    0  501    0  0.00000000000E+00  0.00000000000E+00 -0.14305706743E+04  0.14305706743E+04  0.50400001928E-02 0.  1.
    10030    2    1    2    0    0  0.00000000000E+00  0.00000000000E+00 -0.11773842450E+04  0.16837571037E+04  0.12036628780E+04 0.  0.
        2    1    3    3  502    0  0.30490952111E+02 -0.15078618422E+03 -0.14026019718E+04  0.14110132752E+04  0.25500000920E-02 0.  1.
       -2    1    3    3    0  502 -0.30490952111E+02  0.15078618422E+03  0.22521772682E+03  0.27274382851E+03  0.25500000920E-02 0. -1.
</event>
<event>
 5   0  0.2340731E-04  0.1200908E+04  0.7818609E-02  0.9112062E-01
        1   -1    0    0  501    0  0.00000000000E+00  0.00000000000E+00  0.62797936341E+03  0.62797936343E+03  0.50400001928E-02 0.  1.
       -1   -1    0    0    0  501  0.00000000000E+00  0.00000000000E+00 -0.57413511542E+03  0.57413511544E+03  0.50400001928E-02 0. -1.
    10030    2    1    2    0    0  0.00000000000E+00  0.00000000000E+00  0.53844247990E+02  0.12021144789E+04  0.12009079970E+04 0.  0.
        3    1    3    3  502    0 -0.32358043339E+03  0.50493144710E+03 -0.28555511752E+01  0.59972345921E+03  0.10100000352E+00 0.  1.
       -3    1    3    3    0  502  0.32358043339E+03 -0.50493144710E+03  0.56699799166E+02  0.60239101967E+03  0.10100000352E+00 0. -1.
</event>
<event>
 5   0  0.4024486E-04  0.1200116E+04  0.7818609E-02  0.9112755E-01
       -2   -1    0    0    0  501  0.00000000000E+00  0.00000000000E+00  0.40489752112E+03  0.40489752113E+03  0.25500000920E-02 0. -1.
        2   -1    0    0  501    0  0.00000000000E+00  0.00000000000E+00 -0.88928558338E+03  0.88928558338E+03  0.25500000920E-02 0.  1.
    10030    2    1    2    0    0  0.00000000000E+00  0.00000000000E+00 -0.48438806225E+03  0.12941831045E+04  0.12001158749E+04 0.  0.
        1    1    3    3  502    0 -0.18386092603E+02  0.23794207775E+03 -0.83590666908E+03  0.86930687344E+03  0.50400001928E-02 0.  1.
       -1    1    3    3    0  502  0.18386092603E+02 -0.23794207775E+03  0.35151860683E+03  0.42487623108E+03  0.50400001928E-02 0. -1.
</event>
<event>
 5   0  0.1541375E-04  0.1197196E+04  0.7818609E-02  0.9115314E-01
       -3   -1    0    0    0  501  0.00000000000E+00  0.00000000000E+00  0.56060050958E+03  0.56060051868E+03  0.10100000352E+00 0. -1.
        3   -1    0    0  501    0  0.00000000000E+00  0.00000000000E+00 -0.63917111122E+03  0.63917111920E+03  0.10100000352E+00 0.  1.
    10030    2    1    2    0    0  0.00000000000E+00  0.00000000000E+00 -0.78570601641E+02  0.11997716379E+04  0.11971961592E+04 0.  0.
        5    1    3    3  502    0 -0.41789513417E+03 -0.26412135972E+02 -0.46794796278E+03  0.62795806385E+03  0.46999998093E+01 0.  1.
       -5    1    3    3    0  502  0.41789513417E+03  0.26412135972E+02  0.38937736114E+03  0.57181357404E+03  0.46999998093E+01 0. -1.
</event>
<event>
 5   0  0.3832662E-04  0.1197544E+04  0.7818609E-02  0.9115009E-01
        2   -1    0    0  501    0  0.00000000000E+00  0.00000000000E+00  0.28125679471E+03  0.28125679473E+03  0.25500000920E-02 0. -1.
       -2   -1    0    0    0  501  0.00000000000E+00  0.00000000000E+00 -0.12747354988E+04  0.12747354988E+04  0.25500000920E-02 0.  1.
    10030    2    1    2    0    0  0.00000000000E+00  0.00000000000E+00 -0.99347870413E+03  0.15559922936E+04  0.11975441880E+04 0.  0.
        4    1    3    3  502    0 -0.24022389496E+03 -0.51286838932E+03 -0.74930544798E+03  0.93925596710E+03  0.12699999809E+01 0.  1.
       -4    1    3    3    0  502  0.24022389496E+03  0.51286838932E+03 -0.24417325615E+03  0.61673632647E+03  0.12699999809E+01 0. -1.
</event>
<event>
 5   0  0.2315038E-04  0.1198279E+04  0.7818609E-02  0.9114364E-01
       -1   -1    0    0    0  501  0.00000000000E+00  0.00000000000E+00  0.27176312215E+03  0.27176312220E+03  0.50400001928E-02 0. -1.
        1   -1    0    0  501    0  0.00000000000E+00  0.00000000000E+00 -0.13208858024E+04  0.13208858024E+04  0.50400001928E-02 0.  1.
    10030    2    1    2    0    0  0.00000000000E+00  0.00000000000E+00 -0.10491226803E+04  0.15926489246E+04  0.11982788485E+04 0.  0.
        1    1    3    3  502    0  0.18217734913E+03 -0.52849207054E+03 -0.23802834709E+03  0.60757711379E+03  0.50400001928E-02 0. -1.
       -1    1    3    3    0  502 -0.18217734913E+03  0.52849207054E+03 -0.81109433319E+03  0.98507181084E+03  0.50400001928E-02 0.  1.
</event>
<event>
 5   0  0.4024486E-04  0.1200051E+04  0.7818609E-02  0.9112812E-01
       -2   -1    0    0    0  501  0.00000000000E+00  0.00000000000E+00  0.47431543683E+03  0.47431543684E+03  0.25500000920E-02 0. -1.
        2   -1    0    0  501    0  0.00000000000E+00  0.00000000000E+00 -0.75905289653E+03  0.75905289654E+03  0.25500000920E-02 0.  1.
    10030    2    1    2    0    0  0.00000000000E+00  0.00000000000E+00 -0.28473745970E+03  0.12333683334E+04  0.12000508426E+04 0.  0.
        1    1    3    3  502    0  0.30751407239E+03  0.28458607842E+03 -0.58380042671E+03  0.71859382060E+03  0.50400001928E-02 0.  1.
       -1    1    3    3    0  502 -0.30751407239E+03 -0.28458607842E+03  0.29906296701E+03  0.51477451278E+03  0.50400001928E-02 0. -1.
</event>
<event>
 5   0  0.3832662E-04  0.1198726E+04  0.7818609E-02  0.9113973E-01
       -2   -1    0    0    0  501  0.00000000000E+00  0.00000000000E+00  0.10060933529E+04  0.10060933529E+04  0.25500000920E-02 0. -1.
        2   -1    0    0  501    0  0.00000000000E+00  0.00000000000E+00 -0.35706012877E+03  0.35706012878E+03  0.25500000920E-02 0.  1.
    10030    2    1    2    0    0  0.00000000000E+00  0.00000000000E+00  0.64903322411E+03  0.13631534817E+04  0.11987256936E+04 0.  0.
        4    1    3    3  502    0 -0.16319953439E+03 -0.17883074699E+03  0.94801258214E+03  0.97843957039E+03  0.12699999809E+01 0. -1.
       -4    1    3    3    0  502  0.16319953439E+03  0.17883074699E+03 -0.29897935804E+03  0.38471391127E+03  0.12699999809E+01 0.  1.
</event>
<event>
 5   0  0.4122956E-04  0.1196229E+04  0.7818609E-02  0.9116163E-01
       -2   -1    0    0    0  501  0.00000000000E+00  0.00000000000E+00  0.70243577546E+03  0.70243577547E+03  0.25500000920E-02 0.  1.
        2   -1    0    0  501    0  0.00000000000E+00  0.00000000000E+00 -0.50928670744E+03  0.50928670745E+03  0.25500000920E-02 0. -1.
    10030    2    1    2    0    0  0.00000000000E+00  0.00000000000E+00  0.19314906802E+03  0.12117224829E+04  0.11962294149E+04 0.  0.
        5    1    3    3  502    0  0.35947946029E+03 -0.18251755242E+03 -0.35094029325E+03  0.53452719177E+03  0.46999998093E+01 0. -1.
       -5    1    3    3    0  502 -0.35947946029E+03  0.18251755242E+03  0.54408936127E+03  0.67719529115E+03  0.46999998093E+01 0.  1.
</event>
<event>
 5   0  0.4024486E-04  0.1199244E+04  0.7818609E-02  0.9113518E-01
       -2   -1    0    0    0  501  0.00000000000E+00  0.00000000000E+00  0.40948214618E+03  0.40948214618E+03  0.25500000920E-02 0. -1.
        2   -1    0    0  501    0  0.00000000000E+00  0.00000000000E+00 -0.87805238711E+03  0.87805238711E+03  0.25500000920E-02 0.  1.
    10030    2    1    2    0    0  0.00000000000E+00  0.00000000000E+00 -0.46857024093E+03  0.12875345333E+04  0.11992443887E+04 0.  0.
        1    1    3    3  502    0  0.17139973153E+03  0.28643142160E+03 -0.76908005297E+03  0.83839427190E+03  0.50400001928E-02 0.  1.
       -1    1    3    3    0  502 -0.17139973153E+03 -0.28643142160E+03  0.30050981204E+03  0.44914026140E+03  0.50400001928E-02 0. -1.
</event>
<event>
 5   0  0.4122956E-04  0.1204127E+04  0.7818609E-02  0.9109252E-01
        2   -1    0    0  501    0  0.00000000000E+00  0.00000000000E+00  0.75729679644E+03  0.75729679644E+03  0.25500000920E-02 0. -1.
       -2   -1    0    0    0  501  0.00000000000E+00  0.00000000000E+00 -0.47865011491E+03  0.47865011492E+03  0.25500000920E-02 0.  1.
    10030    2    1    2    0    0  0.00000000000E+00  0.00000000000E+00  0.27864668152E+03  0.12359469114E+04  0.12041265692E+04 0.  0.
        5    1    3    3  502    0 -0.20142093196E+03 -0.21853094775E+02  0.72123556050E+03  0.74916671930E+03  0.46999998093E+01 0. -1.
       -5    1    3    3    0  502  0.20142093196E+03  0.21853094775E+02 -0.44258887898E+03  0.48678019206E+03  0.46999998093E+01 0.  1.
</event>
<event>
 5   0  0.4024486E-04  0.1198629E+04  0.7818609E-02  0.9114057E-01
       -2   -1    0    0    0  501  0.00000000000E+00  0.00000000000E+00  0.20310942801E+03  0.20310942803E+03  0.25500000920E-02 0.  1.
        2   -1    0    0  501    0  0.00000000000E+00  0.00000000000E+00 -0.17683972413E+04  0.17683972413E+04  0.25500000920E-02 0. -1.
    10030    2    1    2    0    0  0.00000000000E+00  0.00000000000E+00 -0.15652878133E+04  0.19715066694E+04  0.11986294710E+04 0.  0.
        1    1    3    3  502    0 -0.25368614834E+03 -0.44944158534E+03 -0.12837652009E+04  0.13836211517E+04  0.50400001928E-02 0. -1.
       -1    1    3    3    0  502  0.25368614834E+03  0.44944158534E+03 -0.28152261240E+03  0.58788551760E+03  0.50400001928E-02 0.  1.
</event>
<event>
 5   0  0.2304842E-04  0.1200717E+04  0.7818609E-02  0.9112229E-01
        1   -1    0    0  501    0  0.00000000000E+00  0.00000000000E+00  0.25734162288E+03  0.25734162293E+03  0.50400001928E-02 0.  1.
       -1   -1    0    0    0  501  0.00000000000E+00  0.00000000000E+00 -0.14005909321E+04  0.14005909322E+04  0.50400001928E-02 0. -1.
    10030    2    1    2    0    0  0.00000000000E+00  0.00000000000E+00 -0.11432493093E+04  0.16579325551E+04  0.12007170250E+04 0.  0.
        4    1    3    3  502    0 -0.45089089604E+03 -0.35691129400E+03 -0.80974692907E+03  0.99316663957E+03  0.12699999809E+01 0. -1.
       -4    1    3    3    0  502  0.45089089604E+03  0.35691129400E+03 -0.33350238019E+03  0.66476591550E+03  0.12699999809E+01 0.  1.
</event>
<event>
 5   0  0.2340731E-04  0.1198177E+04  0.7818609E-02  0.9114453E-01
        1   -1    0    0  501    0  0.00000000000E+00  0.00000000000E+00  0.96520800216E+03  0.96520800217E+03  0.50400001928E-02 0. -1.
       -1   -1    0    0    0  501  0.00000000000E+00  0.00000000000E+00 -0.37184447057E+03  0.37184447060E+03  0.50400001928E-02 0.  1.
    10030    2    1    2    0    0  0.00000000000E+00  0.00000000000E+00  0.59336353159E+03  0.13370524728E+04  0.11981773802E+04 0.  0.
        3    1    3    3  502    0  0.35608347024E+03 -0.45647787838E+03  0.12474629940E+03  0.59222389401E+03  0.10100000352E+00 0.  1.
       -3    1    3    3    0  502 -0.35608347024E+03  0.45647787838E+03  0.46861723219E+03  0.74482857876E+03  0.10100000352E+00 0. -1.
</event>
<event>
 5   0  0.4024486E-04  0.1192636E+04  0.7818609E-02  0.9119327E-01
       -2   -1    0    0    0  501  0.00000000000E+00  0.00000000000E+00  0.18010152420E+03  0.18010152422E+03  0.25500000920E-02 0.  1.
        2   -1    0    0  501    0  0.00000000000E+00  0.00000000000E+00 -0.19744157266E+04  0.19744157266E+04  0.25500000920E-02 0. -1.
    10030    2    1    2    0    0  0.00000000000E+00  0.00000000000E+00 -0.17943142024E+04  0.21545172508E+04  0.11926362090E+04 0.  0.
        1    1    3    3  502    0  0.17202409039E+03 -0.40896113075E+03 -0.17737004428E+03  0.47780919495E+03  0.50400001928E-02 0.  1.
       -1    1    3    3    0  502 -0.17202409039E+03  0.40896113075E+03 -0.16169441581E+04  0.16767080559E+04  0.50400001928E-02 0. -1.
</event>
<event>
 5   0  0.2204090E-04  0.1199964E+04  0.7818609E-02  0.9112888E-01
       -1   -1    0    0    0  501  0.00000000000E+00  0.00000000000E+00  0.11887423495E+04  0.11887423495E+04  0.50400001928E-02 0. -1.
        1   -1    0    0  501    0  0.00000000000E+00  0.00000000000E+00 -0.30282273973E+03  0.30282273977E+03  0.50400001928E-02 0.  1.
    10030    2    1    2    0    0  0.00000000000E+00  0.00000000000E+00  0.88591960976E+03  0.14915650893E+04  0.11999636914E+04 0.  0.
        2    1    3    3  502    0  0.91500815219E+02  0.56687317025E+03  0.65918836189E+03  0.87421215205E+03  0.25500000920E-02 0.  1.
       -2    1    3    3    0  502 -0.91500815219E+02 -0.56687317025E+03  0.22673124786E+03  0.61735293722E+03  0.25500000920E-02 0. -1.
</event>
<event>
 5   0  0.3883890E-04  0.1195490E+04  0.7818609E-02  0.9116813E-01
       -2   -1    0    0    0  501  0.00000000000E+00  0.00000000000E+00  0.26622233226E+03  0.26622233227E+03  0.25500000920E-02 0. -1.
        2   -1    0    0  501    0  0.00000000000E+00  0.00000000000E+00 -0.13421076823E+04  0.13421076824E+04  0.25500000920E-02 0.  1.
    10030    2    1    2    0    0  0.00000000000E+00  0.00000000000E+00 -0.10758853501E+04  0.16083300146E+04  0.11954899202E+04 0.  0.
        2    1    3    3  502    0  0.46883843672E+02 -0.24094621934E+03 -0.12711739847E+04  0.12946568946E+04  0.25500000920E-02 0.  1.
       -2    1    3    3    0  502 -0.46883843672E+02  0.24094621934E+03  0.19528863460E+03  0.31367312002E+03  0.25500000920E-02 0. -1.
</event>
<event>
 5   0  0.2304842E-04  0.1191151E+04  0.7818609E-02  0.9120637E-01
        1   -1    0    0  501    0  0.00000000000E+00  0.00000000000E+00  0.84282792919E+03  0.84282792920E+03  0.50400001928E-02 0. -1.
       -1   -1    0    0    0  501  0.00000000000E+00  0.00000000000E+00 -0.42085743140E+03  0.42085743143E+03  0.50400001928E-02 0.  1.
    10030    2    1    2    0    0  0.00000000000E+00  0.00000000000E+00  0.42197049779E+03  0.12636853606E+04  0.11911513714E+04 0.  0.
        4    1    3    3  502    0  0.11470869480E+03 -0.55494358693E+03  0.40541651720E+03  0.69676727438E+03  0.12699999809E+01 0. -1.
       -4    1    3    3    0  502 -0.11470869480E+03  0.55494358693E+03  0.16553980592E+02  0.56691808624E+03  0.12699999809E+01 0.  1.
</event>
<event>
 5   0  0.4122956E-04  0.1196558E+04  0.7818609E-02  0.9115875E-01
       -2   -1    0    0    0  501  0.00000000000E+00  0.00000000000E+00  0.21665592257E+03  0.21665592258E+03  0.25500000920E-02 0.  1.
        2   -1    0    0  501    0  0.00000000000E+00  0.00000000000E+00 -0.16521027558E+04  0.16521027558E+04  0.25500000920E-02 0. -1.
    10030    2    1    2    0    0  0.00000000000E+00  0.00000000000E+00 -0.14354468332E+04  0.18687586783E+04  0.11965581419E+04 0.  0.
        5    1    3    3  502    0 -0.20980041524E+03  0.52017724734E+03 -0.10427653909E+04  0.11840533490E+04  0.46999998093E+01 0. -1.
       -5    1    3    3    0  502  0.20980041524E+03 -0.52017724734E+03 -0.39268144234E+03  0.68470532936E+03  0.46999998093E+01 0.  1.
</event>
<event>
 5   0  0.2304842E-04  0.1203454E+04  0.7818609E-02  0.9109839E-01
       -1   -1    0    0    0  501  0.00000000000E+00  0.00000000000E+00  0.10329846735E+04  0.10329846735E+04  0.50400001928E-02 0.  1.
        1   -1    0    0  501    0  0.00000000000E+00  0.00000000000E+00 -0.35051385980E+03  0.35051385984E+03  0.50400001928E-02 0. -1.
    10030    2    1    2    0    0  0.00000000000E+00  0.00000000000E+00  0.68247081367E+03  0.13834985333E+04  0.12034541039E+04 0.  0.
        4    1    3    3  502    0 -0.15761622991E+03 -0.96687460501E+02 -0.31704099088E+03  0.36702580802E+03  0.12699999809E+01 0. -1.
       -4    1    3    3    0  502  0.15761622991E+03  0.96687460501E+02  0.99951180455E+03  0.10164727253E+04  0.12699999809E+01 0.  1.
</event>
<event>
 5   0  0.4024486E-04  0.1199541E+04  0.7818609E-02  0.9113259E-01
       -2   -1    0    0    0  501  0.00000000000E+00  0.00000000000E+00  0.27477030881E+03  0.27477030882E+03  0.25500000920E-02 0. -1.
        2   -1    0    0  501    0  0.00000000000E+00  0.00000000000E+00 -0.13091828485E+04  0.13091828485E+04  0.25500000920E-02 0.  1.
    10030    2    1    2    0    0  0.00000000000E+00  0.00000000000E+00 -0.10344125397E+04  0.15839531573E+04  0.11995408715E+04 0.  0.
        1    1    3    3  502    0  0.38510329625E+03  0.20289235502E+03 -0.10620561541E+04  0.11477948994E+04  0.50400001928E-02 0.  1.
       -1    1    3    3    0  502 -0.38510329625E+03 -0.20289235502E+03  0.27643614456E+02  0.43615825792E+03  0.50400001928E-02 0. -1.
</event>
<event>
 5   0  0.2204090E-04  0.1200487E+04  0.7818609E-02  0.9112430E-01
        1   -1    0    0  501    0  0.00000000000E+00  0.00000000000E+00  0.43217351802E+03  0.43217351805E+03  0.50400001928E-02 0.  1.
       -1   -1    0    0    0  501  0.00000000000E+00  0.00000000000E+00 -0.83367531352E+03  0.83367531353E+03  0.50400001928E-02 0. -1.
    10030    2    1    2    0    0  0.00000000000E+00  0.00000000000E+00 -0.40150179550E+03  0.12658488316E+04  0.12004872230E+04 0.  0.
        2    1    3    3  502    0  0.11920691673E+03  0.57584866155E+03 -0.73864540516E+02  0.59267861473E+03  0.25500000920E-02 0.  1.
       -2    1    3    3    0  502 -0.11920691673E+03 -0.57584866155E+03 -0.32763725498E+03  0.67317021685E+03  0.25500000920E-02 0. -1.
</event>
<event>
 5   0  0.2204090E-04  0.1199994E+04  0.7818609E-02  0.9112862E-01
        1   -1    0    0  501    0  0.00000000000E+00  0.00000000000E+00  0.93109940292E+03  0.93109940293E+03  0.50400001928E-02 0.  1.
       -1   -1    0    0    0  501  0.00000000000E+00  0.00000000000E+00 -0.38663573179E+03  0.38663573182E+03  0.50400001928E-02 0. -1.
    10030    2    1    2    0    0  0.00000000000E+00  0.00000000000E+00  0.54446367113E+03  0.13177351347E+04  0.11999938317E+04 0.  0.
        2    1    3    3  502    0 -0.25376918649E+03  0.46999994119E+03 -0.27893254464E+02  0.53486145719E+03  0.25500000920E-02 0. -1.
       -2    1    3    3    0  502  0.25376918649E+03 -0.46999994119E+03  0.57235692559E+03  0.78287367756E+03  0.25500000920E-02 0.  1.
</event>
<event>
 5   0  0.2340731E-04  0.1200848E+04  0.7818609E-02  0.9112115E-01
       -1   -1    0    0    0  501  0.00000000000E+00  0.00000000000E+00  0.11783005094E+04  0.11783005094E+04  0.50400001928E-02 0.  1.
        1   -1    0    0  501    0  0.00000000000E+00  0.00000000000E+00 -0.30595678171E+03  0.30595678175E+03  0.50400001928E-02 0. -1.
    10030    2    1    2    0    0  0.00000000000E+00  0.00000000000E+00  0.87234372772E+03  0.14842572912E+04  0.12008480866E+04 0.  0.
        3    1    3    3  502    0 -0.47122639791E+03 -0.13280186579E+03  0.65487851236E+01  0.48962592909E+03  0.10100000352E+00 0. -1.
       -3    1    3    3    0  502  0.47122639791E+03  0.13280186579E+03  0.86579494259E+03  0.99463136210E+03  0.10100000352E+00 0.  1.
</event>
<event>
 5   0  0.2244308E-04  0.1200218E+04  0.7818609E-02  0.9112666E-01
        1   -1    0    0  501    0  0.00000000000E+00  0.00000000000E+00  0.74698164615E+03  0.74698164617E+03  0.50400001928E-02 0.  1.
       -1   -1    0    0    0  501  0.00000000000E+00  0.00000000000E+00 -0.48211458775E+03  0.48211458777E+03  0.50400001928E-02 0. -1.
    10030    2    1    2    0    0  0.00000000000E+00  0.00000000000E+00  0.26486705841E+03  0.12290962339E+04  0.12002178942E+04 0.  0.
        5    1    3    3  502    0  0.21146226963E+03  0.49817649813E+03  0.39792523403E+03  0.67176089246E+03  0.46999998093E+01 0.  1.
       -5    1    3    3    0  502 -0.21146226963E+03 -0.49817649813E+03 -0.13305817562E+03  0.55733534148E+03  0.46999998093E+01 0. -1.
</event>
<event>
 5   0  0.2304842E-04  0.1201720E+04  0.7818609E-02  0.9111353E-01
        1   -1    0    0  501    0  0.00000000000E+00  0.00000000000E+00  0.43414354647E+03  0.43414354650E+03  0.50400001928E-02 0.  1.
       -1   -1    0    0    0  501  0.00000000000E+00  0.00000000000E+00 -0.83159736476E+03  0.83159736477E+03  0.50400001928E-02 0. -1.
    10030    2    1    2    0    0  0.00000000000E+00  0.00000000000E+00 -0.39745381829E+03  0.12657409113E+04  0.12017198163E+04 0.  0.
        4    1    3    3  502    0 -0.60220906386E+02  0.53926002478E+03 -0.47055151429E+03  0.71822578093E+03  0.12699999809E+01 0. -1.
       -4    1    3    3    0  502  0.60220906386E+02 -0.53926002478E+03  0.73097696008E+02  0.54751513034E+03  0.12699999809E+01 0.  1.
</event>
<event>
 5   0  0.3832662E-04  0.1204780E+04  0.7818609E-02  0.9108683E-01
        2   -1    0    0  501    0  0.00000000000E+00  0.00000000000E+00  0.17482655149E+04  0.17482655149E+04  0.25500000920E-02 0. -1.
       -2   -1    0    0    0  501  0.00000000000E+00  0.00000000000E+00 -0.20756205296E+03  0.20756205298E+03  0.25500000920E-02 0.  1.
    10030    2    1    2    0    0  0.00000000000E+00  0.00000000000E+00  0.15407034619E+04  0.19558275678E+04  0.12047797797E+04 0.  0.
        4    1    3    3  502    0 -0.65354071345E+02 -0.57915615848E+02  0.17379338952E+04  0.17401267799E+04  0.12699999809E+01 0. -1.
       -4    1    3    3    0  502  0.65354071345E+02  0.57915615848E+02 -0.19723043329E+03  0.21570078793E+03  0.12699999809E+01 0.  1.
</event>
<event>
 5   0  0.4024486E-04  0.1200441E+04  0.7818609E-02  0.9112471E-01
       -2   -1    0    0    0  501  0.00000000000E+00  0.00000000000E+00  0.26313074555E+03  0.26313074556E+03  0.25500000920E-02 0. -1.
        2   -1    0    0  501    0  0.00000000000E+00  0.00000000000E+00 -0.13691470832E+04  0.13691470832E+04  0.25500000920E-02 0.  1.
    10030    2    1    2    0    0  0.00000000000E+00  0.00000000000E+00 -0.11060163376E+04  0.16322778287E+04  0.12004410736E+04 0.  0.
        1    1    3    3  502    0  0.39723393985E+02 -0.22254232686E+02 -0.13667953962E+04  0.13675536019E+04  0.50400001928E-02 0.  1.
       -1    1    3    3    0  502 -0.39723393985E+02  0.22254232686E+02  0.26077905854E+03  0.26472422689E+03  0.50400001928E-02 0. -1.
</event>
<event>
 5   0  0.4122956E-04  0.1198079E+04  0.7818609E-02  0.9114540E-01
        2   -1    0    0  501    0  0.00000000000E+00  0.00000000000E+00  0.75924521288E+03  0.75924521289E+03  0.25500000920E-02 0.  1.
       -2   -1    0    0    0  501  0.00000000000E+00  0.00000000000E+00 -0.47263821186E+03  0.47263821186E+03  0.25500000920E-02 0. -1.
    10030    2    1    2    0    0  0.00000000000E+00  0.00000000000E+00  0.28660700102E+03  0.12318834247E+04  0.11980789620E+04 0.  0.
        5    1    3    3  502    0  0.44804748747E+02 -0.55837740733E+03 -0.74894924680E+02  0.56517619754E+03  0.46999998093E+01 0.  1.
       -5    1    3    3    0  502 -0.44804748747E+02  0.55837740733E+03  0.36150192571E+03  0.66670722721E+03  0.46999998093E+01 0. -1.
</event>
<event>
 5   0  0.3883890E-04  0.1197055E+04  0.7818609E-02  0.9115438E-01
        2   -1    0    0  501    0  0.00000000000E+00  0.00000000000E+00  0.10571942818E+04  0.10571942818E+04  0.25500000920E-02 0. -1.
       -2   -1    0    0    0  501  0.00000000000E+00  0.00000000000E+00 -0.33885486785E+03  0.33885486786E+03  0.25500000920E-02 0.  1.
    10030    2    1    2    0    0  0.00000000000E+00  0.00000000000E+00  0.71833941395E+03  0.13960491497E+04  0.11970554351E+04 0.  0.
        2    1    3    3  502    0  0.45332252683E+03  0.37537550264E+03  0.23233733309E+03  0.63276276571E+03  0.25500000920E-02 0. -1.
       -2    1    3    3    0  502 -0.45332252683E+03 -0.37537550264E+03  0.48600208087E+03  0.76328638395E+03  0.25500000920E-02 0.  1.
</event>
<event>
 5   0  0.2204090E-04  0.1200930E+04  0.7818609E-02  0.9112043E-01
        1   -1    0    0  501    0  0.00000000000E+00  0.00000000000E+00  0.61128413338E+03  0.61128413340E+03  0.50400001928E-02 0.  1.
       -1   -1    0    0    0  501  0.00000000000E+00  0.00000000000E+00 -0.58983721784E+03  0.58983721786E+03  0.50400001928E-02 0. -1.
    10030    2    1    2    0    0  0.00000000000E+00  0.00000000000E+00  0.21446915539E+02  0.12011213513E+04  0.12009298607E+04 0.  0.
        2    1    3    3  502    0  0.35788691614E+03 -0.16625599932E+02 -0.47122335693E+03  0.59195515662E+03  0.25500000920E-02 0. -1.
       -2    1    3    3    0  502 -0.35788691614E+03  0.16625599932E+02  0.49267027247E+03  0.60916619465E+03  0.25500000920E-02 0.  1.
</event>
<event>
 5   0  0.2315038E-04  0.1200548E+04  0.7818609E-02  0.9112377E-01
       -1   -1    0    0    0  501  0.00000000000E+00  0.00000000000E+00  0.61359178210E+03  0.61359178212E+03  0.50400001928E-02 0. -1.
        1   -1    0    0  501    0  0.00000000000E+00  0.00000000000E+00 -0.58724535509E+03  0.58724535511E+03  0.50400001928E-02 0.  1.
    10030    2    1    2    0    0  0.00000000000E+00  0.00000000000E+00  0.26346427007E+02  0.12008371372E+04  0.12005480815E+04 0.  0.
        1    1    3    3  502    0 -0.11241114999E+03  0.39521870734E+03 -0.42453337103E+03  0.59081526420E+03  0.50400001928E-02 0.  1.
       -1    1    3    3    0  502  0.11241114999E+03 -0.39521870734E+03  0.45087979803E+03  0.61002187303E+03  0.50400001928E-02 0. -1.
</event>
<event>
 5   0  0.4122956E-04  0.1200720E+04  0.7818609E-02  0.9112227E-01
       -2   -1    0    0    0  501  0.00000000000E+00  0.00000000000E+00  0.19466632276E+03  0.19466632277E+03  0.25500000920E-02 0.  1.
        2   -1    0    0  501    0  0.00000000000E+00  0.00000000000E+00 -0.18515368203E+04  0.18515368203E+04  0.25500000920E-02 0. -1.
    10030    2    1    2    0    0  0.00000000000E+00  0.00000000000E+00 -0.16568704975E+04  0.20462031430E+04  0.12007195580E+04 0.  0.
        5    1    3    3  502    0  0.45597394825E+03 -0.17063271186E+03 -0.14270302474E+04  0.15078014395E+04  0.46999998093E+01 0. -1.
       -5    1    3    3    0  502 -0.45597394825E+03  0.17063271186E+03 -0.22984025010E+03  0.53840170357E+03  0.46999998093E+01 0.  1.
</event>
<event>
 5   0  0.4024486E-04  0.1200070E+04  0.7818609E-02  0.9112796E-01
        2   -1    0    0  501    0  0.00000000000E+00  0.00000000000E+00  0.20263756964E+04  0.20263756964E+04  0.25500000920E-02 0. -1.
       -2   -1    0    0    0  501  0.00000000000E+00  0.00000000000E+00 -0.17767768250E+03  0.17767768252E+03  0.25500000920E-02 0.  1.
    10030    2    1    2    0    0  0.00000000000E+00  0.00000000000E+00  0.18486980139E+04  0.22040533789E+04  0.12000695607E+04 0.  0.
        1    1    3    3  502    0 -0.45258604868E+03 -0.33583946175E+03  0.13026158428E+04  0.14193062775E+04  0.50400001928E-02 0. -1.
       -1    1    3    3    0  502  0.45258604868E+03  0.33583946175E+03  0.54608217114E+03  0.78474710142E+03  0.50400001928E-02 0.  1.
</event>
<event>
 5   0  0.2244308E-04  0.1196003E+04  0.7818609E-02  0.9116362E-01
        1   -1    0    0  501    0  0.00000000000E+00  0.00000000000E+00  0.48675401306E+03  0.48675401308E+03  0.50400001928E-02 0. -1.
       -1   -1    0    0    0  501  0.00000000000E+00  0.00000000000E+00 -0.73467507982E+03  0.73467507984E+03  0.50400001928E-02 0.  1.
    10030    2    1    2    0    0  0.00000000000E+00  0.00000000000E+00 -0.24792106677E+03  0.12214290929E+04  0.11960034171E+04 0.  0.
        5    1    3    3  502    0  0.21960963361E+03  0.11052327254E+03  0.43273344323E+03  0.49771890444E+03  0.46999998093E+01 0. -1.
       -5    1    3    3    0  502 -0.21960963361E+03 -0.11052327254E+03 -0.68065450999E+03  0.72371018849E+03  0.46999998093E+01 0.  1.
</event>
<event>
 5   0  0.2340731E-04  0.1199822E+04  0.7818609E-02  0.9113012E-01
        1   -1    0    0  501    0  0.00000000000E+00  0.00000000000E+00  0.86896267795E+03  0.86896267796E+03  0.50400001928E-02 0. -1.
       -1   -1    0    0    0  501  0.00000000000E+00  0.00000000000E+00 -0.41416421971E+03  0.41416421974E+03  0.50400001928E-02 0.  1.
    10030    2    1    2    0    0  0.00000000000E+00  0.00000000000E+00  0.45479845824E+03  0.12831268977E+04  0.11998220693E+04 0.  0.
        3    1    3    3  502    0  0.45401667812E+03 -0.38484519442E+02 -0.18992699494E+03  0.49364407811E+03  0.10100000352E+00 0.  1.
       -3    1    3    3    0  502 -0.45401667812E+03  0.38484519442E+02  0.64472545318E+03  0.78948281959E+03  0.10100000352E+00 0. -1.
</event>
<event>
 5   0  0.4122956E-04  0.1192285E+04  0.7818609E-02  0.9119637E-01
        2   -1    0    0  501    0  0.00000000000E+00  0.00000000000E+00  0.82566843826E+03  0.82566843826E+03  0.25500000920E-02 0.  1.
       -2   -1    0    0    0  501  0.00000000000E+00  0.00000000000E+00 -0.43042171711E+03  0.43042171712E+03  0.25500000920E-02 0. -1.
    10030    2    1    2    0    0  0.00000000000E+00  0.00000000000E+00  0.39524672114E+03  0.12560901554E+04  0.11922845750E+04 0.  0.
        5    1    3    3  502    0  0.18655190147E+03 -0.31145932626E+03 -0.30049562277E+03  0.47130481979E+03  0.46999998093E+01 0. -1.
       -5    1    3    3    0  502 -0.18655190147E+03  0.31145932626E+03  0.69574234391E+03  0.78478533559E+03  0.46999998093E+01 0.  1.
</event>
<event>
 5   0  0.2340731E-04  0.1192256E+04  0.7818609E-02  0.9119662E-01
       -1   -1    0    0    0  501  0.00000000000E+00  0.00000000000E+00  0.36660464700E+03  0.36660464704E+03  0.50400001928E-02 0. -1.
        1   -1    0    0  501    0  0.00000000000E+00  0.00000000000E+00 -0.96935060033E+03  0.96935060035E+03  0.50400001928E-02 0.  1.
    10030    2    1    2    0    0  0.00000000000E+00  0.00000000000E+00 -0.60274595333E+03  0.13359552474E+04  0.11922557355E+04 0.  0.
        3    1    3    3  502    0  0.22767303942E+03  0.35666616554E+02  0.31467390796E+03  0.39003435613E+03  0.10100000352E+00 0. -1.
       -3    1    3    3    0  502 -0.22767303942E+03 -0.35666616554E+02 -0.91741986129E+03  0.94592089125E+03  0.10100000352E+00 0.  1.
</event>
<event>
 5   0  0.3993723E-04  0.1213067E+04  0.7818609E-02  0.9101495E-01
       -2   -1    0    0    0  501  0.00000000000E+00  0.00000000000E+00  0.46904235974E+03  0.46904235975E+03  0.25500000920E-02 0. -1.
        2   -1    0    0  501    0  0.00000000000E+00  0.00000000000E+00 -0.78432734175E+03  0.78432734175E+03  0.25500000920E-02 0.  1.
    10030    2    1    2    0    0  0.00000000000E+00  0.00000000000E+00 -0.31528498201E+03  0.12533697015E+04  0.12130667701E+04 0.  0.
        3    1    3    3  502    0 -0.25940478753E+02  0.99110601056E+02  0.46003789536E+03  0.47130743157E+03  0.10100000352E+00 0. -1.
       -3    1    3    3    0  502  0.25940478753E+02 -0.99110601056E+02 -0.77532287737E+03  0.78206226993E+03  0.10100000352E+00 0.  1.
</event>
<event>
 5   0  0.2204090E-04  0.1198379E+04  0.7818609E-02  0.9114277E-01
       -1   -1    0    0    0  501  0.00000000000E+00  0.00000000000E+00  0.21768614200E+03  0.21768614206E+03  0.50400001928E-02 0. -1.
        1   -1    0    0  501    0  0.00000000000E+00  0.00000000000E+00 -0.16492917213E+04  0.16492917213E+04  0.50400001928E-02 0.  1.
    10030    2    1    2    0    0  0.00000000000E+00  0.00000000000E+00 -0.14316055793E+04  0.18669778633E+04  0.11983788247E+04 0.  0.
        2    1    3    3  502    0  0.94435075259E+02 -0.55058137049E+03 -0.10534443437E+04  0.11923937329E+04  0.25500000920E-02 0.  1.
       -2    1    3    3    0  502 -0.94435075259E+02  0.55058137049E+03 -0.37816123562E+03  0.67458413049E+03  0.25500000920E-02 0. -1.
</event>
<event>
 5   0  0.4024486E-04  0.1200403E+04  0.7818609E-02  0.9112504E-01
       -2   -1    0    0    0  501  0.00000000000E+00  0.00000000000E+00  0.20687313926E+03  0.20687313927E+03  0.25500000920E-02 0. -1.
        2   -1    0    0  501    0  0.00000000000E+00  0.00000000000E+00 -0.17413647870E+04  0.17413647870E+04  0.25500000920E-02 0.  1.
    10030    2    1    2    0    0  0.00000000000E+00  0.00000000000E+00 -0.15344916477E+04  0.19482379263E+04  0.12004025993E+04 0.  0.
        1    1    3    3  502    0  0.59909486028E+03 -0.20717090401E+02 -0.71861709440E+03  0.93581749174E+03  0.50400001928E-02 0.  1.
       -1    1    3    3    0  502 -0.59909486028E+03  0.20717090401E+02 -0.81587455333E+03  0.10124204345E+04  0.50400001928E-02 0. -1.
</event>
<event>
 5   0  0.2204090E-04  0.1197465E+04  0.7818609E-02  0.9115079E-01
        1   -1    0    0  501    0  0.00000000000E+00  0.00000000000E+00  0.19724372822E+04  0.19724372822E+04  0.50400001928E-02 0.  1.
       -1   -1    0    0    0  501  0.00000000000E+00  0.00000000000E+00 -0.18174486208E+03  0.18174486215E+03  0.50400001928E-02 0. -1.
    10030    2    1    2    0    0  0.00000000000E+00  0.00000000000E+00  0.17906924201E+04  0.21541821444E+04  0.11974645580E+04 0.  0.
        2    1    3    3  502    0  0.42965218729E+03 -0.21365729187E+03  0.25115557369E+03  0.54159907922E+03  0.25500000920E-02 0. -1.
       -2    1    3    3    0  502 -0.42965218729E+03  0.21365729187E+03  0.15395368464E+04  0.16125830651E+04  0.25500000920E-02 0.  1.
</event>
<event>
 5   0  0.3832662E-04  0.1200917E+04  0.7818609E-02  0.9112054E-01
       -2   -1    0    0    0  501  0.00000000000E+00  0.00000000000E+00  0.45984601646E+03  0.45984601647E+03  0.25500000920E-02 0. -1.
        2   -1    0    0  501    0  0.00000000000E+00  0.00000000000E+00 -0.78406794978E+03  0.78406794978E+03  0.25500000920E-02 0.  1.
    10030    2    1    2    0    0  0.00000000000E+00  0.00000000000E+00 -0.32422193332E+03  0.12439139662E+04  0.12009171884E+04 0.  0.
        4    1    3    3  502    0  0.50868695965E+03 -0.74557976601E+02 -0.48342308139E+03  0.70570589009E+03  0.12699999809E+01 0.  1.
       -4    1    3    3    0  502 -0.50868695965E+03  0.74557976601E+02  0.15920114808E+03  0.53820807615E+03  0.12699999809E+01 0. -1.
</event>
<event>
 5   0  0.2204090E-04  0.1199499E+04  0.7818609E-02  0.9113295E-01
        1   -1    0    0  501    0  0.00000000000E+00  0.00000000000E+00  0.17121664067E+04  0.17121664067E+04  0.50400001928E-02 0.  1.
       -1   -1    0    0    0  501  0.00000000000E+00  0.00000000000E+00 -0.21008451709E+03  0.21008451715E+03  0.50400001928E-02 0. -1.
    10030    2    1    2    0    0  0.00000000000E+00  0.00000000000E+00  0.15020818896E+04  0.19222509239E+04  0.11994993169E+04 0.  0.
        2    1    3    3  502    0 -0.42341032093E+03  0.31394971976E+02  0.72201717009E+02  0.43066812290E+03  0.25500000920E-02 0. -1.
       -2    1    3    3    0  502  0.42341032093E+03 -0.31394971976E+02  0.14298801726E+04  0.14915828010E+04  0.25500000920E-02 0.  1.
</event>
<event>
 5   0  0.1541375E-04  0.1199798E+04  0.7818609E-02  0.9113034E-01
        4   -1    0    0  501    0  0.00000000000E+00  0.00000000000E+00  0.12128275597E+04  0.12128282247E+04  0.12699999809E+01 0. -1.
       -4   -1    0    0    0  501  0.00000000000E+00  0.00000000000E+00 -0.29672487468E+03  0.29672759251E+03  0.12699999809E+01 0.  1.
    10030    2    1    2    0    0  0.00000000000E+00  0.00000000000E+00  0.91610268505E+03  0.15095558172E+04  0.11997977478E+04 0.  0.
        4    1    3    3  502    0 -0.40180843145E+03  0.24792565186E+03 -0.75753313299E+01  0.47220349743E+03  0.12699999809E+01 0.  1.
       -4    1    3    3    0  502  0.40180843145E+03 -0.24792565186E+03  0.92367801638E+03  0.10373523197E+04  0.12699999809E+01 0. -1.
</event>
<event>
 5   0  0.2340731E-04  0.1202640E+04  0.7818609E-02  0.9110549E-01
        1   -1    0    0  501    0  0.00000000000E+00  0.00000000000E+00  0.73957236071E+03  0.73957236073E+03  0.50400001928E-02 0. -1.
       -1   -1    0    0    0  501  0.00000000000E+00  0.00000000000E+00 -0.48891207782E+03  0.48891207785E+03  0.50400001928E-02 0.  1.
    10030    2    1    2    0    0  0.00000000000E+00  0.00000000000E+00  0.25066028289E+03  0.12284844386E+04  0.12026401949E+04 0.  0.
        3    1    3    3  502    0 -0.79149391993E+02  0.32511389654E+03 -0.38502856537E+03  0.51010849663E+03  0.10100000352E+00 0.  1.
       -3    1    3    3    0  502  0.79149391993E+02 -0.32511389654E+03  0.63568884826E+03  0.71837594196E+03  0.10100000352E+00 0. -1.
</event>
<event>
 5   0  0.2204090E-04  0.1222747E+04  0.7818609E-02  0.9093176E-01
       -1   -1    0    0    0  501  0.00000000000E+00  0.00000000000E+00  0.32948247405E+03  0.32948247408E+03  0.50400001928E-02 0. -1.
        1   -1    0    0  501    0  0.00000000000E+00  0.00000000000E+00 -0.11344391021E+04  0.11344391021E+04  0.50400001928E-02 0.  1.
    10030    2    1    2    0    0  0.00000000000E+00  0.00000000000E+00 -0.80495662808E+03  0.14639215762E+04  0.12227474016E+04 0.  0.
        2    1    3    3  502    0 -0.13028688662E+03 -0.57500964210E+03 -0.59614653729E+03  0.83845182048E+03  0.25500000920E-02 0.  1.
       -2    1    3    3    0  502  0.13028688662E+03  0.57500964210E+03 -0.20881009079E+03  0.62546975575E+03  0.25500000920E-02 0. -1.
</event>
<event>
 5   0  0.2340731E-04  0.1200623E+04  0.7818609E-02  0.9112311E-01
       -1   -1    0    0    0  501  0.00000000000E+00  0.00000000000E+00  0.41809620440E+03  0.41809620443E+03  0.50400001928E-02 0.  1.
        1   -1    0    0  501    0  0.00000000000E+00  0.00000000000E+00 -0.86194075544E+03  0.86194075545E+03  0.50400001928E-02 0. -1.
    10030    2    1    2    0    0  0.00000000000E+00  0.00000000000E+00 -0.44384455104E+03  0.12800369599E+04  0.12006234352E+04 0.  0.
        3    1    3    3  502    0  0.10544699993E+02 -0.58553641042E+03 -0.36259695862E+03  0.68879651802E+03  0.10100000352E+00 0. -1.
       -3    1    3    3    0  502 -0.10544699993E+02  0.58553641042E+03 -0.81247592412E+02  0.59124044187E+03  0.10100000352E+00 0.  1.
</event>
<event>
 5   0  0.2244308E-04  0.1200791E+04  0.7818609E-02  0.9112164E-01
        1   -1    0    0  501    0  0.00000000000E+00  0.00000000000E+00  0.84305286774E+03  0.84305286775E+03  0.50400001928E-02 0.  1.
       -1   -1    0    0    0  501  0.00000000000E+00  0.00000000000E+00 -0.42758288502E+03  0.42758288505E+03  0.50400001928E-02 0. -1.
    10030    2    1    2    0    0  0.00000000000E+00  0.00000000000E+00  0.41546998272E+03  0.12706357528E+04  0.12007913681E+04 0.  0.
        5    1    3    3  502    0 -0.44442764416E+03  0.33773214756E+03  0.44166839924E+03  0.71180896263E+03  0.46999998093E+01 0. -1.
       -5    1    3    3    0  502  0.44442764416E+03 -0.33773214756E+03 -0.26198416524E+02  0.55882679017E+03  0.46999998093E+01 0.  1.
</event>
<event>
 5   0  0.2244308E-04  0.1199187E+04  0.7818609E-02  0.9113568E-01
        1   -1    0    0  501    0  0.00000000000E+00  0.00000000000E+00  0.31704048905E+03  0.31704048909E+03  0.50400001928E-02 0.  1.
       -1   -1    0    0    0  501  0.00000000000E+00  0.00000000000E+00 -0.11339644962E+04  0.11339644962E+04  0.50400001928E-02 0. -1.
    10030    2    1    2    0    0  0.00000000000E+00  0.00000000000E+00 -0.81692400717E+03  0.14510049853E+04  0.11991874891E+04 0.  0.
        5    1    3    3  502    0  0.15486572428E+03  0.52539469288E+03 -0.11339408410E+03  0.55937758640E+03  0.46999998093E+01 0. -1.
       -5    1    3    3    0  502 -0.15486572428E+03 -0.52539469288E+03 -0.70352992307E+03  0.89162739893E+03  0.46999998093E+01 0.  1.
</event>
<event>
 5   0  0.2244308E-04  0.1232375E+04  0.7818609E-02  0.9084982E-01
       -1   -1    0    0    0  501  0.00000000000E+00  0.00000000000E+00  0.36109359687E+03  0.36109359691E+03  0.50400001928E-02 0.  1.
        1   -1    0    0  501    0  0.00000000000E+00  0.00000000000E+00 -0.10514917540E+04  0.10514917540E+04  0.50400001928E-02 0. -1.
    10030    2    1    2    0    0  0.00000000000E+00  0.00000000000E+00 -0.69039815714E+03  0.14125853509E+04  0.12323748449E+04 0.  0.
        5    1    3    3  502    0  0.57976830330E+03 -0.12311106158E+03 -0.15211037008E+03  0.61192097013E+03  0.46999998093E+01 0.  1.
       -5    1    3    3    0  502 -0.57976830330E+03  0.12311106158E+03 -0.53828778706E+03  0.80066438081E+03  0.46999998093E+01 0. -1.
</event>
<event>
 5   0  0.3832662E-04  0.1200204E+04  0.7818609E-02  0.9112678E-01
        2   -1    0    0  501    0  0.00000000000E+00  0.00000000000E+00  0.13537795304E+04  0.13537795304E+04  0.25500000920E-02 0. -1.
       -2   -1    0    0    0  501  0.00000000000E+00  0.00000000000E+00 -0.26601264409E+03  0.26601264410E+03  0.25500000920E-02 0.  1.
    10030    2    1    2    0    0  0.00000000000E+00  0.00000000000E+00  0.10877668863E+04  0.16197921745E+04  0.12002041033E+04 0.  0.
        4    1    3    3  502    0  0.24839058799E+03 -0.99029092027E+02  0.12689277590E+04  0.12967975616E+04  0.12699999809E+01 0. -1.
       -4    1    3    3    0  502 -0.24839058799E+03  0.99029092027E+02 -0.18116087270E+03  0.32299461291E+03  0.12699999809E+01 0.  1.
</event>
<event>
 5   0  0.2304842E-04  0.1199621E+04  0.7818609E-02  0.9113188E-01
        1   -1    0    0  501    0  0.00000000000E+00  0.00000000000E+00  0.28766456371E+04  0.28766456371E+04  0.50400001928E-02 0. -1.
       -1   -1    0    0    0  501  0.00000000000E+00  0.00000000000E+00 -0.12506674703E+03  0.12506674713E+03  0.50400001928E-02 0.  1.
    10030    2    1    2    0    0  0.00000000000E+00  0.00000000000E+00  0.27515788901E+04  0.30017123843E+04  0.11996211274E+04 0.  0.
        4    1    3    3  502    0  0.24132206373E+03 -0.37562053823E+03  0.23780639286E+04  0.24196108755E+04  0.12699999809E+01 0. -1.
       -4    1    3    3    0  502 -0.24132206373E+03  0.37562053823E+03  0.37351496146E+03  0.58210150878E+03  0.12699999809E+01 0.  1.
</event>
<event>
 5   0  0.3993723E-04  0.1199208E+04  0.7818609E-02  0.9113550E-01
       -2   -1    0    0    0  501  0.00000000000E+00  0.00000000000E+00  0.45161218251E+03  0.45161218251E+03  0.25500000920E-02 0. -1.
        2   -1    0    0  501    0  0.00000000000E+00  0.00000000000E+00 -0.79609191122E+03  0.79609191122E+03  0.25500000920E-02 0.  1.
    10030    2    1    2    0    0  0.00000000000E+00  0.00000000000E+00 -0.34447972871E+03  0.12477040937E+04  0.11992077477E+04 0.  0.
        3    1    3    3  502    0 -0.13135596960E+03 -0.44798951470E+03 -0.56372176254E+03  0.73193663099E+03  0.10100000352E+00 0.  1.
       -3    1    3    3    0  502  0.13135596960E+03  0.44798951470E+03  0.21924203383E+03  0.51576746274E+03  0.10100000352E+00 0. -1.
</event>
<event>
 5   0  0.4024486E-04  0.1190098E+04  0.7818609E-02  0.9121568E-01
        2   -1    0    0  501    0  0.00000000000E+00  0.00000000000E+00  0.50337139012E+03  0.50337139013E+03  0.25500000920E-02 0.  1.
       -2   -1    0    0    0  501  0.00000000000E+00  0.00000000000E+00 -0.70342349404E+03  0.70342349404E+03  0.25500000920E-02 0. -1.
    10030    2    1    2    0    0  0.00000000000E+00  0.00000000000E+00 -0.20005210391E+03  0.12067948842E+04  0.11900979154E+04 0.  0.
        1    1    3    3  502    0  0.22241921994E+03 -0.21671574324E+03  0.41468502255E+03  0.51807305539E+03  0.50400001928E-02 0.  1.
       -1    1    3    3    0  502 -0.22241921994E+03  0.21671574324E+03 -0.61473712646E+03  0.68872182878E+03  0.50400001928E-02 0. -1.
</event>
<event>
 5   0  0.2304842E-04  0.1206608E+04  0.7818609E-02  0.9107092E-01
       -1   -1    0    0    0  501  0.00000000000E+00  0.00000000000E+00  0.37846292544E+03  0.37846292547E+03  0.50400001928E-02 0. -1.
        1   -1    0    0  501    0  0.00000000000E+00  0.00000000000E+00 -0.96172037842E+03  0.96172037843E+03  0.50400001928E-02 0.  1.
    10030    2    1    2    0    0  0.00000000000E+00  0.00000000000E+00 -0.58325745298E+03  0.13401833039E+04  0.12066076544E+04 0.  0.
        4    1    3    3  502    0 -0.51384356786E+03  0.27740177567E+02  0.58144413732E+02  0.51786785518E+03  0.12699999809E+01 0. -1.
       -4    1    3    3    0  502  0.51384356786E+03 -0.27740177567E+02 -0.64140186671E+03  0.82231544872E+03  0.12699999809E+01 0.  1.
</event>
<event>
 5   0  0.4024486E-04  0.1202025E+04  0.7818609E-02  0.9111086E-01
        2   -1    0    0  501    0  0.00000000000E+00  0.00000000000E+00  0.16766022312E+04  0.16766022312E+04  0.25500000920E-02 0.  1.
       -2   -1    0    0    0  501  0.00000000000E+00  0.00000000000E+00 -0.21544537476E+03  0.21544537477E+03  0.25500000920E-02 0. -1.
    10030    2    1    2    0    0  0.00000000000E+00  0.00000000000E+00  0.14611568565E+04  0.18920476060E+04  0.12020252843E+04 0.  0.
        1    1    3    3  502    0  0.44524231121E+03  0.24776909054E+03  0.22888859865E+03  0.55858770890E+03  0.50400001928E-02 0. -1.
       -1    1    3    3    0  502 -0.44524231121E+03 -0.24776909054E+03  0.12322682578E+04  0.13334598971E+04  0.50400001928E-02 0.  1.
</event>
<event>
 5   0  0.4024486E-04  0.1200953E+04  0.7818609E-02  0.9112023E-01
        2   -1    0    0  501    0  0.00000000000E+00  0.00000000000E+00  0.14593132303E+04  0.14593132303E+04  0.25500000920E-02 0.  1.
       -2   -1    0    0    0  501  0.00000000000E+00  0.00000000000E+00 -0.24708338211E+03  0.24708338212E+03  0.25500000920E-02 0. -1.
    10030    2    1    2    0    0  0.00000000000E+00  0.00000000000E+00  0.12122298482E+04  0.17063966124E+04  0.12009530357E+04 0.  0.
        1    1    3    3  502    0 -0.56568084187E+03  0.21868294820E+01  0.31991495644E+03  0.64988089405E+03  0.50400001928E-02 0. -1.
       -1    1    3    3    0  502  0.56568084187E+03 -0.21868294820E+01  0.89231489175E+03  0.10565157184E+04  0.50400001928E-02 0.  1.
</event>
<event>
 5   0  0.2204090E-04  0.1200373E+04  0.7818609E-02  0.9112530E-01
       -1   -1    0    0    0  501  0.00000000000E+00  0.00000000000E+00  0.39301139241E+03  0.39301139244E+03  0.50400001928E-02 0. -1.
        1   -1    0    0  501    0  0.00000000000E+00  0.00000000000E+00 -0.91657343666E+03  0.91657343667E+03  0.50400001928E-02 0.  1.
    10030    2    1    2    0    0  0.00000000000E+00  0.00000000000E+00 -0.52356204425E+03  0.13095848291E+04  0.12003729464E+04 0.  0.
        2    1    3    3  502    0  0.10297144128E+03  0.18939067539E+03 -0.87287863735E+03  0.89910458858E+03  0.25500000920E-02 0.  1.
       -2    1    3    3    0  502 -0.10297144128E+03 -0.18939067539E+03  0.34931659310E+03  0.41048024053E+03  0.25500000920E-02 0. -1.
</event>
<event>
 5   0  0.4024486E-04  0.1198109E+04  0.7818609E-02  0.9114513E-01
       -2   -1    0    0    0  501  0.00000000000E+00  0.00000000000E+00  0.43214298693E+03  0.43214298694E+03  0.25500000920E-02 0. -1.
        2   -1    0    0  501    0  0.00000000000E+00  0.00000000000E+00 -0.83043406406E+03  0.83043406406E+03  0.25500000920E-02 0.  1.
    10030    2    1    2    0    0  0.00000000000E+00  0.00000000000E+00 -0.39829107713E+03  0.12625770510E+04  0.11981089381E+04 0.  0.
        1    1    3    3  502    0 -0.52623074721E+02 -0.26507249906E+03  0.36425629027E+03  0.45355844472E+03  0.50400001928E-02 0. -1.
       -1    1    3    3    0  502  0.52623074721E+02  0.26507249906E+03 -0.76254736740E+03  0.80901860628E+03  0.50400001928E-02 0.  1.
</event>
<event>
 5   0  0.2304842E-04  0.1201471E+04  0.7818609E-02  0.9111570E-01
        1   -1    0    0  501    0  0.00000000000E+00  0.00000000000E+00  0.89711711436E+03  0.89711711438E+03  0.50400001928E-02 0. -1.
       -1   -1    0    0    0  501  0.00000000000E+00  0.00000000000E+00 -0.40226990565E+03  0.40226990568E+03  0.50400001928E-02 0.  1.
    10030    2    1    2    0    0  0.00000000000E+00  0.00000000000E+00  0.49484720872E+03  0.12993870201E+04  0.12014711265E+04 0.  0.
        4    1    3    3  502    0 -0.32273242273E+03  0.38073347656E+03 -0.11413839053E+03  0.51199939643E+03  0.12699999809E+01 0.  1.
       -4    1    3    3    0  502  0.32273242273E+03 -0.38073347656E+03  0.60898559924E+03  0.78738762363E+03  0.12699999809E+01 0. -1.
</event>
<event>
 5   0  0.1541375E-04  0.1199935E+04  0.7818609E-02  0.9112914E-01
       -4   -1    0    0    0  501  0.00000000000E+00  0.00000000000E+00  0.14642997511E+04  0.14643003018E+04  0.12699999809E+01 0. -1.
        4   -1    0    0  501    0  0.00000000000E+00  0.00000000000E+00 -0.24582224755E+03  0.24582552815E+03  0.12699999809E+01 0.  1.
    10030    2    1    2    0    0  0.00000000000E+00  0.00000000000E+00  0.12184775035E+04  0.17101258299E+04  0.11999345514E+04 0.  0.
        1    1    3    3  502    0 -0.29731721838E+03  0.20680474500E+02 -0.13286344481E+03  0.32630952387E+03  0.50400001928E-02 0.  1.
       -1    1    3    3    0  502  0.29731721838E+03 -0.20680474500E+02  0.13513409483E+04  0.13838163061E+04  0.50400001928E-02 0. -1.
</event>
<event>
 5   0  0.2304842E-04  0.1201396E+04  0.7818609E-02  0.9111635E-01
        1   -1    0    0  501    0  0.00000000000E+00  0.00000000000E+00  0.15068279976E+04  0.15068279976E+04  0.50400001928E-02 0.  1.
       -1   -1    0    0    0  501  0.00000000000E+00  0.00000000000E+00 -0.23946867291E+03  0.23946867297E+03  0.50400001928E-02 0. -1.
    10030    2    1    2    0    0  0.00000000000E+00  0.00000000000E+00  0.12673593247E+04  0.17462966706E+04  0.12013960229E+04 0.  0.
        4    1    3    3  502    0  0.20918450287E+03 -0.41780390974E+03  0.84939132599E+02  0.47490476137E+03  0.12699999809E+01 0. -1.
       -4    1    3    3    0  502 -0.20918450287E+03  0.41780390974E+03  0.11824201921E+04  0.12713919092E+04  0.12699999809E+01 0.  1.
</event>
<event>
 5   0  0.4024486E-04  0.1201494E+04  0.7818609E-02  0.9111550E-01
       -2   -1    0    0    0  501  0.00000000000E+00  0.00000000000E+00  0.12545256011E+03  0.12545256013E+03  0.25500000920E-02 0.  1.
        2   -1    0    0  501    0  0.00000000000E+00  0.00000000000E+00 -0.28767616243E+04  0.28767616243E+04  0.25500000920E-02 0. -1.
    10030    2    1    2    0    0  0.00000000000E+00  0.00000000000E+00 -0.27513090642E+04  0.30022141845E+04  0.12014942541E+04 0.  0.
        1    1    3    3  502    0 -0.57314302186E+03 -0.14512717613E+03 -0.16417701388E+04  0.17449825241E+04  0.50400001928E-02 0. -1.
       -1    1    3    3    0  502  0.57314302186E+03  0.14512717613E+03 -0.11095389254E+04  0.12572316604E+04  0.50400001928E-02 0.  1.
</event>
<event>
 5   0  0.2315038E-04  0.1200376E+04  0.7818609E-02  0.9112528E-01
       -1   -1    0    0    0  501  0.00000000000E+00  0.00000000000E+00  0.51085794643E+03  0.51085794645E+03  0.50400001928E-02 0. -1.
        1   -1    0    0  501    0  0.00000000000E+00  0.00000000000E+00 -0.70513848336E+03  0.70513848337E+03  0.50400001928E-02 0.  1.
    10030    2    1    2    0    0  0.00000000000E+00  0.00000000000E+00 -0.19428053693E+03  0.12159964298E+04  0.12003759371E+04 0.  0.
        1    1    3    3  502    0 -0.42552403965E+01  0.49118550844E+03  0.25223069875E+03  0.55217898927E+03  0.50400001928E-02 0. -1.
       -1    1    3    3    0  502  0.42552403965E+01 -0.49118550844E+03 -0.44651123568E+03  0.66381744056E+03  0.50400001928E-02 0.  1.
</event>
<event>
 5   0  0.2204090E-04  0.1193362E+04  0.7818609E-02  0.9118687E-01
       -1   -1    0    0    0  501  0.00000000000E+00  0.00000000000E+00  0.28552140463E+03  0.28552140468E+03  0.50400001928E-02 0.  1.
        1   -1    0    0  501    0  0.00000000000E+00  0.00000000000E+00 -0.12469395311E+04  0.12469395312E+04  0.50400001928E-02 0. -1.
    10030    2    1    2    0    0  0.00000000000E+00  0.00000000000E+00 -0.96141812651E+03  0.15324609358E+04  0.11933615152E+04 0.  0.
        2    1    3    3  502    0  0.26678788262E+03 -0.13529233074E+03  0.18227823876E+03  0.35029294226E+03  0.25500000920E-02 0.  1.
       -2    1    3    3    0  502 -0.26678788262E+03  0.13529233074E+03 -0.11436963653E+04  0.11821679936E+04  0.25500000920E-02 0. -1.
</event>
<event>
 5   0  0.3883890E-04  0.1197075E+04  0.7818609E-02  0.9115420E-01
       -2   -1    0    0    0  501  0.00000000000E+00  0.00000000000E+00  0.60275378797E+03  0.60275378797E+03  0.25500000920E-02 0. -1.
        2   -1    0    0  501    0  0.00000000000E+00  0.00000000000E+00 -0.59435101895E+03  0.59435101895E+03  0.25500000920E-02 0.  1.
    10030    2    1    2    0    0  0.00000000000E+00  0.00000000000E+00  0.84027690187E+01  0.11971048069E+04  0.11970753160E+04 0.  0.
        2    1    3    3  502    0  0.26074943333E+03  0.59713511056E+02  0.53965024629E+03  0.60231084890E+03  0.25500000920E-02 0. -1.
       -2    1    3    3    0  502 -0.26074943333E+03 -0.59713511056E+02 -0.53124747727E+03  0.59479395802E+03  0.25500000920E-02 0.  1.
</event>
<event>
 5   0  0.3883890E-04  0.1200864E+04  0.7818609E-02  0.9112101E-01
        2   -1    0    0  501    0  0.00000000000E+00  0.00000000000E+00  0.78236535813E+03  0.78236535813E+03  0.25500000920E-02 0. -1.
       -2   -1    0    0    0  501  0.00000000000E+00  0.00000000000E+00 -0.46080589076E+03  0.46080589076E+03  0.25500000920E-02 0.  1.
    10030    2    1    2    0    0  0.00000000000E+00  0.00000000000E+00  0.32155946737E+03  0.12431712489E+04  0.12008639652E+04 0.  0.
        2    1    3    3  502    0  0.17725156565E+03 -0.26519732259E+03  0.68739664621E+03  0.75780069059E+03  0.25500000920E-02 0. -1.
       -2    1    3    3    0  502 -0.17725156565E+03  0.26519732259E+03 -0.36583717884E+03  0.48537055830E+03  0.25500000920E-02 0.  1.
</event>
<event>
 5   0  0.4122956E-04  0.1200755E+04  0.7818609E-02  0.9112196E-01
       -2   -1    0    0    0  501  0.00000000000E+00  0.00000000000E+00  0.22804036585E+03  0.22804036586E+03  0.25500000920E-02 0.  1.
        2   -1    0    0  501    0  0.00000000000E+00  0.00000000000E+00 -0.15806543409E+04  0.15806543409E+04  0.25500000920E-02 0. -1.
    10030    2    1    2    0    0  0.00000000000E+00  0.00000000000E+00 -0.13526139750E+04  0.18086947068E+04  0.12007547530E+04 0.  0.
        5    1    3    3  502    0 -0.10523552408E+03 -0.52469504507E+03 -0.10862069498E+04  0.12108868790E+04  0.46999998093E+01 0. -1.
       -5    1    3    3    0  502  0.10523552408E+03  0.52469504507E+03 -0.26640702521E+03  0.59780782776E+03  0.46999998093E+01 0.  1.
</event>
<event>
 5   0  0.4024486E-04  0.1200344E+04  0.7818609E-02  0.9112556E-01
       -2   -1    0    0    0  501  0.00000000000E+00  0.00000000000E+00  0.91341584579E+03  0.91341584579E+03  0.25500000920E-02 0.  1.
        2   -1    0    0  501    0  0.00000000000E+00  0.00000000000E+00 -0.39435088044E+03  0.39435088045E+03  0.25500000920E-02 0. -1.
    10030    2    1    2    0    0  0.00000000000E+00  0.00000000000E+00  0.51906496534E+03  0.13077667262E+04  0.12003438557E+04 0.  0.
        1    1    3    3  502    0  0.47349958849E+03 -0.34530519198E+03  0.11844915533E+03  0.59788605799E+03  0.50400001928E-02 0. -1.
       -1    1    3    3    0  502 -0.47349958849E+03  0.34530519198E+03  0.40061581001E+03  0.70988066826E+03  0.50400001928E-02 0.  1.
</event>
<event>
 5   0  0.2340731E-04  0.1200336E+04  0.7818609E-02  0.9112562E-01
       -1   -1    0    0    0  501  0.00000000000E+00  0.00000000000E+00  0.41927224330E+03  0.41927224333E+03  0.50400001928E-02 0. -1.
        1   -1    0    0  501    0  0.00000000000E+00  0.00000000000E+00 -0.85911197992E+03  0.85911197993E+03  0.50400001928E-02 0.  1.
    10030    2    1    2    0    0  0.00000000000E+00  0.00000000000E+00 -0.43983973662E+03  0.12783842233E+04  0.12003362980E+04 0.  0.
        3    1    3    3  502    0 -0.56343558727E+03 -0.20655436831E+03 -0.21054835388E+03  0.63596775673E+03  0.10100000352E+00 0. -1.
       -3    1    3    3    0  502  0.56343558727E+03  0.20655436831E+03 -0.22929138274E+03  0.64241646653E+03  0.10100000352E+00 0.  1.
</event>
<event>
 5   0  0.3832662E-04  0.1190823E+04  0.7818609E-02  0.9120927E-01
       -2   -1    0    0    0  501  0.00000000000E+00  0.00000000000E+00  0.39936916899E+03  0.39936916900E+03  0.25500000920E-02 0. -1.
        2   -1    0    0  501    0  0.00000000000E+00  0.00000000000E+00 -0.88768695711E+03  0.88768695712E+03  0.25500000920E-02 0.  1.
    10030    2    1    2    0    0  0.00000000000E+00  0.00000000000E+00 -0.48831778812E+03  0.12870561261E+04  0.11908229128E+04 0.  0.
        4    1    3    3  502    0 -0.22545940825E+03  0.24795298814E+03  0.28775076343E+03  0.44171794604E+03  0.12699999809E+01 0. -1.
       -4    1    3    3    0  502  0.22545940825E+03 -0.24795298814E+03 -0.77606855155E+03  0.84533818008E+03  0.12699999809E+01 0.  1.
</event>
<event>
 5   0  0.4122956E-04  0.1200595E+04  0.7818609E-02  0.9112336E-01
        2   -1    0    0  501    0  0.00000000000E+00  0.00000000000E+00  0.29577206297E+03  0.29577206298E+03  0.25500000920E-02 0.  1.
       -2   -1    0    0    0  501  0.00000000000E+00  0.00000000000E+00 -0.12183599208E+04  0.12183599208E+04  0.25500000920E-02 0. -1.
    10030    2    1    2    0    0  0.00000000000E+00  0.00000000000E+00 -0.92258785784E+03  0.15141319838E+04  0.12005945648E+04 0.  0.
        5    1    3    3  502    0 -0.19457904332E+03  0.69227368037E+02  0.24953188217E+03  0.32394703703E+03  0.46999998093E+01 0.  1.
       -5    1    3    3    0  502  0.19457904332E+03 -0.69227368037E+02 -0.11721197400E+04  0.11901849468E+04  0.46999998093E+01 0. -1.
</event>
<event>
 5   0  0.4024486E-04  0.1198812E+04  0.7818609E-02  0.9113897E-01
        2   -1    0    0  501    0  0.00000000000E+00  0.00000000000E+00  0.55391760966E+03  0.55391760967E+03  0.25500000920E-02 0. -1.
       -2   -1    0    0    0  501  0.00000000000E+00  0.00000000000E+00 -0.64863028108E+03  0.64863028109E+03  0.25500000920E-02 0.  1.
    10030    2    1    2    0    0  0.00000000000E+00  0.00000000000E+00 -0.94712671420E+02  0.12025478908E+04  0.11988123037E+04 0.  0.
        1    1    3    3  502    0  0.33888629690E+02 -0.35219516720E+02  0.55191538305E+03  0.55407530504E+03  0.50400001928E-02 0. -1.
       -1    1    3    3    0  502 -0.33888629690E+02  0.35219516720E+02 -0.64662805447E+03  0.64847258572E+03  0.50400001928E-02 0.  1.
</event>
<event>
 5   0  0.2315038E-04  0.1203659E+04  0.7818609E-02  0.9109660E-01
       -1   -1    0    0    0  501  0.00000000000E+00  0.00000000000E+00  0.85982127873E+03  0.85982127874E+03  0.50400001928E-02 0. -1.
        1   -1    0    0  501    0  0.00000000000E+00  0.00000000000E+00 -0.42124883631E+03  0.42124883634E+03  0.50400001928E-02 0.  1.
    10030    2    1    2    0    0  0.00000000000E+00  0.00000000000E+00  0.43857244242E+03  0.12810701151E+04  0.12036589436E+04 0.  0.
        1    1    3    3  502    0  0.15785027175E+03  0.51708540001E+03 -0.62112825674E+02  0.54419851372E+03  0.50400001928E-02 0.  1.
       -1    1    3    3    0  502 -0.15785027175E+03 -0.51708540001E+03  0.50068526809E+03  0.73687160137E+03  0.50400001928E-02 0. -1.
</event>
<event>
 5   0  0.1541375E-04  0.1192165E+04  0.7818609E-02  0.9119742E-01
        4   -1    0    0  501    0  0.00000000000E+00  0.00000000000E+00  0.52836887083E+03  0.52837039713E+03  0.12699999809E+01 0.  1.
       -4   -1    0    0    0  501  0.00000000000E+00  0.00000000000E+00 -0.67247105341E+03  0.67247225264E+03  0.12699999809E+01 0. -1.
    10030    2    1    2    0    0  0.00000000000E+00  0.00000000000E+00 -0.14410218258E+03  0.12008426498E+04  0.11921651020E+04 0.  0.
        4    1    3    3  502    0 -0.52448845655E+03  0.16847711795E+03 -0.30139260522E+03  0.62794250988E+03  0.12699999809E+01 0. -1.
       -4    1    3    3    0  502  0.52448845655E+03 -0.16847711795E+03  0.15729042264E+03  0.57290013989E+03  0.12699999809E+01 0.  1.
</event>
<event>
 5   0  0.2204090E-04  0.1201399E+04  0.7818609E-02  0.9111632E-01
       -1   -1    0    0    0  501  0.00000000000E+00  0.00000000000E+00  0.19418003916E+03  0.19418003922E+03  0.50400001928E-02 0. -1.
        1   -1    0    0  501    0  0.00000000000E+00  0.00000000000E+00 -0.18582763637E+04  0.18582763637E+04  0.50400001928E-02 0.  1.
    10030    2    1    2    0    0  0.00000000000E+00  0.00000000000E+00 -0.16640963245E+04  0.20524564029E+04  0.12013994792E+04 0.  0.
        2    1    3    3  502    0  0.75058350840E+02 -0.12547926885E+03 -0.18274116002E+04  0.18332517447E+04  0.25500000920E-02 0.  1.
       -2    1    3    3    0  502 -0.75058350840E+02  0.12547926885E+03  0.16331527562E+03  0.21920465825E+03  0.25500000920E-02 0. -1.
</event>
<event>
 5   0  0.3883890E-04  0.1198752E+04  0.7818609E-02  0.9113950E-01
        2   -1    0    0  501    0  0.00000000000E+00  0.00000000000E+00  0.12037494256E+04  0.12037494256E+04  0.25500000920E-02 0.  1.
       -2   -1    0    0    0  501  0.00000000000E+00  0.00000000000E+00 -0.29844376330E+03  0.29844376331E+03  0.25500000920E-02 0. -1.
    10030    2    1    2    0    0  0.00000000000E+00  0.00000000000E+00  0.90530566234E+03  0.15021931889E+04  0.11987518653E+04 0.  0.
        2    1    3    3  502    0  0.28990473092E+03  0.51015467203E+03  0.60586810913E+03  0.84343269326E+03  0.25500000920E-02 0.  1.
       -2    1    3    3    0  502 -0.28990473092E+03 -0.51015467203E+03  0.29943755321E+03  0.65876049569E+03  0.25500000920E-02 0. -1.
</event>
<event>
 5   0  0.3832662E-04  0.1200415E+04  0.7818609E-02  0.9112493E-01
        2   -1    0    0  501    0  0.00000000000E+00  0.00000000000E+00  0.36888343696E+03  0.36888343696E+03  0.25500000920E-02 0. -1.
       -2   -1    0    0    0  501  0.00000000000E+00  0.00000000000E+00 -0.97659315041E+03  0.97659315042E+03  0.25500000920E-02 0.  1.
    10030    2    1    2    0    0  0.00000000000E+00  0.00000000000E+00 -0.60770971346E+03  0.13454765874E+04  0.12004149913E+04 0.  0.
        4    1    3    3  502    0  0.37702591540E+03 -0.40958385118E+03 -0.55533351642E+03  0.78632334278E+03  0.12699999809E+01 0.  1.
       -4    1    3    3    0  502 -0.37702591540E+03  0.40958385118E+03 -0.52376197036E+02  0.55915324460E+03  0.12699999809E+01 0. -1.
</event>
<event>
 5   0  0.4122956E-04  0.1204022E+04  0.7818609E-02  0.9109343E-01
       -2   -1    0    0    0  501  0.00000000000E+00  0.00000000000E+00  0.69752905649E+03  0.69752905650E+03  0.25500000920E-02 0. -1.
        2   -1    0    0  501    0  0.00000000000E+00  0.00000000000E+00 -0.51957319994E+03  0.51957319994E+03  0.25500000920E-02 0.  1.
    10030    2    1    2    0    0  0.00000000000E+00  0.00000000000E+00  0.17795585656E+03  0.12171022564E+04  0.12040222655E+04 0.  0.
        5    1    3    3  502    0  0.32791899757E+03  0.34252228852E+03 -0.28591882576E+03  0.55373644636E+03  0.46999998093E+01 0. -1.
       -5    1    3    3    0  502 -0.32791899757E+03 -0.34252228852E+03  0.46387468232E+03  0.66336581009E+03  0.46999998093E+01 0.  1.
</event>
<event>
 5   0  0.2304842E-04  0.1197366E+04  0.7818609E-02  0.9115165E-01
        1   -1    0    0  501    0  0.00000000000E+00  0.00000000000E+00  0.39884220647E+03  0.39884220650E+03  0.50400001928E-02 0.  1.
       -1   -1    0    0    0  501  0.00000000000E+00  0.00000000000E+00 -0.89865476903E+03  0.89865476904E+03  0.50400001928E-02 0. -1.
    10030    2    1    2    0    0  0.00000000000E+00  0.00000000000E+00 -0.49981256256E+03  0.12974969755E+04  0.11973661946E+04 0.  0.
        4    1    3    3  502    0  0.45556005737E+03 -0.12722637042E+03 -0.64761073627E+03  0.80194937112E+03  0.12699999809E+01 0. -1.
       -4    1    3    3    0  502 -0.45556005737E+03  0.12722637042E+03  0.14779817372E+03  0.49554760443E+03  0.12699999809E+01 0.  1.
</event>
<event>
 5   0  0.2304842E-04  0.1200880E+04  0.7818609E-02  0.9112087E-01
        1   -1    0    0  501    0  0.00000000000E+00  0.00000000000E+00  0.61497056334E+03  0.61497056336E+03  0.50400001928E-02 0.  1.
       -1   -1    0    0    0  501  0.00000000000E+00  0.00000000000E+00 -0.58625274318E+03  0.58625274320E+03  0.50400001928E-02 0. -1.
    10030    2    1    2    0    0  0.00000000000E+00  0.00000000000E+00  0.28717820167E+02  0.12012233066E+04  0.12008799769E+04 0.  0.
        4    1    3    3  502    0 -0.46069211038E+03 -0.21433016020E+03  0.33437525588E+03  0.60826233057E+03  0.12699999809E+01 0. -1.
       -4    1    3    3    0  502  0.46069211038E+03  0.21433016020E+03 -0.30565743571E+03  0.59296097599E+03  0.12699999809E+01 0.  1.
</event>
<event>
 5   0  0.3883890E-04  0.1199095E+04  0.7818609E-02  0.9113649E-01
        2   -1    0    0  501    0  0.00000000000E+00  0.00000000000E+00  0.12064851288E+04  0.12064851288E+04  0.25500000920E-02 0. -1.
       -2   -1    0    0    0  501  0.00000000000E+00  0.00000000000E+00 -0.29793738221E+03  0.29793738222E+03  0.25500000920E-02 0.  1.
    10030    2    1    2    0    0  0.00000000000E+00  0.00000000000E+00  0.90854774661E+03  0.15044225110E+04  0.11990946934E+04 0.  0.
        2    1    3    3  502    0  0.43166468066E+03 -0.11974235204E+03 -0.45668847671E+02  0.45028687640E+03  0.25500000920E-02 0.  1.
       -2    1    3    3    0  502 -0.43166468066E+03  0.11974235204E+03  0.95421659428E+03  0.10541356346E+04  0.25500000920E-02 0. -1.
</event>
<event>
 5   0  0.4024486E-04  0.1190451E+04  0.7818609E-02  0.9121256E-01
       -2   -1    0    0    0  501  0.00000000000E+00  0.00000000000E+00  0.28436951149E+03  0.28436951150E+03  0.25500000920E-02 0.  1.
        2   -1    0    0  501    0  0.00000000000E+00  0.00000000000E+00 -0.12458905217E+04  0.12458905217E+04  0.25500000920E-02 0. -1.
    10030    2    1    2    0    0  0.00000000000E+00  0.00000000000E+00 -0.96152101021E+03  0.15302600332E+04  0.11904508037E+04 0.  0.
        1    1    3    3  502    0 -0.21303891361E+03  0.37920386995E+03 -0.10030884565E+04  0.10933286813E+04  0.50400001928E-02 0. -1.
       -1    1    3    3    0  502  0.21303891361E+03 -0.37920386995E+03  0.41567446277E+02  0.43693135194E+03  0.50400001928E-02 0.  1.
</event>
<event>
 5   0  0.3832662E-04  0.1199289E+04  0.7818609E-02  0.9113479E-01
       -2   -1    0    0    0  501  0.00000000000E+00  0.00000000000E+00  0.71257283177E+03  0.71257283178E+03  0.25500000920E-02 0. -1.
        2   -1    0    0  501    0  0.00000000000E+00  0.00000000000E+00 -0.50461301173E+03  0.50461301174E+03  0.25500000920E-02 0.  1.
    10030    2    1    2    0    0  0.00000000000E+00  0.00000000000E+00  0.20795982005E+03  0.12171858435E+04  0.11992889939E+04 0.  0.
        4    1    3    3  502    0  0.39904922273E+03 -0.28145898970E+03  0.45718541670E+03  0.66893913265E+03  0.12699999809E+01 0. -1.
       -4    1    3    3    0  502 -0.39904922273E+03  0.28145898970E+03 -0.24922559665E+03  0.54824671087E+03  0.12699999809E+01 0.  1.
</event>
<event>
 5   0  0.2204090E-04  0.1200774E+04  0.7818609E-02  0.9112179E-01
       -1   -1    0    0    0  501  0.00000000000E+00  0.00000000000E+00  0.25311172848E+03  0.25311172853E+03  0.50400001928E-02 0. -1.
        1   -1    0    0  501    0  0.00000000000E+00  0.00000000000E+00 -0.14241329647E+04  0.14241329647E+04  0.50400001928E-02 0.  1.
    10030    2    1    2    0    0  0.00000000000E+00  0.00000000000E+00 -0.11710212362E+04  0.16772446932E+04  0.12007743440E+04 0.  0.
        2    1    3    3  502    0  0.44616951655E+03 -0.39588076908E+03 -0.68102511270E+03  0.90530880089E+03  0.25500000920E-02 0.  1.
       -2    1    3    3    0  502 -0.44616951655E+03  0.39588076908E+03 -0.48999612352E+03  0.77193589235E+03  0.25500000920E-02 0. -1.
</event>
<event>
 5   0  0.4122956E-04  0.1204627E+04  0.7818609E-02  0.9108816E-01
       -2   -1    0    0    0  501  0.00000000000E+00  0.00000000000E+00  0.24504622278E+03  0.24504622279E+03  0.25500000920E-02 0.  1.
        2   -1    0    0  501    0  0.00000000000E+00  0.00000000000E+00 -0.14804611159E+04  0.14804611159E+04  0.25500000920E-02 0. -1.
    10030    2    1    2    0    0  0.00000000000E+00  0.00000000000E+00 -0.12354148932E+04  0.17255073387E+04  0.12046267546E+04 0.  0.
        5    1    3    3  502    0  0.32836840942E+02  0.34551980467E+03 -0.13227875069E+04  0.13675712311E+04  0.46999998093E+01 0. -1.
       -5    1    3    3    0  502 -0.32836840942E+02 -0.34551980467E+03  0.87372613765E+02  0.35793610768E+03  0.46999998093E+01 0.  1.
</event>
<event>
 5   0  0.2304842E-04  0.1200909E+04  0.7818609E-02  0.9112061E-01
        1   -1    0    0  501    0  0.00000000000E+00  0.00000000000E+00  0.59402878575E+03  0.59402878577E+03  0.50400001928E-02 0. -1.
       -1   -1    0    0    0  501  0.00000000000E+00  0.00000000000E+00 -0.60695015669E+03  0.60695015671E+03  0.50400001928E-02 0.  1.
    10030    2    1    2    0    0  0.00000000000E+00  0.00000000000E+00 -0.12921370935E+02  0.12009789425E+04  0.12009094297E+04 0.  0.
        4    1    3    3  502    0  0.59090004207E+03  0.88515580936E+02 -0.66015655786E+02  0.60113022507E+03  0.12699999809E+01 0. -1.
       -4    1    3    3    0  502 -0.59090004207E+03 -0.88515580936E+02  0.53094284851E+02  0.59984871740E+03  0.12699999809E+01 0.  1.
</event>
<event>
 5   0  0.2315038E-04  0.1207182E+04  0.7818609E-02  0.9106594E-01
        1   -1    0    0  501    0  0.00000000000E+00  0.00000000000E+00  0.78597908743E+03  0.78597908744E+03  0.50400001928E-02 0. -1.
       -1   -1    0    0    0  501  0.00000000000E+00  0.00000000000E+00 -0.46352622448E+03  0.46352622450E+03  0.50400001928E-02 0.  1.
    10030    2    1    2    0    0  0.00000000000E+00  0.00000000000E+00  0.32245286295E+03  0.12495053119E+04  0.12071817078E+04 0.  0.
        1    1    3    3  502    0  0.43501016325E+03 -0.40978724637E+03  0.24882509086E+03  0.64735875315E+03  0.50400001928E-02 0.  1.
       -1    1    3    3    0  502 -0.43501016325E+03  0.40978724637E+03  0.73627772089E+02  0.60214655879E+03  0.50400001928E-02 0. -1.
</event>
<event>
 5   0  0.2315038E-04  0.1199567E+04  0.7818609E-02  0.9113236E-01
       -1   -1    0    0    0  501  0.00000000000E+00  0.00000000000E+00  0.64046932895E+03  0.64046932897E+03  0.50400001928E-02 0.  1.
        1   -1    0    0  501    0  0.00000000000E+00  0.00000000000E+00 -0.56168191592E+03  0.56168191594E+03  0.50400001928E-02 0. -1.
    10030    2    1    2    0    0  0.00000000000E+00  0.00000000000E+00  0.78787413028E+02  0.12021512449E+04  0.11995666548E+04 0.  0.
        1    1    3    3  502    0 -0.16112479611E+03 -0.29819701748E+03 -0.45650311371E+03  0.56857519644E+03  0.50400001928E-02 0. -1.
       -1    1    3    3    0  502  0.16112479611E+03  0.29819701748E+03  0.53529052674E+03  0.63357604847E+03  0.50400001928E-02 0.  1.
</event>
<event>
 5   0  0.1541375E-04  0.1197434E+04  0.7818609E-02  0.9115106E-01
        4   -1    0    0  501    0  0.00000000000E+00  0.00000000000E+00  0.65638991294E+03  0.65639114155E+03  0.12699999809E+01 0.  1.
       -4   -1    0    0    0  501  0.00000000000E+00  0.00000000000E+00 -0.54610883847E+03  0.54611031519E+03  0.12699999809E+01 0. -1.
    10030    2    1    2    0    0  0.00000000000E+00  0.00000000000E+00  0.11028107446E+03  0.12025014567E+04  0.11974338554E+04 0.  0.
        5    1    3    3  502    0 -0.44423865101E+03  0.34033040803E+03 -0.15852054950E+03  0.58165592947E+03  0.46999998093E+01 0. -1.
       -5    1    3    3    0  502  0.44423865101E+03 -0.34033040803E+03  0.26880162397E+03  0.62084552726E+03  0.46999998093E+01 0.  1.
</event>
<event>
 5   0  0.1541375E-04  0.1204983E+04  0.7818609E-02  0.9108506E-01
       -3   -1    0    0    0  501  0.00000000000E+00  0.00000000000E+00  0.23294951661E+03  0.23294953850E+03  0.10100000352E+00 0. -1.
        3   -1    0    0  501    0  0.00000000000E+00  0.00000000000E+00 -0.15582591461E+04  0.15582591493E+04  0.10100000352E+00 0.  1.
    10030    2    1    2    0    0  0.00000000000E+00  0.00000000000E+00 -0.13253096294E+04  0.17912086878E+04  0.12049825515E+04 0.  0.
        5    1    3    3  502    0 -0.48695937662E+01 -0.26393106890E+03 -0.14676889529E+04  0.14912465505E+04  0.46999998093E+01 0.  1.
       -5    1    3    3    0  502  0.48695937662E+01  0.26393106890E+03  0.14237932343E+03  0.29996213730E+03  0.46999998093E+01 0. -1.
</event>
<event>
 5   0  0.2315038E-04  0.1199983E+04  0.7818609E-02  0.9112872E-01
        1   -1    0    0  501    0  0.00000000000E+00  0.00000000000E+00  0.65849854064E+03  0.65849854066E+03  0.50400001928E-02 0. -1.
       -1   -1    0    0    0  501  0.00000000000E+00  0.00000000000E+00 -0.54668263549E+03  0.54668263551E+03  0.50400001928E-02 0.  1.
    10030    2    1    2    0    0  0.00000000000E+00  0.00000000000E+00  0.11181590515E+03  0.12051811762E+04  0.11999828627E+04 0.  0.
        1    1    3    3  502    0 -0.42475502504E+03  0.13157365104E+03 -0.34865370400E+03  0.56505562760E+03  0.50400001928E-02 0.  1.
       -1    1    3    3    0  502  0.42475502504E+03 -0.13157365104E+03  0.46046960916E+03  0.64012554857E+03  0.50400001928E-02 0. -1.
</event>
<event>
 5   0  0.4024486E-04  0.1198355E+04  0.7818609E-02  0.9114298E-01
       -2   -1    0    0    0  501  0.00000000000E+00  0.00000000000E+00  0.23136592710E+03  0.23136592711E+03  0.25500000920E-02 0.  1.
        2   -1    0    0  501    0  0.00000000000E+00  0.00000000000E+00 -0.15517126633E+04  0.15517126633E+04  0.25500000920E-02 0. -1.
    10030    2    1    2    0    0  0.00000000000E+00  0.00000000000E+00 -0.13203467362E+04  0.17830785904E+04  0.11983546035E+04 0.  0.
        1    1    3    3  502    0 -0.50981668367E+03 -0.28777078447E+03 -0.47027384932E+03  0.75092114681E+03  0.50400001928E-02 0.  1.
       -1    1    3    3    0  502  0.50981668367E+03  0.28777078447E+03 -0.85007288685E+03  0.10321574436E+04  0.50400001928E-02 0. -1.
</event>
<event>
 5   0  0.2315038E-04  0.1193451E+04  0.7818609E-02  0.9118608E-01
        1   -1    0    0  501    0  0.00000000000E+00  0.00000000000E+00  0.93585481113E+03  0.93585481115E+03  0.50400001928E-02 0.  1.
       -1   -1    0    0    0  501  0.00000000000E+00  0.00000000000E+00 -0.38048782424E+03  0.38048782428E+03  0.50400001928E-02 0. -1.
    10030    2    1    2    0    0  0.00000000000E+00  0.00000000000E+00  0.55536698689E+03  0.13163426354E+04  0.11934510646E+04 0.  0.
        1    1    3    3  502    0  0.58853480986E+03  0.69135276309E+02  0.20025164982E+03  0.62550270353E+03  0.50400001928E-02 0. -1.
       -1    1    3    3    0  502 -0.58853480986E+03 -0.69135276309E+02  0.35511533707E+03  0.69083993189E+03  0.50400001928E-02 0.  1.
</event>
<event>
 5   0  0.3832662E-04  0.1199685E+04  0.7818609E-02  0.9113132E-01
        2   -1    0    0  501    0  0.00000000000E+00  0.00000000000E+00  0.79253629528E+03  0.79253629529E+03  0.25500000920E-02 0. -1.
       -2   -1    0    0    0  501  0.00000000000E+00  0.00000000000E+00 -0.45399978166E+03  0.45399978167E+03  0.25500000920E-02 0.  1.
    10030    2    1    2    0    0  0.00000000000E+00  0.00000000000E+00  0.33853651362E+03  0.12465360770E+04  0.11996854672E+04 0.  0.
        4    1    3    3  502    0  0.53178889122E+03  0.83676106719E+02 -0.10565601146E+03  0.54860361038E+03  0.12699999809E+01 0.  1.
       -4    1    3    3    0  502 -0.53178889122E+03 -0.83676106719E+02  0.44419252508E+03  0.69793246658E+03  0.12699999809E+01 0. -1.
</event>
<event>
 5   0  0.3993723E-04  0.1199052E+04  0.7818609E-02  0.9113687E-01
       -2   -1    0    0    0  501  0.00000000000E+00  0.00000000000E+00  0.12115650725E+04  0.12115650725E+04  0.25500000920E-02 0.  1.
        2   -1    0    0  501    0  0.00000000000E+00  0.00000000000E+00 -0.29666680648E+03  0.29666680649E+03  0.25500000920E-02 0. -1.
    10030    2    1    2    0    0  0.00000000000E+00  0.00000000000E+00  0.91489826606E+03  0.15082318790E+04  0.11990515267E+04 0.  0.
        3    1    3    3  502    0  0.43372568184E+03 -0.12786779599E+03 -0.37709395861E+02  0.45375119732E+03  0.10100000352E+00 0. -1.
       -3    1    3    3    0  502 -0.43372568184E+03  0.12786779599E+03  0.95260766192E+03  0.10544806817E+04  0.10100000352E+00 0.  1.
</event>
<event>
 5   0  0.3883890E-04  0.1200146E+04  0.7818609E-02  0.9112729E-01
       -2   -1    0    0    0  501  0.00000000000E+00  0.00000000000E+00  0.15668439975E+03  0.15668439977E+03  0.25500000920E-02 0. -1.
        2   -1    0    0  501    0  0.00000000000E+00  0.00000000000E+00 -0.22981718794E+04  0.22981718794E+04  0.25500000920E-02 0.  1.
    10030    2    1    2    0    0  0.00000000000E+00  0.00000000000E+00 -0.21414874796E+04  0.24548562791E+04  0.12001461269E+04 0.  0.
        2    1    3    3  502    0 -0.36134020311E+03  0.12767745006E+03 -0.20152510198E+04  0.20513666046E+04  0.25500000920E-02 0.  1.
       -2    1    3    3    0  502  0.36134020311E+03 -0.12767745006E+03 -0.12623645976E+03  0.40348967449E+03  0.25500000920E-02 0. -1.
</event>
<event>
 5   0  0.2244308E-04  0.1199808E+04  0.7818609E-02  0.9113025E-01
       -1   -1    0    0    0  501  0.00000000000E+00  0.00000000000E+00  0.51678479460E+03  0.51678479462E+03  0.50400001928E-02 0.  1.
        1   -1    0    0  501    0  0.00000000000E+00  0.00000000000E+00 -0.69639169781E+03  0.69639169783E+03  0.50400001928E-02 0. -1.
    10030    2    1    2    0    0  0.00000000000E+00  0.00000000000E+00 -0.17960690321E+03  0.12131764925E+04  0.11998077188E+04 0.  0.
        5    1    3    3  502    0  0.23453208982E+03 -0.45221362000E+03 -0.41012994434E+03  0.65401155993E+03  0.46999998093E+01 0. -1.
       -5    1    3    3    0  502 -0.23453208982E+03  0.45221362000E+03  0.23052304113E+03  0.55916493252E+03  0.46999998093E+01 0.  1.
</event>
<event>
 5   0  0.2315038E-04  0.1216507E+04  0.7818609E-02  0.9098529E-01
       -1   -1    0    0    0  501  0.00000000000E+00  0.00000000000E+00  0.10965051668E+04  0.10965051669E+04  0.50400001928E-02 0.  1.
        1   -1    0    0  501    0  0.00000000000E+00  0.00000000000E+00 -0.33741050536E+03  0.33741050540E+03  0.50400001928E-02 0. -1.
    10030    2    1    2    0    0  0.00000000000E+00  0.00000000000E+00  0.75909466148E+03  0.14339156722E+04  0.12165070695E+04 0.  0.
        1    1    3    3  502    0  0.47160706401E+03 -0.32429917690E+03  0.13686592601E+03  0.58848573533E+03  0.50400001928E-02 0. -1.
       -1    1    3    3    0  502 -0.47160706401E+03  0.32429917690E+03  0.62222873547E+03  0.84542993691E+03  0.50400001928E-02 0.  1.
</event>
<event>
 5   0  0.3832662E-04  0.1198706E+04  0.7818609E-02  0.9113990E-01
        2   -1    0    0  501    0  0.00000000000E+00  0.00000000000E+00  0.96293976247E+03  0.96293976247E+03  0.25500000920E-02 0. -1.
       -2   -1    0    0    0  501  0.00000000000E+00  0.00000000000E+00 -0.37304953004E+03  0.37304953005E+03  0.25500000920E-02 0.  1.
    10030    2    1    2    0    0  0.00000000000E+00  0.00000000000E+00  0.58989023243E+03  0.13359892925E+04  0.11987063458E+04 0.  0.
        4    1    3    3  502    0  0.52061740649E+03  0.29680718157E+03  0.30525830464E+03  0.67254831233E+03  0.12699999809E+01 0.  1.
       -4    1    3    3    0  502 -0.52061740649E+03 -0.29680718157E+03  0.28463192779E+03  0.66344098019E+03  0.12699999809E+01 0. -1.
</event>
<event>
 5   0  0.3832662E-04  0.1199852E+04  0.7818609E-02  0.9112986E-01
       -2   -1    0    0    0  501  0.00000000000E+00  0.00000000000E+00  0.11795941684E+03  0.11795941687E+03  0.25500000920E-02 0.  1.
        2   -1    0    0  501    0  0.00000000000E+00  0.00000000000E+00 -0.30511454700E+04  0.30511454700E+04  0.25500000920E-02 0. -1.
    10030    2    1    2    0    0  0.00000000000E+00  0.00000000000E+00 -0.29331860532E+04  0.31691048869E+04  0.11998522249E+04 0.  0.
        4    1    3    3  502    0  0.23896450283E+03 -0.41069503067E+03 -0.49925029851E+03  0.68922196374E+03  0.12699999809E+01 0.  1.
       -4    1    3    3    0  502 -0.23896450283E+03  0.41069503067E+03 -0.24339357546E+04  0.24798829231E+04  0.12699999809E+01 0. -1.
</event>
<event>
 5   0  0.4122956E-04  0.1199574E+04  0.7818609E-02  0.9113229E-01
        2   -1    0    0  501    0  0.00000000000E+00  0.00000000000E+00  0.11476693272E+04  0.11476693272E+04  0.25500000920E-02 0.  1.
       -2   -1    0    0    0  501  0.00000000000E+00  0.00000000000E+00 -0.31345656466E+03  0.31345656468E+03  0.25500000920E-02 0. -1.
    10030    2    1    2    0    0  0.00000000000E+00  0.00000000000E+00  0.83421276257E+03  0.14611258919E+04  0.11995740656E+04 0.  0.
        5    1    3    3  502    0 -0.57990477684E+03  0.80255984870E+02  0.25833196089E+03  0.63991254506E+03  0.46999998093E+01 0. -1.
       -5    1    3    3    0  502  0.57990477684E+03 -0.80255984870E+02  0.57588080168E+03  0.82121334685E+03  0.46999998093E+01 0.  1.
</event>
<event>
 5   0  0.3993723E-04  0.1206119E+04  0.7818609E-02  0.9107518E-01
        2   -1    0    0  501    0  0.00000000000E+00  0.00000000000E+00  0.11314032650E+04  0.11314032650E+04  0.25500000920E-02 0.  1.
       -2   -1    0    0    0  501  0.00000000000E+00  0.00000000000E+00 -0.32144196509E+03  0.32144196510E+03  0.25500000920E-02 0. -1.
    10030    2    1    2    0    0  0.00000000000E+00  0.00000000000E+00  0.80996129993E+03  0.14528452301E+04  0.12061185494E+04 0.  0.
        3    1    3    3  502    0 -0.51253619825E+03 -0.49005498330E+02  0.78319331226E+03  0.93727619619E+03  0.10100000352E+00 0.  1.
       -3    1    3    3    0  502  0.51253619825E+03  0.49005498330E+02  0.26767987670E+02  0.51556903393E+03  0.10100000352E+00 0. -1.
</event>
<event>
 5   0  0.3832662E-04  0.1201639E+04  0.7818609E-02  0.9111423E-01
       -2   -1    0    0    0  501  0.00000000000E+00  0.00000000000E+00  0.37894467570E+03  0.37894467571E+03  0.25500000920E-02 0. -1.
        2   -1    0    0  501    0  0.00000000000E+00  0.00000000000E+00 -0.95260368140E+03  0.95260368140E+03  0.25500000920E-02 0.  1.
    10030    2    1    2    0    0  0.00000000000E+00  0.00000000000E+00 -0.57365900569E+03  0.13315483571E+04  0.12016390359E+04 0.  0.
        4    1    3    3  502    0  0.30807078850E+03  0.46924737597E+03 -0.52418702251E+03  0.76803278448E+03  0.12699999809E+01 0. -1.
       -4    1    3    3    0  502 -0.30807078850E+03 -0.46924737597E+03 -0.49471983187E+02  0.56351557263E+03  0.12699999809E+01 0.  1.
</event>
<event>
 5   0  0.1541375E-04  0.1199023E+04  0.7818609E-02  0.9113712E-01
       -3   -1    0    0    0  501  0.00000000000E+00  0.00000000000E+00  0.11804255416E+04  0.11804255459E+04  0.10100000352E+00 0.  1.
        3   -1    0    0  501    0  0.00000000000E+00  0.00000000000E+00 -0.30447821430E+03  0.30447823105E+03  0.10100000352E+00 0. -1.
    10030    2    1    2    0    0  0.00000000000E+00  0.00000000000E+00  0.87594732729E+03  0.14849037770E+04  0.11990227298E+04 0.  0.
        5    1    3    3  502    0  0.44139303739E+03 -0.26772240298E+03  0.81541747635E+03  0.96510665175E+03  0.46999998093E+01 0.  1.
       -5    1    3    3    0  502 -0.44139303739E+03  0.26772240298E+03  0.60529850938E+02  0.51979712521E+03  0.46999998093E+01 0. -1.
</event>
<event>
 5   0  0.2244308E-04  0.1202367E+04  0.7818609E-02  0.9110788E-01
       -1   -1    0    0    0  501  0.00000000000E+00  0.00000000000E+00  0.47280786550E+03  0.47280786553E+03  0.50400001928E-02 0.  1.
        1   -1    0    0  501    0  0.00000000000E+00  0.00000000000E+00 -0.76441493615E+03  0.76441493617E+03  0.50400001928E-02 0. -1.
    10030    2    1    2    0    0  0.00000000000E+00  0.00000000000E+00 -0.29160707065E+03  0.12372228017E+04  0.12023666568E+04 0.  0.
        5    1    3    3  502    0  0.48341135712E+03 -0.32230977225E+03 -0.30464558895E+03  0.65604965845E+03  0.46999998093E+01 0.  1.
       -5    1    3    3    0  502 -0.48341135712E+03  0.32230977225E+03  0.13038518300E+02  0.58117314325E+03  0.46999998093E+01 0. -1.
</event>
<event>
 5   0  0.2204090E-04  0.1195615E+04  0.7818609E-02  0.9116703E-01
        1   -1    0    0  501    0  0.00000000000E+00  0.00000000000E+00  0.91589025058E+03  0.91589025060E+03  0.50400001928E-02 0.  1.
       -1   -1    0    0    0  501  0.00000000000E+00  0.00000000000E+00 -0.39019294545E+03  0.39019294548E+03  0.50400001928E-02 0. -1.
    10030    2    1    2    0    0  0.00000000000E+00  0.00000000000E+00  0.52569730513E+03  0.13060831961E+04  0.11956151799E+04 0.  0.
        2    1    3    3  502    0 -0.28254959660E+03 -0.45890114494E+03 -0.19803761386E+02  0.53927425707E+03  0.25500000920E-02 0. -1.
       -2    1    3    3    0  502  0.28254959660E+03  0.45890114494E+03  0.54550106652E+03  0.76680893901E+03  0.25500000920E-02 0.  1.
</event>
<event>
 5   0  0.1541375E-04  0.1196238E+04  0.7818609E-02  0.9116156E-01
        3   -1    0    0  501    0  0.00000000000E+00  0.00000000000E+00  0.42928053793E+03  0.42928054981E+03  0.10100000352E+00 0.  1.
       -3   -1    0    0    0  501  0.00000000000E+00  0.00000000000E+00 -0.83336200060E+03  0.83336200672E+03  0.10100000352E+00 0. -1.
    10030    2    1    2    0    0  0.00000000000E+00  0.00000000000E+00 -0.40408146268E+03  0.12626425565E+04  0.11962376006E+04 0.  0.
        3    1    3    3  502    0  0.10861521945E+02 -0.18079664647E+02 -0.83296936362E+03  0.83323635174E+03  0.10100000352E+00 0. -1.
       -3    1    3    3    0  502 -0.10861521945E+02  0.18079664647E+02  0.42888790095E+03  0.42940620479E+03  0.10100000352E+00 0.  1.
</event>
<event>
 5   0  0.3832662E-04  0.1196644E+04  0.7818609E-02  0.9115799E-01
       -2   -1    0    0    0  501  0.00000000000E+00  0.00000000000E+00  0.27834286595E+03  0.27834286596E+03  0.25500000920E-02 0. -1.
        2   -1    0    0  501    0  0.00000000000E+00  0.00000000000E+00 -0.12861455721E+04  0.12861455721E+04  0.25500000920E-02 0.  1.
    10030    2    1    2    0    0  0.00000000000E+00  0.00000000000E+00 -0.10078027062E+04  0.15644884381E+04  0.11966443826E+04 0.  0.
        4    1    3    3  502    0  0.82053958698E+02 -0.96505128559E+02 -0.12684115987E+04  0.12747218083E+04  0.12699999809E+01 0.  1.
       -4    1    3    3    0  502 -0.82053958698E+02  0.96505128559E+02  0.26060889251E+03  0.28976662978E+03  0.12699999809E+01 0. -1.
</event>
<event>
 5   0  0.3993723E-04  0.1199458E+04  0.7818609E-02  0.9113331E-01
       -2   -1    0    0    0  501  0.00000000000E+00  0.00000000000E+00  0.48274287275E+03  0.48274287275E+03  0.25500000920E-02 0. -1.
        2   -1    0    0  501    0  0.00000000000E+00  0.00000000000E+00 -0.74506526299E+03  0.74506526300E+03  0.25500000920E-02 0.  1.
    10030    2    1    2    0    0  0.00000000000E+00  0.00000000000E+00 -0.26232239025E+03  0.12278081358E+04  0.11994581201E+04 0.  0.
        3    1    3    3  502    0  0.50026705834E+03 -0.68406738496E+02 -0.46242767596E+03  0.68467947043E+03  0.10100000352E+00 0.  1.
       -3    1    3    3    0  502 -0.50026705834E+03  0.68406738496E+02  0.20010528571E+03  0.54312866533E+03  0.10100000352E+00 0. -1.
</event>
<event>
 5   0  0.2244308E-04  0.1197045E+04  0.7818609E-02  0.9115447E-01
       -1   -1    0    0    0  501  0.00000000000E+00  0.00000000000E+00  0.77814404114E+03  0.77814404116E+03  0.50400001928E-02 0.  1.
        1   -1    0    0  501    0  0.00000000000E+00  0.00000000000E+00 -0.46036371053E+03  0.46036371056E+03  0.50400001928E-02 0. -1.
    10030    2    1    2    0    0  0.00000000000E+00  0.00000000000E+00  0.31778033061E+03  0.12385077517E+04  0.11970451589E+04 0.  0.
        5    1    3    3  502    0 -0.40542603377E+03  0.24137597557E+03 -0.22206800539E+03  0.52150639445E+03  0.46999998093E+01 0. -1.
       -5    1    3    3    0  502  0.40542603377E+03 -0.24137597557E+03  0.53984833600E+03  0.71700135727E+03  0.46999998093E+01 0.  1.
</event>
<event>
 5   0  0.3883890E-04  0.1199617E+04  0.7818609E-02  0.9113191E-01
       -2   -1    0    0    0  501  0.00000000000E+00  0.00000000000E+00  0.13780868129E+03  0.13780868132E+03  0.25500000920E-02 0. -1.
        2   -1    0    0  501    0  0.00000000000E+00  0.00000000000E+00 -0.26106517149E+04  0.26106517149E+04  0.25500000920E-02 0.  1.
    10030    2    1    2    0    0  0.00000000000E+00  0.00000000000E+00 -0.24728430336E+04  0.27484603962E+04  0.11996173893E+04 0.  0.
        2    1    3    3  502    0  0.47370424627E+03 -0.36633370958E+03 -0.11579071213E+04  0.13035892763E+04  0.25500000920E-02 0.  1.
       -2    1    3    3    0  502 -0.47370424627E+03  0.36633370958E+03 -0.13149359123E+04  0.14448711199E+04  0.25500000920E-02 0. -1.
</event>
<event>
 5   0  0.3832662E-04  0.1203695E+04  0.7818609E-02  0.9109628E-01
       -2   -1    0    0    0  501  0.00000000000E+00  0.00000000000E+00  0.47909107894E+03  0.47909107895E+03  0.25500000920E-02 0.  1.
        2   -1    0    0  501    0  0.00000000000E+00  0.00000000000E+00 -0.75605750928E+03  0.75605750928E+03  0.25500000920E-02 0. -1.
    10030    2    1    2    0    0  0.00000000000E+00  0.00000000000E+00 -0.27696643034E+03  0.12351485882E+04  0.12036949911E+04 0.  0.
        4    1    3    3  502    0  0.35849676864E+03  0.25046620070E+03  0.28580117062E+03  0.52243389328E+03  0.12699999809E+01 0.  1.
       -4    1    3    3    0  502 -0.35849676864E+03 -0.25046620070E+03 -0.56276760095E+03  0.71271469496E+03  0.12699999809E+01 0. -1.
</event>
<event>
 5   0  0.2315038E-04  0.1199395E+04  0.7818609E-02  0.9113386E-01
       -1   -1    0    0    0  501  0.00000000000E+00  0.00000000000E+00  0.17991119896E+03  0.17991119903E+03  0.50400001928E-02 0.  1.
        1   -1    0    0  501    0  0.00000000000E+00  0.00000000000E+00 -0.19989715582E+04  0.19989715582E+04  0.50400001928E-02 0. -1.
    10030    2    1    2    0    0  0.00000000000E+00  0.00000000000E+00 -0.18190603592E+04  0.21788827572E+04  0.11993954641E+04 0.  0.
        1    1    3    3  502    0 -0.11974872658E+03  0.52428550745E+03 -0.42744184700E+03  0.68696548926E+03  0.50400001928E-02 0.  1.
       -1    1    3    3    0  502  0.11974872658E+03 -0.52428550745E+03 -0.13916185122E+04  0.14919172680E+04  0.50400001928E-02 0. -1.
</event>
<event>
 5   0  0.3883890E-04  0.1200638E+04  0.7818609E-02  0.9112298E-01
        2   -1    0    0  501    0  0.00000000000E+00  0.00000000000E+00  0.10875905708E+04  0.10875905708E+04  0.25500000920E-02 0. -1.
       -2   -1    0    0    0  501  0.00000000000E+00  0.00000000000E+00 -0.33135907969E+03  0.33135907970E+03  0.25500000920E-02 0.  1.
    10030    2    1    2    0    0  0.00000000000E+00  0.00000000000E+00  0.75623149111E+03  0.14189496505E+04  0.12006381814E+04 0.  0.
        2    1    3    3  502    0 -0.43154082609E+03 -0.41614451285E+03  0.41509908866E+03  0.72918515726E+03  0.25500000920E-02 0.  1.
       -2    1    3    3    0  502  0.43154082609E+03  0.41614451285E+03  0.34113240245E+03  0.68976449326E+03  0.25500000920E-02 0. -1.
</event>
<event>
 5   0  0.2244308E-04  0.1199102E+04  0.7818609E-02  0.9113643E-01
       -1   -1    0    0    0  501  0.00000000000E+00  0.00000000000E+00  0.13747496920E+04  0.13747496920E+04  0.50400001928E-02 0. -1.
        1   -1    0    0  501    0  0.00000000000E+00  0.00000000000E+00 -0.26147403008E+03  0.26147403013E+03  0.50400001928E-02 0.  1.
    10030    2    1    2    0    0  0.00000000000E+00  0.00000000000E+00  0.11132756619E+04  0.16362237222E+04  0.11991019012E+04 0.  0.
        5    1    3    3  502    0  0.51525822243E+03  0.17184483925E+03  0.21030891390E+03  0.58247198544E+03  0.46999998093E+01 0. -1.
       -5    1    3    3    0  502 -0.51525822243E+03 -0.17184483925E+03  0.90296674805E+03  0.10537517367E+04  0.46999998093E+01 0.  1.
</event>
<event>
 5   0  0.1541375E-04  0.1198300E+04  0.7818609E-02  0.9114346E-01
       -3   -1    0    0    0  501  0.00000000000E+00  0.00000000000E+00  0.22560818262E+03  0.22560820523E+03  0.10100000352E+00 0. -1.
        3   -1    0    0  501    0  0.00000000000E+00  0.00000000000E+00 -0.15911687502E+04  0.15911687534E+04  0.10100000352E+00 0.  1.
    10030    2    1    2    0    0  0.00000000000E+00  0.00000000000E+00 -0.13655605676E+04  0.18167769587E+04  0.11982999849E+04 0.  0.
        1    1    3    3  502    0 -0.45808320687E+03 -0.31634176143E+03 -0.10186237587E+04  0.11608215609E+04  0.50400001928E-02 0.  1.
       -1    1    3    3    0  502  0.45808320687E+03  0.31634176143E+03 -0.34693680888E+03  0.65595539774E+03  0.50400001928E-02 0. -1.
</event>
<event>
 5   0  0.2315038E-04  0.1201287E+04  0.7818609E-02  0.9111731E-01
       -1   -1    0    0    0  501  0.00000000000E+00  0.00000000000E+00  0.44431259478E+03  0.44431259481E+03  0.50400001928E-02 0. -1.
        1   -1    0    0  501    0  0.00000000000E+00  0.00000000000E+00 -0.81197913436E+03  0.81197913438E+03  0.50400001928E-02 0.  1.
    10030    2    1    2    0    0  0.00000000000E+00  0.00000000000E+00 -0.36766653958E+03  0.12562917292E+04  0.12012869035E+04 0.  0.
        1    1    3    3  502    0 -0.31036519028E+03  0.23001322878E+03  0.29716102534E+03  0.48737799679E+03  0.50400001928E-02 0. -1.
       -1    1    3    3    0  502  0.31036519028E+03 -0.23001322878E+03 -0.66482756492E+03  0.76891373239E+03  0.50400001928E-02 0.  1.
</event>
<event>
 5   0  0.4122956E-04  0.1205131E+04  0.7818609E-02  0.9108377E-01
       -2   -1    0    0    0  501  0.00000000000E+00  0.00000000000E+00  0.52545614373E+03  0.52545614374E+03  0.25500000920E-02 0.  1.
        2   -1    0    0  501    0  0.00000000000E+00  0.00000000000E+00 -0.69099053186E+03  0.69099053186E+03  0.25500000920E-02 0. -1.
    10030    2    1    2    0    0  0.00000000000E+00  0.00000000000E+00 -0.16553438813E+03  0.12164466756E+04  0.12051310638E+04 0.  0.
        5    1    3    3  502    0 -0.54541878859E+03  0.14866470042E+03 -0.29324435231E+03  0.63686512564E+03  0.46999998093E+01 0. -1.
       -5    1    3    3    0  502  0.54541878859E+03 -0.14866470042E+03  0.12770996419E+03  0.57958154995E+03  0.46999998093E+01 0.  1.
</event>
<event>
 5   0  0.2244308E-04  0.1199500E+04  0.7818609E-02  0.9113294E-01
        1   -1    0    0  501    0  0.00000000000E+00  0.00000000000E+00  0.81089454608E+03  0.81089454610E+03  0.50400001928E-02 0.  1.
       -1   -1    0    0    0  501  0.00000000000E+00  0.00000000000E+00 -0.44358444008E+03  0.44358444011E+03  0.50400001928E-02 0. -1.
    10030    2    1    2    0    0  0.00000000000E+00  0.00000000000E+00  0.36731010600E+03  0.12544789862E+04  0.11995002346E+04 0.  0.
        5    1    3    3  502    0 -0.33659720244E+03 -0.19041638266E+02 -0.33508091879E+03  0.47535415514E+03  0.46999998093E+01 0. -1.
       -5    1    3    3    0  502  0.33659720244E+03  0.19041638266E+02  0.70239102479E+03  0.77912483106E+03  0.46999998093E+01 0.  1.
</event>
<event>
 5   0  0.3993723E-04  0.1199901E+04  0.7818609E-02  0.9112943E-01
       -2   -1    0    0    0  501  0.00000000000E+00  0.00000000000E+00  0.11981439500E+04  0.11981439500E+04  0.25500000920E-02 0.  1.
        2   -1    0    0  501    0  0.00000000000E+00  0.00000000000E+00 -0.30041519827E+03  0.30041519828E+03  0.25500000920E-02 0. -1.
    10030    2    1    2    0    0  0.00000000000E+00  0.00000000000E+00  0.89772875175E+03  0.14985591483E+04  0.11999010831E+04 0.  0.
        3    1    3    3  502    0  0.32300220637E+03 -0.23223249247E+03 -0.11200020535E+03  0.41328732388E+03  0.10100000352E+00 0. -1.
       -3    1    3    3    0  502 -0.32300220637E+03  0.23223249247E+03  0.10097289571E+04  0.10852718244E+04  0.10100000352E+00 0.  1.
</event>
<event>
 5   0  0.2315038E-04  0.1207630E+04  0.7818609E-02  0.9106204E-01
       -1   -1    0    0    0  501  0.00000000000E+00  0.00000000000E+00  0.61830242908E+03  0.61830242910E+03  0.50400001928E-02 0.  1.
        1   -1    0    0  501    0  0.00000000000E+00  0.00000000000E+00 -0.58966714243E+03  0.58966714245E+03  0.50400001928E-02 0. -1.
    10030    2    1    2    0    0  0.00000000000E+00  0.00000000000E+00  0.28635286645E+02  0.12079695716E+04  0.12076301198E+04 0.  0.
        1    1    3    3  502    0 -0.51026967559E+03  0.29134038744E+03 -0.12478352998E+03  0.60068735009E+03  0.50400001928E-02 0. -1.
       -1    1    3    3    0  502  0.51026967559E+03 -0.29134038744E+03  0.15341881663E+03  0.60728222146E+03  0.50400001928E-02 0.  1.
</event>
<event>
 5   0  0.2340731E-04  0.1199830E+04  0.7818609E-02  0.9113005E-01
        1   -1    0    0  501    0  0.00000000000E+00  0.00000000000E+00  0.30605246749E+03  0.30605246753E+03  0.50400001928E-02 0.  1.
       -1   -1    0    0    0  501  0.00000000000E+00  0.00000000000E+00 -0.11759353237E+04  0.11759353237E+04  0.50400001928E-02 0. -1.
    10030    2    1    2    0    0  0.00000000000E+00  0.00000000000E+00 -0.86988285616E+03  0.14819877912E+04  0.11998298337E+04 0.  0.
        3    1    3    3  502    0 -0.18054316467E+03 -0.28198365765E+03 -0.10497847685E+04  0.11018886913E+04  0.10100000352E+00 0. -1.
       -3    1    3    3    0  502  0.18054316467E+03  0.28198365765E+03  0.17990191237E+03  0.38009909993E+03  0.10100000352E+00 0.  1.
</event>
<event>
 5   0  0.3993723E-04  0.1198310E+04  0.7818609E-02  0.9114337E-01
        2   -1    0    0  501    0  0.00000000000E+00  0.00000000000E+00  0.63572691904E+03  0.63572691904E+03  0.25500000920E-02 0. -1.
       -2   -1    0    0    0  501  0.00000000000E+00  0.00000000000E+00 -0.56468666392E+03  0.56468666393E+03  0.25500000920E-02 0.  1.
    10030    2    1    2    0    0  0.00000000000E+00  0.00000000000E+00  0.71040255114E+02  0.12004135830E+04  0.11983096646E+04 0.  0.
        3    1    3    3  502    0 -0.43332858110E+03 -0.95022455407E+02  0.43894742024E+03  0.62408154449E+03  0.10100000352E+00 0. -1.
       -3    1    3    3    0  502  0.43332858110E+03  0.95022455407E+02 -0.36790716513E+03  0.57633203848E+03  0.10100000352E+00 0.  1.
</event>
<event>
 5   0  0.4122956E-04  0.1203209E+04  0.7818609E-02  0.9110053E-01
       -2   -1    0    0    0  501  0.00000000000E+00  0.00000000000E+00  0.21997982140E+03  0.21997982142E+03  0.25500000920E-02 0.  1.
        2   -1    0    0  501    0  0.00000000000E+00  0.00000000000E+00 -0.16452767127E+04  0.16452767127E+04  0.25500000920E-02 0. -1.
    10030    2    1    2    0    0  0.00000000000E+00  0.00000000000E+00 -0.14252968913E+04  0.18652565341E+04  0.12032085063E+04 0.  0.
        5    1    3    3  502    0 -0.17453740105E+03  0.44993159075E+03 -0.12694481637E+04  0.13580951628E+04  0.46999998093E+01 0. -1.
       -5    1    3    3    0  502  0.17453740105E+03 -0.44993159075E+03 -0.15584872758E+03  0.50716137137E+03  0.46999998093E+01 0.  1.
</event>
<event>
 5   0  0.4122956E-04  0.1200767E+04  0.7818609E-02  0.9112186E-01
       -2   -1    0    0    0  501  0.00000000000E+00  0.00000000000E+00  0.39142303859E+03  0.39142303860E+03  0.25500000920E-02 0. -1.
        2   -1    0    0  501    0  0.00000000000E+00  0.00000000000E+00 -0.92089659823E+03  0.92089659823E+03  0.25500000920E-02 0.  1.
    10030    2    1    2    0    0  0.00000000000E+00  0.00000000000E+00 -0.52947355964E+03  0.13123196368E+04  0.12007666629E+04 0.  0.
        5    1    3    3  502    0 -0.89578017293E+02 -0.33274654921E+03 -0.80203271065E+03  0.87293931412E+03  0.46999998093E+01 0.  1.
       -5    1    3    3    0  502  0.89578017293E+02  0.33274654921E+03  0.27255915100E+03  0.43938032271E+03  0.46999998093E+01 0. -1.
</event>
<event>
 5   0  0.2304842E-04  0.1200926E+04  0.7818609E-02  0.9112046E-01
        1   -1    0    0  501    0  0.00000000000E+00  0.00000000000E+00  0.11301118233E+04  0.11301118233E+04  0.50400001928E-02 0. -1.
       -1   -1    0    0    0  501  0.00000000000E+00  0.00000000000E+00 -0.31904451063E+03  0.31904451067E+03  0.50400001928E-02 0.  1.
    10030    2    1    2    0    0  0.00000000000E+00  0.00000000000E+00  0.81106731267E+03  0.14491563340E+04  0.12009262653E+04 0.  0.
        4    1    3    3  502    0 -0.22883794721E+03  0.16409932905E+03 -0.23442524348E+03  0.36640442622E+03  0.12699999809E+01 0.  1.
       -4    1    3    3    0  502  0.22883794721E+03 -0.16409932905E+03  0.10454925561E+04  0.10827519077E+04  0.12699999809E+01 0. -1.
</event>
<event>
 5   0  0.2244308E-04  0.1199190E+04  0.7818609E-02  0.9113566E-01
        1   -1    0    0  501    0  0.00000000000E+00  0.00000000000E+00  0.12358584958E+04  0.12358584958E+04  0.50400001928E-02 0. -1.
       -1   -1    0    0    0  501  0.00000000000E+00  0.00000000000E+00 -0.29090233781E+03  0.29090233786E+03  0.50400001928E-02 0.  1.
    10030    2    1    2    0    0  0.00000000000E+00  0.00000000000E+00  0.94495615798E+03  0.15267608337E+04  0.11991899360E+04 0.  0.
        5    1    3    3  502    0  0.99867132469E+02 -0.58971465845E+03  0.52581745933E+03  0.79639369226E+03  0.46999998093E+01 0. -1.
       -5    1    3    3    0  502 -0.99867132469E+02  0.58971465845E+03  0.41913869865E+03  0.73036714140E+03  0.46999998093E+01 0.  1.
</event>
<event>
 5   0  0.2204090E-04  0.1198519E+04  0.7818609E-02  0.9114154E-01
        1   -1    0    0  501    0  0.00000000000E+00  0.00000000000E+00  0.72746310769E+03  0.72746310771E+03  0.50400001928E-02 0. -1.
       -1   -1    0    0    0  501  0.00000000000E+00  0.00000000000E+00 -0.49364994989E+03  0.49364994991E+03  0.50400001928E-02 0.  1.
    10030    2    1    2    0    0  0.00000000000E+00  0.00000000000E+00  0.23381315780E+03  0.12211130576E+04  0.11985192976E+04 0.  0.
        2    1    3    3  502    0 -0.23042077422E+03  0.24335876611E+03  0.62305622611E+03  0.70747175431E+03  0.25500000920E-02 0. -1.
       -2    1    3    3    0  502  0.23042077422E+03 -0.24335876611E+03 -0.38924306831E+03  0.51364130331E+03  0.25500000920E-02 0.  1.
</event>
<event>
 5   0  0.2315038E-04  0.1208648E+04  0.7818609E-02  0.9105320E-01
       -1   -1    0    0    0  501  0.00000000000E+00  0.00000000000E+00  0.36568796665E+03  0.36568796668E+03  0.50400001928E-02 0. -1.
        1   -1    0    0  501    0  0.00000000000E+00  0.00000000000E+00 -0.99868633415E+03  0.99868633416E+03  0.50400001928E-02 0.  1.
    10030    2    1    2    0    0  0.00000000000E+00  0.00000000000E+00 -0.63299836751E+03  0.13643743008E+04  0.12086481289E+04 0.  0.
        1    1    3    3  502    0 -0.20270565265E+03 -0.11481543667E+03  0.31296168557E+03  0.39015020540E+03  0.50400001928E-02 0. -1.
       -1    1    3    3    0  502  0.20270565265E+03  0.11481543667E+03 -0.94596005307E+03  0.97422409545E+03  0.50400001928E-02 0.  1.
</event>
<event>
 5   0  0.1541375E-04  0.1198819E+04  0.7818609E-02  0.9113891E-01
       -3   -1    0    0    0  501  0.00000000000E+00  0.00000000000E+00  0.12693998403E+04  0.12693998443E+04  0.10100000352E+00 0.  1.
        3   -1    0    0  501    0  0.00000000000E+00  0.00000000000E+00 -0.28304078811E+03  0.28304080613E+03  0.10100000352E+00 0. -1.
    10030    2    1    2    0    0  0.00000000000E+00  0.00000000000E+00  0.98635905216E+03  0.15524406504E+04  0.11988193331E+04 0.  0.
        3    1    3    3  502    0  0.11282011786E+03 -0.36743731685E+02 -0.26768112876E+03  0.29279972286E+03  0.10100000352E+00 0. -1.
       -3    1    3    3    0  502 -0.11282011786E+03  0.36743731685E+02  0.12540401809E+04  0.12596409276E+04  0.10100000352E+00 0.  1.
</event>
<event>
 5   0  0.2304842E-04  0.1200194E+04  0.7818609E-02  0.9112687E-01
       -1   -1    0    0    0  501  0.00000000000E+00  0.00000000000E+00  0.10988270261E+04  0.10988270261E+04  0.50400001928E-02 0. -1.
        1   -1    0    0  501    0  0.00000000000E+00  0.00000000000E+00 -0.32772800493E+03  0.32772800497E+03  0.50400001928E-02 0.  1.
    10030    2    1    2    0    0  0.00000000000E+00  0.00000000000E+00  0.77109902112E+03  0.14265550310E+04  0.12001939661E+04 0.  0.
        4    1    3    3  502    0 -0.32471452294E+03  0.17789533225E+03 -0.17577922837E+03  0.40986122123E+03  0.12699999809E+01 0.  1.
       -4    1    3    3    0  502  0.32471452294E+03 -0.17789533225E+03  0.94687824949E+03  0.10166938098E+04  0.12699999809E+01 0. -1.
</event>
<event>
 5   0  0.3993723E-04  0.1199496E+04  0.7818609E-02  0.9113297E-01
        2   -1    0    0  501    0  0.00000000000E+00  0.00000000000E+00  0.12845891400E+04  0.12845891400E+04  0.25500000920E-02 0. -1.
       -2   -1    0    0    0  501  0.00000000000E+00  0.00000000000E+00 -0.28001006185E+03  0.28001006186E+03  0.25500000920E-02 0.  1.
    10030    2    1    2    0    0  0.00000000000E+00  0.00000000000E+00  0.10045790781E+04  0.15645992018E+04  0.11994963686E+04 0.  0.
        3    1    3    3  502    0  0.38439796340E+02 -0.44726733799E+03 -0.16473736223E+02  0.44921830301E+03  0.10100000352E+00 0.  1.
       -3    1    3    3    0  502 -0.38439796340E+02  0.44726733799E+03  0.10210528143E+04  0.11153808988E+04  0.10100000352E+00 0. -1.
</event>
<event>
 5   0  0.4122956E-04  0.1197959E+04  0.7818609E-02  0.9114645E-01
        2   -1    0    0  501    0  0.00000000000E+00  0.00000000000E+00  0.73276909580E+03  0.73276909581E+03  0.25500000920E-02 0.  1.
       -2   -1    0    0    0  501  0.00000000000E+00  0.00000000000E+00 -0.48961745234E+03  0.48961745235E+03  0.25500000920E-02 0. -1.
    10030    2    1    2    0    0  0.00000000000E+00  0.00000000000E+00  0.24315164346E+03  0.12223865482E+04  0.11979591610E+04 0.  0.
        5    1    3    3  502    0  0.29157240201E+03  0.30175225814E+03  0.55770852749E+03  0.69794683361E+03  0.46999998093E+01 0.  1.
       -5    1    3    3    0  502 -0.29157240201E+03 -0.30175225814E+03 -0.31455688403E+03  0.52443971455E+03  0.46999998093E+01 0. -1.
</event>
<event>
 5   0  0.4122956E-04  0.1192659E+04  0.7818609E-02  0.9119306E-01
        2   -1    0    0  501    0  0.00000000000E+00  0.00000000000E+00  0.11198365687E+04  0.11198365687E+04  0.25500000920E-02 0. -1.
       -2   -1    0    0    0  501  0.00000000000E+00  0.00000000000E+00 -0.31755428024E+03  0.31755428025E+03  0.25500000920E-02 0.  1.
    10030    2    1    2    0    0  0.00000000000E+00  0.00000000000E+00  0.80228228845E+03  0.14373908489E+04  0.11926590386E+04 0.  0.
        5    1    3    3  502    0  0.20297606177E+03  0.35376759376E+03 -0.12313544704E+03  0.42606950180E+03  0.46999998093E+01 0.  1.
       -5    1    3    3    0  502 -0.20297606177E+03 -0.35376759376E+03  0.92541773549E+03  0.10113213472E+04  0.46999998093E+01 0. -1.
</event>
<event>
 5   0  0.2315038E-04  0.1198506E+04  0.7818609E-02  0.9114165E-01
       -1   -1    0    0    0  501  0.00000000000E+00  0.00000000000E+00  0.47758793421E+03  0.47758793424E+03  0.50400001928E-02 0.  1.
        1   -1    0    0  501    0  0.00000000000E+00  0.00000000000E+00 -0.75191202397E+03  0.75191202399E+03  0.50400001928E-02 0. -1.
    10030    2    1    2    0    0  0.00000000000E+00  0.00000000000E+00 -0.27432408976E+03  0.12294999582E+04  0.11985059203E+04 0.  0.
        1    1    3    3  502    0 -0.17110958224E+03 -0.30062607578E+03 -0.63915240551E+03  0.72675327592E+03  0.50400001928E-02 0. -1.
       -1    1    3    3    0  502  0.17110958224E+03  0.30062607578E+03  0.36482831574E+03  0.50274668230E+03  0.50400001928E-02 0.  1.
</event>
<event>
 5   0  0.4024486E-04  0.1200929E+04  0.7818609E-02  0.9112044E-01
       -2   -1    0    0    0  501  0.00000000000E+00  0.00000000000E+00  0.93558806971E+03  0.93558806971E+03  0.25500000920E-02 0.  1.
        2   -1    0    0  501    0  0.00000000000E+00  0.00000000000E+00 -0.38538065583E+03  0.38538065584E+03  0.25500000920E-02 0. -1.
    10030    2    1    2    0    0  0.00000000000E+00  0.00000000000E+00  0.55020741387E+03  0.13209687256E+04  0.12009288803E+04 0.  0.
        1    1    3    3  502    0 -0.54298625551E+03  0.21229534084E+03  0.11702295285E+03  0.59464086383E+03  0.50400001928E-02 0.  1.
       -1    1    3    3    0  502  0.54298625551E+03 -0.21229534084E+03  0.43318446102E+03  0.72632786172E+03  0.50400001928E-02 0. -1.
</event>
<event>
 5   0  0.4024486E-04  0.1198259E+04  0.7818609E-02  0.9114382E-01
       -2   -1    0    0    0  501  0.00000000000E+00  0.00000000000E+00  0.12941610806E+03  0.12941610809E+03  0.25500000920E-02 0.  1.
        2   -1    0    0  501    0  0.00000000000E+00  0.00000000000E+00 -0.27736576632E+04  0.27736576632E+04  0.25500000920E-02 0. -1.
    10030    2    1    2    0    0  0.00000000000E+00  0.00000000000E+00 -0.26442415552E+04  0.29030737713E+04  0.11982587031E+04 0.  0.
        1    1    3    3  502    0  0.33613114543E+03 -0.12114245347E+03 -0.24872976596E+04  0.25128289413E+04  0.50400001928E-02 0. -1.
       -1    1    3    3    0  502 -0.33613114543E+03  0.12114245347E+03 -0.15694389561E+03  0.39024483002E+03  0.50400001928E-02 0.  1.
</event>
<event>
 5   0  0.2315038E-04  0.1211248E+04  0.7818609E-02  0.9103068E-01
        1   -1    0    0  501    0  0.00000000000E+00  0.00000000000E+00  0.12529482992E+04  0.12529482992E+04  0.50400001928E-02 0. -1.
       -1   -1    0    0    0  501  0.00000000000E+00  0.00000000000E+00 -0.29273379522E+03  0.29273379526E+03  0.50400001928E-02 0.  1.
    10030    2    1    2    0    0  0.00000000000E+00  0.00000000000E+00  0.96021450400E+03  0.15456820945E+04  0.12112478043E+04 0.  0.
        1    1    3    3  502    0 -0.18126300574E+03  0.37019478790E+03  0.10463306491E+04  0.11245924975E+04  0.50400001928E-02 0. -1.
       -1    1    3    3    0  502  0.18126300574E+03 -0.37019478790E+03 -0.86116145060E+02  0.42108959700E+03  0.50400001928E-02 0.  1.
</event>
<event>
 5   0  0.3832662E-04  0.1195290E+04  0.7818609E-02  0.9116989E-01
        2   -1    0    0  501    0  0.00000000000E+00  0.00000000000E+00  0.92833940663E+03  0.92833940663E+03  0.25500000920E-02 0.  1.
       -2   -1    0    0    0  501  0.00000000000E+00  0.00000000000E+00 -0.38475103167E+03  0.38475103168E+03  0.25500000920E-02 0. -1.
    10030    2    1    2    0    0  0.00000000000E+00  0.00000000000E+00  0.54358837495E+03  0.13130904383E+04  0.11952899974E+04 0.  0.
        4    1    3    3  502    0  0.38728393138E+02  0.59609455064E+03  0.25126181298E+03  0.64804530189E+03  0.12699999809E+01 0.  1.
       -4    1    3    3    0  502 -0.38728393138E+02 -0.59609455064E+03  0.29232656197E+03  0.66504513642E+03  0.12699999809E+01 0. -1.
</event>
<event>
 5   0  0.2204090E-04  0.1200249E+04  0.7818609E-02  0.9112639E-01
       -1   -1    0    0    0  501  0.00000000000E+00  0.00000000000E+00  0.15333548946E+03  0.15333548955E+03  0.50400001928E-02 0.  1.
        1   -1    0    0  501    0  0.00000000000E+00  0.00000000000E+00 -0.23487673583E+04  0.23487673583E+04  0.50400001928E-02 0. -1.
    10030    2    1    2    0    0  0.00000000000E+00  0.00000000000E+00 -0.21954318688E+04  0.25021028478E+04  0.12002489619E+04 0.  0.
        2    1    3    3  502    0  0.39227946650E+03  0.86464774819E+02 -0.16825498986E+03  0.43551013621E+03  0.25500000920E-02 0.  1.
       -2    1    3    3    0  502 -0.39227946650E+03 -0.86464774819E+02 -0.20271768789E+04  0.20665927116E+04  0.25500000920E-02 0. -1.
</event>
<event>
 5   0  0.3883890E-04  0.1199651E+04  0.7818609E-02  0.9113162E-01
       -2   -1    0    0    0  501  0.00000000000E+00  0.00000000000E+00  0.40393357055E+03  0.40393357056E+03  0.25500000920E-02 0. -1.
        2   -1    0    0  501    0  0.00000000000E+00  0.00000000000E+00 -0.89071790628E+03  0.89071790629E+03  0.25500000920E-02 0.  1.
    10030    2    1    2    0    0  0.00000000000E+00  0.00000000000E+00 -0.48678433574E+03  0.12946514768E+04  0.11996513898E+04 0.  0.
        2    1    3    3  502    0  0.86048794003E+02  0.47035197594E+03  0.14744066765E+03  0.50037398683E+03  0.25500000920E-02 0. -1.
       -2    1    3    3    0  502 -0.86048794003E+02 -0.47035197594E+03 -0.63422500338E+03  0.79427749001E+03  0.25500000920E-02 0.  1.
</event>
<event>
 5   0  0.2315038E-04  0.1199221E+04  0.7818609E-02  0.9113539E-01
        1   -1    0    0  501    0  0.00000000000E+00  0.00000000000E+00  0.81635424158E+03  0.81635424160E+03  0.50400001928E-02 0.  1.
       -1   -1    0    0    0  501  0.00000000000E+00  0.00000000000E+00 -0.44041235181E+03  0.44041235184E+03  0.50400001928E-02 0. -1.
    10030    2    1    2    0    0  0.00000000000E+00  0.00000000000E+00  0.37594188977E+03  0.12567665934E+04  0.11992205660E+04 0.  0.
        1    1    3    3  502    0 -0.32783805225E+02 -0.59701002464E+03  0.23526687682E+03  0.64253112824E+03  0.50400001928E-02 0. -1.
       -1    1    3    3    0  502  0.32783805225E+02  0.59701002464E+03  0.14067501295E+03  0.61423546520E+03  0.50400001928E-02 0.  1.
</event>
<event>
 5   0  0.3883890E-04  0.1200275E+04  0.7818609E-02  0.9112616E-01
       -2   -1    0    0    0  501  0.00000000000E+00  0.00000000000E+00  0.56534972240E+03  0.56534972241E+03  0.25500000920E-02 0.  1.
        2   -1    0    0  501    0  0.00000000000E+00  0.00000000000E+00 -0.63706569841E+03  0.63706569842E+03  0.25500000920E-02 0. -1.
    10030    2    1    2    0    0  0.00000000000E+00  0.00000000000E+00 -0.71715976009E+02  0.12024154208E+04  0.12002748281E+04 0.  0.
        2    1    3    3  502    0  0.22237688061E+03  0.32853127685E+03 -0.48697279537E+03  0.62811366832E+03  0.25500000920E-02 0. -1.
       -2    1    3    3    0  502 -0.22237688061E+03 -0.32853127685E+03  0.41525681936E+03  0.57430175250E+03  0.25500000920E-02 0.  1.
</event>
<event>
 5   0  0.4122956E-04  0.1197703E+04  0.7818609E-02  0.9114869E-01
       -2   -1    0    0    0  501  0.00000000000E+00  0.00000000000E+00  0.12736905399E+04  0.12736905399E+04  0.25500000920E-02 0.  1.
        2   -1    0    0  501    0  0.00000000000E+00  0.00000000000E+00 -0.28156239010E+03  0.28156239011E+03  0.25500000920E-02 0. -1.
    10030    2    1    2    0    0  0.00000000000E+00  0.00000000000E+00  0.99212814982E+03  0.15552529300E+04  0.11977033901E+04 0.  0.
        5    1    3    3  502    0  0.13620256374E+03  0.16190072717E+03 -0.23138853451E+03  0.31356933480E+03  0.46999998093E+01 0. -1.
       -5    1    3    3    0  502 -0.13620256374E+03 -0.16190072717E+03  0.12235166843E+04  0.12416835952E+04  0.46999998093E+01 0.  1.
</event>
<event>
 5   0  0.4122956E-04  0.1213647E+04  0.7818609E-02  0.9100994E-01
       -2   -1    0    0    0  501  0.00000000000E+00  0.00000000000E+00  0.27571245077E+03  0.27571245079E+03  0.25500000920E-02 0. -1.
        2   -1    0    0  501    0  0.00000000000E+00  0.00000000000E+00 -0.13355754365E+04  0.13355754365E+04  0.25500000920E-02 0.  1.
    10030    2    1    2    0    0  0.00000000000E+00  0.00000000000E+00 -0.10598629857E+04  0.16112878873E+04  0.12136470274E+04 0.  0.
        5    1    3    3  502    0 -0.27793544969E+03  0.53588941844E+03 -0.44822917997E+03  0.75190230135E+03  0.46999998093E+01 0. -1.
       -5    1    3    3    0  502  0.27793544969E+03 -0.53588941844E+03 -0.61163380578E+03  0.85938558596E+03  0.46999998093E+01 0.  1.
</event>
<event>
 5   0  0.4122956E-04  0.1191803E+04  0.7818609E-02  0.9120062E-01
       -2   -1    0    0    0  501  0.00000000000E+00  0.00000000000E+00  0.60471833295E+03  0.60471833295E+03  0.25500000920E-02 0. -1.
        2   -1    0    0  501    0  0.00000000000E+00  0.00000000000E+00 -0.58721324565E+03  0.58721324565E+03  0.25500000920E-02 0.  1.
    10030    2    1    2    0    0  0.00000000000E+00  0.00000000000E+00  0.17505087299E+02  0.11919315786E+04  0.11918030290E+04 0.  0.
        5    1    3    3  502    0 -0.15436244782E+02  0.26967271333E+03 -0.52244961838E+03  0.58816438494E+03  0.46999998093E+01 0.  1.
       -5    1    3    3    0  502  0.15436244782E+02 -0.26967271333E+03  0.53995470568E+03  0.60376719367E+03  0.46999998093E+01 0. -1.
</event>
<event>
 5   0  0.2315038E-04  0.1200490E+04  0.7818609E-02  0.9112428E-01
        1   -1    0    0  501    0  0.00000000000E+00  0.00000000000E+00  0.93688259887E+03  0.93688259888E+03  0.50400001928E-02 0.  1.
       -1   -1    0    0    0  501  0.00000000000E+00  0.00000000000E+00 -0.38456709552E+03  0.38456709556E+03  0.50400001928E-02 0. -1.
    10030    2    1    2    0    0  0.00000000000E+00  0.00000000000E+00  0.55231550334E+03  0.13214496944E+04  0.12004902664E+04 0.  0.
        1    1    3    3  502    0 -0.11751541657E+03 -0.57982799955E+03  0.38778484052E+03  0.70738070709E+03  0.50400001928E-02 0.  1.
       -1    1    3    3    0  502  0.11751541657E+03  0.57982799955E+03  0.16453066282E+03  0.61406898735E+03  0.50400001928E-02 0. -1.
</event>
<event>
 5   0  0.2315038E-04  0.1199697E+04  0.7818609E-02  0.9113122E-01
        1   -1    0    0  501    0  0.00000000000E+00  0.00000000000E+00  0.51442653772E+03  0.51442653774E+03  0.50400001928E-02 0.  1.
       -1   -1    0    0    0  501  0.00000000000E+00  0.00000000000E+00 -0.69945515912E+03  0.69945515913E+03  0.50400001928E-02 0. -1.
    10030    2    1    2    0    0  0.00000000000E+00  0.00000000000E+00 -0.18502862140E+03  0.12138816969E+04  0.11996971215E+04 0.  0.
        1    1    3    3  502    0  0.23047583539E+03 -0.34101340020E+02  0.46677451475E+03  0.52169000348E+03  0.50400001928E-02 0.  1.
       -1    1    3    3    0  502 -0.23047583539E+03  0.34101340020E+02 -0.65180313614E+03  0.69219169339E+03  0.50400001928E-02 0. -1.
</event>
<event>
 5   0  0.2340731E-04  0.1197644E+04  0.7818609E-02  0.9114921E-01
       -1   -1    0    0    0  501  0.00000000000E+00  0.00000000000E+00  0.55378368687E+03  0.55378368689E+03  0.50400001928E-02 0. -1.
        1   -1    0    0  501    0  0.00000000000E+00  0.00000000000E+00 -0.64752347552E+03  0.64752347553E+03  0.50400001928E-02 0.  1.
    10030    2    1    2    0    0  0.00000000000E+00  0.00000000000E+00 -0.93739788646E+02  0.12013071624E+04  0.11976442504E+04 0.  0.
        3    1    3    3  502    0 -0.14024456917E+03  0.29616516647E+03  0.45586713630E+03  0.56142426130E+03  0.10100000352E+00 0. -1.
       -3    1    3    3    0  502  0.14024456917E+03 -0.29616516647E+03 -0.54960692494E+03  0.63988290113E+03  0.10100000352E+00 0.  1.
</event>
<event>
 5   0  0.4024486E-04  0.1188938E+04  0.7818609E-02  0.9122594E-01
       -2   -1    0    0    0  501  0.00000000000E+00  0.00000000000E+00  0.86067890699E+03  0.86067890699E+03  0.25500000920E-02 0.  1.
        2   -1    0    0  501    0  0.00000000000E+00  0.00000000000E+00 -0.41059847019E+03  0.41059847020E+03  0.25500000920E-02 0. -1.
    10030    2    1    2    0    0  0.00000000000E+00  0.00000000000E+00  0.45008043680E+03  0.12712773772E+04  0.11889380851E+04 0.  0.
        1    1    3    3  502    0  0.13837434323E+03 -0.93433942465E+02  0.83509284945E+03  0.85162047163E+03  0.50400001928E-02 0.  1.
       -1    1    3    3    0  502 -0.13837434323E+03  0.93433942465E+02 -0.38501241265E+03  0.41965690556E+03  0.50400001928E-02 0. -1.
</event>
<event>
 5   0  0.2244308E-04  0.1198829E+04  0.7818609E-02  0.9113882E-01
       -1   -1    0    0    0  501  0.00000000000E+00  0.00000000000E+00  0.25711240266E+03  0.25711240271E+03  0.50400001928E-02 0. -1.
        1   -1    0    0  501    0  0.00000000000E+00  0.00000000000E+00 -0.13974345403E+04  0.13974345403E+04  0.50400001928E-02 0.  1.
    10030    2    1    2    0    0  0.00000000000E+00  0.00000000000E+00 -0.11403221376E+04  0.16545469430E+04  0.11988290158E+04 0.  0.
        5    1    3    3  502    0  0.36210062191E+03 -0.44375624172E+03 -0.32622737166E+03  0.65915313128E+03  0.46999998093E+01 0. -1.
       -5    1    3    3    0  502 -0.36210062191E+03  0.44375624172E+03 -0.81409476598E+03  0.99539381174E+03  0.46999998093E+01 0.  1.
</event>
<event>
 5   0  0.4024486E-04  0.1199673E+04  0.7818609E-02  0.9113143E-01
       -2   -1    0    0    0  501  0.00000000000E+00  0.00000000000E+00  0.60730806756E+03  0.60730806756E+03  0.25500000920E-02 0. -1.
        2   -1    0    0  501    0  0.00000000000E+00  0.00000000000E+00 -0.59245685751E+03  0.59245685752E+03  0.25500000920E-02 0.  1.
    10030    2    1    2    0    0  0.00000000000E+00  0.00000000000E+00  0.14851210043E+02  0.11997649251E+04  0.11996730042E+04 0.  0.
        1    1    3    3  502    0  0.90197146646E+02  0.19257536104E+03 -0.55349439271E+03  0.59293915179E+03  0.50400001928E-02 0.  1.
       -1    1    3    3    0  502 -0.90197146646E+02 -0.19257536104E+03  0.56834560275E+03  0.60682577329E+03  0.50400001928E-02 0. -1.
</event>
<event>
 5   0  0.3993723E-04  0.1200630E+04  0.7818609E-02  0.9112305E-01
       -2   -1    0    0    0  501  0.00000000000E+00  0.00000000000E+00  0.42082174412E+03  0.42082174412E+03  0.25500000920E-02 0.  1.
        2   -1    0    0  501    0  0.00000000000E+00  0.00000000000E+00 -0.85636757798E+03  0.85636757799E+03  0.25500000920E-02 0. -1.
    10030    2    1    2    0    0  0.00000000000E+00  0.00000000000E+00 -0.43554583387E+03  0.12771893221E+04  0.12006299976E+04 0.  0.
        3    1    3    3  502    0  0.46618895246E+03 -0.30020012235E+03 -0.46249882416E+03  0.72205084683E+03  0.10100000352E+00 0. -1.
       -3    1    3    3    0  502 -0.46618895246E+03  0.30020012235E+03  0.26952990295E+02  0.55513847528E+03  0.10100000352E+00 0.  1.
</event>
<event>
 5   0  0.3883890E-04  0.1194777E+04  0.7818609E-02  0.9117441E-01
        2   -1    0    0  501    0  0.00000000000E+00  0.00000000000E+00  0.15467310529E+04  0.15467310529E+04  0.25500000920E-02 0.  1.
       -2   -1    0    0    0  501  0.00000000000E+00  0.00000000000E+00 -0.23072720248E+03  0.23072720249E+03  0.25500000920E-02 0. -1.
    10030    2    1    2    0    0  0.00000000000E+00  0.00000000000E+00  0.13160038505E+04  0.17774582554E+04  0.11947768475E+04 0.  0.
        2    1    3    3  502    0  0.27028668298E+03  0.42526104390E+03  0.18061529645E+03  0.53527911576E+03  0.25500000920E-02 0. -1.
       -2    1    3    3    0  502 -0.27028668298E+03 -0.42526104390E+03  0.11353885540E+04  0.12421791397E+04  0.25500000920E-02 0.  1.
</event>
<event>
 5   0  0.2204090E-04  0.1200969E+04  0.7818609E-02  0.9112008E-01
        1   -1    0    0  501    0  0.00000000000E+00  0.00000000000E+00  0.18967488344E+04  0.18967488344E+04  0.50400001928E-02 0.  1.
       -1   -1    0    0    0  501  0.00000000000E+00  0.00000000000E+00 -0.19010523264E+03  0.19010523271E+03  0.50400001928E-02 0. -1.
    10030    2    1    2    0    0  0.00000000000E+00  0.00000000000E+00  0.17066436018E+04  0.20868540671E+04  0.12009694060E+04 0.  0.
        2    1    3    3  502    0  0.34879148461E+03  0.46576734750E+03  0.59566318323E+03  0.83271204482E+03  0.25500000920E-02 0. -1.
       -2    1    3    3    0  502 -0.34879148461E+03 -0.46576734750E+03  0.11109804186E+04  0.12541420223E+04  0.25500000920E-02 0.  1.
</event>
<event>
 5   0  0.4122956E-04  0.1199129E+04  0.7818609E-02  0.9113619E-01
       -2   -1    0    0    0  501  0.00000000000E+00  0.00000000000E+00  0.27258621030E+03  0.27258621031E+03  0.25500000920E-02 0. -1.
        2   -1    0    0  501    0  0.00000000000E+00  0.00000000000E+00 -0.13187675727E+04  0.13187675727E+04  0.25500000920E-02 0.  1.
    10030    2    1    2    0    0  0.00000000000E+00  0.00000000000E+00 -0.10461813624E+04  0.15913537830E+04  0.11991294424E+04 0.  0.
        5    1    3    3  502    0 -0.52686104554E+02  0.28034054140E+02  0.26861001458E+03  0.27520022481E+03  0.46999998093E+01 0. -1.
       -5    1    3    3    0  502  0.52686104554E+02 -0.28034054140E+02 -0.13147913770E+04  0.13161535582E+04  0.46999998093E+01 0.  1.
</event>
<event>
 5   0  0.2244308E-04  0.1200866E+04  0.7818609E-02  0.9112099E-01
       -1   -1    0    0    0  501  0.00000000000E+00  0.00000000000E+00  0.13233560731E+04  0.13233560731E+04  0.50400001928E-02 0.  1.
        1   -1    0    0  501    0  0.00000000000E+00  0.00000000000E+00 -0.27242854396E+03  0.27242854401E+03  0.50400001928E-02 0. -1.
    10030    2    1    2    0    0  0.00000000000E+00  0.00000000000E+00  0.10509275291E+04  0.15957846171E+04  0.12008663009E+04 0.  0.
        5    1    3    3  502    0  0.40802717951E+03 -0.26357508163E+03  0.56505893135E+02  0.48905317588E+03  0.46999998093E+01 0. -1.
       -5    1    3    3    0  502 -0.40802717951E+03  0.26357508163E+03  0.99442163599E+03  0.11067314412E+04  0.46999998093E+01 0.  1.
</event>
<event>
 5   0  0.4122956E-04  0.1198339E+04  0.7818609E-02  0.9114311E-01
        2   -1    0    0  501    0  0.00000000000E+00  0.00000000000E+00  0.14141950524E+04  0.14141950524E+04  0.25500000920E-02 0. -1.
       -2   -1    0    0    0  501  0.00000000000E+00  0.00000000000E+00 -0.25385773018E+03  0.25385773019E+03  0.25500000920E-02 0.  1.
    10030    2    1    2    0    0  0.00000000000E+00  0.00000000000E+00  0.11603373223E+04  0.16680527826E+04  0.11983394278E+04 0.  0.
        5    1    3    3  502    0  0.18786736344E+02  0.55376065762E+03  0.89752092231E+03  0.10547841975E+04  0.46999998093E+01 0. -1.
       -5    1    3    3    0  502 -0.18786736344E+02 -0.55376065762E+03  0.26281639996E+03  0.61326858510E+03  0.46999998093E+01 0.  1.
</event>
<event>
 5   0  0.4024486E-04  0.1201178E+04  0.7818609E-02  0.9111826E-01
        2   -1    0    0  501    0  0.00000000000E+00  0.00000000000E+00  0.90776887994E+03  0.90776887994E+03  0.25500000920E-02 0.  1.
       -2   -1    0    0    0  501  0.00000000000E+00  0.00000000000E+00 -0.39735565645E+03  0.39735565646E+03  0.25500000920E-02 0. -1.
    10030    2    1    2    0    0  0.00000000000E+00  0.00000000000E+00  0.51041322349E+03  0.13051245364E+04  0.12011779205E+04 0.  0.
        1    1    3    3  502    0 -0.81463846629E+02  0.40097184232E+03  0.73290295424E+03  0.83938162775E+03  0.50400001928E-02 0.  1.
       -1    1    3    3    0  502  0.81463846629E+02 -0.40097184232E+03 -0.22248973076E+03  0.46574290865E+03  0.50400001928E-02 0. -1.
</event>
<event>
 5   0  0.3832662E-04  0.1200100E+04  0.7818609E-02  0.9112769E-01
       -2   -1    0    0    0  501  0.00000000000E+00  0.00000000000E+00  0.13923362439E+04  0.13923362439E+04  0.25500000920E-02 0. -1.
        2   -1    0    0  501    0  0.00000000000E+00  0.00000000000E+00 -0.25860149231E+03  0.25860149232E+03  0.25500000920E-02 0.  1.
    10030    2    1    2    0    0  0.00000000000E+00  0.00000000000E+00  0.11337347516E+04  0.16509377362E+04  0.12001003799E+04 0.  0.
        4    1    3    3  502    0 -0.52167225854E+03 -0.44826171864E+02  0.97007443053E+03  0.11023598980E+04  0.12699999809E+01 0.  1.
       -4    1    3    3    0  502  0.52167225854E+03  0.44826171864E+02  0.16366032106E+03  0.54857783823E+03  0.12699999809E+01 0. -1.
</event>
<event>
 5   0  0.2204090E-04  0.1196540E+04  0.7818609E-02  0.9115890E-01
        1   -1    0    0  501    0  0.00000000000E+00  0.00000000000E+00  0.12899601767E+04  0.12899601767E+04  0.50400001928E-02 0.  1.
       -1   -1    0    0    0  501  0.00000000000E+00  0.00000000000E+00 -0.27747141415E+03  0.27747141420E+03  0.50400001928E-02 0. -1.
    10030    2    1    2    0    0  0.00000000000E+00  0.00000000000E+00  0.10124887625E+04  0.15674315909E+04  0.11965401363E+04 0.  0.
        2    1    3    3  502    0  0.23718926187E+03 -0.44189410767E+03  0.93353947474E+03  0.10597287857E+04  0.25500000920E-02 0.  1.
       -2    1    3    3    0  502 -0.23718926187E+03  0.44189410767E+03  0.78949287775E+02  0.50770280518E+03  0.25500000920E-02 0. -1.
</event>
<event>
 5   0  0.2204090E-04  0.1203690E+04  0.7818609E-02  0.9109632E-01
        1   -1    0    0  501    0  0.00000000000E+00  0.00000000000E+00  0.14298242516E+04  0.14298242516E+04  0.50400001928E-02 0. -1.
       -1   -1    0    0    0  501  0.00000000000E+00  0.00000000000E+00 -0.25333017543E+03  0.25333017548E+03  0.50400001928E-02 0.  1.
    10030    2    1    2    0    0  0.00000000000E+00  0.00000000000E+00  0.11764940761E+04  0.16831544270E+04  0.12036903730E+04 0.  0.
        2    1    3    3  502    0 -0.69547334106E+02  0.57695204274E+03  0.36934214571E+03  0.68856670839E+03  0.25500000920E-02 0.  1.
       -2    1    3    3    0  502  0.69547334106E+02 -0.57695204274E+03  0.80715193041E+03  0.99458771864E+03  0.25500000920E-02 0. -1.
</event>
<event>
 5   0  0.4122956E-04  0.1200320E+04  0.7818609E-02  0.9112577E-01
       -2   -1    0    0    0  501  0.00000000000E+00  0.00000000000E+00  0.21372050631E+03  0.21372050632E+03  0.25500000920E-02 0. -1.
        2   -1    0    0  501    0  0.00000000000E+00  0.00000000000E+00 -0.16853411949E+04  0.16853411949E+04  0.25500000920E-02 0.  1.
    10030    2    1    2    0    0  0.00000000000E+00  0.00000000000E+00 -0.14716206886E+04  0.18990617013E+04  0.12003199132E+04 0.  0.
        5    1    3    3  502    0  0.53779659913E+03  0.17083219548E+03 -0.10591268183E+04  0.12000752178E+04  0.46999998093E+01 0.  1.
       -5    1    3    3    0  502 -0.53779659913E+03 -0.17083219548E+03 -0.41249387029E+03  0.69898648347E+03  0.46999998093E+01 0. -1.
</event>
<event>
 5   0  0.3993723E-04  0.1171797E+04  0.7818609E-02  0.9137907E-01
        2   -1    0    0  501    0  0.00000000000E+00  0.00000000000E+00  0.12590956097E+04  0.12590956097E+04  0.25500000920E-02 0. -1.
       -2   -1    0    0    0  501  0.00000000000E+00  0.00000000000E+00 -0.27263764997E+03  0.27263764998E+03  0.25500000920E-02 0.  1.
    10030    2    1    2    0    0  0.00000000000E+00  0.00000000000E+00  0.98645795968E+03  0.15317332596E+04  0.11717966856E+04 0.  0.
        3    1    3    3  502    0  0.20187348931E+03  0.24323982463E+02  0.12114955638E+04  0.12284405045E+04  0.10100000352E+00 0. -1.
       -3    1    3    3    0  502 -0.20187348931E+03 -0.24323982463E+02 -0.22503760415E+03  0.30329275510E+03  0.10100000352E+00 0.  1.
</event>
<event>
 5   0  0.2204090E-04  0.1202042E+04  0.7818609E-02  0.9111071E-01
        1   -1    0    0  501    0  0.00000000000E+00  0.00000000000E+00  0.59758616364E+03  0.59758616366E+03  0.50400001928E-02 0. -1.
       -1   -1    0    0    0  501  0.00000000000E+00  0.00000000000E+00 -0.60447508437E+03  0.60447508439E+03  0.50400001928E-02 0.  1.
    10030    2    1    2    0    0  0.00000000000E+00  0.00000000000E+00 -0.68889207349E+01  0.12020612481E+04  0.12020415080E+04 0.  0.
        2    1    3    3  502    0 -0.42268701260E+03  0.94493965119E+02 -0.42014366786E+03  0.60341869520E+03  0.25500000920E-02 0.  1.
       -2    1    3    3    0  502  0.42268701260E+03 -0.94493965119E+02  0.41325474712E+03  0.59864255286E+03  0.25500000920E-02 0. -1.
</event>
<event>
 5   0  0.3883890E-04  0.1202141E+04  0.7818609E-02  0.9110984E-01
        2   -1    0    0  501    0  0.00000000000E+00  0.00000000000E+00  0.53898076610E+03  0.53898076610E+03  0.25500000920E-02 0. -1.
       -2   -1    0    0    0  501  0.00000000000E+00  0.00000000000E+00 -0.67031321107E+03  0.67031321108E+03  0.25500000920E-02 0.  1.
    10030    2    1    2    0    0  0.00000000000E+00  0.00000000000E+00 -0.13133244498E+03  0.12092939772E+04  0.12021413029E+04 0.  0.
        2    1    3    3  502    0  0.50921202090E+03  0.31796367251E+03 -0.35687078408E+02  0.60139117622E+03  0.25500000920E-02 0.  1.
       -2    1    3    3    0  502 -0.50921202090E+03 -0.31796367251E+03 -0.95645366570E+02  0.60790280096E+03  0.25500000920E-02 0. -1.
</event>
<event>
 5   0  0.2204090E-04  0.1200900E+04  0.7818609E-02  0.9112069E-01
        1   -1    0    0  501    0  0.00000000000E+00  0.00000000000E+00  0.25133686090E+04  0.25133686091E+04  0.50400001928E-02 0. -1.
       -1   -1    0    0    0  501  0.00000000000E+00  0.00000000000E+00 -0.14344911125E+03  0.14344911134E+03  0.50400001928E-02 0.  1.
    10030    2    1    2    0    0  0.00000000000E+00  0.00000000000E+00  0.23699194978E+04  0.26568177204E+04  0.12009004844E+04 0.  0.
        2    1    3    3  502    0 -0.26011633241E+03 -0.41959717817E+03  0.19411132808E+04  0.20029086518E+04  0.25500000920E-02 0.  1.
       -2    1    3    3    0  502  0.26011633241E+03  0.41959717817E+03  0.42880621698E+03  0.65390906863E+03  0.25500000920E-02 0. -1.
</event>
<event>
 5   0  0.2340731E-04  0.1201748E+04  0.7818609E-02  0.9111328E-01
       -1   -1    0    0    0  501  0.00000000000E+00  0.00000000000E+00  0.67333969663E+03  0.67333969665E+03  0.50400001928E-02 0.  1.
        1   -1    0    0  501    0  0.00000000000E+00  0.00000000000E+00 -0.53620747123E+03  0.53620747126E+03  0.50400001928E-02 0. -1.
    10030    2    1    2    0    0  0.00000000000E+00  0.00000000000E+00  0.13713222540E+03  0.12095471679E+04  0.12017483531E+04 0.  0.
        3    1    3    3  502    0  0.52383277090E+03 -0.18762758257E+03  0.29685268663E+03  0.63065553940E+03  0.10100000352E+00 0.  1.
       -3    1    3    3    0  502 -0.52383277090E+03  0.18762758257E+03 -0.15972046123E+03  0.57889162850E+03  0.10100000352E+00 0. -1.
</event>
<event>
 5   0  0.4024486E-04  0.1193903E+04  0.7818609E-02  0.9118210E-01
       -2   -1    0    0    0  501  0.00000000000E+00  0.00000000000E+00  0.36842655604E+03  0.36842655605E+03  0.25500000920E-02 0.  1.
        2   -1    0    0  501    0  0.00000000000E+00  0.00000000000E+00 -0.96722407481E+03  0.96722407481E+03  0.25500000920E-02 0. -1.
    10030    2    1    2    0    0  0.00000000000E+00  0.00000000000E+00 -0.59879751876E+03  0.13356506309E+04  0.11939029019E+04 0.  0.
        1    1    3    3  502    0  0.20299699982E+03 -0.53798852440E+02 -0.92453452918E+03  0.94808554157E+03  0.50400001928E-02 0. -1.
       -1    1    3    3    0  502 -0.20299699982E+03  0.53798852440E+02  0.32573701041E+03  0.38756508930E+03  0.50400001928E-02 0.  1.
</event>
<event>
 5   0  0.2204090E-04  0.1199770E+04  0.7818609E-02  0.9113058E-01
       -1   -1    0    0    0  501  0.00000000000E+00  0.00000000000E+00  0.36018704488E+03  0.36018704492E+03  0.50400001928E-02 0.  1.
        1   -1    0    0  501    0  0.00000000000E+00  0.00000000000E+00 -0.99909731096E+03  0.99909731098E+03  0.50400001928E-02 0. -1.
    10030    2    1    2    0    0  0.00000000000E+00  0.00000000000E+00 -0.63891026608E+03  0.13592843559E+04  0.11997698246E+04 0.  0.
        2    1    3    3  502    0  0.47315227054E+03 -0.57534140260E+02 -0.73213465755E+03  0.87361570796E+03  0.25500000920E-02 0.  1.
       -2    1    3    3    0  502 -0.47315227054E+03  0.57534140260E+02  0.93224391465E+02  0.48566864793E+03  0.25500000920E-02 0. -1.
</event>
<event>
 5   0  0.4024486E-04  0.1200854E+04  0.7818609E-02  0.9112109E-01
        2   -1    0    0  501    0  0.00000000000E+00  0.00000000000E+00  0.22119446105E+03  0.22119446107E+03  0.25500000920E-02 0.  1.
       -2   -1    0    0    0  501  0.00000000000E+00  0.00000000000E+00 -0.16298441081E+04  0.16298441081E+04  0.25500000920E-02 0. -1.
    10030    2    1    2    0    0  0.00000000000E+00  0.00000000000E+00 -0.14086496471E+04  0.18510385692E+04  0.12008538447E+04 0.  0.
        1    1    3    3  502    0 -0.34016970830E+03 -0.39252358924E+03 -0.11686073280E+04  0.12788406021E+04  0.50400001928E-02 0. -1.
       -1    1    3    3    0  502  0.34016970830E+03  0.39252358924E+03 -0.24004231908E+03  0.57219796708E+03  0.50400001928E-02 0.  1.
</event>
<event>
 5   0  0.3993723E-04  0.1201190E+04  0.7818609E-02  0.9111816E-01
        2   -1    0    0  501    0  0.00000000000E+00  0.00000000000E+00  0.33738599623E+03  0.33738599624E+03  0.25500000920E-02 0.  1.
       -2   -1    0    0    0  501  0.00000000000E+00  0.00000000000E+00 -0.10691442387E+04  0.10691442387E+04  0.25500000920E-02 0. -1.
    10030    2    1    2    0    0  0.00000000000E+00  0.00000000000E+00 -0.73175824248E+03  0.14065302350E+04  0.12011899002E+04 0.  0.
        3    1    3    3  502    0 -0.35746813865E+03  0.20153732687E+03  0.14762307856E+03  0.43611162309E+03  0.10100000352E+00 0.  1.
       -3    1    3    3    0  502  0.35746813865E+03 -0.20153732687E+03 -0.87938132104E+03  0.97041861187E+03  0.10100000352E+00 0. -1.
</event>
<event>
 5   0  0.2315038E-04  0.1198075E+04  0.7818609E-02  0.9114543E-01
       -1   -1    0    0    0  501  0.00000000000E+00  0.00000000000E+00  0.20340239398E+03  0.20340239404E+03  0.50400001928E-02 0.  1.
        1   -1    0    0  501    0  0.00000000000E+00  0.00000000000E+00 -0.17642182796E+04  0.17642182796E+04  0.50400001928E-02 0. -1.
    10030    2    1    2    0    0  0.00000000000E+00  0.00000000000E+00 -0.15608158856E+04  0.19676206736E+04  0.11980754928E+04 0.  0.
        1    1    3    3  502    0  0.19905107245E+03 -0.15435756725E+03 -0.16730172964E+04  0.16918730633E+04  0.50400001928E-02 0. -1.
       -1    1    3    3    0  502 -0.19905107245E+03  0.15435756725E+03  0.11220141083E+03  0.27574761037E+03  0.50400001928E-02 0.  1.
</event>
<event>
 5   0  0.2315038E-04  0.1198880E+04  0.7818609E-02  0.9113837E-01
       -1   -1    0    0    0  501  0.00000000000E+00  0.00000000000E+00  0.33733475694E+03  0.33733475698E+03  0.50400001928E-02 0. -1.
        1   -1    0    0  501    0  0.00000000000E+00  0.00000000000E+00 -0.10651978997E+04  0.10651978998E+04  0.50400001928E-02 0.  1.
    10030    2    1    2    0    0  0.00000000000E+00  0.00000000000E+00 -0.72786314280E+03  0.14025326567E+04  0.11988799350E+04 0.  0.
        1    1    3    3  502    0 -0.15778999428E+03  0.40680158361E+03  0.11691605165E+03  0.45172400189E+03  0.50400001928E-02 0. -1.
       -1    1    3    3    0  502  0.15778999428E+03 -0.40680158361E+03 -0.84477919446E+03  0.95080865485E+03  0.50400001928E-02 0.  1.
</event>
<event>
 5   0  0.4024486E-04  0.1199989E+04  0.7818609E-02  0.9112867E-01
       -2   -1    0    0    0  501  0.00000000000E+00  0.00000000000E+00  0.89006395427E+03  0.89006395427E+03  0.25500000920E-02 0. -1.
        2   -1    0    0  501    0  0.00000000000E+00  0.00000000000E+00 -0.40445763560E+03  0.40445763561E+03  0.25500000920E-02 0.  1.
    10030    2    1    2    0    0  0.00000000000E+00  0.00000000000E+00  0.48560631867E+03  0.12945215899E+04  0.11999886041E+04 0.  0.
        1    1    3    3  502    0 -0.59580032297E+03  0.50781906960E+02  0.18955547494E+03  0.62728630228E+03  0.50400001928E-02 0.  1.
       -1    1    3    3    0  502  0.59580032297E+03 -0.50781906960E+02  0.29605084373E+03  0.66723528760E+03  0.50400001928E-02 0. -1.
</event>
<event>
 5   0  0.2204090E-04  0.1198270E+04  0.7818609E-02  0.9114372E-01
       -1   -1    0    0    0  501  0.00000000000E+00  0.00000000000E+00  0.79976406724E+03  0.79976406726E+03  0.50400001928E-02 0.  1.
        1   -1    0    0  501    0  0.00000000000E+00  0.00000000000E+00 -0.44883596784E+03  0.44883596787E+03  0.50400001928E-02 0. -1.
    10030    2    1    2    0    0  0.00000000000E+00  0.00000000000E+00  0.35092809941E+03  0.12486000351E+04  0.11982702186E+04 0.  0.
        2    1    3    3  502    0 -0.12012705929E+03  0.42158642261E+03 -0.25009813470E+03  0.50469267786E+03  0.25500000920E-02 0. -1.
       -2    1    3    3    0  502  0.12012705929E+03 -0.42158642261E+03  0.60102623410E+03  0.74390735726E+03  0.25500000920E-02 0.  1.
</event>
<event>
 5   0  0.2315038E-04  0.1197296E+04  0.7818609E-02  0.9115227E-01
        1   -1    0    0  501    0  0.00000000000E+00  0.00000000000E+00  0.78965247740E+03  0.78965247742E+03  0.50400001928E-02 0. -1.
       -1   -1    0    0    0  501  0.00000000000E+00  0.00000000000E+00 -0.45384418307E+03  0.45384418309E+03  0.50400001928E-02 0.  1.
    10030    2    1    2    0    0  0.00000000000E+00  0.00000000000E+00  0.33580829433E+03  0.12434966605E+04  0.11972955918E+04 0.  0.
        1    1    3    3  502    0 -0.13437627249E+02 -0.42491399164E+02 -0.45211896706E+03  0.45431008048E+03  0.50400001928E-02 0.  1.
       -1    1    3    3    0  502  0.13437627249E+02  0.42491399164E+02  0.78792726139E+03  0.78918658003E+03  0.50400001928E-02 0. -1.
</event>
<event>
 5   0  0.3993723E-04  0.1197777E+04  0.7818609E-02  0.9114805E-01
       -2   -1    0    0    0  501  0.00000000000E+00  0.00000000000E+00  0.18789469870E+03  0.18789469872E+03  0.25500000920E-02 0.  1.
        2   -1    0    0  501    0  0.00000000000E+00  0.00000000000E+00 -0.19088741526E+04  0.19088741526E+04  0.25500000920E-02 0. -1.
    10030    2    1    2    0    0  0.00000000000E+00  0.00000000000E+00 -0.17209794539E+04  0.20967688513E+04  0.11977768303E+04 0.  0.
        3    1    3    3  502    0 -0.27061642413E+03 -0.37717982394E+03 -0.19812097745E+03  0.50472745171E+03  0.10100000352E+00 0.  1.
       -3    1    3    3    0  502  0.27061642413E+03  0.37717982394E+03 -0.15228584764E+04  0.15920413996E+04  0.10100000352E+00 0. -1.
</event>
<event>
 5   0  0.2304842E-04  0.1200377E+04  0.7818609E-02  0.9112526E-01
        1   -1    0    0  501    0  0.00000000000E+00  0.00000000000E+00  0.13924060015E+04  0.13924060015E+04  0.50400001928E-02 0.  1.
       -1   -1    0    0    0  501  0.00000000000E+00  0.00000000000E+00 -0.25870791445E+03  0.25870791450E+03  0.50400001928E-02 0. -1.
    10030    2    1    2    0    0  0.00000000000E+00  0.00000000000E+00  0.11336980871E+04  0.16511139160E+04  0.12003773619E+04 0.  0.
        4    1    3    3  502    0 -0.32551706091E+03 -0.22921209163E+03 -0.50938896827E+02  0.40136756720E+03  0.12699999809E+01 0. -1.
       -4    1    3    3    0  502  0.32551706091E+03  0.22921209163E+03  0.11846369839E+04  0.12497463488E+04  0.12699999809E+01 0.  1.
</event>
<event>
 5   0  0.2304842E-04  0.1201188E+04  0.7818609E-02  0.9111817E-01
       -1   -1    0    0    0  501  0.00000000000E+00  0.00000000000E+00  0.57396054672E+03  0.57396054674E+03  0.50400001928E-02 0. -1.
        1   -1    0    0  501    0  0.00000000000E+00  0.00000000000E+00 -0.62846332129E+03  0.62846332131E+03  0.50400001928E-02 0.  1.
    10030    2    1    2    0    0  0.00000000000E+00  0.00000000000E+00 -0.54502774571E+02  0.12024238680E+04  0.12011879978E+04 0.  0.
        4    1    3    3  502    0  0.55693444444E+03  0.13548028788E+03  0.15232285500E+03  0.59307229649E+03  0.12699999809E+01 0. -1.
       -4    1    3    3    0  502 -0.55693444444E+03 -0.13548028788E+03 -0.20682562957E+03  0.60935157156E+03  0.12699999809E+01 0.  1.
</event>
<event>
 5   0  0.2304842E-04  0.1200683E+04  0.7818609E-02  0.9112258E-01
        1   -1    0    0  501    0  0.00000000000E+00  0.00000000000E+00  0.11213410529E+04  0.11213410529E+04  0.50400001928E-02 0. -1.
       -1   -1    0    0    0  501  0.00000000000E+00  0.00000000000E+00 -0.32140998937E+03  0.32140998941E+03  0.50400001928E-02 0.  1.
    10030    2    1    2    0    0  0.00000000000E+00  0.00000000000E+00  0.79993106349E+03  0.14427510423E+04  0.12006834985E+04 0.  0.
        4    1    3    3  502    0 -0.42322421895E+03  0.33460766208E+03  0.71635051523E+03  0.89679468141E+03  0.12699999809E+01 0. -1.
       -4    1    3    3    0  502  0.42322421895E+03 -0.33460766208E+03  0.83580548259E+02  0.54595636087E+03  0.12699999809E+01 0.  1.
</event>
<event>
 5   0  0.3883890E-04  0.1202685E+04  0.7818609E-02  0.9110509E-01
        2   -1    0    0  501    0  0.00000000000E+00  0.00000000000E+00  0.75568087509E+03  0.75568087510E+03  0.25500000920E-02 0.  1.
       -2   -1    0    0    0  501  0.00000000000E+00  0.00000000000E+00 -0.47852610646E+03  0.47852610646E+03  0.25500000920E-02 0. -1.
    10030    2    1    2    0    0  0.00000000000E+00  0.00000000000E+00  0.27715476864E+03  0.12342069816E+04  0.12026853735E+04 0.  0.
        2    1    3    3  502    0  0.83478436414E+02 -0.48600671136E+03  0.49175125733E+03  0.69641257307E+03  0.25500000920E-02 0.  1.
       -2    1    3    3    0  502 -0.83478436414E+02  0.48600671136E+03 -0.21459648870E+03  0.53779440849E+03  0.25500000920E-02 0. -1.
</event>
<event>
 5   0  0.3832662E-04  0.1194034E+04  0.7818609E-02  0.9118095E-01
        2   -1    0    0  501    0  0.00000000000E+00  0.00000000000E+00  0.53356911317E+03  0.53356911318E+03  0.25500000920E-02 0. -1.
       -2   -1    0    0    0  501  0.00000000000E+00  0.00000000000E+00 -0.66800922805E+03  0.66800922806E+03  0.25500000920E-02 0.  1.
    10030    2    1    2    0    0  0.00000000000E+00  0.00000000000E+00 -0.13444011488E+03  0.12015783412E+04  0.11940336535E+04 0.  0.
        4    1    3    3  502    0 -0.18656183858E+03  0.40288979486E+03 -0.46886851190E+03  0.64572811676E+03  0.12699999809E+01 0.  1.
       -4    1    3    3    0  502  0.18656183858E+03 -0.40288979486E+03  0.33442839702E+03  0.55585022448E+03  0.12699999809E+01 0. -1.
</event>
<event>
 5   0  0.3993723E-04  0.1197616E+04  0.7818609E-02  0.9114946E-01
        2   -1    0    0  501    0  0.00000000000E+00  0.00000000000E+00  0.97536385536E+03  0.97536385536E+03  0.25500000920E-02 0. -1.
       -2   -1    0    0    0  501  0.00000000000E+00  0.00000000000E+00 -0.36762775046E+03  0.36762775047E+03  0.25500000920E-02 0.  1.
    10030    2    1    2    0    0  0.00000000000E+00  0.00000000000E+00  0.60773610490E+03  0.13429916058E+04  0.11976156646E+04 0.  0.
        3    1    3    3  502    0  0.27300411234E+02 -0.40046618883E+03 -0.19442744237E+03  0.44600506880E+03  0.10100000352E+00 0.  1.
       -3    1    3    3    0  502 -0.27300411234E+02  0.40046618883E+03  0.80216354727E+03  0.89698653703E+03  0.10100000352E+00 0. -1.
</event>
<event>
 5   0  0.2340731E-04  0.1199716E+04  0.7818609E-02  0.9113105E-01
        1   -1    0    0  501    0  0.00000000000E+00  0.00000000000E+00  0.63247539354E+03  0.63247539356E+03  0.50400001928E-02 0. -1.
       -1   -1    0    0    0  501  0.00000000000E+00  0.00000000000E+00 -0.56892254496E+03  0.56892254499E+03  0.50400001928E-02 0.  1.
    10030    2    1    2    0    0  0.00000000000E+00  0.00000000000E+00  0.63552848572E+02  0.12013979385E+04  0.11997158173E+04 0.  0.
        3    1    3    3  502    0 -0.18604372221E+03  0.11282746039E+03 -0.52801290102E+03  0.57108662761E+03  0.10100000352E+00 0.  1.
       -3    1    3    3    0  502  0.18604372221E+03 -0.11282746039E+03  0.59156574959E+03  0.63031131093E+03  0.10100000352E+00 0. -1.
</event>
<event>
 5   0  0.3993723E-04  0.1197803E+04  0.7818609E-02  0.9114782E-01
        2   -1    0    0  501    0  0.00000000000E+00  0.00000000000E+00  0.30835955587E+03  0.30835955588E+03  0.25500000920E-02 0. -1.
       -2   -1    0    0    0  501  0.00000000000E+00  0.00000000000E+00 -0.11631974597E+04  0.11631974597E+04  0.25500000920E-02 0.  1.
    10030    2    1    2    0    0  0.00000000000E+00  0.00000000000E+00 -0.85483790379E+03  0.14715570155E+04  0.11978030757E+04 0.  0.
        3    1    3    3  502    0 -0.48067819201E+03  0.39636551637E+02 -0.86361438644E+03  0.98916752836E+03  0.10100000352E+00 0.  1.
       -3    1    3    3    0  502  0.48067819201E+03 -0.39636551637E+02  0.87764826499E+01  0.48238948718E+03  0.10100000352E+00 0. -1.
</event>
<event>
 5   0  0.1541375E-04  0.1202133E+04  0.7818609E-02  0.9110991E-01
        3   -1    0    0  501    0  0.00000000000E+00  0.00000000000E+00  0.38424338024E+03  0.38424339351E+03  0.10100000352E+00 0.  1.
       -3   -1    0    0    0  501  0.00000000000E+00  0.00000000000E+00 -0.94024027970E+03  0.94024028512E+03  0.10100000352E+00 0. -1.
    10030    2    1    2    0    0  0.00000000000E+00  0.00000000000E+00 -0.55599689946E+03  0.13244836786E+04  0.12021332966E+04 0.  0.
        3    1    3    3  502    0 -0.17652440734E+03  0.33659867402E+03 -0.79103136402E+03  0.87760478736E+03  0.10100000352E+00 0. -1.
       -3    1    3    3    0  502  0.17652440734E+03 -0.33659867402E+03  0.23503446455E+03  0.44687889127E+03  0.10100000352E+00 0.  1.
</event>
<event>
 5   0  0.3883890E-04  0.1203378E+04  0.7818609E-02  0.9109904E-01
        2   -1    0    0  501    0  0.00000000000E+00  0.00000000000E+00  0.39474568725E+03  0.39474568725E+03  0.25500000920E-02 0. -1.
       -2   -1    0    0    0  501  0.00000000000E+00  0.00000000000E+00 -0.91712197877E+03  0.91712197878E+03  0.25500000920E-02 0.  1.
    10030    2    1    2    0    0  0.00000000000E+00  0.00000000000E+00 -0.52237629153E+03  0.13118676660E+04  0.12033784871E+04 0.  0.
        2    1    3    3  502    0  0.31652729125E+03  0.30841789771E+03 -0.70631121070E+03  0.83317864357E+03  0.25500000920E-02 0.  1.
       -2    1    3    3    0  502 -0.31652729125E+03 -0.30841789771E+03  0.18393491917E+03  0.47868902246E+03  0.25500000920E-02 0. -1.
</event>
<event>
 5   0  0.2340731E-04  0.1199692E+04  0.7818609E-02  0.9113126E-01
       -1   -1    0    0    0  501  0.00000000000E+00  0.00000000000E+00  0.56081351120E+03  0.56081351123E+03  0.50400001928E-02 0.  1.
        1   -1    0    0  501    0  0.00000000000E+00  0.00000000000E+00 -0.64159535892E+03  0.64159535894E+03  0.50400001928E-02 0. -1.
    10030    2    1    2    0    0  0.00000000000E+00  0.00000000000E+00 -0.80781847714E+02  0.12024088702E+04  0.11996922039E+04 0.  0.
        3    1    3    3  502    0  0.29830509175E+03  0.22278511536E+03  0.43098909135E+03  0.56953554977E+03  0.10100000352E+00 0.  1.
       -3    1    3    3    0  502 -0.29830509175E+03 -0.22278511536E+03 -0.51177093906E+03  0.63287332039E+03  0.10100000352E+00 0. -1.
</event>
<event>
 5   0  0.4122956E-04  0.1198295E+04  0.7818609E-02  0.9114350E-01
       -2   -1    0    0    0  501  0.00000000000E+00  0.00000000000E+00  0.13731252614E+03  0.13731252616E+03  0.25500000920E-02 0.  1.
        2   -1    0    0  501    0  0.00000000000E+00  0.00000000000E+00 -0.26143112554E+04  0.26143112554E+04  0.25500000920E-02 0. -1.
    10030    2    1    2    0    0  0.00000000000E+00  0.00000000000E+00 -0.24769987293E+04  0.27516237816E+04  0.11982949263E+04 0.  0.
        5    1    3    3  502    0  0.32212456620E+03  0.17887832049E+03 -0.23233413807E+04  0.23523815487E+04  0.46999998093E+01 0. -1.
       -5    1    3    3    0  502 -0.32212456620E+03 -0.17887832049E+03 -0.15365734859E+03  0.39924223282E+03  0.46999998093E+01 0.  1.
</event>
<event>
 5   0  0.2244308E-04  0.1201065E+04  0.7818609E-02  0.9111925E-01
       -1   -1    0    0    0  501  0.00000000000E+00  0.00000000000E+00  0.54920942042E+03  0.54920942044E+03  0.50400001928E-02 0. -1.
        1   -1    0    0  501    0  0.00000000000E+00  0.00000000000E+00 -0.65665173075E+03  0.65665173077E+03  0.50400001928E-02 0.  1.
    10030    2    1    2    0    0  0.00000000000E+00  0.00000000000E+00 -0.10744231033E+03  0.12058611512E+04  0.12010650548E+04 0.  0.
        5    1    3    3  502    0 -0.35835181064E+03 -0.44131217319E+03 -0.24800038285E+03  0.62024086796E+03  0.46999998093E+01 0.  1.
       -5    1    3    3    0  502  0.35835181064E+03  0.44131217319E+03  0.14055807253E+03  0.58562028325E+03  0.46999998093E+01 0. -1.
</event>
<event>
 5   0  0.4122956E-04  0.1200354E+04  0.7818609E-02  0.9112546E-01
        2   -1    0    0  501    0  0.00000000000E+00  0.00000000000E+00  0.58308051291E+03  0.58308051292E+03  0.25500000920E-02 0. -1.
       -2   -1    0    0    0  501  0.00000000000E+00  0.00000000000E+00 -0.61777516161E+03  0.61777516162E+03  0.25500000920E-02 0.  1.
    10030    2    1    2    0    0  0.00000000000E+00  0.00000000000E+00 -0.34694648699E+02  0.12008556745E+04  0.12003543778E+04 0.  0.
        5    1    3    3  502    0  0.41534467381E+03  0.23764572737E+03  0.34502470678E+03  0.58995832741E+03  0.46999998093E+01 0. -1.
       -5    1    3    3    0  502 -0.41534467381E+03 -0.23764572737E+03 -0.37971935548E+03  0.61089734712E+03  0.46999998093E+01 0.  1.
</event>
<event>
 5   0  0.4024486E-04  0.1199750E+04  0.7818609E-02  0.9113075E-01
       -2   -1    0    0    0  501  0.00000000000E+00  0.00000000000E+00  0.20370433258E+03  0.20370433259E+03  0.25500000920E-02 0. -1.
        2   -1    0    0  501    0  0.00000000000E+00  0.00000000000E+00 -0.17665308298E+04  0.17665308298E+04  0.25500000920E-02 0.  1.
    10030    2    1    2    0    0  0.00000000000E+00  0.00000000000E+00 -0.15628264972E+04  0.19702351624E+04  0.11997499467E+04 0.  0.
        1    1    3    3  502    0 -0.29381475734E+03 -0.24926751121E+03 -0.26376505212E+02  0.38620865322E+03  0.50400001928E-02 0. -1.
       -1    1    3    3    0  502  0.29381475734E+03  0.24926751121E+03 -0.15364499920E+04  0.15840265092E+04  0.50400001928E-02 0.  1.
</event>
<event>
 5   0  0.3832662E-04  0.1200173E+04  0.7818609E-02  0.9112705E-01
       -2   -1    0    0    0  501  0.00000000000E+00  0.00000000000E+00  0.55998702011E+03  0.55998702012E+03  0.25500000920E-02 0. -1.
        2   -1    0    0  501    0  0.00000000000E+00  0.00000000000E+00 -0.64305703744E+03  0.64305703745E+03  0.25500000920E-02 0.  1.
    10030    2    1    2    0    0  0.00000000000E+00  0.00000000000E+00 -0.83070017331E+02  0.12030440576E+04  0.12001726445E+04 0.  0.
        4    1    3    3  502    0 -0.23376943553E+03  0.55183296181E+03 -0.72173058533E+02  0.60363758168E+03  0.12699999809E+01 0.  1.
       -4    1    3    3    0  502  0.23376943553E+03 -0.55183296181E+03 -0.10896958798E+02  0.59940647589E+03  0.12699999809E+01 0. -1.
</event>
<event>
 5   0  0.2340731E-04  0.1198353E+04  0.7818609E-02  0.9114299E-01
       -1   -1    0    0    0  501  0.00000000000E+00  0.00000000000E+00  0.16874020873E+03  0.16874020881E+03  0.50400001928E-02 0.  1.
        1   -1    0    0  501    0  0.00000000000E+00  0.00000000000E+00 -0.21276054990E+04  0.21276054990E+04  0.50400001928E-02 0. -1.
    10030    2    1    2    0    0  0.00000000000E+00  0.00000000000E+00 -0.19588652903E+04  0.22963457078E+04  0.11983531968E+04 0.  0.
        3    1    3    3  502    0  0.45244026400E+03 -0.33809672224E+03 -0.59617762271E+03  0.82124256715E+03  0.10100000352E+00 0.  1.
       -3    1    3    3    0  502 -0.45244026400E+03  0.33809672224E+03 -0.13626876675E+04  0.14751031406E+04  0.10100000352E+00 0. -1.
</event>
<event>
 5   0  0.2304842E-04  0.1202829E+04  0.7818609E-02  0.9110384E-01
        1   -1    0    0  501    0  0.00000000000E+00  0.00000000000E+00  0.12776924246E+04  0.12776924246E+04  0.50400001928E-02 0.  1.
       -1   -1    0    0    0  501  0.00000000000E+00  0.00000000000E+00 -0.28308778312E+03  0.28308778317E+03  0.50400001928E-02 0. -1.
    10030    2    1    2    0    0  0.00000000000E+00  0.00000000000E+00  0.99460464143E+03  0.15607802077E+04  0.12028285265E+04 0.  0.
        4    1    3    3  502    0 -0.45828590340E+03 -0.11700516568E+02  0.10024216394E+04  0.11022765658E+04  0.12699999809E+01 0.  1.
       -4    1    3    3    0  502  0.45828590340E+03  0.11700516568E+02 -0.78169979995E+01  0.45850364197E+03  0.12699999809E+01 0. -1.
</event>
<event>
 5   0  0.4024486E-04  0.1200474E+04  0.7818609E-02  0.9112441E-01
       -2   -1    0    0    0  501  0.00000000000E+00  0.00000000000E+00  0.54311459521E+03  0.54311459521E+03  0.25500000920E-02 0. -1.
        2   -1    0    0  501    0  0.00000000000E+00  0.00000000000E+00 -0.66336773676E+03  0.66336773677E+03  0.25500000920E-02 0.  1.
    10030    2    1    2    0    0  0.00000000000E+00  0.00000000000E+00 -0.12025314156E+03  0.12064823320E+04  0.12004744059E+04 0.  0.
        1    1    3    3  502    0 -0.36656377700E+03  0.23978004549E+03 -0.47257198048E+03  0.64435064180E+03  0.50400001928E-02 0.  1.
       -1    1    3    3    0  502  0.36656377700E+03 -0.23978004549E+03  0.35231883892E+03  0.56213169018E+03  0.50400001928E-02 0. -1.
</event>
<event>
 5   0  0.2304842E-04  0.1200079E+04  0.7818609E-02  0.9112787E-01
        1   -1    0    0  501    0  0.00000000000E+00  0.00000000000E+00  0.10674781662E+04  0.10674781662E+04  0.50400001928E-02 0.  1.
       -1   -1    0    0    0  501  0.00000000000E+00  0.00000000000E+00 -0.33728796095E+03  0.33728796099E+03  0.50400001928E-02 0. -1.
    10030    2    1    2    0    0  0.00000000000E+00  0.00000000000E+00  0.73019020526E+03  0.14047661272E+04  0.12000792208E+04 0.  0.
        4    1    3    3  502    0  0.29209781714E+03 -0.22888991381E+03 -0.18685172370E+03  0.41548394310E+03  0.12699999809E+01 0. -1.
       -4    1    3    3    0  502 -0.29209781714E+03  0.22888991381E+03  0.91704192897E+03  0.98928218411E+03  0.12699999809E+01 0.  1.
</event>
<event>
 5   0  0.3832662E-04  0.1200814E+04  0.7818609E-02  0.9112144E-01
       -2   -1    0    0    0  501  0.00000000000E+00  0.00000000000E+00  0.69462953132E+03  0.69462953133E+03  0.25500000920E-02 0.  1.
        2   -1    0    0  501    0  0.00000000000E+00  0.00000000000E+00 -0.51896527199E+03  0.51896527199E+03  0.25500000920E-02 0. -1.
    10030    2    1    2    0    0  0.00000000000E+00  0.00000000000E+00  0.17566425934E+03  0.12135948033E+04  0.12008140633E+04 0.  0.
        4    1    3    3  502    0 -0.69832143436E+02  0.31523601315E+03  0.59941809840E+03  0.68084795794E+03  0.12699999809E+01 0.  1.
       -4    1    3    3    0  502  0.69832143436E+02 -0.31523601315E+03 -0.42375383906E+03  0.53274684538E+03  0.12699999809E+01 0. -1.
</event>
<event>
 5   0  0.3993723E-04  0.1200103E+04  0.7818609E-02  0.9112766E-01
       -2   -1    0    0    0  501  0.00000000000E+00  0.00000000000E+00  0.28714339229E+03  0.28714339230E+03  0.25500000920E-02 0.  1.
        2   -1    0    0  501    0  0.00000000000E+00  0.00000000000E+00 -0.12539445475E+04  0.12539445475E+04  0.25500000920E-02 0. -1.
    10030    2    1    2    0    0  0.00000000000E+00  0.00000000000E+00 -0.96680115524E+03  0.15410879398E+04  0.12001031475E+04 0.  0.
        3    1    3    3  502    0 -0.20456321367E+03  0.56592295620E+02  0.23733032515E+03  0.31839360821E+03  0.10100000352E+00 0.  1.
       -3    1    3    3    0  502  0.20456321367E+03 -0.56592295620E+02 -0.12041314804E+04  0.12226943316E+04  0.10100000352E+00 0. -1.
</event>
<event>
 5   0  0.4122956E-04  0.1201544E+04  0.7818609E-02  0.9111506E-01
       -2   -1    0    0    0  501  0.00000000000E+00  0.00000000000E+00  0.12939460644E+04  0.12939460644E+04  0.25500000920E-02 0. -1.
        2   -1    0    0  501    0  0.00000000000E+00  0.00000000000E+00 -0.27893521176E+03  0.27893521178E+03  0.25500000920E-02 0.  1.
    10030    2    1    2    0    0  0.00000000000E+00  0.00000000000E+00  0.10150108526E+04  0.15728812762E+04  0.12015442056E+04 0.  0.
        5    1    3    3  502    0 -0.56006620067E+03 -0.20778156358E+03  0.59089202791E+03  0.84025163251E+03  0.46999998093E+01 0. -1.
       -5    1    3    3    0  502  0.56006620067E+03  0.20778156358E+03  0.42411882474E+03  0.73262964368E+03  0.46999998093E+01 0.  1.
</event>
<event>
 5   0  0.2204090E-04  0.1209744E+04  0.7818609E-02  0.9104370E-01
       -1   -1    0    0    0  501  0.00000000000E+00  0.00000000000E+00  0.23833152512E+03  0.23833152517E+03  0.50400001928E-02 0. -1.
        1   -1    0    0  501    0  0.00000000000E+00  0.00000000000E+00 -0.15351302132E+04  0.15351302132E+04  0.50400001928E-02 0.  1.
    10030    2    1    2    0    0  0.00000000000E+00  0.00000000000E+00 -0.12967986881E+04  0.17734617384E+04  0.12097436506E+04 0.  0.
        2    1    3    3  502    0 -0.38534330044E+03  0.21238937421E+03 -0.39935417162E+02  0.44180713328E+03  0.25500000920E-02 0.  1.
       -2    1    3    3    0  502  0.38534330044E+03 -0.21238937421E+03 -0.12568632710E+04  0.13316546051E+04  0.25500000920E-02 0. -1.
</event>
<event>
 5   0  0.2304842E-04  0.1202025E+04  0.7818609E-02  0.9111086E-01
       -1   -1    0    0    0  501  0.00000000000E+00  0.00000000000E+00  0.24465970794E+03  0.24465970799E+03  0.50400001928E-02 0.  1.
        1   -1    0    0  501    0  0.00000000000E+00  0.00000000000E+00 -0.14764023595E+04  0.14764023595E+04  0.50400001928E-02 0. -1.
    10030    2    1    2    0    0  0.00000000000E+00  0.00000000000E+00 -0.12317426516E+04  0.17210620675E+04  0.12020252412E+04 0.  0.
        4    1    3    3  502    0 -0.24478494043E+03  0.30761423293E+03  0.35037194563E+02  0.39468392578E+03  0.12699999809E+01 0.  1.
       -4    1    3    3    0  502  0.24478494043E+03 -0.30761423293E+03 -0.12667798461E+04  0.13263781417E+04  0.12699999809E+01 0. -1.
</event>
<event>
 5   0  0.1541375E-04  0.1200985E+04  0.7818609E-02  0.9111995E-01
       -3   -1    0    0    0  501  0.00000000000E+00  0.00000000000E+00  0.12326952568E+04  0.12326952609E+04  0.10100000352E+00 0.  1.
        3   -1    0    0  501    0  0.00000000000E+00  0.00000000000E+00 -0.29252257898E+03  0.29252259641E+03  0.10100000352E+00 0. -1.
    10030    2    1    2    0    0  0.00000000000E+00  0.00000000000E+00  0.94017267779E+03  0.15252178573E+04  0.12009849492E+04 0.  0.
        3    1    3    3  502    0 -0.36714043799E+03 -0.88546967742E+02 -0.12281339682E+03  0.39713449528E+03  0.10100000352E+00 0. -1.
       -3    1    3    3    0  502  0.36714043799E+03  0.88546967742E+02  0.10629860746E+04  0.11280833620E+04  0.10100000352E+00 0.  1.
</event>
<event>
 5   0  0.2315038E-04  0.1198788E+04  0.7818609E-02  0.9113918E-01
       -1   -1    0    0    0  501  0.00000000000E+00  0.00000000000E+00  0.54247773140E+03  0.54247773143E+03  0.50400001928E-02 0.  1.
        1   -1    0    0  501    0  0.00000000000E+00  0.00000000000E+00 -0.66228201750E+03  0.66228201752E+03  0.50400001928E-02 0. -1.
    10030    2    1    2    0    0  0.00000000000E+00  0.00000000000E+00 -0.11980428610E+03  0.12047597489E+04  0.11987881321E+04 0.  0.
        1    1    3    3  502    0 -0.18436693810E+00 -0.59391731940E+03 -0.14114685485E+03  0.61045904935E+03  0.50400001928E-02 0.  1.
       -1    1    3    3    0  502  0.18436693810E+00  0.59391731940E+03  0.21342568752E+02  0.59430069960E+03  0.50400001928E-02 0. -1.
</event>
<event>
 5   0  0.4122956E-04  0.1200015E+04  0.7818609E-02  0.9112844E-01
       -2   -1    0    0    0  501  0.00000000000E+00  0.00000000000E+00  0.20472275021E+03  0.20472275023E+03  0.25500000920E-02 0. -1.
        2   -1    0    0  501    0  0.00000000000E+00  0.00000000000E+00 -0.17585192480E+04  0.17585192480E+04  0.25500000920E-02 0.  1.
    10030    2    1    2    0    0  0.00000000000E+00  0.00000000000E+00 -0.15537964978E+04  0.19632419982E+04  0.12000148278E+04 0.  0.
        5    1    3    3  502    0  0.50145019069E+03  0.24407251910E+03 -0.41488725594E+03  0.69510949746E+03  0.46999998093E+01 0.  1.
       -5    1    3    3    0  502 -0.50145019069E+03 -0.24407251910E+03 -0.11389092418E+04  0.12681325008E+04  0.46999998093E+01 0. -1.
</event>
<event>
 5   0  0.3832662E-04  0.1200472E+04  0.7818609E-02  0.9112443E-01
       -2   -1    0    0    0  501  0.00000000000E+00  0.00000000000E+00  0.34979585426E+03  0.34979585427E+03  0.25500000920E-02 0.  1.
        2   -1    0    0  501    0  0.00000000000E+00  0.00000000000E+00 -0.10299815419E+04  0.10299815419E+04  0.25500000920E-02 0. -1.
    10030    2    1    2    0    0  0.00000000000E+00  0.00000000000E+00 -0.68018568768E+03  0.13797773962E+04  0.12004720294E+04 0.  0.
        4    1    3    3  502    0  0.45985430481E+03 -0.12271176234E+03  0.80261999164E+02  0.48266733853E+03  0.12699999809E+01 0.  1.
       -4    1    3    3    0  502 -0.45985430481E+03  0.12271176234E+03 -0.76044768684E+03  0.89711005768E+03  0.12699999809E+01 0. -1.
</event>
<event>
 5   0  0.4024486E-04  0.1200581E+04  0.7818609E-02  0.9112348E-01
       -2   -1    0    0    0  501  0.00000000000E+00  0.00000000000E+00  0.53981415739E+03  0.53981415739E+03  0.25500000920E-02 0.  1.
        2   -1    0    0  501    0  0.00000000000E+00  0.00000000000E+00 -0.66754264115E+03  0.66754264115E+03  0.25500000920E-02 0. -1.
    10030    2    1    2    0    0  0.00000000000E+00  0.00000000000E+00 -0.12772848376E+03  0.12073567985E+04  0.12005814730E+04 0.  0.
        1    1    3    3  502    0  0.10997733006E+03  0.40191568499E+02 -0.65594705056E+03  0.66631592242E+03  0.50400001928E-02 0. -1.
       -1    1    3    3    0  502 -0.10997733006E+03 -0.40191568499E+02  0.52821856680E+03  0.54104087613E+03  0.50400001928E-02 0.  1.
</event>
<event>
 5   0  0.4024486E-04  0.1200353E+04  0.7818609E-02  0.9112548E-01
       -2   -1    0    0    0  501  0.00000000000E+00  0.00000000000E+00  0.69827522119E+03  0.69827522120E+03  0.25500000920E-02 0. -1.
        2   -1    0    0  501    0  0.00000000000E+00  0.00000000000E+00 -0.51585931666E+03  0.51585931667E+03  0.25500000920E-02 0.  1.
    10030    2    1    2    0    0  0.00000000000E+00  0.00000000000E+00  0.18241590453E+03  0.12141345379E+04  0.12003529122E+04 0.  0.
        1    1    3    3  502    0  0.12855374806E+02 -0.12115172072E+03  0.68563614647E+03  0.69637628152E+03  0.50400001928E-02 0. -1.
       -1    1    3    3    0  502 -0.12855374806E+02  0.12115172072E+03 -0.50322024194E+03  0.51775825635E+03  0.50400001928E-02 0.  1.
</event>
<event>
 5   0  0.2204090E-04  0.1201300E+04  0.7818609E-02  0.9111720E-01
        1   -1    0    0  501    0  0.00000000000E+00  0.00000000000E+00  0.11617234316E+04  0.11617234316E+04  0.50400001928E-02 0. -1.
       -1   -1    0    0    0  501  0.00000000000E+00  0.00000000000E+00 -0.31055601391E+03  0.31055601395E+03  0.50400001928E-02 0.  1.
    10030    2    1    2    0    0  0.00000000000E+00  0.00000000000E+00  0.85116741769E+03  0.14722794456E+04  0.12012996266E+04 0.  0.
        2    1    3    3  502    0  0.69167969669E+02 -0.46118707113E+03 -0.38360495050E+02  0.46792013228E+03  0.25500000920E-02 0.  1.
       -2    1    3    3    0  502 -0.69167969669E+02  0.46118707113E+03  0.88952791274E+03  0.10043593133E+04  0.25500000920E-02 0. -1.
</event>
<event>
 5   0  0.2244308E-04  0.1197095E+04  0.7818609E-02  0.9115403E-01
        1   -1    0    0  501    0  0.00000000000E+00  0.00000000000E+00  0.34563414670E+03  0.34563414674E+03  0.50400001928E-02 0. -1.
       -1   -1    0    0    0  501  0.00000000000E+00  0.00000000000E+00 -0.10365270715E+04  0.10365270715E+04  0.50400001928E-02 0.  1.
    10030    2    1    2    0    0  0.00000000000E+00  0.00000000000E+00 -0.69089292478E+03  0.13821612182E+04  0.11970950671E+04 0.  0.
        5    1    3    3  502    0  0.35131674616E+03  0.30031269364E+03  0.93643069907E+02  0.47159546715E+03  0.46999998093E+01 0. -1.
       -5    1    3    3    0  502 -0.35131674616E+03 -0.30031269364E+03 -0.78453599468E+03  0.91056575108E+03  0.46999998093E+01 0.  1.
</event>
<event>
 5   0  0.4122956E-04  0.1193486E+04  0.7818609E-02  0.9118578E-01
        2   -1    0    0  501    0  0.00000000000E+00  0.00000000000E+00  0.11992123315E+04  0.11992123315E+04  0.25500000920E-02 0. -1.
       -2   -1    0    0    0  501  0.00000000000E+00  0.00000000000E+00 -0.29694663736E+03  0.29694663738E+03  0.25500000920E-02 0.  1.
    10030    2    1    2    0    0  0.00000000000E+00  0.00000000000E+00  0.90226569412E+03  0.14961589689E+04  0.11934857675E+04 0.  0.
        5    1    3    3  502    0  0.69754369141E+02  0.14760236761E+03  0.11706491701E+04  0.11819871829E+04  0.46999998093E+01 0. -1.
       -5    1    3    3    0  502 -0.69754369141E+02 -0.14760236761E+03 -0.26838347600E+03  0.31417178601E+03  0.46999998093E+01 0.  1.
</event>
<event>
 5   0  0.2304842E-04  0.1201058E+04  0.7818609E-02  0.9111931E-01
        1   -1    0    0  501    0  0.00000000000E+00  0.00000000000E+00  0.64817873172E+03  0.64817873174E+03  0.50400001928E-02 0.  1.
       -1   -1    0    0    0  501  0.00000000000E+00  0.00000000000E+00 -0.55638179325E+03  0.55638179327E+03  0.50400001928E-02 0. -1.
    10030    2    1    2    0    0  0.00000000000E+00  0.00000000000E+00  0.91796938475E+02  0.12045605250E+04  0.12010576092E+04 0.  0.
        4    1    3    3  502    0  0.56491948150E+02 -0.46024192984E+03  0.42861233288E+03  0.63144605390E+03  0.12699999809E+01 0.  1.
       -4    1    3    3    0  502 -0.56491948150E+02  0.46024192984E+03 -0.33681539441E+03  0.57311447111E+03  0.12699999809E+01 0. -1.
</event>
<event>
 5   0  0.3883890E-04  0.1200873E+04  0.7818609E-02  0.9112093E-01
        2   -1    0    0  501    0  0.00000000000E+00  0.00000000000E+00  0.12435168155E+04  0.12435168155E+04  0.25500000920E-02 0.  1.
       -2   -1    0    0    0  501  0.00000000000E+00  0.00000000000E+00 -0.28992278647E+03  0.28992278648E+03  0.25500000920E-02 0. -1.
    10030    2    1    2    0    0  0.00000000000E+00  0.00000000000E+00  0.95359402898E+03  0.15334396019E+04  0.12008727829E+04 0.  0.
        2    1    3    3  502    0 -0.37097763165E+03 -0.11721269555E+03  0.10607927222E+04  0.11298869052E+04  0.25500000920E-02 0.  1.
       -2    1    3    3    0  502  0.37097763165E+03  0.11721269555E+03 -0.10719869320E+03  0.40355269670E+03  0.25500000920E-02 0. -1.
</event>
<event>
 5   0  0.2315038E-04  0.1199866E+04  0.7818609E-02  0.9112974E-01
       -1   -1    0    0    0  501  0.00000000000E+00  0.00000000000E+00  0.47196530663E+03  0.47196530666E+03  0.50400001928E-02 0.  1.
        1   -1    0    0  501    0  0.00000000000E+00  0.00000000000E+00 -0.76259700355E+03  0.76259700357E+03  0.50400001928E-02 0. -1.
    10030    2    1    2    0    0  0.00000000000E+00  0.00000000000E+00 -0.29063169692E+03  0.12345623102E+04  0.11998655402E+04 0.  0.
        1    1    3    3  502    0 -0.11789060019E+03  0.58798342900E+03 -0.12759509108E+03  0.61310946305E+03  0.50400001928E-02 0. -1.
       -1    1    3    3    0  502  0.11789060019E+03 -0.58798342900E+03 -0.16303660584E+03  0.62145284718E+03  0.50400001928E-02 0.  1.
</event>
<event>
 5   0  0.3993723E-04  0.1196297E+04  0.7818609E-02  0.9116104E-01
        2   -1    0    0  501    0  0.00000000000E+00  0.00000000000E+00  0.93921911933E+03  0.93921911933E+03  0.25500000920E-02 0. -1.
       -2   -1    0    0    0  501  0.00000000000E+00  0.00000000000E+00 -0.38093544065E+03  0.38093544066E+03  0.25500000920E-02 0.  1.
    10030    2    1    2    0    0  0.00000000000E+00  0.00000000000E+00  0.55828367868E+03  0.13201545600E+04  0.11962973695E+04 0.  0.
        3    1    3    3  502    0  0.38776038485E+03  0.11909189203E+03 -0.20596242829E+03  0.45493024397E+03  0.10100000352E+00 0.  1.
       -3    1    3    3    0  502 -0.38776038485E+03 -0.11909189203E+03  0.76424610697E+03  0.86522431602E+03  0.10100000352E+00 0. -1.
</event>
<event>
 5   0  0.4122956E-04  0.1202535E+04  0.7818609E-02  0.9110640E-01
        2   -1    0    0  501    0  0.00000000000E+00  0.00000000000E+00  0.56232936069E+03  0.56232936069E+03  0.25500000920E-02 0.  1.
       -2   -1    0    0    0  501  0.00000000000E+00  0.00000000000E+00 -0.64290200056E+03  0.64290200057E+03  0.25500000920E-02 0. -1.
    10030    2    1    2    0    0  0.00000000000E+00  0.00000000000E+00 -0.80572639874E+02  0.12052313613E+04  0.12025351071E+04 0.  0.
        5    1    3    3  502    0 -0.53562307772E+03 -0.26862076969E+03 -0.89908761297E+02  0.60593306120E+03  0.46999998093E+01 0. -1.
       -5    1    3    3    0  502  0.53562307772E+03  0.26862076969E+03  0.93361214237E+01  0.59929830006E+03  0.46999998093E+01 0.  1.
</event>
<event>
 5   0  0.2315038E-04  0.1201005E+04  0.7818609E-02  0.9111978E-01
       -1   -1    0    0    0  501  0.00000000000E+00  0.00000000000E+00  0.40157322428E+03  0.40157322431E+03  0.50400001928E-02 0. -1.
        1   -1    0    0  501    0  0.00000000000E+00  0.00000000000E+00 -0.89797564709E+03  0.89797564711E+03  0.50400001928E-02 0.  1.
    10030    2    1    2    0    0  0.00000000000E+00  0.00000000000E+00 -0.49640242281E+03  0.12995488714E+04  0.12010045395E+04 0.  0.
        1    1    3    3  502    0 -0.56538678680E+03 -0.45933342023E+02 -0.34976952426E+02  0.56832691105E+03  0.50400001928E-02 0.  1.
       -1    1    3    3    0  502  0.56538678680E+03  0.45933342023E+02 -0.46142547038E+03  0.73122196038E+03  0.50400001928E-02 0. -1.
</event>
<event>
 5   0  0.2304842E-04  0.1204984E+04  0.7818609E-02  0.9108505E-01
       -1   -1    0    0    0  501  0.00000000000E+00  0.00000000000E+00  0.72494224762E+03  0.72494224764E+03  0.50400001928E-02 0. -1.
        1   -1    0    0  501    0  0.00000000000E+00  0.00000000000E+00 -0.50072476202E+03  0.50072476205E+03  0.50400001928E-02 0.  1.
    10030    2    1    2    0    0  0.00000000000E+00  0.00000000000E+00  0.22421748559E+03  0.12256670097E+04  0.12049838745E+04 0.  0.
        4    1    3    3  502    0 -0.18343532347E+03  0.47674458130E+03  0.43706221955E+03  0.67227889329E+03  0.12699999809E+01 0. -1.
       -4    1    3    3    0  502  0.18343532347E+03 -0.47674458130E+03 -0.21284473396E+03  0.55338811640E+03  0.12699999809E+01 0.  1.
</event>
<event>
 5   0  0.2244308E-04  0.1199290E+04  0.7818609E-02  0.9113478E-01
       -1   -1    0    0    0  501  0.00000000000E+00  0.00000000000E+00  0.33774782699E+03  0.33774782703E+03  0.50400001928E-02 0.  1.
        1   -1    0    0  501    0  0.00000000000E+00  0.00000000000E+00 -0.10646237505E+04  0.10646237505E+04  0.50400001928E-02 0. -1.
    10030    2    1    2    0    0  0.00000000000E+00  0.00000000000E+00 -0.72687592353E+03  0.14023715776E+04  0.11992903874E+04 0.  0.
        5    1    3    3  502    0  0.62684034047E+02  0.33196316770E+03  0.21585301525E+03  0.40092823176E+03  0.46999998093E+01 0.  1.
       -5    1    3    3    0  502 -0.62684034047E+02 -0.33196316770E+03 -0.94272893878E+03  0.10014433458E+04  0.46999998093E+01 0. -1.
</event>
<event>
 5   0  0.2244308E-04  0.1198591E+04  0.7818609E-02  0.9114091E-01
       -1   -1    0    0    0  501  0.00000000000E+00  0.00000000000E+00  0.70401194692E+03  0.70401194694E+03  0.50400001928E-02 0. -1.
        1   -1    0    0  501    0  0.00000000000E+00  0.00000000000E+00 -0.51015452555E+03  0.51015452558E+03  0.50400001928E-02 0.  1.
    10030    2    1    2    0    0  0.00000000000E+00  0.00000000000E+00  0.19385742137E+03  0.12141664725E+04  0.11985906404E+04 0.  0.
        5    1    3    3  502    0 -0.59426682650E+03 -0.54150540571E+02  0.15284979108E+03  0.61601176187E+03  0.46999998093E+01 0. -1.
       -5    1    3    3    0  502  0.59426682650E+03  0.54150540571E+02  0.41007630291E+02  0.59815471065E+03  0.46999998093E+01 0.  1.
</event>
<event>
 5   0  0.4122956E-04  0.1202610E+04  0.7818609E-02  0.9110575E-01
       -2   -1    0    0    0  501  0.00000000000E+00  0.00000000000E+00  0.61832372706E+03  0.61832372706E+03  0.25500000920E-02 0. -1.
        2   -1    0    0  501    0  0.00000000000E+00  0.00000000000E+00 -0.58475487029E+03  0.58475487029E+03  0.25500000920E-02 0.  1.
    10030    2    1    2    0    0  0.00000000000E+00  0.00000000000E+00  0.33568856771E+02  0.12030785974E+04  0.12026101793E+04 0.  0.
        5    1    3    3  502    0 -0.32195249152E+03 -0.19374561282E+02  0.52444335500E+03  0.61570423340E+03  0.46999998093E+01 0. -1.
       -5    1    3    3    0  502  0.32195249152E+03  0.19374561282E+02 -0.49087449823E+03  0.58737436396E+03  0.46999998093E+01 0.  1.
</event>
<event>
 5   0  0.4122956E-04  0.1199628E+04  0.7818609E-02  0.9113182E-01
        2   -1    0    0  501    0  0.00000000000E+00  0.00000000000E+00  0.15417995765E+04  0.15417995765E+04  0.25500000920E-02 0. -1.
       -2   -1    0    0    0  501  0.00000000000E+00  0.00000000000E+00 -0.23334878033E+03  0.23334878034E+03  0.25500000920E-02 0.  1.
    10030    2    1    2    0    0  0.00000000000E+00  0.00000000000E+00  0.13084507961E+04  0.17751483568E+04  0.11996283603E+04 0.  0.
        5    1    3    3  502    0 -0.40687674724E+03  0.43412895992E+03  0.76631886186E+03  0.97019757232E+03  0.46999998093E+01 0. -1.
       -5    1    3    3    0  502  0.40687674724E+03 -0.43412895992E+03  0.54213193428E+03  0.80495078450E+03  0.46999998093E+01 0.  1.
</event>
<event>
 5   0  0.3993723E-04  0.1200575E+04  0.7818609E-02  0.9112353E-01
       -2   -1    0    0    0  501  0.00000000000E+00  0.00000000000E+00  0.46825180140E+03  0.46825180141E+03  0.25500000920E-02 0.  1.
        2   -1    0    0  501    0  0.00000000000E+00  0.00000000000E+00 -0.76955398291E+03  0.76955398291E+03  0.25500000920E-02 0. -1.
    10030    2    1    2    0    0  0.00000000000E+00  0.00000000000E+00 -0.30130218151E+03  0.12378057843E+04  0.12005749269E+04 0.  0.
        3    1    3    3  502    0  0.46143483868E+02 -0.30355210953E+03 -0.68246876190E+03  0.74835601519E+03  0.10100000352E+00 0. -1.
       -3    1    3    3    0  502 -0.46143483868E+02  0.30355210953E+03  0.38116658039E+03  0.48944976914E+03  0.10100000352E+00 0.  1.
</event>
<event>
 5   0  0.4122956E-04  0.1201945E+04  0.7818609E-02  0.9111156E-01
       -2   -1    0    0    0  501  0.00000000000E+00  0.00000000000E+00  0.92934108726E+03  0.92934108726E+03  0.25500000920E-02 0.  1.
        2   -1    0    0  501    0  0.00000000000E+00  0.00000000000E+00 -0.38862806368E+03  0.38862806368E+03  0.25500000920E-02 0. -1.
    10030    2    1    2    0    0  0.00000000000E+00  0.00000000000E+00  0.54071302358E+03  0.13179691509E+04  0.12019451356E+04 0.  0.
        5    1    3    3  502    0 -0.44828236890E+03  0.35826682307E+03  0.74713462610E+02  0.57871961283E+03  0.46999998093E+01 0. -1.
       -5    1    3    3    0  502  0.44828236890E+03 -0.35826682307E+03  0.46599956097E+03  0.73924953812E+03  0.46999998093E+01 0.  1.
</event>
<event>
 5   0  0.2204090E-04  0.1200582E+04  0.7818609E-02  0.9112347E-01
        1   -1    0    0  501    0  0.00000000000E+00  0.00000000000E+00  0.27613181791E+04  0.27613181791E+04  0.50400001928E-02 0. -1.
       -1   -1    0    0    0  501  0.00000000000E+00  0.00000000000E+00 -0.13049902763E+03  0.13049902773E+03  0.50400001928E-02 0.  1.
    10030    2    1    2    0    0  0.00000000000E+00  0.00000000000E+00  0.26308191515E+04  0.28918172068E+04  0.12005820880E+04 0.  0.
        2    1    3    3  502    0 -0.16107814193E+03 -0.63207455876E+02  0.26999455566E+04  0.27054846810E+04  0.25500000920E-02 0. -1.
       -2    1    3    3    0  502  0.16107814193E+03  0.63207455876E+02 -0.69126405168E+02  0.18633252583E+03  0.25500000920E-02 0.  1.
</event>
<event>
 5   0  0.3993723E-04  0.1200655E+04  0.7818609E-02  0.9112283E-01
       -2   -1    0    0    0  501  0.00000000000E+00  0.00000000000E+00  0.32615819815E+03  0.32615819816E+03  0.25500000920E-02 0. -1.
        2   -1    0    0  501    0  0.00000000000E+00  0.00000000000E+00 -0.11049645059E+04  0.11049645060E+04  0.25500000920E-02 0.  1.
    10030    2    1    2    0    0  0.00000000000E+00  0.00000000000E+00 -0.77880630780E+03  0.14311227041E+04  0.12006552083E+04 0.  0.
        3    1    3    3  502    0  0.25908468104E+03  0.44807067179E+03 -0.26883271092E+02  0.51828073410E+03  0.10100000352E+00 0. -1.
       -3    1    3    3    0  502 -0.25908468104E+03 -0.44807067179E+03 -0.75192303671E+03  0.91284197001E+03  0.10100000352E+00 0.  1.
</event>
<event>
 5   0  0.3883890E-04  0.1200297E+04  0.7818609E-02  0.9112597E-01
       -2   -1    0    0    0  501  0.00000000000E+00  0.00000000000E+00  0.34234435268E+03  0.34234435269E+03  0.25500000920E-02 0. -1.
        2   -1    0    0  501    0  0.00000000000E+00  0.00000000000E+00 -0.10520932937E+04  0.10520932937E+04  0.25500000920E-02 0.  1.
    10030    2    1    2    0    0  0.00000000000E+00  0.00000000000E+00 -0.70974894104E+03  0.13944376464E+04  0.12002969593E+04 0.  0.
        2    1    3    3  502    0  0.38841655889E+02  0.31379019857E+03 -0.94748369565E+03  0.99884849526E+03  0.25500000920E-02 0.  1.
       -2    1    3    3    0  502 -0.38841655889E+02 -0.31379019857E+03  0.23773475461E+03  0.39558915115E+03  0.25500000920E-02 0. -1.
</event>
<event>
 5   0  0.3993723E-04  0.1206134E+04  0.7818609E-02  0.9107505E-01
       -2   -1    0    0    0  501  0.00000000000E+00  0.00000000000E+00  0.18852874756E+03  0.18852874758E+03  0.25500000920E-02 0.  1.
        2   -1    0    0  501    0  0.00000000000E+00  0.00000000000E+00 -0.19290941185E+04  0.19290941185E+04  0.25500000920E-02 0. -1.
    10030    2    1    2    0    0  0.00000000000E+00  0.00000000000E+00 -0.17405653709E+04  0.21176228661E+04  0.12061338203E+04 0.  0.
        3    1    3    3  502    0  0.76993184428E+02  0.57376362649E+03 -0.11669773285E+04  0.13026775292E+04  0.10100000352E+00 0.  1.
       -3    1    3    3    0  502 -0.76993184428E+02 -0.57376362649E+03 -0.57358804243E+03  0.81494533691E+03  0.10100000352E+00 0. -1.
</event>
<event>
 5   0  0.1541375E-04  0.1197868E+04  0.7818609E-02  0.9114725E-01
        4   -1    0    0  501    0  0.00000000000E+00  0.00000000000E+00  0.89553869601E+03  0.89553959653E+03  0.12699999809E+01 0.  1.
       -4   -1    0    0    0  501  0.00000000000E+00  0.00000000000E+00 -0.40056321550E+03  0.40056522879E+03  0.12699999809E+01 0. -1.
    10030    2    1    2    0    0  0.00000000000E+00  0.00000000000E+00  0.49497548050E+03  0.12961048253E+04  0.11978676855E+04 0.  0.
        5    1    3    3  502    0 -0.30675445326E+03  0.25863901361E+03 -0.23362022523E+03  0.46431986129E+03  0.46999998093E+01 0. -1.
       -5    1    3    3    0  502  0.30675445326E+03 -0.25863901361E+03  0.72859570574E+03  0.83178496402E+03  0.46999998093E+01 0.  1.
</event>
<event>
 5   0  0.3883890E-04  0.1199896E+04  0.7818609E-02  0.9112947E-01
       -2   -1    0    0    0  501  0.00000000000E+00  0.00000000000E+00  0.72698546058E+03  0.72698546059E+03  0.25500000920E-02 0. -1.
        2   -1    0    0  501    0  0.00000000000E+00  0.00000000000E+00 -0.49511008489E+03  0.49511008490E+03  0.25500000920E-02 0.  1.
    10030    2    1    2    0    0  0.00000000000E+00  0.00000000000E+00  0.23187537569E+03  0.12220955455E+04  0.11998963840E+04 0.  0.
        2    1    3    3  502    0 -0.13118839926E+03 -0.35339778512E+02 -0.47923517703E+03  0.49812212454E+03  0.25500000920E-02 0.  1.
       -2    1    3    3    0  502  0.13118839926E+03  0.35339778512E+02  0.71111055272E+03  0.72397342095E+03  0.25500000920E-02 0. -1.
</event>
<event>
 5   0  0.2204090E-04  0.1199549E+04  0.7818609E-02  0.9113252E-01
       -1   -1    0    0    0  501  0.00000000000E+00  0.00000000000E+00  0.29242359303E+03  0.29242359307E+03  0.50400001928E-02 0.  1.
        1   -1    0    0  501    0  0.00000000000E+00  0.00000000000E+00 -0.12301651060E+04  0.12301651061E+04  0.50400001928E-02 0. -1.
    10030    2    1    2    0    0  0.00000000000E+00  0.00000000000E+00 -0.93774151301E+03  0.15225886991E+04  0.11995487491E+04 0.  0.
        2    1    3    3  502    0  0.44780402870E+03 -0.93220860413E+02 -0.96130519918E+03  0.10645779741E+04  0.25500000920E-02 0. -1.
       -2    1    3    3    0  502 -0.44780402870E+03  0.93220860413E+02  0.23563686168E+02  0.45801072504E+03  0.25500000920E-02 0.  1.
</event>
<event>
 5   0  0.2204090E-04  0.1200384E+04  0.7818609E-02  0.9112520E-01
       -1   -1    0    0    0  501  0.00000000000E+00  0.00000000000E+00  0.57821604403E+03  0.57821604405E+03  0.50400001928E-02 0. -1.
        1   -1    0    0  501    0  0.00000000000E+00  0.00000000000E+00 -0.62300330939E+03  0.62300330941E+03  0.50400001928E-02 0.  1.
    10030    2    1    2    0    0  0.00000000000E+00  0.00000000000E+00 -0.44787265367E+02  0.12012193535E+04  0.12003841202E+04 0.  0.
        2    1    3    3  502    0 -0.24599233677E+03  0.27478702252E+03 -0.49623167827E+03  0.61827665007E+03  0.25500000920E-02 0.  1.
       -2    1    3    3    0  502  0.24599233677E+03 -0.27478702252E+03  0.45144441290E+03  0.58294270340E+03  0.25500000920E-02 0. -1.
</event>
<event>
 5   0  0.3832662E-04  0.1203924E+04  0.7818609E-02  0.9109429E-01
       -2   -1    0    0    0  501  0.00000000000E+00  0.00000000000E+00  0.61724786975E+03  0.61724786976E+03  0.25500000920E-02 0. -1.
        2   -1    0    0  501    0  0.00000000000E+00  0.00000000000E+00 -0.58705438725E+03  0.58705438725E+03  0.25500000920E-02 0.  1.
    10030    2    1    2    0    0  0.00000000000E+00  0.00000000000E+00  0.30193482504E+02  0.12043022570E+04  0.12039237018E+04 0.  0.
        4    1    3    3  502    0 -0.27063776427E+02 -0.40869687503E+03  0.45636000148E+03  0.61321419382E+03  0.12699999809E+01 0. -1.
       -4    1    3    3    0  502  0.27063776427E+02  0.40869687503E+03 -0.42616651897E+03  0.59108806319E+03  0.12699999809E+01 0.  1.
</event>
<event>
 5   0  0.2340731E-04  0.1198823E+04  0.7818609E-02  0.9113888E-01
       -1   -1    0    0    0  501  0.00000000000E+00  0.00000000000E+00  0.24160252672E+03  0.24160252678E+03  0.50400001928E-02 0.  1.
        1   -1    0    0  501    0  0.00000000000E+00  0.00000000000E+00 -0.14871280104E+04  0.14871280104E+04  0.50400001928E-02 0. -1.
    10030    2    1    2    0    0  0.00000000000E+00  0.00000000000E+00 -0.12455254837E+04  0.17287305372E+04  0.11988225639E+04 0.  0.
        3    1    3    3  502    0 -0.23205288917E+03  0.68066612258E+02  0.16813469293E+03  0.29453504417E+03  0.10100000352E+00 0.  1.
       -3    1    3    3    0  502  0.23205288917E+03 -0.68066612258E+02 -0.14136601766E+04  0.14341954930E+04  0.10100000352E+00 0. -1.
</event>
<event>
 5   0  0.1541375E-04  0.1200244E+04  0.7818609E-02  0.9112643E-01
        4   -1    0    0  501    0  0.00000000000E+00  0.00000000000E+00  0.40285743962E+03  0.40285944144E+03  0.12699999809E+01 0.  1.
       -4   -1    0    0    0  501  0.00000000000E+00  0.00000000000E+00 -0.89397532164E+03  0.89397622373E+03  0.12699999809E+01 0. -1.
    10030    2    1    2    0    0  0.00000000000E+00  0.00000000000E+00 -0.49111788202E+03  0.12968356652E+04  0.12002441287E+04 0.  0.
        4    1    3    3  502    0 -0.15497849977E+03  0.20837535894E+03  0.33900410350E+03  0.42704100587E+03  0.12699999809E+01 0.  1.
       -4    1    3    3    0  502  0.15497849977E+03 -0.20837535894E+03 -0.83012198552E+03  0.86979465930E+03  0.12699999809E+01 0. -1.
</event>
<event>
 5   0  0.4024486E-04  0.1202974E+04  0.7818609E-02  0.9110258E-01
        2   -1    0    0  501    0  0.00000000000E+00  0.00000000000E+00  0.86877245215E+03  0.86877245215E+03  0.25500000920E-02 0. -1.
       -2   -1    0    0    0  501  0.00000000000E+00  0.00000000000E+00 -0.41643412734E+03  0.41643412735E+03  0.25500000920E-02 0.  1.
    10030    2    1    2    0    0  0.00000000000E+00  0.00000000000E+00  0.45233832481E+03  0.12852065795E+04  0.12029738118E+04 0.  0.
        1    1    3    3  502    0  0.16379683382E+03 -0.27357524447E+03 -0.31870769757E+03  0.45082969475E+03  0.50400001928E-02 0.  1.
       -1    1    3    3    0  502 -0.16379683382E+03  0.27357524447E+03  0.77104602237E+03  0.83437688475E+03  0.50400001928E-02 0. -1.
</event>
<event>
 5   0  0.3993723E-04  0.1198422E+04  0.7818609E-02  0.9114239E-01
       -2   -1    0    0    0  501  0.00000000000E+00  0.00000000000E+00  0.33106883836E+03  0.33106883837E+03  0.25500000920E-02 0.  1.
        2   -1    0    0  501    0  0.00000000000E+00  0.00000000000E+00 -0.10845285747E+04  0.10845285747E+04  0.25500000920E-02 0. -1.
    10030    2    1    2    0    0  0.00000000000E+00  0.00000000000E+00 -0.75345973638E+03  0.14155974131E+04  0.11984216544E+04 0.  0.
        3    1    3    3  502    0  0.26760213682E+03  0.45748902547E+03 -0.70693579149E+03  0.88355267842E+03  0.10100000352E+00 0. -1.
       -3    1    3    3    0  502 -0.26760213682E+03 -0.45748902547E+03 -0.46523944882E+02  0.53204473468E+03  0.10100000352E+00 0.  1.
</event>
<event>
 5   0  0.3883890E-04  0.1199762E+04  0.7818609E-02  0.9113065E-01
       -2   -1    0    0    0  501  0.00000000000E+00  0.00000000000E+00  0.23916681034E+03  0.23916681035E+03  0.25500000920E-02 0. -1.
        2   -1    0    0  501    0  0.00000000000E+00  0.00000000000E+00 -0.15046289195E+04  0.15046289195E+04  0.25500000920E-02 0.  1.
    10030    2    1    2    0    0  0.00000000000E+00  0.00000000000E+00 -0.12654621092E+04  0.17437957299E+04  0.11997621422E+04 0.  0.
        2    1    3    3  502    0 -0.34447198052E+03  0.22928002763E+03 -0.14795718562E+01  0.41380244752E+03  0.25500000920E-02 0. -1.
       -2    1    3    3    0  502  0.34447198052E+03 -0.22928002763E+03 -0.12639825373E+04  0.13299932824E+04  0.25500000920E-02 0.  1.
</event>
<event>
 5   0  0.2315038E-04  0.1210354E+04  0.7818609E-02  0.9103842E-01
       -1   -1    0    0    0  501  0.00000000000E+00  0.00000000000E+00  0.51207193797E+03  0.51207193799E+03  0.50400001928E-02 0.  1.
        1   -1    0    0  501    0  0.00000000000E+00  0.00000000000E+00 -0.71521026980E+03  0.71521026981E+03  0.50400001928E-02 0. -1.
    10030    2    1    2    0    0  0.00000000000E+00  0.00000000000E+00 -0.20313833183E+03  0.12272822078E+04  0.12103538473E+04 0.  0.
        1    1    3    3  502    0 -0.38557622455E+03  0.33470806086E+03  0.22784468678E+03  0.55911690393E+03  0.50400001928E-02 0.  1.
       -1    1    3    3    0  502  0.38557622455E+03 -0.33470806086E+03 -0.43098301861E+03  0.66816530387E+03  0.50400001928E-02 0. -1.
</event>
<event>
 5   0  0.3832662E-04  0.1181170E+04  0.7818609E-02  0.9129500E-01
       -2   -1    0    0    0  501  0.00000000000E+00  0.00000000000E+00  0.26402206254E+03  0.26402206256E+03  0.25500000920E-02 0.  1.
        2   -1    0    0  501    0  0.00000000000E+00  0.00000000000E+00 -0.13210665603E+04  0.13210665603E+04  0.25500000920E-02 0. -1.
    10030    2    1    2    0    0  0.00000000000E+00  0.00000000000E+00 -0.10570444978E+04  0.15850886229E+04  0.11811701283E+04 0.  0.
        4    1    3    3  502    0  0.29865333599E+03 -0.23652433651E+03  0.77076445748E+02  0.38869006709E+03  0.12699999809E+01 0. -1.
       -4    1    3    3    0  502 -0.29865333599E+03  0.23652433651E+03 -0.11341209435E+04  0.11963985558E+04  0.12699999809E+01 0.  1.
</event>
<event>
 5   0  0.2340731E-04  0.1199707E+04  0.7818609E-02  0.9113113E-01
        1   -1    0    0  501    0  0.00000000000E+00  0.00000000000E+00  0.12207493255E+04  0.12207493255E+04  0.50400001928E-02 0. -1.
       -1   -1    0    0    0  501  0.00000000000E+00  0.00000000000E+00 -0.29475676949E+03  0.29475676953E+03  0.50400001928E-02 0.  1.
    10030    2    1    2    0    0  0.00000000000E+00  0.00000000000E+00  0.92599255604E+03  0.15155060951E+04  0.11997068435E+04 0.  0.
        3    1    3    3  502    0 -0.14015911717E+02 -0.32652430939E+03 -0.17240927457E+03  0.36951256888E+03  0.10100000352E+00 0.  1.
       -3    1    3    3    0  502  0.14015911717E+02  0.32652430939E+03  0.10984018306E+04  0.11459935262E+04  0.10100000352E+00 0. -1.
</event>
<event>
 5   0  0.3993723E-04  0.1199171E+04  0.7818609E-02  0.9113582E-01
       -2   -1    0    0    0  501  0.00000000000E+00  0.00000000000E+00  0.42665491725E+03  0.42665491726E+03  0.25500000920E-02 0. -1.
        2   -1    0    0  501    0  0.00000000000E+00  0.00000000000E+00 -0.84260835472E+03  0.84260835472E+03  0.25500000920E-02 0.  1.
    10030    2    1    2    0    0  0.00000000000E+00  0.00000000000E+00 -0.41595343747E+03  0.12692632720E+04  0.11991713770E+04 0.  0.
        3    1    3    3  502    0 -0.19313082958E+03 -0.14022896464E+03 -0.79016219098E+03  0.82542109139E+03  0.10100000352E+00 0.  1.
       -3    1    3    3    0  502  0.19313082958E+03  0.14022896464E+03  0.37420875352E+03  0.44384218058E+03  0.10100000352E+00 0. -1.
</event>
<event>
 5   0  0.3993723E-04  0.1196507E+04  0.7818609E-02  0.9115919E-01
       -2   -1    0    0    0  501  0.00000000000E+00  0.00000000000E+00  0.72641381665E+03  0.72641381666E+03  0.25500000920E-02 0. -1.
        2   -1    0    0  501    0  0.00000000000E+00  0.00000000000E+00 -0.49270455612E+03  0.49270455613E+03  0.25500000920E-02 0.  1.
    10030    2    1    2    0    0  0.00000000000E+00  0.00000000000E+00  0.23370926053E+03  0.12191183728E+04  0.11965072454E+04 0.  0.
        3    1    3    3  502    0  0.53069958715E+03 -0.18866016512E+03  0.32234048136E+03  0.64895154351E+03  0.10100000352E+00 0. -1.
       -3    1    3    3    0  502 -0.53069958715E+03  0.18866016512E+03 -0.88631220833E+02  0.57016682928E+03  0.10100000352E+00 0.  1.
</event>
<event>
 5   0  0.2304842E-04  0.1200875E+04  0.7818609E-02  0.9112091E-01
        1   -1    0    0  501    0  0.00000000000E+00  0.00000000000E+00  0.55464596921E+03  0.55464596923E+03  0.50400001928E-02 0.  1.
       -1   -1    0    0    0  501  0.00000000000E+00  0.00000000000E+00 -0.65000904430E+03  0.65000904432E+03  0.50400001928E-02 0. -1.
    10030    2    1    2    0    0  0.00000000000E+00  0.00000000000E+00 -0.95363075093E+02  0.12046550136E+04  0.12008745087E+04 0.  0.
        4    1    3    3  502    0  0.40534104466E+03 -0.28498394398E+03 -0.38787460010E+03  0.62925791939E+03  0.12699999809E+01 0. -1.
       -4    1    3    3    0  502 -0.40534104466E+03  0.28498394398E+03  0.29251152501E+03  0.57539709417E+03  0.12699999809E+01 0.  1.
</event>
<event>
 5   0  0.2315038E-04  0.1200969E+04  0.7818609E-02  0.9112009E-01
        1   -1    0    0  501    0  0.00000000000E+00  0.00000000000E+00  0.77865759945E+03  0.77865759947E+03  0.50400001928E-02 0.  1.
       -1   -1    0    0    0  501  0.00000000000E+00  0.00000000000E+00 -0.46308087388E+03  0.46308087390E+03  0.50400001928E-02 0. -1.
    10030    2    1    2    0    0  0.00000000000E+00  0.00000000000E+00  0.31557672558E+03  0.12417384734E+04  0.12009686784E+04 0.  0.
        1    1    3    3  502    0  0.93884630522E+01 -0.17094256311E+03 -0.43731277523E+03  0.46962960568E+03  0.50400001928E-02 0. -1.
       -1    1    3    3    0  502 -0.93884630522E+01  0.17094256311E+03  0.75288950081E+03  0.77210886770E+03  0.50400001928E-02 0.  1.
</event>
<event>
 5   0  0.4024486E-04  0.1198006E+04  0.7818609E-02  0.9114604E-01
        2   -1    0    0  501    0  0.00000000000E+00  0.00000000000E+00  0.48846407231E+03  0.48846407232E+03  0.25500000920E-02 0.  1.
       -2   -1    0    0    0  501  0.00000000000E+00  0.00000000000E+00 -0.73455628895E+03  0.73455628896E+03  0.25500000920E-02 0. -1.
    10030    2    1    2    0    0  0.00000000000E+00  0.00000000000E+00 -0.24609221664E+03  0.12230203613E+04  0.11980056031E+04 0.  0.
        1    1    3    3  502    0 -0.45803552869E+02 -0.58380030390E+03  0.56155821844E+01  0.58562128981E+03  0.50400001928E-02 0.  1.
       -1    1    3    3    0  502  0.45803552869E+02  0.58380030390E+03 -0.25170779883E+03  0.63739907147E+03  0.50400001928E-02 0. -1.
</event>
<event>
 5   0  0.2204090E-04  0.1199012E+04  0.7818609E-02  0.9113721E-01
       -1   -1    0    0    0  501  0.00000000000E+00  0.00000000000E+00  0.62969497008E+03  0.62969497010E+03  0.50400001928E-02 0.  1.
        1   -1    0    0  501    0  0.00000000000E+00  0.00000000000E+00 -0.57076464915E+03  0.57076464917E+03  0.50400001928E-02 0. -1.
    10030    2    1    2    0    0  0.00000000000E+00  0.00000000000E+00  0.58930320936E+02  0.12004596193E+04  0.11990123080E+04 0.  0.
        2    1    3    3  502    0  0.56215514009E+02 -0.26526142224E+03  0.56479161409E+03  0.62650887743E+03  0.25500000920E-02 0.  1.
       -2    1    3    3    0  502 -0.56215514009E+02  0.26526142224E+03 -0.50586129315E+03  0.57395074184E+03  0.25500000920E-02 0. -1.
</event>
<event>
 5   0  0.4122956E-04  0.1202302E+04  0.7818609E-02  0.9110844E-01
       -2   -1    0    0    0  501  0.00000000000E+00  0.00000000000E+00  0.32043833442E+03  0.32043833443E+03  0.25500000920E-02 0. -1.
        2   -1    0    0  501    0  0.00000000000E+00  0.00000000000E+00 -0.11277764577E+04  0.11277764577E+04  0.25500000920E-02 0.  1.
    10030    2    1    2    0    0  0.00000000000E+00  0.00000000000E+00 -0.80733812326E+03  0.14482147921E+04  0.12023024739E+04 0.  0.
        5    1    3    3  502    0 -0.14665459401E+03  0.47545965128E+02 -0.11035362822E+04  0.11142632566E+04  0.46999998093E+01 0.  1.
       -5    1    3    3    0  502  0.14665459401E+03 -0.47545965128E+02  0.29619815895E+03  0.33395153557E+03  0.46999998093E+01 0. -1.
</event>
<event>
 5   0  0.2204090E-04  0.1196417E+04  0.7818609E-02  0.9115998E-01
        1   -1    0    0  501    0  0.00000000000E+00  0.00000000000E+00  0.93011419671E+03  0.93011419673E+03  0.50400001928E-02 0.  1.
       -1   -1    0    0    0  501  0.00000000000E+00  0.00000000000E+00 -0.38474149608E+03  0.38474149611E+03  0.50400001928E-02 0. -1.
    10030    2    1    2    0    0  0.00000000000E+00  0.00000000000E+00  0.54537270064E+03  0.13148556928E+04  0.11964171975E+04 0.  0.
        2    1    3    3  502    0 -0.99846964390E+01  0.58788322491E+03  0.15156168423E+03  0.60718804701E+03  0.25500000920E-02 0. -1.
       -2    1    3    3    0  502  0.99846964390E+01 -0.58788322491E+03  0.39381101640E+03  0.70766764582E+03  0.25500000920E-02 0.  1.
</event>
<event>
 5   0  0.2244308E-04  0.1198338E+04  0.7818609E-02  0.9114312E-01
       -1   -1    0    0    0  501  0.00000000000E+00  0.00000000000E+00  0.48449686544E+03  0.48449686546E+03  0.50400001928E-02 0.  1.
        1   -1    0    0  501    0  0.00000000000E+00  0.00000000000E+00 -0.74098262232E+03  0.74098262234E+03  0.50400001928E-02 0. -1.
    10030    2    1    2    0    0  0.00000000000E+00  0.00000000000E+00 -0.25648575689E+03  0.12254794878E+04  0.11983384462E+04 0.  0.
        5    1    3    3  502    0 -0.44100587355E+03 -0.10765327636E+03 -0.52813162773E+03  0.69643414234E+03  0.46999998093E+01 0. -1.
       -5    1    3    3    0  502  0.44100587355E+03  0.10765327636E+03  0.27164587084E+03  0.52904534546E+03  0.46999998093E+01 0.  1.
</event>
<event>
 5   0  0.2315038E-04  0.1199181E+04  0.7818609E-02  0.9113574E-01
       -1   -1    0    0    0  501  0.00000000000E+00  0.00000000000E+00  0.95585993888E+03  0.95585993889E+03  0.50400001928E-02 0. -1.
        1   -1    0    0  501    0  0.00000000000E+00  0.00000000000E+00 -0.37611002992E+03  0.37611002995E+03  0.50400001928E-02 0.  1.
    10030    2    1    2    0    0  0.00000000000E+00  0.00000000000E+00  0.57974990896E+03  0.13319699688E+04  0.11991805706E+04 0.  0.
        1    1    3    3  502    0  0.16132617593E+03 -0.25774070924E+03 -0.28411970294E+03  0.41614950903E+03  0.50400001928E-02 0.  1.
       -1    1    3    3    0  502 -0.16132617593E+03  0.25774070924E+03  0.86386961190E+03  0.91582045982E+03  0.50400001928E-02 0. -1.
</event>
<event>
 5   0  0.4122956E-04  0.1199892E+04  0.7818609E-02  0.9112951E-01
        2   -1    0    0  501    0  0.00000000000E+00  0.00000000000E+00  0.57934199835E+03  0.57934199836E+03  0.25500000920E-02 0. -1.
       -2   -1    0    0    0  501  0.00000000000E+00  0.00000000000E+00 -0.62128252519E+03  0.62128252520E+03  0.25500000920E-02 0.  1.
    10030    2    1    2    0    0  0.00000000000E+00  0.00000000000E+00 -0.41940526841E+02  0.12006245236E+04  0.11998917613E+04 0.  0.
        5    1    3    3  502    0  0.52460102388E+03 -0.29084586142E+03 -0.31720209849E+02  0.60068778169E+03  0.46999998093E+01 0.  1.
       -5    1    3    3    0  502 -0.52460102388E+03  0.29084586142E+03 -0.10220316992E+02  0.59993674187E+03  0.46999998093E+01 0. -1.
</event>
<event>
 5   0  0.2204090E-04  0.1193968E+04  0.7818609E-02  0.9118153E-01
       -1   -1    0    0    0  501  0.00000000000E+00  0.00000000000E+00  0.14987439244E+03  0.14987439253E+03  0.50400001928E-02 0.  1.
        1   -1    0    0  501    0  0.00000000000E+00  0.00000000000E+00 -0.23779219520E+04  0.23779219520E+04  0.50400001928E-02 0. -1.
    10030    2    1    2    0    0  0.00000000000E+00  0.00000000000E+00 -0.22280475595E+04  0.25277963445E+04  0.11939675171E+04 0.  0.
        2    1    3    3  502    0  0.60474534922E+02 -0.41923003413E+03 -0.20046797193E+04  0.20489391811E+04  0.25500000920E-02 0. -1.
       -2    1    3    3    0  502 -0.60474534922E+02  0.41923003413E+03 -0.22336784025E+03  0.47885716342E+03  0.25500000920E-02 0.  1.
</event>
<event>
 5   0  0.2340731E-04  0.1200108E+04  0.7818609E-02  0.9112762E-01
        1   -1    0    0  501    0  0.00000000000E+00  0.00000000000E+00  0.85326960895E+03  0.85326960896E+03  0.50400001928E-02 0. -1.
       -1   -1    0    0    0  501  0.00000000000E+00  0.00000000000E+00 -0.42198249911E+03  0.42198249914E+03  0.50400001928E-02 0.  1.
    10030    2    1    2    0    0  0.00000000000E+00  0.00000000000E+00  0.43128710984E+03  0.12752521081E+04  0.12001080652E+04 0.  0.
        3    1    3    3  502    0  0.10951619714E+03 -0.68482844905E+02  0.83832211325E+03  0.84821440288E+03  0.10100000352E+00 0. -1.
       -3    1    3    3    0  502 -0.10951619714E+03  0.68482844905E+02 -0.40703500341E+03  0.42703770523E+03  0.10100000352E+00 0.  1.
</event>
<event>
 5   0  0.3993723E-04  0.1198090E+04  0.7818609E-02  0.9114530E-01
       -2   -1    0    0    0  501  0.00000000000E+00  0.00000000000E+00  0.16641409798E+03  0.16641409800E+03  0.25500000920E-02 0.  1.
        2   -1    0    0  501    0  0.00000000000E+00  0.00000000000E+00 -0.21563990875E+04  0.21563990875E+04  0.25500000920E-02 0. -1.
    10030    2    1    2    0    0  0.00000000000E+00  0.00000000000E+00 -0.19899849895E+04  0.23228131855E+04  0.11980904959E+04 0.  0.
        3    1    3    3  502    0 -0.83668449128E+02  0.53297381942E+03 -0.49019252577E+03  0.72893773677E+03  0.10100000352E+00 0. -1.
       -3    1    3    3    0  502  0.83668449128E+02 -0.53297381942E+03 -0.14997924638E+04  0.15938754487E+04  0.10100000352E+00 0.  1.
</event>
<event>
 5   0  0.4122956E-04  0.1202312E+04  0.7818609E-02  0.9110835E-01
       -2   -1    0    0    0  501  0.00000000000E+00  0.00000000000E+00  0.44519052368E+03  0.44519052369E+03  0.25500000920E-02 0.  1.
        2   -1    0    0  501    0  0.00000000000E+00  0.00000000000E+00 -0.81176119361E+03  0.81176119361E+03  0.25500000920E-02 0. -1.
    10030    2    1    2    0    0  0.00000000000E+00  0.00000000000E+00 -0.36657066992E+03  0.12569517173E+04  0.12023117581E+04 0.  0.
        5    1    3    3  502    0  0.89371895762E+01 -0.17782105524E+03 -0.78354428800E+03  0.80353216631E+03  0.46999998093E+01 0. -1.
       -5    1    3    3    0  502 -0.89371895762E+01  0.17782105524E+03  0.41697361808E+03  0.45341955098E+03  0.46999998093E+01 0.  1.
</event>
<event>
 5   0  0.4024486E-04  0.1212180E+04  0.7818609E-02  0.9102262E-01
        2   -1    0    0  501    0  0.00000000000E+00  0.00000000000E+00  0.54789776959E+03  0.54789776959E+03  0.25500000920E-02 0.  1.
       -2   -1    0    0    0  501  0.00000000000E+00  0.00000000000E+00 -0.67046264681E+03  0.67046264682E+03  0.25500000920E-02 0. -1.
    10030    2    1    2    0    0  0.00000000000E+00  0.00000000000E+00 -0.12256487722E+03  0.12183604164E+04  0.12121798361E+04 0.  0.
        1    1    3    3  502    0  0.74473793734E+02  0.49588452064E+03 -0.40345499068E+03  0.64360215451E+03  0.50400001928E-02 0. -1.
       -1    1    3    3    0  502 -0.74473793734E+02 -0.49588452064E+03  0.28089011346E+03  0.57475826190E+03  0.50400001928E-02 0.  1.
</event>
<event>
 5   0  0.2304842E-04  0.1200052E+04  0.7818609E-02  0.9112811E-01
        1   -1    0    0  501    0  0.00000000000E+00  0.00000000000E+00  0.12438390429E+04  0.12438390430E+04  0.50400001928E-02 0.  1.
       -1   -1    0    0    0  501  0.00000000000E+00  0.00000000000E+00 -0.28945152549E+03  0.28945152553E+03  0.50400001928E-02 0. -1.
    10030    2    1    2    0    0  0.00000000000E+00  0.00000000000E+00  0.95438751746E+03  0.15332905685E+04  0.12000518463E+04 0.  0.
        4    1    3    3  502    0 -0.37229091285E+02 -0.59885069534E+03  0.47129213994E+03  0.76297185703E+03  0.12699999809E+01 0. -1.
       -4    1    3    3    0  502  0.37229091285E+02  0.59885069534E+03  0.48309537752E+03  0.77031871146E+03  0.12699999809E+01 0.  1.
</event>
<event>
 5   0  0.2340731E-04  0.1200562E+04  0.7818609E-02  0.9112365E-01
       -1   -1    0    0    0  501  0.00000000000E+00  0.00000000000E+00  0.17207353396E+03  0.17207353403E+03  0.50400001928E-02 0. -1.
        1   -1    0    0  501    0  0.00000000000E+00  0.00000000000E+00 -0.20940876153E+04  0.20940876154E+04  0.50400001928E-02 0.  1.
    10030    2    1    2    0    0  0.00000000000E+00  0.00000000000E+00 -0.19220140814E+04  0.22661611494E+04  0.12005616294E+04 0.  0.
        3    1    3    3  502    0  0.47233189794E+03 -0.34048857238E+02 -0.26469491270E+03  0.54251281414E+03  0.10100000352E+00 0. -1.
       -3    1    3    3    0  502 -0.47233189794E+03  0.34048857238E+02 -0.16573191687E+04  0.17236483352E+04  0.10100000352E+00 0.  1.
</event>
<event>
 5   0  0.2315038E-04  0.1209181E+04  0.7818609E-02  0.9104858E-01
        1   -1    0    0  501    0  0.00000000000E+00  0.00000000000E+00  0.62240729271E+03  0.62240729273E+03  0.50400001928E-02 0. -1.
       -1   -1    0    0    0  501  0.00000000000E+00  0.00000000000E+00 -0.58728416071E+03  0.58728416074E+03  0.50400001928E-02 0.  1.
    10030    2    1    2    0    0  0.00000000000E+00  0.00000000000E+00  0.35123131996E+02  0.12096914535E+04  0.12091814497E+04 0.  0.
        1    1    3    3  502    0  0.55855989914E+03 -0.18027309446E+03 -0.12755958723E+03  0.60063216516E+03  0.50400001928E-02 0.  1.
       -1    1    3    3    0  502 -0.55855989914E+03  0.18027309446E+03  0.16268271923E+03  0.60905928830E+03  0.50400001928E-02 0. -1.
</event>
<event>
 5   0  0.3883890E-04  0.1197684E+04  0.7818609E-02  0.9114886E-01
        2   -1    0    0  501    0  0.00000000000E+00  0.00000000000E+00  0.24364541225E+04  0.24364541225E+04  0.25500000920E-02 0.  1.
       -2   -1    0    0    0  501  0.00000000000E+00  0.00000000000E+00 -0.14718588805E+03  0.14718588808E+03  0.25500000920E-02 0. -1.
    10030    2    1    2    0    0  0.00000000000E+00  0.00000000000E+00  0.22892682345E+04  0.25836400106E+04  0.11976838711E+04 0.  0.
        2    1    3    3  502    0  0.41232854456E+03  0.13880485903E+03  0.20323148914E+04  0.20783612380E+04  0.25500000920E-02 0.  1.
       -2    1    3    3    0  502 -0.41232854456E+03 -0.13880485903E+03  0.25695334301E+03  0.50527877260E+03  0.25500000920E-02 0. -1.
</event>
<event>
 5   0  0.2315038E-04  0.1223366E+04  0.7818609E-02  0.9092646E-01
       -1   -1    0    0    0  501  0.00000000000E+00  0.00000000000E+00  0.23734711673E+03  0.23734711678E+03  0.50400001928E-02 0.  1.
        1   -1    0    0  501    0  0.00000000000E+00  0.00000000000E+00 -0.15764096574E+04  0.15764096574E+04  0.50400001928E-02 0. -1.
    10030    2    1    2    0    0  0.00000000000E+00  0.00000000000E+00 -0.13390625407E+04  0.18137567742E+04  0.12233663180E+04 0.  0.
        1    1    3    3  502    0  0.66275709041E+02 -0.18493484785E+03 -0.15283658263E+04  0.15409397998E+04  0.50400001928E-02 0. -1.
       -1    1    3    3    0  502 -0.66275709041E+02  0.18493484785E+03  0.18930328561E+03  0.27281697441E+03  0.50400001928E-02 0.  1.
</event>
<event>
 5   0  0.1541375E-04  0.1200997E+04  0.7818609E-02  0.9111984E-01
       -4   -1    0    0    0  501  0.00000000000E+00  0.00000000000E+00  0.94742812298E+03  0.94742897418E+03  0.12699999809E+01 0.  1.
        4   -1    0    0  501    0  0.00000000000E+00  0.00000000000E+00 -0.38060572222E+03  0.38060784108E+03  0.12699999809E+01 0. -1.
    10030    2    1    2    0    0  0.00000000000E+00  0.00000000000E+00  0.56682240076E+03  0.13280368153E+04  0.12009971477E+04 0.  0.
        2    1    3    3  502    0 -0.29471396348E+03 -0.13537333070E+03 -0.27543515729E+03  0.42549592808E+03  0.25500000920E-02 0. -1.
       -2    1    3    3    0  502  0.29471396348E+03  0.13537333070E+03  0.84225755804E+03  0.90254088718E+03  0.25500000920E-02 0.  1.
</event>
<event>
 5   0  0.2304842E-04  0.1198578E+04  0.7818609E-02  0.9114102E-01
       -1   -1    0    0    0  501  0.00000000000E+00  0.00000000000E+00  0.53826201028E+03  0.53826201030E+03  0.50400001928E-02 0. -1.
        1   -1    0    0  501    0  0.00000000000E+00  0.00000000000E+00 -0.66723498683E+03  0.66723498685E+03  0.50400001928E-02 0.  1.
    10030    2    1    2    0    0  0.00000000000E+00  0.00000000000E+00 -0.12897297655E+03  0.12054969972E+04  0.11985778996E+04 0.  0.
        4    1    3    3  502    0 -0.36875768853E+03 -0.43379139864E+03  0.12364524028E+03  0.58262077609E+03  0.12699999809E+01 0. -1.
       -4    1    3    3    0  502  0.36875768853E+03  0.43379139864E+03 -0.25261821683E+03  0.62287622106E+03  0.12699999809E+01 0.  1.
</event>
<event>
 5   0  0.4024486E-04  0.1205828E+04  0.7818609E-02  0.9107771E-01
        2   -1    0    0  501    0  0.00000000000E+00  0.00000000000E+00  0.57595645250E+03  0.57595645250E+03  0.25500000920E-02 0. -1.
       -2   -1    0    0    0  501  0.00000000000E+00  0.00000000000E+00 -0.63113318461E+03  0.63113318461E+03  0.25500000920E-02 0.  1.
    10030    2    1    2    0    0  0.00000000000E+00  0.00000000000E+00 -0.55176732110E+02  0.12070896371E+04  0.12058278983E+04 0.  0.
        1    1    3    3  502    0 -0.12244846403E+03 -0.21395873645E+03  0.52319937401E+03  0.57836800762E+03  0.50400001928E-02 0. -1.
       -1    1    3    3    0  502  0.12244846403E+03  0.21395873645E+03 -0.57837610612E+03  0.62872162950E+03  0.50400001928E-02 0.  1.
</event>
<event>
 5   0  0.3993723E-04  0.1201342E+04  0.7818609E-02  0.9111683E-01
       -2   -1    0    0    0  501  0.00000000000E+00  0.00000000000E+00  0.21500059358E+03  0.21500059360E+03  0.25500000920E-02 0. -1.
        2   -1    0    0  501    0  0.00000000000E+00  0.00000000000E+00 -0.16781605751E+04  0.16781605751E+04  0.25500000920E-02 0.  1.
    10030    2    1    2    0    0  0.00000000000E+00  0.00000000000E+00 -0.14631599815E+04  0.18931611687E+04  0.12013417828E+04 0.  0.
        3    1    3    3  502    0 -0.18376443420E+02 -0.47361854948E+03 -0.13130603748E+04  0.13959870279E+04  0.10100000352E+00 0.  1.
       -3    1    3    3    0  502  0.18376443420E+02  0.47361854948E+03 -0.15009960669E+03  0.49717414074E+03  0.10100000352E+00 0. -1.
</event>
<event>
 5   0  0.2204090E-04  0.1199045E+04  0.7818609E-02  0.9113693E-01
        1   -1    0    0  501    0  0.00000000000E+00  0.00000000000E+00  0.56338302855E+03  0.56338302858E+03  0.50400001928E-02 0. -1.
       -1   -1    0    0    0  501  0.00000000000E+00  0.00000000000E+00 -0.63798020853E+03  0.63798020855E+03  0.50400001928E-02 0.  1.
    10030    2    1    2    0    0  0.00000000000E+00  0.00000000000E+00 -0.74597179974E+02  0.12013632371E+04  0.11990449901E+04 0.  0.
        2    1    3    3  502    0  0.53376547295E+03 -0.22627789877E+03  0.11570538306E+03  0.59118102410E+03  0.25500000920E-02 0. -1.
       -2    1    3    3    0  502 -0.53376547295E+03  0.22627789877E+03 -0.19030256304E+03  0.61018221302E+03  0.25500000920E-02 0.  1.
</event>
<event>
 5   0  0.1541375E-04  0.1199059E+04  0.7818609E-02  0.9113681E-01
        3   -1    0    0  501    0  0.00000000000E+00  0.00000000000E+00  0.19197180259E+03  0.19197182916E+03  0.10100000352E+00 0.  1.
       -3   -1    0    0    0  501  0.00000000000E+00  0.00000000000E+00 -0.18723349971E+04  0.18723349999E+04  0.10100000352E+00 0. -1.
    10030    2    1    2    0    0  0.00000000000E+00  0.00000000000E+00 -0.16803631945E+04  0.20643068290E+04  0.11990588888E+04 0.  0.
        4    1    3    3  502    0  0.80953753253E+02 -0.29125598535E+03 -0.17315186329E+04  0.17577092900E+04  0.12699999809E+01 0. -1.
       -4    1    3    3    0  502 -0.80953753253E+02  0.29125598535E+03  0.51155438347E+02  0.30659753903E+03  0.12699999809E+01 0.  1.
</event>
<event>
 5   0  0.2244308E-04  0.1200403E+04  0.7818609E-02  0.9112504E-01
       -1   -1    0    0    0  501  0.00000000000E+00  0.00000000000E+00  0.39064024271E+03  0.39064024274E+03  0.50400001928E-02 0. -1.
        1   -1    0    0  501    0  0.00000000000E+00  0.00000000000E+00 -0.92218360984E+03  0.92218360985E+03  0.50400001928E-02 0.  1.
    10030    2    1    2    0    0  0.00000000000E+00  0.00000000000E+00 -0.53154336713E+03  0.13128238526E+04  0.12004033142E+04 0.  0.
        5    1    3    3  502    0 -0.30775564751E+03 -0.41730381678E+03 -0.59634412677E+03  0.79025592159E+03  0.46999998093E+01 0.  1.
       -5    1    3    3    0  502  0.30775564751E+03  0.41730381678E+03  0.64800759636E+02  0.52256793101E+03  0.46999998093E+01 0. -1.
</event>
<event>
 5   0  0.4122956E-04  0.1202173E+04  0.7818609E-02  0.9110957E-01
       -2   -1    0    0    0  501  0.00000000000E+00  0.00000000000E+00  0.28515432768E+03  0.28515432770E+03  0.25500000920E-02 0. -1.
        2   -1    0    0  501    0  0.00000000000E+00  0.00000000000E+00 -0.12670501899E+04  0.12670501899E+04  0.25500000920E-02 0.  1.
    10030    2    1    2    0    0  0.00000000000E+00  0.00000000000E+00 -0.98189586222E+03  0.15522045176E+04  0.12021727747E+04 0.  0.
        5    1    3    3  502    0  0.18244042345E+03  0.49588201777E+03 -0.12099054173E+03  0.54207405845E+03  0.46999998093E+01 0. -1.
       -5    1    3    3    0  502 -0.18244042345E+03 -0.49588201777E+03 -0.86090532050E+03  0.10101304592E+04  0.46999998093E+01 0.  1.
</event>
<event>
 5   0  0.4024486E-04  0.1202754E+04  0.7818609E-02  0.9110449E-01
        2   -1    0    0  501    0  0.00000000000E+00  0.00000000000E+00  0.87395894581E+03  0.87395894581E+03  0.25500000920E-02 0.  1.
       -2   -1    0    0    0  501  0.00000000000E+00  0.00000000000E+00 -0.41381184467E+03  0.41381184468E+03  0.25500000920E-02 0. -1.
    10030    2    1    2    0    0  0.00000000000E+00  0.00000000000E+00  0.46014710114E+03  0.12877707905E+04  0.12027544447E+04 0.  0.
        1    1    3    3  502    0 -0.94935673872E+02  0.18676465260E+02 -0.40542357233E+03  0.41680914764E+03  0.50400001928E-02 0. -1.
       -1    1    3    3    0  502  0.94935673872E+02 -0.18676465260E+02  0.86557067347E+03  0.87096164285E+03  0.50400001928E-02 0.  1.
</event>
<event>
 5   0  0.2244308E-04  0.1201530E+04  0.7818609E-02  0.9111518E-01
       -1   -1    0    0    0  501  0.00000000000E+00  0.00000000000E+00  0.28577600809E+03  0.28577600813E+03  0.50400001928E-02 0.  1.
        1   -1    0    0  501    0  0.00000000000E+00  0.00000000000E+00 -0.12629429762E+04  0.12629429763E+04  0.50400001928E-02 0. -1.
    10030    2    1    2    0    0  0.00000000000E+00  0.00000000000E+00 -0.97716696816E+03  0.15487189844E+04  0.12015303612E+04 0.  0.
        5    1    3    3  502    0  0.27642680950E+03 -0.23941692469E+03  0.12575549702E+03  0.38674123115E+03  0.46999998093E+01 0.  1.
       -5    1    3    3    0  502 -0.27642680950E+03  0.23941692469E+03 -0.11029224652E+04  0.11619777532E+04  0.46999998093E+01 0. -1.
</event>
<event>
 5   0  0.2204090E-04  0.1199652E+04  0.7818609E-02  0.9113161E-01
        1   -1    0    0  501    0  0.00000000000E+00  0.00000000000E+00  0.98669705571E+03  0.98669705573E+03  0.50400001928E-02 0.  1.
       -1   -1    0    0    0  501  0.00000000000E+00  0.00000000000E+00 -0.36464208339E+03  0.36464208343E+03  0.50400001928E-02 0. -1.
    10030    2    1    2    0    0  0.00000000000E+00  0.00000000000E+00  0.62205497232E+03  0.13513391392E+04  0.11996520664E+04 0.  0.
        2    1    3    3  502    0 -0.10996572610E+03 -0.22212947419E+02 -0.35271907030E+03  0.37013054252E+03  0.25500000920E-02 0. -1.
       -2    1    3    3    0  502  0.10996572610E+03  0.22212947419E+02  0.97477404261E+03  0.98120859663E+03  0.25500000920E-02 0.  1.
</event>
<event>
 5   0  0.3832662E-04  0.1202355E+04  0.7818609E-02  0.9110798E-01
       -2   -1    0    0    0  501  0.00000000000E+00  0.00000000000E+00  0.36198490881E+03  0.36198490882E+03  0.25500000920E-02 0.  1.
        2   -1    0    0  501    0  0.00000000000E+00  0.00000000000E+00 -0.99842331501E+03  0.99842331501E+03  0.25500000920E-02 0. -1.
    10030    2    1    2    0    0  0.00000000000E+00  0.00000000000E+00 -0.63643840620E+03  0.13604082238E+04  0.12023546443E+04 0.  0.
        4    1    3    3  502    0 -0.33868465021E+03  0.44304284793E+03 -0.64162432937E+02  0.56134898956E+03  0.12699999809E+01 0.  1.
       -4    1    3    3    0  502  0.33868465021E+03 -0.44304284793E+03 -0.57227597327E+03  0.79905923426E+03  0.12699999809E+01 0. -1.
</event>
<event>
 5   0  0.4024486E-04  0.1201369E+04  0.7818609E-02  0.9111659E-01
        2   -1    0    0  501    0  0.00000000000E+00  0.00000000000E+00  0.11153471526E+04  0.11153471526E+04  0.25500000920E-02 0. -1.
       -2   -1    0    0    0  501  0.00000000000E+00  0.00000000000E+00 -0.32350639237E+03  0.32350639238E+03  0.25500000920E-02 0.  1.
    10030    2    1    2    0    0  0.00000000000E+00  0.00000000000E+00  0.79184076018E+03  0.14388535449E+04  0.12013691083E+04 0.  0.
        1    1    3    3  502    0  0.29337748822E+03  0.33407303769E+03 -0.87838995743E+02  0.45320065567E+03  0.50400001928E-02 0.  1.
       -1    1    3    3    0  502 -0.29337748822E+03 -0.33407303769E+03  0.87967975592E+03  0.98565288926E+03  0.50400001928E-02 0. -1.
</event>
<event>
 5   0  0.4122956E-04  0.1199320E+04  0.7818609E-02  0.9113452E-01
        2   -1    0    0  501    0  0.00000000000E+00  0.00000000000E+00  0.14563452334E+04  0.14563452334E+04  0.25500000920E-02 0. -1.
       -2   -1    0    0    0  501  0.00000000000E+00  0.00000000000E+00 -0.24691389838E+03  0.24691389839E+03  0.25500000920E-02 0.  1.
    10030    2    1    2    0    0  0.00000000000E+00  0.00000000000E+00  0.12094313350E+04  0.17032591318E+04  0.11993196054E+04 0.  0.
        5    1    3    3  502    0 -0.11106026802E+03 -0.51742718936E+03  0.20427177500E+03  0.56728681236E+03  0.46999998093E+01 0.  1.
       -5    1    3    3    0  502  0.11106026802E+03  0.51742718936E+03  0.10051595600E+04  0.11359723194E+04  0.46999998093E+01 0. -1.
</event>
<event>
 5   0  0.4122956E-04  0.1199447E+04  0.7818609E-02  0.9113341E-01
       -2   -1    0    0    0  501  0.00000000000E+00  0.00000000000E+00  0.54094373363E+03  0.54094373364E+03  0.25500000920E-02 0.  1.
        2   -1    0    0  501    0  0.00000000000E+00  0.00000000000E+00 -0.66489052834E+03  0.66489052835E+03  0.25500000920E-02 0. -1.
    10030    2    1    2    0    0  0.00000000000E+00  0.00000000000E+00 -0.12394679471E+03  0.12058342620E+04  0.11994471474E+04 0.  0.
        5    1    3    3  502    0 -0.46705424722E+03  0.28022466516E+03  0.19032261727E+03  0.57698381385E+03  0.46999998093E+01 0.  1.
       -5    1    3    3    0  502  0.46705424722E+03 -0.28022466516E+03 -0.31426941198E+03  0.62885044813E+03  0.46999998093E+01 0. -1.
</event>
<event>
 5   0  0.4122956E-04  0.1195569E+04  0.7818609E-02  0.9116744E-01
       -2   -1    0    0    0  501  0.00000000000E+00  0.00000000000E+00  0.50471860522E+03  0.50471860522E+03  0.25500000920E-02 0.  1.
        2   -1    0    0  501    0  0.00000000000E+00  0.00000000000E+00 -0.70801066471E+03  0.70801066472E+03  0.25500000920E-02 0. -1.
    10030    2    1    2    0    0  0.00000000000E+00  0.00000000000E+00 -0.20329205950E+03  0.12127292699E+04  0.11955687436E+04 0.  0.
        5    1    3    3  502    0  0.28961721012E+03 -0.19195401089E+03  0.39175074368E+03  0.52365561763E+03  0.46999998093E+01 0.  1.
       -5    1    3    3    0  502 -0.28961721012E+03  0.19195401089E+03 -0.59504280318E+03  0.68907365231E+03  0.46999998093E+01 0. -1.
</event>
<event>
 5   0  0.2244308E-04  0.1199277E+04  0.7818609E-02  0.9113489E-01
        1   -1    0    0  501    0  0.00000000000E+00  0.00000000000E+00  0.81952077465E+03  0.81952077467E+03  0.50400001928E-02 0. -1.
       -1   -1    0    0    0  501  0.00000000000E+00  0.00000000000E+00 -0.43875230296E+03  0.43875230298E+03  0.50400001928E-02 0.  1.
    10030    2    1    2    0    0  0.00000000000E+00  0.00000000000E+00  0.38076847170E+03  0.12582730777E+04  0.11992774945E+04 0.  0.
        5    1    3    3  502    0 -0.24796241304E+03  0.47744644806E+03  0.46818077514E+03  0.71320109173E+03  0.46999998093E+01 0. -1.
       -5    1    3    3    0  502  0.24796241304E+03 -0.47744644806E+03 -0.87412303440E+02  0.54507198592E+03  0.46999998093E+01 0.  1.
</event>
<event>
 5   0  0.4024486E-04  0.1189107E+04  0.7818609E-02  0.9122445E-01
       -2   -1    0    0    0  501  0.00000000000E+00  0.00000000000E+00  0.36992833868E+03  0.36992833869E+03  0.25500000920E-02 0.  1.
        2   -1    0    0  501    0  0.00000000000E+00  0.00000000000E+00 -0.95557453493E+03  0.95557453493E+03  0.25500000920E-02 0. -1.
    10030    2    1    2    0    0  0.00000000000E+00  0.00000000000E+00 -0.58564619624E+03  0.13255028736E+04  0.11891073967E+04 0.  0.
        1    1    3    3  502    0 -0.18120649741E+02  0.48841290530E+03 -0.67021023875E+03  0.82949218692E+03  0.50400001928E-02 0. -1.
       -1    1    3    3    0  502  0.18120649741E+02 -0.48841290530E+03  0.84564042504E+02  0.49601068670E+03  0.50400001928E-02 0.  1.
</event>
<event>
 5   0  0.2204090E-04  0.1202524E+04  0.7818609E-02  0.9110650E-01
        1   -1    0    0  501    0  0.00000000000E+00  0.00000000000E+00  0.96684328803E+03  0.96684328804E+03  0.50400001928E-02 0.  1.
       -1   -1    0    0    0  501  0.00000000000E+00  0.00000000000E+00 -0.37391403762E+03  0.37391403766E+03  0.50400001928E-02 0. -1.
    10030    2    1    2    0    0  0.00000000000E+00  0.00000000000E+00  0.59292925041E+03  0.13407573257E+04  0.12025244739E+04 0.  0.
        2    1    3    3  502    0 -0.23941105034E+03 -0.10038177948E+03  0.90113696421E+03  0.93778567964E+03  0.25500000920E-02 0.  1.
       -2    1    3    3    0  502  0.23941105034E+03  0.10038177948E+03 -0.30820771380E+03  0.40297164606E+03  0.25500000920E-02 0. -1.
</event>
<event>
 5   0  0.2204090E-04  0.1206595E+04  0.7818609E-02  0.9107103E-01
       -1   -1    0    0    0  501  0.00000000000E+00  0.00000000000E+00  0.33518083142E+03  0.33518083146E+03  0.50400001928E-02 0. -1.
        1   -1    0    0  501    0  0.00000000000E+00  0.00000000000E+00 -0.10858859687E+04  0.10858859687E+04  0.50400001928E-02 0.  1.
    10030    2    1    2    0    0  0.00000000000E+00  0.00000000000E+00 -0.75070513729E+03  0.14210668002E+04  0.12065954780E+04 0.  0.
        2    1    3    3  502    0  0.58234345856E+03 -0.77622363688E+02 -0.53691909215E+03  0.79588394040E+03  0.25500000920E-02 0.  1.
       -2    1    3    3    0  502 -0.58234345856E+03  0.77622363688E+02 -0.21378604515E+03  0.62518285979E+03  0.25500000920E-02 0. -1.
</event>
<event>
 5   0  0.2340731E-04  0.1215299E+04  0.7818609E-02  0.9099570E-01
       -1   -1    0    0    0  501  0.00000000000E+00  0.00000000000E+00  0.12651137197E+04  0.12651137197E+04  0.50400001928E-02 0.  1.
        1   -1    0    0  501    0  0.00000000000E+00  0.00000000000E+00 -0.29186124036E+03  0.29186124040E+03  0.50400001928E-02 0. -1.
    10030    2    1    2    0    0  0.00000000000E+00  0.00000000000E+00  0.97325247936E+03  0.15569749601E+04  0.12152985797E+04 0.  0.
        3    1    3    3  502    0  0.32866311983E+03  0.42332399461E+03  0.11972829536E+03  0.54914253674E+03  0.10100000352E+00 0. -1.
       -3    1    3    3    0  502 -0.32866311983E+03 -0.42332399461E+03  0.85352418400E+03  0.10078324234E+04  0.10100000352E+00 0.  1.
</event>
<event>
 5   0  0.4024486E-04  0.1200364E+04  0.7818609E-02  0.9112538E-01
        2   -1    0    0  501    0  0.00000000000E+00  0.00000000000E+00  0.10449947752E+04  0.10449947752E+04  0.25500000920E-02 0.  1.
       -2   -1    0    0    0  501  0.00000000000E+00  0.00000000000E+00 -0.34470862744E+03  0.34470862745E+03  0.25500000920E-02 0. -1.
    10030    2    1    2    0    0  0.00000000000E+00  0.00000000000E+00  0.70028614778E+03  0.13897034027E+04  0.12003644691E+04 0.  0.
        1    1    3    3  502    0 -0.26954239870E+03 -0.31242438458E+03 -0.15444409044E+03  0.44058492697E+03  0.50400001928E-02 0. -1.
       -1    1    3    3    0  502  0.26954239870E+03  0.31242438458E+03  0.85473023822E+03  0.94911847571E+03  0.50400001928E-02 0.  1.
</event>
<event>
 5   0  0.2304842E-04  0.1200409E+04  0.7818609E-02  0.9112499E-01
       -1   -1    0    0    0  501  0.00000000000E+00  0.00000000000E+00  0.12637467068E+03  0.12637467078E+03  0.50400001928E-02 0. -1.
        1   -1    0    0  501    0  0.00000000000E+00  0.00000000000E+00 -0.28506123334E+04  0.28506123334E+04  0.50400001928E-02 0.  1.
    10030    2    1    2    0    0  0.00000000000E+00  0.00000000000E+00 -0.27242376627E+04  0.29769870042E+04  0.12004085888E+04 0.  0.
        4    1    3    3  502    0 -0.72249932797E+02  0.45503675617E+03 -0.40816477039E+03  0.61553114864E+03  0.12699999809E+01 0. -1.
       -4    1    3    3    0  502  0.72249932797E+02 -0.45503675617E+03 -0.23160728923E+04  0.23614558555E+04  0.12699999809E+01 0.  1.
</event>
<event>
 5   0  0.2304842E-04  0.1200618E+04  0.7818609E-02  0.9112316E-01
       -1   -1    0    0    0  501  0.00000000000E+00  0.00000000000E+00  0.34122046859E+03  0.34122046862E+03  0.50400001928E-02 0. -1.
        1   -1    0    0  501    0  0.00000000000E+00  0.00000000000E+00 -0.10561237747E+04  0.10561237747E+04  0.50400001928E-02 0.  1.
    10030    2    1    2    0    0  0.00000000000E+00  0.00000000000E+00 -0.71490330608E+03  0.13973442433E+04  0.12006182563E+04 0.  0.
        4    1    3    3  502    0  0.33306942198E+03 -0.31981244127E+02  0.22262344952E+03  0.40189657004E+03  0.12699999809E+01 0.  1.
       -4    1    3    3    0  502 -0.33306942198E+03  0.31981244127E+02 -0.93752675560E+03  0.99544767326E+03  0.12699999809E+01 0. -1.
</event>
<event>
 5   0  0.2244308E-04  0.1198820E+04  0.7818609E-02  0.9113890E-01
        1   -1    0    0  501    0  0.00000000000E+00  0.00000000000E+00  0.62456011040E+03  0.62456011042E+03  0.50400001928E-02 0.  1.
       -1   -1    0    0    0  501  0.00000000000E+00  0.00000000000E+00 -0.57527302970E+03  0.57527302972E+03  0.50400001928E-02 0. -1.
    10030    2    1    2    0    0  0.00000000000E+00  0.00000000000E+00  0.49287080701E+02  0.11998331401E+04  0.11988203985E+04 0.  0.
        5    1    3    3  502    0 -0.97303298004E+02  0.47994022399E+03  0.37056530461E+03  0.61412644088E+03  0.46999998093E+01 0.  1.
       -5    1    3    3    0  502  0.97303298004E+02 -0.47994022399E+03 -0.32127822391E+03  0.58570669927E+03  0.46999998093E+01 0. -1.
</event>
<event>
 5   0  0.3883890E-04  0.1198473E+04  0.7818609E-02  0.9114194E-01
       -2   -1    0    0    0  501  0.00000000000E+00  0.00000000000E+00  0.36255595527E+03  0.36255595528E+03  0.25500000920E-02 0.  1.
        2   -1    0    0  501    0  0.00000000000E+00  0.00000000000E+00 -0.99042464854E+03  0.99042464854E+03  0.25500000920E-02 0. -1.
    10030    2    1    2    0    0  0.00000000000E+00  0.00000000000E+00 -0.62786869327E+03  0.13529806038E+04  0.11984729527E+04 0.  0.
        2    1    3    3  502    0  0.57005712659E+03  0.12443720590E+03 -0.15982695381E+03  0.60497471101E+03  0.25500000920E-02 0.  1.
       -2    1    3    3    0  502 -0.57005712659E+03 -0.12443720590E+03 -0.46804173946E+03  0.74800589281E+03  0.25500000920E-02 0. -1.
</event>
<event>
 5   0  0.3832662E-04  0.1204432E+04  0.7818609E-02  0.9108986E-01
       -2   -1    0    0    0  501  0.00000000000E+00  0.00000000000E+00  0.31955248206E+03  0.31955248208E+03  0.25500000920E-02 0.  1.
        2   -1    0    0  501    0  0.00000000000E+00  0.00000000000E+00 -0.11349123226E+04  0.11349123226E+04  0.25500000920E-02 0. -1.
    10030    2    1    2    0    0  0.00000000000E+00  0.00000000000E+00 -0.81535984051E+03  0.14544648047E+04  0.12044318986E+04 0.  0.
        4    1    3    3  502    0 -0.17108398092E+02  0.34611690839E+03  0.18708047408E+03  0.39381509397E+03  0.12699999809E+01 0.  1.
       -4    1    3    3    0  502  0.17108398092E+02 -0.34611690839E+03 -0.10024403146E+04  0.10606497107E+04  0.12699999809E+01 0. -1.
</event>
<event>
 5   0  0.4122956E-04  0.1201949E+04  0.7818609E-02  0.9111152E-01
        2   -1    0    0  501    0  0.00000000000E+00  0.00000000000E+00  0.10301504539E+04  0.10301504539E+04  0.25500000920E-02 0. -1.
       -2   -1    0    0    0  501  0.00000000000E+00  0.00000000000E+00 -0.35059972048E+03  0.35059972049E+03  0.25500000920E-02 0.  1.
    10030    2    1    2    0    0  0.00000000000E+00  0.00000000000E+00  0.67955073345E+03  0.13807501744E+04  0.12019491856E+04 0.  0.
        5    1    3    3  502    0  0.34665521255E+03 -0.45102571403E+03  0.11715798698E+03  0.58081160028E+03  0.46999998093E+01 0. -1.
       -5    1    3    3    0  502 -0.34665521255E+03  0.45102571403E+03  0.56239274648E+03  0.79993857414E+03  0.46999998093E+01 0.  1.
</event>
<event>
 5   0  0.3993723E-04  0.1218758E+04  0.7818609E-02  0.9096595E-01
        2   -1    0    0  501    0  0.00000000000E+00  0.00000000000E+00  0.72157972798E+03  0.72157972798E+03  0.25500000920E-02 0.  1.
       -2   -1    0    0    0  501  0.00000000000E+00  0.00000000000E+00 -0.51462450419E+03  0.51462450419E+03  0.25500000920E-02 0. -1.
    10030    2    1    2    0    0  0.00000000000E+00  0.00000000000E+00  0.20695522379E+03  0.12362042322E+04  0.12187577442E+04 0.  0.
        3    1    3    3  502    0 -0.33572757759E+03 -0.50785940545E+03  0.76480489445E+02  0.61358247817E+03  0.10100000352E+00 0. -1.
       -3    1    3    3    0  502  0.33572757759E+03  0.50785940545E+03  0.13047473435E+03  0.62262175400E+03  0.10100000352E+00 0.  1.
</event>
<event>
 5   0  0.4122956E-04  0.1204322E+04  0.7818609E-02  0.9109082E-01
       -2   -1    0    0    0  501  0.00000000000E+00  0.00000000000E+00  0.15181664213E+04  0.15181664213E+04  0.25500000920E-02 0. -1.
        2   -1    0    0  501    0  0.00000000000E+00  0.00000000000E+00 -0.23883925823E+03  0.23883925824E+03  0.25500000920E-02 0.  1.
    10030    2    1    2    0    0  0.00000000000E+00  0.00000000000E+00  0.12793271631E+04  0.17570056795E+04  0.12043217875E+04 0.  0.
        5    1    3    3  502    0 -0.44596536169E+03  0.37555039113E+03  0.85924128063E+03  0.10383837770E+04  0.46999998093E+01 0.  1.
       -5    1    3    3    0  502  0.44596536169E+03 -0.37555039113E+03  0.42008588244E+03  0.71862190248E+03  0.46999998093E+01 0. -1.
</event>
<event>
 5   0  0.3883890E-04  0.1200753E+04  0.7818609E-02  0.9112198E-01
        2   -1    0    0  501    0  0.00000000000E+00  0.00000000000E+00  0.69584993871E+03  0.69584993872E+03  0.25500000920E-02 0. -1.
       -2   -1    0    0    0  501  0.00000000000E+00  0.00000000000E+00 -0.51800231793E+03  0.51800231794E+03  0.25500000920E-02 0.  1.
    10030    2    1    2    0    0  0.00000000000E+00  0.00000000000E+00  0.17784762078E+03  0.12138522567E+04  0.12007528991E+04 0.  0.
        2    1    3    3  502    0 -0.33548661540E+02  0.34820282780E+03 -0.40433482871E+03  0.53465631550E+03  0.25500000920E-02 0.  1.
       -2    1    3    3    0  502  0.33548661540E+02 -0.34820282780E+03  0.58218244950E+03  0.67919594116E+03  0.25500000920E-02 0. -1.
</event>
<event>
 5   0  0.2315038E-04  0.1199920E+04  0.7818609E-02  0.9112927E-01
        1   -1    0    0  501    0  0.00000000000E+00  0.00000000000E+00  0.88321156895E+03  0.88321156897E+03  0.50400001928E-02 0.  1.
       -1   -1    0    0    0  501  0.00000000000E+00  0.00000000000E+00 -0.40754892946E+03  0.40754892949E+03  0.50400001928E-02 0. -1.
    10030    2    1    2    0    0  0.00000000000E+00  0.00000000000E+00  0.47566263949E+03  0.12907604985E+04  0.11999198797E+04 0.  0.
        1    1    3    3  502    0 -0.48817604378E+02 -0.47135957359E+03 -0.15797706020E+03  0.49951952683E+03  0.50400001928E-02 0. -1.
       -1    1    3    3    0  502  0.48817604378E+02  0.47135957359E+03  0.63363969969E+03  0.79124097162E+03  0.50400001928E-02 0.  1.
</event>
<event>
 5   0  0.2304842E-04  0.1204785E+04  0.7818609E-02  0.9108679E-01
        1   -1    0    0  501    0  0.00000000000E+00  0.00000000000E+00  0.99123235264E+03  0.99123235265E+03  0.50400001928E-02 0.  1.
       -1   -1    0    0    0  501  0.00000000000E+00  0.00000000000E+00 -0.36608618805E+03  0.36608618809E+03  0.50400001928E-02 0. -1.
    10030    2    1    2    0    0  0.00000000000E+00  0.00000000000E+00  0.62514616459E+03  0.13573185407E+04  0.12047845840E+04 0.  0.
        4    1    3    3  502    0 -0.10370774096E+03  0.16768801891E+03 -0.32870305773E+03  0.38330390069E+03  0.12699999809E+01 0. -1.
       -4    1    3    3    0  502  0.10370774096E+03 -0.16768801891E+03  0.95384922232E+03  0.97401464005E+03  0.12699999809E+01 0.  1.
</event>
<event>
 5   0  0.3832662E-04  0.1202343E+04  0.7818609E-02  0.9110808E-01
       -2   -1    0    0    0  501  0.00000000000E+00  0.00000000000E+00  0.26885147978E+03  0.26885147979E+03  0.25500000920E-02 0. -1.
        2   -1    0    0  501    0  0.00000000000E+00  0.00000000000E+00 -0.13442641903E+04  0.13442641903E+04  0.25500000920E-02 0.  1.
    10030    2    1    2    0    0  0.00000000000E+00  0.00000000000E+00 -0.10754127105E+04  0.16131156701E+04  0.12023434065E+04 0.  0.
        4    1    3    3  502    0 -0.27781276719E+03 -0.34346639437E+03  0.93430749734E+01  0.44185744718E+03  0.12699999809E+01 0. -1.
       -4    1    3    3    0  502  0.27781276719E+03  0.34346639437E+03 -0.10847557855E+04  0.11712582229E+04  0.12699999809E+01 0.  1.
</event>
<event>
 5   0  0.3832662E-04  0.1198249E+04  0.7818609E-02  0.9114391E-01
       -2   -1    0    0    0  501  0.00000000000E+00  0.00000000000E+00  0.10257393411E+04  0.10257393412E+04  0.25500000920E-02 0. -1.
        2   -1    0    0  501    0  0.00000000000E+00  0.00000000000E+00 -0.34994284787E+03  0.34994284788E+03  0.25500000920E-02 0.  1.
    10030    2    1    2    0    0  0.00000000000E+00  0.00000000000E+00  0.67579649328E+03  0.13756821890E+04  0.11982489662E+04 0.  0.
        4    1    3    3  502    0 -0.39921633121E+03  0.13283503651E+03  0.82759008071E+03  0.92839958026E+03  0.12699999809E+01 0. -1.
       -4    1    3    3    0  502  0.39921633121E+03 -0.13283503651E+03 -0.15179358743E+03  0.44728260877E+03  0.12699999809E+01 0.  1.
</event>
<event>
 5   0  0.2204090E-04  0.1198210E+04  0.7818609E-02  0.9114425E-01
       -1   -1    0    0    0  501  0.00000000000E+00  0.00000000000E+00  0.44738717667E+03  0.44738717669E+03  0.50400001928E-02 0.  1.
        1   -1    0    0  501    0  0.00000000000E+00  0.00000000000E+00 -0.80227271916E+03  0.80227271917E+03  0.50400001928E-02 0. -1.
    10030    2    1    2    0    0  0.00000000000E+00  0.00000000000E+00 -0.35488554249E+03  0.12496598959E+04  0.11982095422E+04 0.  0.
        2    1    3    3  502    0 -0.53814056697E+03  0.24945788681E+03 -0.26533490212E+03  0.64979005640E+03  0.25500000920E-02 0.  1.
       -2    1    3    3    0  502  0.53814056697E+03 -0.24945788681E+03 -0.89550640374E+02  0.59986983947E+03  0.25500000920E-02 0. -1.
</event>
<event>
 5   0  0.1541375E-04  0.1201382E+04  0.7818609E-02  0.9111648E-01
        4   -1    0    0  501    0  0.00000000000E+00  0.00000000000E+00  0.56707995404E+03  0.56708137615E+03  0.12699999809E+01 0.  1.
       -4   -1    0    0    0  501  0.00000000000E+00  0.00000000000E+00 -0.63629108151E+03  0.63629234893E+03  0.12699999809E+01 0. -1.
    10030    2    1    2    0    0  0.00000000000E+00  0.00000000000E+00 -0.69211127468E+02  0.12033737251E+04  0.12013817637E+04 0.  0.
        3    1    3    3  502    0 -0.18239419194E+02  0.59707837769E+03  0.28699382393E+02  0.59804592656E+03  0.10100000352E+00 0.  1.
       -3    1    3    3    0  502  0.18239419194E+02 -0.59707837769E+03 -0.97910509861E+02  0.60532779852E+03  0.10100000352E+00 0. -1.
</event>
<event>
 5   0  0.3883890E-04  0.1191958E+04  0.7818609E-02  0.9119925E-01
        2   -1    0    0  501    0  0.00000000000E+00  0.00000000000E+00  0.18690343761E+04  0.18690343761E+04  0.25500000920E-02 0.  1.
       -2   -1    0    0    0  501  0.00000000000E+00  0.00000000000E+00 -0.19003980593E+03  0.19003980595E+03  0.25500000920E-02 0. -1.
    10030    2    1    2    0    0  0.00000000000E+00  0.00000000000E+00  0.16789945701E+04  0.20590741820E+04  0.11919579357E+04 0.  0.
        2    1    3    3  502    0 -0.56567892383E+03  0.10167786354E+03  0.56712637050E+03  0.80744247654E+03  0.25500000920E-02 0.  1.
       -2    1    3    3    0  502  0.56567892383E+03 -0.10167786354E+03  0.11118681996E+04  0.12516317055E+04  0.25500000920E-02 0. -1.
</event>
<event>
 5   0  0.3993723E-04  0.1199896E+04  0.7818609E-02  0.9112948E-01
       -2   -1    0    0    0  501  0.00000000000E+00  0.00000000000E+00  0.14666924121E+03  0.14666924123E+03  0.25500000920E-02 0.  1.
        2   -1    0    0  501    0  0.00000000000E+00  0.00000000000E+00 -0.24540760100E+04  0.24540760100E+04  0.25500000920E-02 0. -1.
    10030    2    1    2    0    0  0.00000000000E+00  0.00000000000E+00 -0.23074067688E+04  0.26007452512E+04  0.11998957726E+04 0.  0.
        3    1    3    3  502    0  0.24514120911E+03  0.49941125988E+02 -0.23356221422E+04  0.23489825734E+04  0.10100000352E+00 0. -1.
       -3    1    3    3    0  502 -0.24514120911E+03 -0.49941125988E+02  0.28215373434E+02  0.25176267787E+03  0.10100000352E+00 0.  1.
</event>
<event>
 5   0  0.1541375E-04  0.1200194E+04  0.7818609E-02  0.9112687E-01
        3   -1    0    0  501    0  0.00000000000E+00  0.00000000000E+00  0.36039558987E+03  0.36039560402E+03  0.10100000352E+00 0. -1.
       -3   -1    0    0    0  501  0.00000000000E+00  0.00000000000E+00 -0.99922560705E+03  0.99922561216E+03  0.10100000352E+00 0.  1.
    10030    2    1    2    0    0  0.00000000000E+00  0.00000000000E+00 -0.63883001718E+03  0.13596212162E+04  0.12001941762E+04 0.  0.
        3    1    3    3  502    0 -0.31620099233E+03  0.41247757581E+03 -0.65925717671E+03  0.83948844741E+03  0.10100000352E+00 0.  1.
       -3    1    3    3    0  502  0.31620099233E+03 -0.41247757581E+03  0.20427159531E+02  0.52013276876E+03  0.10100000352E+00 0. -1.
</event>
<event>
 5   0  0.3883890E-04  0.1196317E+04  0.7818609E-02  0.9116087E-01
       -2   -1    0    0    0  501  0.00000000000E+00  0.00000000000E+00  0.11097441769E+04  0.11097441769E+04  0.25500000920E-02 0.  1.
        2   -1    0    0  501    0  0.00000000000E+00  0.00000000000E+00 -0.32241064477E+03  0.32241064478E+03  0.25500000920E-02 0. -1.
    10030    2    1    2    0    0  0.00000000000E+00  0.00000000000E+00  0.78733353216E+03  0.14321548217E+04  0.11963165729E+04 0.  0.
        2    1    3    3  502    0  0.92958159696E+01 -0.14025985646E+03  0.10896905886E+04  0.10987196269E+04  0.25500000920E-02 0.  1.
       -2    1    3    3    0  502 -0.92958159696E+01  0.14025985646E+03 -0.30235705649E+03  0.33343519482E+03  0.25500000920E-02 0. -1.
</event>
<event>
 5   0  0.4024486E-04  0.1198333E+04  0.7818609E-02  0.9114317E-01
        2   -1    0    0  501    0  0.00000000000E+00  0.00000000000E+00  0.90783720680E+03  0.90783720681E+03  0.25500000920E-02 0.  1.
       -2   -1    0    0    0  501  0.00000000000E+00  0.00000000000E+00 -0.39544591326E+03  0.39544591327E+03  0.25500000920E-02 0. -1.
    10030    2    1    2    0    0  0.00000000000E+00  0.00000000000E+00  0.51239129354E+03  0.13032831201E+04  0.11983330311E+04 0.  0.
        1    1    3    3  502    0 -0.46806784276E+03 -0.37391579372E+03  0.26707074592E+03  0.65591715146E+03  0.50400001928E-02 0. -1.
       -1    1    3    3    0  502  0.46806784276E+03  0.37391579372E+03  0.24532054762E+03  0.64736596862E+03  0.50400001928E-02 0.  1.
</event>
<event>
 5   0  0.2340731E-04  0.1203916E+04  0.7818609E-02  0.9109435E-01
        1   -1    0    0  501    0  0.00000000000E+00  0.00000000000E+00  0.55901463253E+03  0.55901463255E+03  0.50400001928E-02 0.  1.
       -1   -1    0    0    0  501  0.00000000000E+00  0.00000000000E+00 -0.64820076447E+03  0.64820076449E+03  0.50400001928E-02 0. -1.
    10030    2    1    2    0    0  0.00000000000E+00  0.00000000000E+00 -0.89186131936E+02  0.12072153970E+04  0.12039164625E+04 0.  0.
        3    1    3    3  502    0 -0.47129334031E+03  0.36816295065E+03  0.24095229347E+02  0.59853317463E+03  0.10100000352E+00 0.  1.
       -3    1    3    3    0  502  0.47129334031E+03 -0.36816295065E+03 -0.11328136128E+03  0.60868222241E+03  0.10100000352E+00 0. -1.
</event>
<event>
 5   0  0.4122956E-04  0.1200648E+04  0.7818609E-02  0.9112290E-01
       -2   -1    0    0    0  501  0.00000000000E+00  0.00000000000E+00  0.24241931568E+03  0.24241931570E+03  0.25500000920E-02 0.  1.
        2   -1    0    0  501    0  0.00000000000E+00  0.00000000000E+00 -0.14866336425E+04  0.14866336425E+04  0.25500000920E-02 0. -1.
    10030    2    1    2    0    0  0.00000000000E+00  0.00000000000E+00 -0.12442143268E+04  0.17290529582E+04  0.12006476757E+04 0.  0.
        5    1    3    3  502    0 -0.49401705227E+03 -0.31954308030E+03 -0.79375111192E+03  0.98804025514E+03  0.46999998093E+01 0.  1.
       -5    1    3    3    0  502  0.49401705227E+03  0.31954308030E+03 -0.45046321485E+03  0.74101270301E+03  0.46999998093E+01 0. -1.
</event>
<event>
 5   0  0.3832662E-04  0.1197309E+04  0.7818609E-02  0.9115215E-01
       -2   -1    0    0    0  501  0.00000000000E+00  0.00000000000E+00  0.84816723414E+03  0.84816723415E+03  0.25500000920E-02 0. -1.
        2   -1    0    0  501    0  0.00000000000E+00  0.00000000000E+00 -0.42254298876E+03  0.42254298877E+03  0.25500000920E-02 0.  1.
    10030    2    1    2    0    0  0.00000000000E+00  0.00000000000E+00  0.42562424538E+03  0.12707102229E+04  0.11973088459E+04 0.  0.
        4    1    3    3  502    0  0.36274061372E+03 -0.49966368882E+02  0.71545881029E+03  0.80371656260E+03  0.12699999809E+01 0. -1.
       -4    1    3    3    0  502 -0.36274061372E+03  0.49966368882E+02 -0.28983456491E+03  0.46699366032E+03  0.12699999809E+01 0.  1.
</event>
<event>
 5   0  0.3883890E-04  0.1200650E+04  0.7818609E-02  0.9112288E-01
        2   -1    0    0  501    0  0.00000000000E+00  0.00000000000E+00  0.15695275263E+04  0.15695275263E+04  0.25500000920E-02 0.  1.
       -2   -1    0    0    0  501  0.00000000000E+00  0.00000000000E+00 -0.22961695899E+03  0.22961695900E+03  0.25500000920E-02 0. -1.
    10030    2    1    2    0    0  0.00000000000E+00  0.00000000000E+00  0.13399105673E+04  0.17991444853E+04  0.12006500533E+04 0.  0.
        2    1    3    3  502    0  0.34986724046E+03 -0.11031074367E+02 -0.60866615901E+02  0.35529356240E+03  0.25500000920E-02 0. -1.
       -2    1    3    3    0  502 -0.34986724046E+03  0.11031074367E+02  0.14007771832E+04  0.14438509229E+04  0.25500000920E-02 0.  1.
</event>
<event>
 5   0  0.2340731E-04  0.1201167E+04  0.7818609E-02  0.9111836E-01
        1   -1    0    0  501    0  0.00000000000E+00  0.00000000000E+00  0.17188914562E+04  0.17188914562E+04  0.50400001928E-02 0.  1.
       -1   -1    0    0    0  501  0.00000000000E+00  0.00000000000E+00 -0.20984479729E+03  0.20984479735E+03  0.50400001928E-02 0. -1.
    10030    2    1    2    0    0  0.00000000000E+00  0.00000000000E+00  0.15090466589E+04  0.19287362535E+04  0.12011668148E+04 0.  0.
        3    1    3    3  502    0  0.45451411205E+03 -0.38732788461E+03  0.65177675613E+03  0.88397902593E+03  0.10100000352E+00 0. -1.
       -3    1    3    3    0  502 -0.45451411205E+03  0.38732788461E+03  0.85726990277E+03  0.10447572276E+04  0.10100000352E+00 0.  1.
</event>
<event>
 5   0  0.2244308E-04  0.1199790E+04  0.7818609E-02  0.9113041E-01
       -1   -1    0    0    0  501  0.00000000000E+00  0.00000000000E+00  0.76534732422E+03  0.76534732423E+03  0.50400001928E-02 0. -1.
        1   -1    0    0  501    0  0.00000000000E+00  0.00000000000E+00 -0.47020980183E+03  0.47020980185E+03  0.50400001928E-02 0.  1.
    10030    2    1    2    0    0  0.00000000000E+00  0.00000000000E+00  0.29513752239E+03  0.12355571261E+04  0.11997896710E+04 0.  0.
        5    1    3    3  502    0  0.50549942562E+03  0.94364088455E+02 -0.17053709681E+03  0.54179261888E+03  0.46999998093E+01 0.  1.
       -5    1    3    3    0  502 -0.50549942562E+03 -0.94364088455E+02  0.46567461920E+03  0.69376450720E+03  0.46999998093E+01 0. -1.
</event>
<event>
 5   0  0.4024486E-04  0.1187087E+04  0.7818609E-02  0.9124235E-01
       -2   -1    0    0    0  501  0.00000000000E+00  0.00000000000E+00  0.38635278093E+03  0.38635278094E+03  0.25500000920E-02 0.  1.
        2   -1    0    0  501    0  0.00000000000E+00  0.00000000000E+00 -0.91184531553E+03  0.91184531553E+03  0.25500000920E-02 0. -1.
    10030    2    1    2    0    0  0.00000000000E+00  0.00000000000E+00 -0.52549253460E+03  0.12981980965E+04  0.11870871467E+04 0.  0.
        1    1    3    3  502    0  0.11398523352E+02  0.28747605306E+03 -0.83049363069E+03  0.87891528492E+03  0.50400001928E-02 0. -1.
       -1    1    3    3    0  502 -0.11398523352E+02 -0.28747605306E+03  0.30500109609E+03  0.41928281155E+03  0.50400001928E-02 0.  1.
</event>
<event>
 5   0  0.4122956E-04  0.1199799E+04  0.7818609E-02  0.9113033E-01
        2   -1    0    0  501    0  0.00000000000E+00  0.00000000000E+00  0.18708385373E+04  0.18708385373E+04  0.25500000920E-02 0. -1.
       -2   -1    0    0    0  501  0.00000000000E+00  0.00000000000E+00 -0.19236257010E+03  0.19236257012E+03  0.25500000920E-02 0.  1.
    10030    2    1    2    0    0  0.00000000000E+00  0.00000000000E+00  0.16784759672E+04  0.20632011075E+04  0.11997988320E+04 0.  0.
        5    1    3    3  502    0 -0.14512388244E+02  0.40982097860E+03  0.86339053922E+02  0.41909469830E+03  0.46999998093E+01 0.  1.
       -5    1    3    3    0  502  0.14512388244E+02 -0.40982097860E+03  0.15921369133E+04  0.16441064092E+04  0.46999998093E+01 0. -1.
</event>
<event>
 5   0  0.4122956E-04  0.1199976E+04  0.7818609E-02  0.9112877E-01
       -2   -1    0    0    0  501  0.00000000000E+00  0.00000000000E+00  0.28167325136E+03  0.28167325137E+03  0.25500000920E-02 0.  1.
        2   -1    0    0  501    0  0.00000000000E+00  0.00000000000E+00 -0.12780263597E+04  0.12780263597E+04  0.25500000920E-02 0. -1.
    10030    2    1    2    0    0  0.00000000000E+00  0.00000000000E+00 -0.99635310836E+03  0.15596996111E+04  0.11999763999E+04 0.  0.
        5    1    3    3  502    0  0.29659958123E+02  0.15020483808E+03  0.25583038109E+03  0.29818195852E+03  0.46999998093E+01 0.  1.
       -5    1    3    3    0  502 -0.29659958123E+02 -0.15020483808E+03 -0.12521834895E+04  0.12615176526E+04  0.46999998093E+01 0. -1.
</event>
<event>
 5   0  0.2304842E-04  0.1197795E+04  0.7818609E-02  0.9114789E-01
        1   -1    0    0  501    0  0.00000000000E+00  0.00000000000E+00  0.37871095744E+03  0.37871095747E+03  0.50400001928E-02 0. -1.
       -1   -1    0    0    0  501  0.00000000000E+00  0.00000000000E+00 -0.94710226996E+03  0.94710226997E+03  0.50400001928E-02 0.  1.
    10030    2    1    2    0    0  0.00000000000E+00  0.00000000000E+00 -0.56839131252E+03  0.13258132274E+04  0.11977946527E+04 0.  0.
        4    1    3    3  502    0  0.14039695937E+03  0.42882750286E+03  0.15168415824E+03  0.47603994598E+03  0.12699999809E+01 0. -1.
       -4    1    3    3    0  502 -0.14039695937E+03 -0.42882750286E+03 -0.72007547075E+03  0.84977328146E+03  0.12699999809E+01 0.  1.
</event>
<event>
 5   0  0.2304842E-04  0.1197941E+04  0.7818609E-02  0.9114661E-01
        1   -1    0    0  501    0  0.00000000000E+00  0.00000000000E+00  0.85179355212E+03  0.85179355214E+03  0.50400001928E-02 0.  1.
       -1   -1    0    0    0  501  0.00000000000E+00  0.00000000000E+00 -0.42118817750E+03  0.42118817753E+03  0.50400001928E-02 0. -1.
    10030    2    1    2    0    0  0.00000000000E+00  0.00000000000E+00  0.43060537462E+03  0.12729817297E+04  0.11979405225E+04 0.  0.
        4    1    3    3  502    0 -0.50175130753E+03  0.94334342816E+02  0.54814955771E+03  0.74908136631E+03  0.12699999809E+01 0. -1.
       -4    1    3    3    0  502  0.50175130753E+03 -0.94334342816E+02 -0.11754418309E+03  0.52390036335E+03  0.12699999809E+01 0.  1.
</event>
<event>
 5   0  0.2204090E-04  0.1201884E+04  0.7818609E-02  0.9111209E-01
        1   -1    0    0  501    0  0.00000000000E+00  0.00000000000E+00  0.38380374303E+03  0.38380374306E+03  0.50400001928E-02 0.  1.
       -1   -1    0    0    0  501  0.00000000000E+00  0.00000000000E+00 -0.94092646912E+03  0.94092646913E+03  0.50400001928E-02 0. -1.
    10030    2    1    2    0    0  0.00000000000E+00  0.00000000000E+00 -0.55712272609E+03  0.13247302122E+04  0.12018836895E+04 0.  0.
        2    1    3    3  502    0  0.13802465978E+03 -0.57215800155E+02  0.36300407538E+03  0.39255116003E+03  0.25500000920E-02 0.  1.
       -2    1    3    3    0  502 -0.13802465978E+03  0.57215800155E+02 -0.92012680147E+03  0.93217905216E+03  0.25500000920E-02 0. -1.
</event>
<event>
 5   0  0.4024486E-04  0.1199679E+04  0.7818609E-02  0.9113137E-01
       -2   -1    0    0    0  501  0.00000000000E+00  0.00000000000E+00  0.45478207162E+03  0.45478207163E+03  0.25500000920E-02 0.  1.
        2   -1    0    0  501    0  0.00000000000E+00  0.00000000000E+00 -0.79116483292E+03  0.79116483292E+03  0.25500000920E-02 0. -1.
    10030    2    1    2    0    0  0.00000000000E+00  0.00000000000E+00 -0.33638276130E+03  0.12459469045E+04  0.11996792600E+04 0.  0.
        1    1    3    3  502    0  0.31246181498E+03 -0.63128638299E+02 -0.69591200659E+03  0.76544832075E+03  0.50400001928E-02 0. -1.
       -1    1    3    3    0  502 -0.31246181498E+03  0.63128638299E+02  0.35952924529E+03  0.48049858380E+03  0.50400001928E-02 0.  1.
</event>
<event>
 5   0  0.4122956E-04  0.1199927E+04  0.7818609E-02  0.9112921E-01
        2   -1    0    0  501    0  0.00000000000E+00  0.00000000000E+00  0.54528444645E+03  0.54528444646E+03  0.25500000920E-02 0.  1.
       -2   -1    0    0    0  501  0.00000000000E+00  0.00000000000E+00 -0.66012542873E+03  0.66012542873E+03  0.25500000920E-02 0. -1.
    10030    2    1    2    0    0  0.00000000000E+00  0.00000000000E+00 -0.11484098228E+03  0.12054098752E+04  0.11999268794E+04 0.  0.
        5    1    3    3  502    0 -0.32745287495E+03  0.50220668418E+03 -0.35022871388E+02  0.60057108694E+03  0.46999998093E+01 0.  1.
       -5    1    3    3    0  502  0.32745287495E+03 -0.50220668418E+03 -0.79818110890E+02  0.60483878825E+03  0.46999998093E+01 0. -1.
</event>
<event>
 5   0  0.3993723E-04  0.1198170E+04  0.7818609E-02  0.9114459E-01
        2   -1    0    0  501    0  0.00000000000E+00  0.00000000000E+00  0.11787064101E+04  0.11787064101E+04  0.25500000920E-02 0. -1.
       -2   -1    0    0    0  501  0.00000000000E+00  0.00000000000E+00 -0.30448900000E+03  0.30448900001E+03  0.25500000920E-02 0.  1.
    10030    2    1    2    0    0  0.00000000000E+00  0.00000000000E+00  0.87421741009E+03  0.14831954101E+04  0.11981704989E+04 0.  0.
        3    1    3    3  502    0  0.37619199040E+03  0.35134313101E+02 -0.13840497975E+03  0.40238138900E+03  0.10100000352E+00 0.  1.
       -3    1    3    3    0  502 -0.37619199040E+03 -0.35134313101E+02  0.10126223898E+04  0.10808140211E+04  0.10100000352E+00 0. -1.
</event>
<event>
 5   0  0.2304842E-04  0.1210497E+04  0.7818609E-02  0.9103718E-01
       -1   -1    0    0    0  501  0.00000000000E+00  0.00000000000E+00  0.24004883843E+03  0.24004883849E+03  0.50400001928E-02 0.  1.
        1   -1    0    0  501    0  0.00000000000E+00  0.00000000000E+00 -0.15260475008E+04  0.15260475008E+04  0.50400001928E-02 0. -1.
    10030    2    1    2    0    0  0.00000000000E+00  0.00000000000E+00 -0.12859986624E+04  0.17660963393E+04  0.12104973028E+04 0.  0.
        4    1    3    3  502    0  0.21604839222E+03 -0.63368738130E+02  0.17667427108E+03  0.28619558996E+03  0.12699999809E+01 0.  1.
       -4    1    3    3    0  502 -0.21604839222E+03  0.63368738130E+02 -0.14626729334E+04  0.14799007493E+04  0.12699999809E+01 0. -1.
</event>
<event>
 5   0  0.4024486E-04  0.1200158E+04  0.7818609E-02  0.9112719E-01
       -2   -1    0    0    0  501  0.00000000000E+00  0.00000000000E+00  0.97641548938E+03  0.97641548939E+03  0.25500000920E-02 0. -1.
        2   -1    0    0  501    0  0.00000000000E+00  0.00000000000E+00 -0.36879229977E+03  0.36879229978E+03  0.25500000920E-02 0.  1.
    10030    2    1    2    0    0  0.00000000000E+00  0.00000000000E+00  0.60762318962E+03  0.13452077892E+04  0.12001575128E+04 0.  0.
        1    1    3    3  502    0  0.28261227879E+03 -0.75166960370E+02 -0.28351736742E+03  0.40731053228E+03  0.50400001928E-02 0.  1.
       -1    1    3    3    0  502 -0.28261227879E+03  0.75166960370E+02  0.89114055704E+03  0.93789725688E+03  0.50400001928E-02 0. -1.
</event>
<event>
 5   0  0.2304842E-04  0.1201934E+04  0.7818609E-02  0.9111165E-01
        1   -1    0    0  501    0  0.00000000000E+00  0.00000000000E+00  0.61857553672E+03  0.61857553674E+03  0.50400001928E-02 0.  1.
       -1   -1    0    0    0  501  0.00000000000E+00  0.00000000000E+00 -0.58386003238E+03  0.58386003240E+03  0.50400001928E-02 0. -1.
    10030    2    1    2    0    0  0.00000000000E+00  0.00000000000E+00  0.34715504337E+02  0.12024355691E+04  0.12019343292E+04 0.  0.
        4    1    3    3  502    0 -0.88698000589E+02  0.21324572900E+03  0.57240336768E+03  0.61724250054E+03  0.12699999809E+01 0.  1.
       -4    1    3    3    0  502  0.88698000589E+02 -0.21324572900E+03 -0.53768786335E+03  0.58519306860E+03  0.12699999809E+01 0. -1.
</event>
<event>
 5   0  0.3993723E-04  0.1194835E+04  0.7818609E-02  0.9117390E-01
       -2   -1    0    0    0  501  0.00000000000E+00  0.00000000000E+00  0.94149958990E+03  0.94149958990E+03  0.25500000920E-02 0. -1.
        2   -1    0    0  501    0  0.00000000000E+00  0.00000000000E+00 -0.37908413211E+03  0.37908413212E+03  0.25500000920E-02 0.  1.
    10030    2    1    2    0    0  0.00000000000E+00  0.00000000000E+00  0.56241545779E+03  0.13205837220E+04  0.11948348085E+04 0.  0.
        3    1    3    3  502    0  0.47129678043E+03  0.34391556810E+03  0.13919800520E+03  0.59981219401E+03  0.10100000352E+00 0.  1.
       -3    1    3    3    0  502 -0.47129678043E+03 -0.34391556810E+03  0.42321745259E+03  0.72077152802E+03  0.10100000352E+00 0. -1.
</event>
<event>
 5   0  0.3832662E-04  0.1199968E+04  0.7818609E-02  0.9112885E-01
       -2   -1    0    0    0  501  0.00000000000E+00  0.00000000000E+00  0.70369887380E+03  0.70369887381E+03  0.25500000920E-02 0. -1.
        2   -1    0    0  501    0  0.00000000000E+00  0.00000000000E+00 -0.51155491022E+03  0.51155491023E+03  0.25500000920E-02 0.  1.
    10030    2    1    2    0    0  0.00000000000E+00  0.00000000000E+00  0.19214396358E+03  0.12152537840E+04  0.11999676899E+04 0.  0.
        4    1    3    3  502    0 -0.41970208567E+03  0.29231197928E+03  0.41372805835E+03  0.65785154337E+03  0.12699999809E+01 0.  1.
       -4    1    3    3    0  502  0.41970208567E+03 -0.29231197928E+03 -0.22158409476E+03  0.55740224067E+03  0.12699999809E+01 0. -1.
</event>
<event>
 5   0  0.2315038E-04  0.1200386E+04  0.7818609E-02  0.9112519E-01
        1   -1    0    0  501    0  0.00000000000E+00  0.00000000000E+00  0.66475259479E+03  0.66475259481E+03  0.50400001928E-02 0.  1.
       -1   -1    0    0    0  501  0.00000000000E+00  0.00000000000E+00 -0.54190299005E+03  0.54190299007E+03  0.50400001928E-02 0. -1.
    10030    2    1    2    0    0  0.00000000000E+00  0.00000000000E+00  0.12284960474E+03  0.12066555849E+04  0.12003856360E+04 0.  0.
        1    1    3    3  502    0 -0.89578305270E+02 -0.35580814819E+03  0.53888756193E+03  0.65193827586E+03  0.50400001928E-02 0.  1.
       -1    1    3    3    0  502  0.89578305270E+02  0.35580814819E+03 -0.41603795719E+03  0.55471730903E+03  0.50400001928E-02 0. -1.
</event>
<event>
 5   0  0.4024486E-04  0.1201767E+04  0.7818609E-02  0.9111311E-01
       -2   -1    0    0    0  501  0.00000000000E+00  0.00000000000E+00  0.36207172298E+03  0.36207172299E+03  0.25500000920E-02 0. -1.
        2   -1    0    0  501    0  0.00000000000E+00  0.00000000000E+00 -0.99720913571E+03  0.99720913571E+03  0.25500000920E-02 0.  1.
    10030    2    1    2    0    0  0.00000000000E+00  0.00000000000E+00 -0.63513741273E+03  0.13592808587E+04  0.12017674150E+04 0.  0.
        1    1    3    3  502    0 -0.40353804214E+03  0.25120095922E+03  0.98191328163E+02  0.48537244495E+03  0.50400001928E-02 0. -1.
       -1    1    3    3    0  502  0.40353804214E+03 -0.25120095922E+03 -0.73332874089E+03  0.87390841374E+03  0.50400001928E-02 0.  1.
</event>
<event>
 5   0  0.2340731E-04  0.1203367E+04  0.7818609E-02  0.9109915E-01
       -1   -1    0    0    0  501  0.00000000000E+00  0.00000000000E+00  0.71984860005E+03  0.71984860007E+03  0.50400001928E-02 0. -1.
        1   -1    0    0  501    0  0.00000000000E+00  0.00000000000E+00 -0.50291530755E+03  0.50291530757E+03  0.50400001928E-02 0.  1.
    10030    2    1    2    0    0  0.00000000000E+00  0.00000000000E+00  0.21693329251E+03  0.12227639076E+04  0.12033667439E+04 0.  0.
        3    1    3    3  502    0  0.18762406906E+02 -0.50217951264E+03  0.44468781164E+03  0.67103170629E+03  0.10100000352E+00 0. -1.
       -3    1    3    3    0  502 -0.18762406906E+02  0.50217951264E+03 -0.22775451913E+03  0.55173220135E+03  0.10100000352E+00 0.  1.
</event>
<event>
 5   0  0.2244308E-04  0.1199529E+04  0.7818609E-02  0.9113269E-01
       -1   -1    0    0    0  501  0.00000000000E+00  0.00000000000E+00  0.42444963726E+03  0.42444963729E+03  0.50400001928E-02 0. -1.
        1   -1    0    0  501    0  0.00000000000E+00  0.00000000000E+00 -0.84749151514E+03  0.84749151516E+03  0.50400001928E-02 0.  1.
    10030    2    1    2    0    0  0.00000000000E+00  0.00000000000E+00 -0.42304187788E+03  0.12719411524E+04  0.11995290179E+04 0.  0.
        5    1    3    3  502    0 -0.55725414624E+03 -0.21954067468E+03 -0.24446210856E+03  0.64692666034E+03  0.46999998093E+01 0.  1.
       -5    1    3    3    0  502  0.55725414624E+03  0.21954067468E+03 -0.17857976932E+03  0.62501449211E+03  0.46999998093E+01 0. -1.
</event>
<event>
 5   0  0.2304842E-04  0.1199691E+04  0.7818609E-02  0.9113127E-01
        1   -1    0    0  501    0  0.00000000000E+00  0.00000000000E+00  0.15128334126E+04  0.15128334127E+04  0.50400001928E-02 0.  1.
       -1   -1    0    0    0  501  0.00000000000E+00  0.00000000000E+00 -0.23784149293E+03  0.23784149299E+03  0.50400001928E-02 0. -1.
    10030    2    1    2    0    0  0.00000000000E+00  0.00000000000E+00  0.12749919197E+04  0.17506749056E+04  0.11996908893E+04 0.  0.
        4    1    3    3  502    0 -0.72211727557E+02  0.25950805538E+02  0.15056399152E+04  0.15075944896E+04  0.12699999809E+01 0.  1.
       -4    1    3    3    0  502  0.72211727557E+02 -0.25950805538E+02 -0.23064799553E+03  0.24308041601E+03  0.12699999809E+01 0. -1.
</event>
<event>
 5   0  0.2340731E-04  0.1197474E+04  0.7818609E-02  0.9115070E-01
       -1   -1    0    0    0  501  0.00000000000E+00  0.00000000000E+00  0.13489397780E+03  0.13489397790E+03  0.50400001928E-02 0. -1.
        1   -1    0    0  501    0  0.00000000000E+00  0.00000000000E+00 -0.26575394454E+04  0.26575394454E+04  0.50400001928E-02 0.  1.
    10030    2    1    2    0    0  0.00000000000E+00  0.00000000000E+00 -0.25226454676E+04  0.27924334233E+04  0.11974741201E+04 0.  0.
        3    1    3    3  502    0  0.41542290142E+03  0.14862859405E+03 -0.22051648907E+04  0.22488705724E+04  0.10100000352E+00 0.  1.
       -3    1    3    3    0  502 -0.41542290142E+03 -0.14862859405E+03 -0.31748057691E+03  0.54356285093E+03  0.10100000352E+00 0. -1.
</event>
<event>
 5   0  0.2340731E-04  0.1195340E+04  0.7818609E-02  0.9116945E-01
       -1   -1    0    0    0  501  0.00000000000E+00  0.00000000000E+00  0.11225411223E+04  0.11225411223E+04  0.50400001928E-02 0.  1.
        1   -1    0    0  501    0  0.00000000000E+00  0.00000000000E+00 -0.31821508378E+03  0.31821508382E+03  0.50400001928E-02 0. -1.
    10030    2    1    2    0    0  0.00000000000E+00  0.00000000000E+00  0.80432603853E+03  0.14407562061E+04  0.11953401479E+04 0.  0.
        3    1    3    3  502    0  0.50957709261E+03 -0.10198805828E+03  0.46363299377E+02  0.52174701061E+03  0.10100000352E+00 0. -1.
       -3    1    3    3    0  502 -0.50957709261E+03  0.10198805828E+03  0.75796273915E+03  0.91900919554E+03  0.10100000352E+00 0.  1.
</event>
<event>
 5   0  0.2304842E-04  0.1202436E+04  0.7818609E-02  0.9110727E-01
        1   -1    0    0  501    0  0.00000000000E+00  0.00000000000E+00  0.14970025116E+04  0.14970025116E+04  0.50400001928E-02 0. -1.
       -1   -1    0    0    0  501  0.00000000000E+00  0.00000000000E+00 -0.24145806485E+03  0.24145806490E+03  0.50400001928E-02 0.  1.
    10030    2    1    2    0    0  0.00000000000E+00  0.00000000000E+00  0.12555444467E+04  0.17384605765E+04  0.12024364093E+04 0.  0.
        4    1    3    3  502    0  0.30079292286E+01 -0.10743315893E+03 -0.22745475634E+03  0.25157148161E+03  0.12699999809E+01 0.  1.
       -4    1    3    3    0  502 -0.30079292286E+01  0.10743315893E+03  0.14829992031E+04  0.14868890949E+04  0.12699999809E+01 0. -1.
</event>
<event>
 5   0  0.2340731E-04  0.1199859E+04  0.7818609E-02  0.9112980E-01
        1   -1    0    0  501    0  0.00000000000E+00  0.00000000000E+00  0.71965299974E+03  0.71965299975E+03  0.50400001928E-02 0. -1.
       -1   -1    0    0    0  501  0.00000000000E+00  0.00000000000E+00 -0.50012369912E+03  0.50012369914E+03  0.50400001928E-02 0.  1.
    10030    2    1    2    0    0  0.00000000000E+00  0.00000000000E+00  0.21952930062E+03  0.12197766989E+04  0.11998591923E+04 0.  0.
        3    1    3    3  502    0  0.28051513375E+03  0.42134594116E+03 -0.21759687364E+03  0.55097146207E+03  0.10100000352E+00 0.  1.
       -3    1    3    3    0  502 -0.28051513375E+03 -0.42134594116E+03  0.43712617425E+03  0.66880523683E+03  0.10100000352E+00 0. -1.
</event>
<event>
 5   0  0.2315038E-04  0.1197490E+04  0.7818609E-02  0.9115056E-01
       -1   -1    0    0    0  501  0.00000000000E+00  0.00000000000E+00  0.29849678578E+03  0.29849678582E+03  0.50400001928E-02 0. -1.
        1   -1    0    0  501    0  0.00000000000E+00  0.00000000000E+00 -0.12010030281E+04  0.12010030281E+04  0.50400001928E-02 0.  1.
    10030    2    1    2    0    0  0.00000000000E+00  0.00000000000E+00 -0.90250624232E+03  0.14994998139E+04  0.11974899476E+04 0.  0.
        1    1    3    3  502    0 -0.46205104748E+03  0.26571573473E+03 -0.79280730605E+03  0.95532164568E+03  0.50400001928E-02 0.  1.
       -1    1    3    3    0  502  0.46205104748E+03 -0.26571573473E+03 -0.10969893626E+03  0.54417816825E+03  0.50400001928E-02 0. -1.
</event>
<event>
 5   0  0.2244308E-04  0.1199844E+04  0.7818609E-02  0.9112994E-01
        1   -1    0    0  501    0  0.00000000000E+00  0.00000000000E+00  0.98047831862E+03  0.98047831863E+03  0.50400001928E-02 0. -1.
       -1   -1    0    0    0  501  0.00000000000E+00  0.00000000000E+00 -0.36707196946E+03  0.36707196949E+03  0.50400001928E-02 0.  1.
    10030    2    1    2    0    0  0.00000000000E+00  0.00000000000E+00  0.61340634916E+03  0.13475502881E+04  0.11998435022E+04 0.  0.
        5    1    3    3  502    0  0.44046753265E+03  0.98295344914E+02  0.75059315591E+03  0.87583434384E+03  0.46999998093E+01 0. -1.
       -5    1    3    3    0  502 -0.44046753265E+03 -0.98295344914E+02 -0.13718680675E+03  0.47171594428E+03  0.46999998093E+01 0.  1.
</event>
<event>
 5   0  0.3993723E-04  0.1198728E+04  0.7818609E-02  0.9113970E-01
        2   -1    0    0  501    0  0.00000000000E+00  0.00000000000E+00  0.11660926984E+04  0.11660926984E+04  0.25500000920E-02 0. -1.
       -2   -1    0    0    0  501  0.00000000000E+00  0.00000000000E+00 -0.30806938338E+03  0.30806938339E+03  0.25500000920E-02 0.  1.
    10030    2    1    2    0    0  0.00000000000E+00  0.00000000000E+00  0.85802331504E+03  0.14741620818E+04  0.11987284239E+04 0.  0.
        3    1    3    3  502    0  0.26862203020E+03  0.44407314668E+03  0.60328915677E+02  0.52249243342E+03  0.10100000352E+00 0.  1.
       -3    1    3    3    0  502 -0.26862203020E+03 -0.44407314668E+03  0.79769439936E+03  0.95166964840E+03  0.10100000352E+00 0. -1.
</event>
<event>
 5   0  0.3883890E-04  0.1198894E+04  0.7818609E-02  0.9113825E-01
        2   -1    0    0  501    0  0.00000000000E+00  0.00000000000E+00  0.97195225302E+03  0.97195225302E+03  0.25500000920E-02 0.  1.
       -2   -1    0    0    0  501  0.00000000000E+00  0.00000000000E+00 -0.36970617726E+03  0.36970617727E+03  0.25500000920E-02 0. -1.
    10030    2    1    2    0    0  0.00000000000E+00  0.00000000000E+00  0.60224607576E+03  0.13416584303E+04  0.11988940770E+04 0.  0.
        2    1    3    3  502    0  0.38908309819E+03  0.32823007358E+03 -0.53143332101E+02  0.51180548282E+03  0.25500000920E-02 0. -1.
       -2    1    3    3    0  502 -0.38908309819E+03 -0.32823007358E+03  0.65538940786E+03  0.82985294747E+03  0.25500000920E-02 0.  1.
</event>
<event>
 5   0  0.2244308E-04  0.1206525E+04  0.7818609E-02  0.9107164E-01
        1   -1    0    0  501    0  0.00000000000E+00  0.00000000000E+00  0.74834135909E+03  0.74834135911E+03  0.50400001928E-02 0. -1.
       -1   -1    0    0    0  501  0.00000000000E+00  0.00000000000E+00 -0.48630981895E+03  0.48630981897E+03  0.50400001928E-02 0.  1.
    10030    2    1    2    0    0  0.00000000000E+00  0.00000000000E+00  0.26203154015E+03  0.12346511781E+04  0.12065251773E+04 0.  0.
        5    1    3    3  502    0  0.19368221516E+03  0.56880921685E+03  0.18561627758E+03  0.62891352200E+03  0.46999998093E+01 0. -1.
       -5    1    3    3    0  502 -0.19368221516E+03 -0.56880921685E+03  0.76415262570E+02  0.60573765609E+03  0.46999998093E+01 0.  1.
</event>
<event>
 5   0  0.4024486E-04  0.1203761E+04  0.7818609E-02  0.9109571E-01
       -2   -1    0    0    0  501  0.00000000000E+00  0.00000000000E+00  0.51751686710E+03  0.51751686711E+03  0.25500000920E-02 0. -1.
        2   -1    0    0  501    0  0.00000000000E+00  0.00000000000E+00 -0.69999641034E+03  0.69999641034E+03  0.25500000920E-02 0.  1.
    10030    2    1    2    0    0  0.00000000000E+00  0.00000000000E+00 -0.18247954323E+03  0.12175132775E+04  0.12037606893E+04 0.  0.
        1    1    3    3  502    0  0.10691400694E+03 -0.94673055476E+02  0.50013355398E+03  0.52012225885E+03  0.50400001928E-02 0. -1.
       -1    1    3    3    0  502 -0.10691400694E+03  0.94673055476E+02 -0.68261309721E+03  0.69739101860E+03  0.50400001928E-02 0.  1.
</event>
<event>
 5   0  0.4024486E-04  0.1190198E+04  0.7818609E-02  0.9121480E-01
       -2   -1    0    0    0  501  0.00000000000E+00  0.00000000000E+00  0.71342553069E+03  0.71342553069E+03  0.25500000920E-02 0.  1.
        2   -1    0    0  501    0  0.00000000000E+00  0.00000000000E+00 -0.49639780862E+03  0.49639780862E+03  0.25500000920E-02 0. -1.
    10030    2    1    2    0    0  0.00000000000E+00  0.00000000000E+00  0.21702772207E+03  0.12098233393E+04  0.11901980844E+04 0.  0.
        1    1    3    3  502    0  0.43950208213E+02  0.10577153615E+03  0.70211530513E+03  0.71139661258E+03  0.50400001928E-02 0.  1.
       -1    1    3    3    0  502 -0.43950208213E+02 -0.10577153615E+03 -0.48508758306E+03  0.49842672674E+03  0.50400001928E-02 0. -1.
</event>
<event>
 5   0  0.3832662E-04  0.1207674E+04  0.7818609E-02  0.9106166E-01
        2   -1    0    0  501    0  0.00000000000E+00  0.00000000000E+00  0.49796785106E+03  0.49796785107E+03  0.25500000920E-02 0. -1.
       -2   -1    0    0    0  501  0.00000000000E+00  0.00000000000E+00 -0.73221423122E+03  0.73221423123E+03  0.25500000920E-02 0.  1.
    10030    2    1    2    0    0  0.00000000000E+00  0.00000000000E+00 -0.23424638016E+03  0.12301820823E+04  0.12076740409E+04 0.  0.
        4    1    3    3  502    0  0.23873777048E+03 -0.21059813440E+03 -0.63978473553E+03  0.71461417421E+03  0.12699999809E+01 0.  1.
       -4    1    3    3    0  502 -0.23873777048E+03  0.21059813440E+03  0.40553835537E+03  0.51556790808E+03  0.12699999809E+01 0. -1.
</event>
<event>
 5   0  0.3883890E-04  0.1200513E+04  0.7818609E-02  0.9112407E-01
       -2   -1    0    0    0  501  0.00000000000E+00  0.00000000000E+00  0.23856572754E+03  0.23856572755E+03  0.25500000920E-02 0.  1.
        2   -1    0    0  501    0  0.00000000000E+00  0.00000000000E+00 -0.15103095128E+04  0.15103095128E+04  0.25500000920E-02 0. -1.
    10030    2    1    2    0    0  0.00000000000E+00  0.00000000000E+00 -0.12717437853E+04  0.17488752404E+04  0.12005133698E+04 0.  0.
        2    1    3    3  502    0 -0.49060727705E+03 -0.27681755851E+02 -0.13366267987E+03  0.50924207593E+03  0.25500000920E-02 0.  1.
       -2    1    3    3    0  502  0.49060727705E+03  0.27681755851E+02 -0.11380811054E+04  0.12396331645E+04  0.25500000920E-02 0. -1.
</event>
<event>
 5   0  0.2244308E-04  0.1197678E+04  0.7818609E-02  0.9114892E-01
        1   -1    0    0  501    0  0.00000000000E+00  0.00000000000E+00  0.63435443611E+03  0.63435443613E+03  0.50400001928E-02 0.  1.
       -1   -1    0    0    0  501  0.00000000000E+00  0.00000000000E+00 -0.56531183274E+03  0.56531183276E+03  0.50400001928E-02 0. -1.
    10030    2    1    2    0    0  0.00000000000E+00  0.00000000000E+00  0.69042603374E+02  0.11996662689E+04  0.11976778681E+04 0.  0.
        5    1    3    3  502    0  0.53651963170E+03  0.56884091308E+02 -0.22571160996E+03  0.58485633784E+03  0.46999998093E+01 0. -1.
       -5    1    3    3    0  502 -0.53651963170E+03 -0.56884091308E+02  0.29475421334E+03  0.61480993105E+03  0.46999998093E+01 0.  1.
</event>
<event>
 5   0  0.3883890E-04  0.1202239E+04  0.7818609E-02  0.9110899E-01
       -2   -1    0    0    0  501  0.00000000000E+00  0.00000000000E+00  0.39064847772E+03  0.39064847773E+03  0.25500000920E-02 0. -1.
        2   -1    0    0  501    0  0.00000000000E+00  0.00000000000E+00 -0.92498622590E+03  0.92498622591E+03  0.25500000920E-02 0.  1.
    10030    2    1    2    0    0  0.00000000000E+00  0.00000000000E+00 -0.53433774818E+03  0.13156347036E+04  0.12022386802E+04 0.  0.
        2    1    3    3  502    0  0.31381843894E+03  0.48459426420E+03 -0.45038459627E+03  0.73222940263E+03  0.25500000920E-02 0.  1.
       -2    1    3    3    0  502 -0.31381843894E+03 -0.48459426420E+03 -0.83953151916E+02  0.58340530100E+03  0.25500000920E-02 0. -1.
</event>
<event>
 5   0  0.2244308E-04  0.1196189E+04  0.7818609E-02  0.9116199E-01
        1   -1    0    0  501    0  0.00000000000E+00  0.00000000000E+00  0.46740710103E+03  0.46740710106E+03  0.50400001928E-02 0.  1.
       -1   -1    0    0    0  501  0.00000000000E+00  0.00000000000E+00 -0.76532252366E+03  0.76532252368E+03  0.50400001928E-02 0. -1.
    10030    2    1    2    0    0  0.00000000000E+00  0.00000000000E+00 -0.29791542263E+03  0.12327296247E+04  0.11961892529E+04 0.  0.
        5    1    3    3  502    0 -0.11996260383E+03 -0.21261336051E+03  0.41370566966E+03  0.48038519804E+03  0.46999998093E+01 0.  1.
       -5    1    3    3    0  502  0.11996260383E+03  0.21261336051E+03 -0.71162109230E+03  0.75234442670E+03  0.46999998093E+01 0. -1.
</event>
<event>
 5   0  0.2204090E-04  0.1201501E+04  0.7818609E-02  0.9111544E-01
        1   -1    0    0  501    0  0.00000000000E+00  0.00000000000E+00  0.18590615830E+04  0.18590615830E+04  0.50400001928E-02 0. -1.
       -1   -1    0    0    0  501  0.00000000000E+00  0.00000000000E+00 -0.19413067134E+03  0.19413067140E+03  0.50400001928E-02 0.  1.
    10030    2    1    2    0    0  0.00000000000E+00  0.00000000000E+00  0.16649309116E+04  0.20531922544E+04  0.12015005172E+04 0.  0.
        2    1    3    3  502    0  0.37836480439E+03 -0.37707913357E+03  0.36275586458E+03  0.64570923446E+03  0.25500000920E-02 0.  1.
       -2    1    3    3    0  502 -0.37836480439E+03  0.37707913357E+03  0.13021750471E+04  0.14074830199E+04  0.25500000920E-02 0. -1.
</event>
<event>
 5   0  0.2204090E-04  0.1200015E+04  0.7818609E-02  0.9112844E-01
       -1   -1    0    0    0  501  0.00000000000E+00  0.00000000000E+00  0.37403166678E+03  0.37403166681E+03  0.50400001928E-02 0. -1.
        1   -1    0    0  501    0  0.00000000000E+00  0.00000000000E+00 -0.96250906186E+03  0.96250906187E+03  0.50400001928E-02 0.  1.
    10030    2    1    2    0    0  0.00000000000E+00  0.00000000000E+00 -0.58847739508E+03  0.13365407287E+04  0.12000147811E+04 0.  0.
        2    1    3    3  502    0  0.87601117932E+02  0.13248529655E+03 -0.93867057419E+03  0.95201300229E+03  0.25500000920E-02 0.  1.
       -2    1    3    3    0  502 -0.87601117932E+02 -0.13248529655E+03  0.35019317911E+03  0.38452772640E+03  0.25500000920E-02 0. -1.
</event>
<event>
 5   0  0.2204090E-04  0.1198474E+04  0.7818609E-02  0.9114194E-01
        1   -1    0    0  501    0  0.00000000000E+00  0.00000000000E+00  0.10271674646E+04  0.10271674646E+04  0.50400001928E-02 0.  1.
       -1   -1    0    0    0  501  0.00000000000E+00  0.00000000000E+00 -0.34958742696E+03  0.34958742700E+03  0.50400001928E-02 0. -1.
    10030    2    1    2    0    0  0.00000000000E+00  0.00000000000E+00  0.67758003762E+03  0.13767548916E+04  0.11984737478E+04 0.  0.
        2    1    3    3  502    0  0.44447714467E+03 -0.37748284558E+03  0.18031319605E+03  0.61038191283E+03  0.25500000920E-02 0.  1.
       -2    1    3    3    0  502 -0.44447714467E+03  0.37748284558E+03  0.49726684157E+03  0.76637297876E+03  0.25500000920E-02 0. -1.
</event>
<event>
 5   0  0.4024486E-04  0.1198733E+04  0.7818609E-02  0.9113966E-01
        2   -1    0    0  501    0  0.00000000000E+00  0.00000000000E+00  0.11965921965E+04  0.11965921965E+04  0.25500000920E-02 0.  1.
       -2   -1    0    0    0  501  0.00000000000E+00  0.00000000000E+00 -0.30021936540E+03  0.30021936541E+03  0.25500000920E-02 0. -1.
    10030    2    1    2    0    0  0.00000000000E+00  0.00000000000E+00  0.89637283107E+03  0.14968115619E+04  0.11987329142E+04 0.  0.
        1    1    3    3  502    0 -0.33013915571E+03 -0.47344838647E+03  0.24647864636E+03  0.62761210944E+03  0.50400001928E-02 0.  1.
       -1    1    3    3    0  502  0.33013915571E+03  0.47344838647E+03  0.64989418471E+03  0.86919945244E+03  0.50400001928E-02 0. -1.
</event>
<event>
 5   0  0.3832662E-04  0.1198814E+04  0.7818609E-02  0.9113896E-01
       -2   -1    0    0    0  501  0.00000000000E+00  0.00000000000E+00  0.10756301124E+04  0.10756301124E+04  0.25500000920E-02 0.  1.
        2   -1    0    0  501    0  0.00000000000E+00  0.00000000000E+00 -0.33402606681E+03  0.33402606682E+03  0.25500000920E-02 0. -1.
    10030    2    1    2    0    0  0.00000000000E+00  0.00000000000E+00  0.74160404558E+03  0.14096561792E+04  0.11988135732E+04 0.  0.
        4    1    3    3  502    0 -0.32604821824E+03  0.40496252932E+03  0.20034445572E+02  0.52029326604E+03  0.12699999809E+01 0. -1.
       -4    1    3    3    0  502  0.32604821824E+03 -0.40496252932E+03  0.72156960001E+03  0.88936291318E+03  0.12699999809E+01 0.  1.
</event>
<event>
 5   0  0.2340731E-04  0.1197279E+04  0.7818609E-02  0.9115241E-01
       -1   -1    0    0    0  501  0.00000000000E+00  0.00000000000E+00  0.41012447990E+03  0.41012447993E+03  0.50400001928E-02 0. -1.
        1   -1    0    0  501    0  0.00000000000E+00  0.00000000000E+00 -0.87380674472E+03  0.87380674474E+03  0.50400001928E-02 0.  1.
    10030    2    1    2    0    0  0.00000000000E+00  0.00000000000E+00 -0.46368226483E+03  0.12839312247E+04  0.11972794774E+04 0.  0.
        3    1    3    3  502    0  0.49839111858E+03  0.33141510489E+03 -0.24452272828E+03  0.64654547688E+03  0.10100000352E+00 0.  1.
       -3    1    3    3    0  502 -0.49839111858E+03 -0.33141510489E+03 -0.21915953654E+03  0.63738574779E+03  0.10100000352E+00 0. -1.
</event>
<event>
 5   0  0.3993723E-04  0.1202334E+04  0.7818609E-02  0.9110816E-01
       -2   -1    0    0    0  501  0.00000000000E+00  0.00000000000E+00  0.21039469332E+03  0.21039469333E+03  0.25500000920E-02 0. -1.
        2   -1    0    0  501    0  0.00000000000E+00  0.00000000000E+00 -0.17177327666E+04  0.17177327666E+04  0.25500000920E-02 0.  1.
    10030    2    1    2    0    0  0.00000000000E+00  0.00000000000E+00 -0.15073380733E+04  0.19281274599E+04  0.12023341610E+04 0.  0.
        3    1    3    3  502    0  0.47914674880E+03  0.15985089087E+03 -0.23089781426E+03  0.55538070279E+03  0.10100000352E+00 0. -1.
       -3    1    3    3    0  502 -0.47914674880E+03 -0.15985089087E+03 -0.12764402590E+04  0.13727467571E+04  0.10100000352E+00 0.  1.
</event>
<event>
 5   0  0.2340731E-04  0.1200107E+04  0.7818609E-02  0.9112763E-01
        1   -1    0    0  501    0  0.00000000000E+00  0.00000000000E+00  0.37922182465E+03  0.37922182468E+03  0.50400001928E-02 0.  1.
       -1   -1    0    0    0  501  0.00000000000E+00  0.00000000000E+00 -0.94948182950E+03  0.94948182951E+03  0.50400001928E-02 0. -1.
    10030    2    1    2    0    0  0.00000000000E+00  0.00000000000E+00 -0.57026000485E+03  0.13287036542E+04  0.12001070484E+04 0.  0.
        3    1    3    3  502    0  0.36351928099E+03  0.90473347834E+02  0.23385561023E+03  0.44161085919E+03  0.10100000352E+00 0.  1.
       -3    1    3    3    0  502 -0.36351928099E+03 -0.90473347834E+02 -0.80411561508E+03  0.88709279500E+03  0.10100000352E+00 0. -1.
</event>
<event>
 5   0  0.2204090E-04  0.1206188E+04  0.7818609E-02  0.9107457E-01
        1   -1    0    0  501    0  0.00000000000E+00  0.00000000000E+00  0.44129881472E+03  0.44129881475E+03  0.50400001928E-02 0. -1.
       -1   -1    0    0    0  501  0.00000000000E+00  0.00000000000E+00 -0.82420942222E+03  0.82420942223E+03  0.50400001928E-02 0.  1.
    10030    2    1    2    0    0  0.00000000000E+00  0.00000000000E+00 -0.38291060750E+03  0.12655082370E+04  0.12061884449E+04 0.  0.
        2    1    3    3  502    0  0.46113373503E+03 -0.20195745837E+03  0.15697895025E+03  0.52732677478E+03  0.25500000920E-02 0. -1.
       -2    1    3    3    0  502 -0.46113373503E+03  0.20195745837E+03 -0.53988955775E+03  0.73818146220E+03  0.25500000920E-02 0.  1.
</event>
<event>
 5   0  0.3883890E-04  0.1200691E+04  0.7818609E-02  0.9112252E-01
        2   -1    0    0  501    0  0.00000000000E+00  0.00000000000E+00  0.77070182989E+03  0.77070182990E+03  0.25500000920E-02 0. -1.
       -2   -1    0    0    0  501  0.00000000000E+00  0.00000000000E+00 -0.46764503062E+03  0.46764503062E+03  0.25500000920E-02 0.  1.
    10030    2    1    2    0    0  0.00000000000E+00  0.00000000000E+00  0.30305679928E+03  0.12383468605E+04  0.12006912690E+04 0.  0.
        2    1    3    3  502    0  0.10201516258E+03 -0.53197092560E+03 -0.11546225747E+03  0.55383363205E+03  0.25500000920E-02 0.  1.
       -2    1    3    3    0  502 -0.10201516258E+03  0.53197092560E+03  0.41851905674E+03  0.68451322847E+03  0.25500000920E-02 0. -1.
</event>
<event>
 5   0  0.2244308E-04  0.1200346E+04  0.7818609E-02  0.9112553E-01
       -1   -1    0    0    0  501  0.00000000000E+00  0.00000000000E+00  0.42704083769E+03  0.42704083772E+03  0.50400001928E-02 0. -1.
        1   -1    0    0  501    0  0.00000000000E+00  0.00000000000E+00 -0.84349749126E+03  0.84349749128E+03  0.50400001928E-02 0.  1.
    10030    2    1    2    0    0  0.00000000000E+00  0.00000000000E+00 -0.41645665357E+03  0.12705383290E+04  0.12003464088E+04 0.  0.
        5    1    3    3  502    0  0.32013662860E+03 -0.47676157411E+03 -0.23686601569E+02  0.57478013589E+03  0.46999998093E+01 0. -1.
       -5    1    3    3    0  502 -0.32013662860E+03  0.47676157411E+03 -0.39277005201E+03  0.69575819310E+03  0.46999998093E+01 0.  1.
</event>
<event>
 5   0  0.2315038E-04  0.1200727E+04  0.7818609E-02  0.9112221E-01
       -1   -1    0    0    0  501  0.00000000000E+00  0.00000000000E+00  0.42739515644E+03  0.42739515647E+03  0.50400001928E-02 0. -1.
        1   -1    0    0  501    0  0.00000000000E+00  0.00000000000E+00 -0.84333239346E+03  0.84333239347E+03  0.50400001928E-02 0.  1.
    10030    2    1    2    0    0  0.00000000000E+00  0.00000000000E+00 -0.41593723702E+03  0.12707275499E+04  0.12007267470E+04 0.  0.
        1    1    3    3  502    0  0.18429221152E+03  0.11504606283E+03 -0.80027275284E+03  0.82923802057E+03  0.50400001928E-02 0.  1.
       -1    1    3    3    0  502 -0.18429221152E+03 -0.11504606283E+03  0.38433551582E+03  0.44148952937E+03  0.50400001928E-02 0. -1.
</event>
<event>
 5   0  0.3832662E-04  0.1199683E+04  0.7818609E-02  0.9113134E-01
       -2   -1    0    0    0  501  0.00000000000E+00  0.00000000000E+00  0.19224274458E+03  0.19224274459E+03  0.25500000920E-02 0. -1.
        2   -1    0    0  501    0  0.00000000000E+00  0.00000000000E+00 -0.18716435483E+04  0.18716435483E+04  0.25500000920E-02 0.  1.
    10030    2    1    2    0    0  0.00000000000E+00  0.00000000000E+00 -0.16794008037E+04  0.20638862929E+04  0.11996831125E+04 0.  0.
        4    1    3    3  502    0 -0.52724122976E+03  0.53771732282E+01 -0.13317233860E+04  0.14323061887E+04  0.12699999809E+01 0.  1.
       -4    1    3    3    0  502  0.52724122976E+03 -0.53771732282E+01 -0.34767741768E+03  0.63158010419E+03  0.12699999809E+01 0. -1.
</event>
<event>
 5   0  0.2315038E-04  0.1200711E+04  0.7818609E-02  0.9112235E-01
       -1   -1    0    0    0  501  0.00000000000E+00  0.00000000000E+00  0.53874778987E+03  0.53874778989E+03  0.50400001928E-02 0. -1.
        1   -1    0    0  501    0  0.00000000000E+00  0.00000000000E+00 -0.66900799672E+03  0.66900799674E+03  0.50400001928E-02 0.  1.
    10030    2    1    2    0    0  0.00000000000E+00  0.00000000000E+00 -0.13026020685E+03  0.12077557866E+04  0.12007107556E+04 0.  0.
        1    1    3    3  502    0 -0.21385319752E+03 -0.22943213634E+03  0.44978586263E+03  0.54834260962E+03  0.50400001928E-02 0. -1.
       -1    1    3    3    0  502  0.21385319752E+03  0.22943213634E+03 -0.58004606948E+03  0.65941317701E+03  0.50400001928E-02 0.  1.
</event>
<event>
 5   0  0.3832662E-04  0.1200202E+04  0.7818609E-02  0.9112679E-01
       -2   -1    0    0    0  501  0.00000000000E+00  0.00000000000E+00  0.35001893636E+03  0.35001893636E+03  0.25500000920E-02 0.  1.
        2   -1    0    0  501    0  0.00000000000E+00  0.00000000000E+00 -0.10288627729E+04  0.10288627729E+04  0.25500000920E-02 0. -1.
    10030    2    1    2    0    0  0.00000000000E+00  0.00000000000E+00 -0.67884383657E+03  0.13788817093E+04  0.12002024053E+04 0.  0.
        4    1    3    3  502    0  0.24623260451E+03 -0.33952862966E+03 -0.83251477622E+03  0.93219775338E+03  0.12699999809E+01 0. -1.
       -4    1    3    3    0  502 -0.24623260451E+03  0.33952862966E+03  0.15367093964E+03  0.44668395592E+03  0.12699999809E+01 0.  1.
</event>
<event>
 5   0  0.4122956E-04  0.1211882E+04  0.7818609E-02  0.9102520E-01
       -2   -1    0    0    0  501  0.00000000000E+00  0.00000000000E+00  0.80876292496E+03  0.80876292497E+03  0.25500000920E-02 0.  1.
        2   -1    0    0  501    0  0.00000000000E+00  0.00000000000E+00 -0.45398257307E+03  0.45398257307E+03  0.25500000920E-02 0. -1.
    10030    2    1    2    0    0  0.00000000000E+00  0.00000000000E+00  0.35478035190E+03  0.12627454980E+04  0.12118816340E+04 0.  0.
        5    1    3    3  502    0 -0.60955496739E+02  0.47703887251E+03  0.56145299878E+03  0.73927885017E+03  0.46999998093E+01 0.  1.
       -5    1    3    3    0  502  0.60955496739E+02 -0.47703887251E+03 -0.20667264688E+03  0.52346664787E+03  0.46999998093E+01 0. -1.
</event>
<event>
 5   0  0.2304842E-04  0.1201156E+04  0.7818609E-02  0.9111845E-01
       -1   -1    0    0    0  501  0.00000000000E+00  0.00000000000E+00  0.36845930760E+03  0.36845930764E+03  0.50400001928E-02 0.  1.
        1   -1    0    0  501    0  0.00000000000E+00  0.00000000000E+00 -0.97892469073E+03  0.97892469074E+03  0.50400001928E-02 0. -1.
    10030    2    1    2    0    0  0.00000000000E+00  0.00000000000E+00 -0.61046538312E+03  0.13473839984E+04  0.12011559662E+04 0.  0.
        4    1    3    3  502    0 -0.29289898086E+02 -0.59592507183E+03 -0.22826704839E+03  0.63882082594E+03  0.12699999809E+01 0.  1.
       -4    1    3    3    0  502  0.29289898086E+02  0.59592507183E+03 -0.38219833474E+03  0.70856317244E+03  0.12699999809E+01 0. -1.
</event>
<event>
 5   0  0.4122956E-04  0.1200784E+04  0.7818609E-02  0.9112171E-01
        2   -1    0    0  501    0  0.00000000000E+00  0.00000000000E+00  0.81570607113E+03  0.81570607114E+03  0.25500000920E-02 0. -1.
       -2   -1    0    0    0  501  0.00000000000E+00  0.00000000000E+00 -0.44191209237E+03  0.44191209238E+03  0.25500000920E-02 0.  1.
    10030    2    1    2    0    0  0.00000000000E+00  0.00000000000E+00  0.37379397876E+03  0.12576181635E+04  0.12007837052E+04 0.  0.
        5    1    3    3  502    0 -0.30265759816E+03  0.23960054405E+03  0.66848513398E+03  0.77194851304E+03  0.46999998093E+01 0. -1.
       -5    1    3    3    0  502  0.30265759816E+03 -0.23960054405E+03 -0.29469115522E+03  0.48566965048E+03  0.46999998093E+01 0.  1.
</event>
<event>
 5   0  0.1541375E-04  0.1199505E+04  0.7818609E-02  0.9113290E-01
       -4   -1    0    0    0  501  0.00000000000E+00  0.00000000000E+00  0.73418924950E+03  0.73419034793E+03  0.12699999809E+01 0. -1.
        4   -1    0    0  501    0  0.00000000000E+00  0.00000000000E+00 -0.48993026218E+03  0.48993190823E+03  0.12699999809E+01 0.  1.
    10030    2    1    2    0    0  0.00000000000E+00  0.00000000000E+00  0.24425898732E+03  0.12241222562E+04  0.11995052501E+04 0.  0.
        1    1    3    3  502    0 -0.53791808549E+03  0.25353946688E+03  0.42652574180E+02  0.59620245729E+03  0.50400001928E-02 0.  1.
       -1    1    3    3    0  502  0.53791808549E+03 -0.25353946688E+03  0.20160641314E+03  0.62791979887E+03  0.50400001928E-02 0. -1.
</event>
<event>
 5   0  0.3883890E-04  0.1198635E+04  0.7818609E-02  0.9114052E-01
        2   -1    0    0  501    0  0.00000000000E+00  0.00000000000E+00  0.62869209805E+03  0.62869209805E+03  0.25500000920E-02 0.  1.
       -2   -1    0    0    0  501  0.00000000000E+00  0.00000000000E+00 -0.57131562467E+03  0.57131562468E+03  0.25500000920E-02 0. -1.
    10030    2    1    2    0    0  0.00000000000E+00  0.00000000000E+00  0.57376473375E+02  0.12000077227E+04  0.11986352552E+04 0.  0.
        2    1    3    3  502    0  0.13301939134E+03  0.53888405731E+03  0.25498119276E+03  0.61082370154E+03  0.25500000920E-02 0.  1.
       -2    1    3    3    0  502 -0.13301939134E+03 -0.53888405731E+03 -0.19760471939E+03  0.58918402119E+03  0.25500000920E-02 0. -1.
</event>
<event>
 5   0  0.2340731E-04  0.1212073E+04  0.7818609E-02  0.9102355E-01
        1   -1    0    0  501    0  0.00000000000E+00  0.00000000000E+00  0.11577506991E+04  0.11577506991E+04  0.50400001928E-02 0.  1.
       -1   -1    0    0    0  501  0.00000000000E+00  0.00000000000E+00 -0.31723579398E+03  0.31723579402E+03  0.50400001928E-02 0. -1.
    10030    2    1    2    0    0  0.00000000000E+00  0.00000000000E+00  0.84051490508E+03  0.14749864931E+04  0.12120725428E+04 0.  0.
        3    1    3    3  502    0 -0.53830664451E+03  0.12955748530E+03  0.72012402314E+03  0.90837096190E+03  0.10100000352E+00 0.  1.
       -3    1    3    3    0  502  0.53830664451E+03 -0.12955748530E+03  0.12039088194E+03  0.56661553118E+03  0.10100000352E+00 0. -1.
</event>
</LesHouchesEvents>
