<LesHouchesEvents version="3.0">
<header>
<!--
#*********************************************************************
#                                                                    *
#                        MadGraph5_aMC@NLO                           *
#                                                                    *
#                           Going Beyond                             *
#                                                                    *
#                   http://madgraph.hep.uiuc.edu                     *
#                   http://madgraph.phys.ucl.ac.be                   *
#                   http://amcatnlo.cern.ch                          *
#                                                                    *
#                     The MadGraph5_aMC@NLO team                     *
#                                                                    *
#....................................................................*
#                                                                    *
# This file contains all the information necessary to reproduce      *
# the events generated:                                              *
#                                                                    *
# 1. software version                                                *
# 2. proc_card          : code generation info including model       *
# 3. param_card         : model primary parameters in the LH format  *
# 4. run_card           : running parameters (collider and cuts)     *
# 5. pythia_card        : present only if pythia has been run        *
# 6. pgs_card           : present only if pgs has been run           *
# 7. delphes_cards      : present only if delphes has been run       *
#                                                                    *
#                                                                    *
#*********************************************************************
-->
<MGVersion>
#5.2.2.3
</MGVersion>
<MG5ProcCard>
#************************************************************
#*                     MadGraph5_aMC@NLO                    *
#*                                                          *
#*                *                       *                 *
#*                  *        * *        *                   *
#*                    * * * * 5 * * * *                     *
#*                  *        * *        *                   *
#*                *                       *                 *
#*                                                          *
#*                                                          *
#*         VERSION 2.2.3                 2015-02-10         *
#*                                                          *
#*    The MadGraph5_aMC@NLO Development Team - Find us at   *
#*    https://server06.fynu.ucl.ac.be/projects/madgraph     *
#*                                                          *
#************************************************************
#*                                                          *
#*               Command File for MadGraph5_aMC@NLO         *
#*                                                          *
#*     run as ./bin/mg5_aMC  filename                       *
#*                                                          *
#************************************************************
set group_subprocesses Auto
set ignore_six_quark_processes False
set loop_optimized_output True
set gauge unitary
set complex_mass_scheme False
import model sm
define p = g u c d s u~ c~ d~ s~
define j = g u c d s u~ c~ d~ s~
define l+ = e+ mu+
define l- = e- mu-
define vl = ve vm vt
define vl~ = ve~ vm~ vt~
import model Zprime_UFO
generate p p > zph, zph > j j
add process p p > zph, zph > b b~
output Dijet_signal
</MG5ProcCard>
<MGProcCard>
#*********************************************************************
#                        MadGraph/MadEvent                           *
#                   http://madgraph.hep.uiuc.edu                     *
#                                                                    *
#                          proc_card.dat                             *
#*********************************************************************
#                                                                    *
#            This Files is generated by MADGRAPH 5                   *
#                                                                    *
# WARNING: This Files is generated for MADEVENT (compatibility issue)*
#          This files is NOT a valid MG4 proc_card.dat               *
#          Running this in MG4 will NEVER reproduce the result of MG5*
#                                                                    *
#*********************************************************************
#*********************************************************************
# Process(es) requested : mg2 input                                  *
#*********************************************************************
# Begin PROCESS # This is TAG. Do not modify this line
p p > zph , zph > j j           #Process
# Be carefull the coupling are here in MG5 convention
          
end_coup           # End the couplings input

done               # this tells MG there are no more procs
# End PROCESS  # This is TAG. Do not modify this line
#*********************************************************************
# Model information                                                  *
#*********************************************************************
# Begin MODEL  # This is TAG. Do not modify this line
Zprime_UFO
# End   MODEL  # This is TAG. Do not modify this line
#*********************************************************************
# Start multiparticle definitions                                    *
#*********************************************************************
# Begin MULTIPARTICLES # This is TAG. Do not modify this line

# End  MULTIPARTICLES # This is TAG. Do not modify this line
</MGProcCard>
<MGRunCard>
#*********************************************************************
#                       MadGraph5_aMC@NLO                            *
#                                                                    *
#                     run_card.dat MadEvent                          *
#                                                                    *
#  This file is used to set the parameters of the run.               *
#                                                                    *
#  Some notation/conventions:                                        *
#                                                                    *
#   Lines starting with a '# ' are info or comments                  *
#                                                                    *
#   mind the format:   value    = variable     ! comment             *
#*********************************************************************
#
#*******************                                                 
# Running parameters
#*******************                                                 
#                                                                    
#*********************************************************************
# Tag name for the run (one word)                                    *
#*********************************************************************
  tag_1     = run_tag ! name of the run 
#*********************************************************************
# Run to generate the grid pack                                      *
#*********************************************************************
  .false.     = gridpack  !True = setting up the grid pack
#*********************************************************************
# Number of events and rnd seed                                      *
# Warning: Do not generate more than 1M events in a single run       *
# If you want to run Pythia, avoid more than 50k events in a run.    *
#*********************************************************************
  2000 = nevents ! Number of unweighted events requested 
 804 = iseed   ! rnd seed (0=assigned automatically=default))
#*********************************************************************
# Collider type and energy                                           *
# lpp: 0=No PDF, 1=proton, -1=antiproton, 2=photon from proton,      *
#                                         3=photon from electron     *
#*********************************************************************
        1     = lpp1    ! beam 1 type 
        1     = lpp2    ! beam 2 type
     4000     = ebeam1  ! beam 1 total energy in GeV
     4000     = ebeam2  ! beam 2 total energy in GeV
#*********************************************************************
# Beam polarization from -100 (left-handed) to 100 (right-handed)    *
#*********************************************************************
        0     = polbeam1 ! beam polarization for beam 1
        0     = polbeam2 ! beam polarization for beam 2
#*********************************************************************
# PDF CHOICE: this automatically fixes also alpha_s and its evol.    *
#*********************************************************************
 'nn23lo1'    = pdlabel     ! PDF set                                     
 230000    = lhaid     ! if pdlabel=lhapdf, this is the lhapdf number
#*********************************************************************
# Renormalization and factorization scales                           *
#*********************************************************************
 F        = fixed_ren_scale  ! if .true. use fixed ren scale
 F        = fixed_fac_scale  ! if .true. use fixed fac scale
 91.1880  = scale            ! fixed ren scale
 91.1880  = dsqrt_q2fact1    ! fixed fact scale for pdf1
 91.1880  = dsqrt_q2fact2    ! fixed fact scale for pdf2
 1        = scalefact        ! scale factor for event-by-event scales
#*********************************************************************
# Matching - Warning! ickkw > 1 is still beta
#*********************************************************************
 0        = ickkw            ! 0 no matching, 1 MLM, 2 CKKW matching
 1        = highestmult      ! for ickkw=2, highest mult group
 1        = ktscheme         ! for ickkw=1, 1 Durham kT, 2 Pythia pTE
 1        = alpsfact         ! scale factor for QCD emission vx
 F        = chcluster        ! cluster only according to channel diag
 T        = pdfwgt           ! for ickkw=1, perform pdf reweighting
 5        = asrwgtflavor     ! highest quark flavor for a_s reweight
 T        = clusinfo         ! include clustering tag in output
 3.0      = lhe_version       ! Change the way clustering information pass to shower.        
#*********************************************************************
#**********************************************************
#
#**********************************************************
# Automatic ptj and mjj cuts if xqcut > 0
# (turn off for VBF and single top processes)
#**********************************************************
   T  = auto_ptj_mjj  ! Automatic setting of ptj and mjj
#**********************************************************
#                                                                    
#**********************************
# BW cutoff (M+/-bwcutoff*Gamma)
#**********************************
  15  = bwcutoff      ! (M+/-bwcutoff*Gamma)
#**********************************************************
# Apply pt/E/eta/dr/mij cuts on decay products or not
# (note that etmiss/ptll/ptheavy/ht/sorted cuts always apply)
#**********************************************************
   T  = cut_decays    ! Cut decay products 
#*************************************************************
# Number of helicities to sum per event (0 = all helicities)
# 0 gives more stable result, but longer run time (needed for
# long decay chains e.g.).
# Use >=2 if most helicities contribute, e.g. pure QCD.
#*************************************************************
   0  = nhel          ! Number of helicities used per event
#*******************                                                 
# Standard Cuts
#*******************                                                 
#                                                                    
#*********************************************************************
# Minimum and maximum pt's (for max, -1 means no cut)                *
#*********************************************************************
 20  = ptj       ! minimum pt for the jets 
  0  = ptb       ! minimum pt for the b 
 10  = pta       ! minimum pt for the photons 
 10  = ptl       ! minimum pt for the charged leptons 
  0  = misset    ! minimum missing Et (sum of neutrino's momenta)
  0  = ptheavy   ! minimum pt for one heavy final state
 1.0 = ptonium   ! minimum pt for the quarkonium states
 -1  = ptjmax    ! maximum pt for the jets
 -1  = ptbmax    ! maximum pt for the b
 -1  = ptamax    ! maximum pt for the photons
 -1  = ptlmax    ! maximum pt for the charged leptons
 -1  = missetmax ! maximum missing Et (sum of neutrino's momenta)
#*********************************************************************
# Minimum and maximum E's (in the center of mass frame)              *
#*********************************************************************
  0  = ej     ! minimum E for the jets 
  0  = eb     ! minimum E for the b 
  0  = ea     ! minimum E for the photons 
  0  = el     ! minimum E for the charged leptons 
 -1   = ejmax ! maximum E for the jets
 -1   = ebmax ! maximum E for the b
 -1   = eamax ! maximum E for the photons
 -1   = elmax ! maximum E for the charged leptons
#*********************************************************************
# Maximum and minimum absolute rapidity (for max, -1 means no cut)   *
#*********************************************************************
   5  = etaj    ! max rap for the jets 
  -1  = etab    ! max rap for the b
 2.5  = etaa    ! max rap for the photons 
 2.5  = etal    ! max rap for the charged leptons 
 0.6  = etaonium ! max rap for the quarkonium states
   0  = etajmin ! min rap for the jets
   0  = etabmin ! min rap for the b
   0  = etaamin ! min rap for the photons
   0  = etalmin ! main rap for the charged leptons
#*********************************************************************
# Minimum and maximum DeltaR distance                                *
#*********************************************************************
 0.4 = drjj    ! min distance between jets 
 0   = drbb    ! min distance between b's 
 0.4 = drll    ! min distance between leptons 
 0.4 = draa    ! min distance between gammas 
 0   = drbj    ! min distance between b and jet 
 0.4 = draj    ! min distance between gamma and jet 
 0.4 = drjl    ! min distance between jet and lepton 
 0   = drab    ! min distance between gamma and b 
 0   = drbl    ! min distance between b and lepton 
 0.4 = dral    ! min distance between gamma and lepton 
 -1  = drjjmax ! max distance between jets
 -1  = drbbmax ! max distance between b's
 -1  = drllmax ! max distance between leptons
 -1  = draamax ! max distance between gammas
 -1  = drbjmax ! max distance between b and jet
 -1  = drajmax ! max distance between gamma and jet
 -1  = drjlmax ! max distance between jet and lepton
 -1  = drabmax ! max distance between gamma and b
 -1  = drblmax ! max distance between b and lepton
 -1  = dralmax ! maxdistance between gamma and lepton
#*********************************************************************
# Minimum and maximum invariant mass for pairs                       *
# WARNING: for four lepton final state mmll cut require to have      *
#          different lepton masses for each flavor!                  *           
#*********************************************************************
 0   = mmjj    ! min invariant mass of a jet pair 
 0   = mmbb    ! min invariant mass of a b pair 
 0   = mmaa    ! min invariant mass of gamma gamma pair
 0   = mmll    ! min invariant mass of l+l- (same flavour) lepton pair
 -1  = mmjjmax ! max invariant mass of a jet pair
 -1  = mmbbmax ! max invariant mass of a b pair
 -1  = mmaamax ! max invariant mass of gamma gamma pair
 -1  = mmllmax ! max invariant mass of l+l- (same flavour) lepton pair
#*********************************************************************
# Minimum and maximum invariant mass for all letpons                 *
#*********************************************************************
 0   = mmnl    ! min invariant mass for all letpons (l+- and vl) 
 -1  = mmnlmax ! max invariant mass for all letpons (l+- and vl) 
#*********************************************************************
# Minimum and maximum pt for 4-momenta sum of leptons                *
#*********************************************************************
 0   = ptllmin  ! Minimum pt for 4-momenta sum of leptons(l and vl)
 -1  = ptllmax  ! Maximum pt for 4-momenta sum of leptons(l and vl)
#*********************************************************************
# Inclusive cuts                                                     *
#*********************************************************************
 0  = xptj ! minimum pt for at least one jet  
 0  = xptb ! minimum pt for at least one b 
 0  = xpta ! minimum pt for at least one photon 
 0  = xptl ! minimum pt for at least one charged lepton 
#*********************************************************************
# Control the pt's of the jets sorted by pt                          *
#*********************************************************************
 0   = ptj1min ! minimum pt for the leading jet in pt
 0   = ptj2min ! minimum pt for the second jet in pt
 0   = ptj3min ! minimum pt for the third jet in pt
 0   = ptj4min ! minimum pt for the fourth jet in pt
 -1  = ptj1max ! maximum pt for the leading jet in pt 
 -1  = ptj2max ! maximum pt for the second jet in pt
 -1  = ptj3max ! maximum pt for the third jet in pt
 -1  = ptj4max ! maximum pt for the fourth jet in pt
 0   = cutuse  ! reject event if fails any (0) / all (1) jet pt cuts
#*********************************************************************
# Control the pt's of leptons sorted by pt                           *
#*********************************************************************
 0   = ptl1min ! minimum pt for the leading lepton in pt
 0   = ptl2min ! minimum pt for the second lepton in pt
 0   = ptl3min ! minimum pt for the third lepton in pt
 0   = ptl4min ! minimum pt for the fourth lepton in pt
 -1  = ptl1max ! maximum pt for the leading lepton in pt 
 -1  = ptl2max ! maximum pt for the second lepton in pt
 -1  = ptl3max ! maximum pt for the third lepton in pt
 -1  = ptl4max ! maximum pt for the fourth lepton in pt
#*********************************************************************
# Control the Ht(k)=Sum of k leading jets                            *
#*********************************************************************
 0   = htjmin ! minimum jet HT=Sum(jet pt)
 -1  = htjmax ! maximum jet HT=Sum(jet pt)
 0   = ihtmin  !inclusive Ht for all partons (including b)
 -1  = ihtmax  !inclusive Ht for all partons (including b)
 0   = ht2min ! minimum Ht for the two leading jets
 0   = ht3min ! minimum Ht for the three leading jets
 0   = ht4min ! minimum Ht for the four leading jets
 -1  = ht2max ! maximum Ht for the two leading jets
 -1  = ht3max ! maximum Ht for the three leading jets
 -1  = ht4max ! maximum Ht for the four leading jets
#***********************************************************************
# Photon-isolation cuts, according to hep-ph/9801442                   *
# When ptgmin=0, all the other parameters are ignored                  *
# When ptgmin>0, pta and draj are not going to be used                 *
#***********************************************************************
   0 = ptgmin ! Min photon transverse momentum
 0.4 = R0gamma ! Radius of isolation code
 1.0 = xn ! n parameter of eq.(3.4) in hep-ph/9801442
 1.0 = epsgamma ! epsilon_gamma parameter of eq.(3.4) in hep-ph/9801442
 .true. = isoEM ! isolate photons from EM energy (photons and leptons)
#*********************************************************************
# WBF cuts                                                           *
#*********************************************************************
 0   = xetamin ! minimum rapidity for two jets in the WBF case  
 0   = deltaeta ! minimum rapidity for two jets in the WBF case 
#*********************************************************************
# KT DURHAM CUT                                                      *
#*********************************************************************
 -1    =  ktdurham        
 0.4  =  dparameter 
#*********************************************************************
# maximal pdg code for quark to be considered as a light jet         *
# (otherwise b cuts are applied)                                     *
#*********************************************************************
 4 = maxjetflavor    ! Maximum jet pdg code
#*********************************************************************
# Jet measure cuts                                                   *
#*********************************************************************
 0   = xqcut   ! minimum kt jet measure between partons
#*********************************************************************
#
#*********************************************************************
# Store info for systematics studies                                 *
# WARNING: If use_syst is T, matched Pythia output is                *
#          meaningful ONLY if plotted taking matchscale              *
#          reweighting into account!                                 *
#*********************************************************************
   F  = use_syst      ! Enable systematics studies
#
#**************************************
# Parameter of the systematics study
#  will be used by SysCalc (if installed)
#**************************************                                  
#
0.5 1 2 = sys_scalefact  # factorization/renormalization scale factor
0.5 1 2 = sys_alpsfact  # \alpha_s emission scale factors
30 50 = sys_matchscale # variation of merging scale
# PDF sets and number of members (0 or none for all members).
CT10nlo.LHgrid = sys_pdf # matching scales
# MSTW2008nlo68cl.LHgrid 1  = sys_pdf
</MGRunCard>
<slha>
######################################################################
## PARAM_CARD AUTOMATICALY GENERATED BY MG5 FOLLOWING UFO MODEL   ####
######################################################################
##                                                                  ##
##  Width set on Auto will be computed following the information    ##
##        present in the decay.py files of the model.               ##
##        See  arXiv:1402.1178 for more details.                    ##
##                                                                  ##
######################################################################

###################################
## INFORMATION FOR CKMBLOCK
###################################
Block ckmblock 
    1 2.277360e-01 # cabi 

###################################
## INFORMATION FOR FRBLOCK
###################################
Block frblock 
    1 2.000000e-01 # gz 

###################################
## INFORMATION FOR MASS
###################################
Block mass 
    1 5.040000e-03 # MD 
    2 2.550000e-03 # MU 
    3 1.010000e-01 # MS 
    4 1.270000e+00 # MC 
    5 4.700000e+00 # MB 
    6 1.720000e+02 # MT 
   11 5.110000e-04 # Me 
   13 1.056600e-01 # MM 
   15 1.777000e+00 # MTA 
   23 9.118760e+01 # MZ 
   25 1.200000e+02 # MH 
  10030 3.900000e+03 # MZph 
  10031 3.000000e+02 # MZpl 
## Dependent parameters, given by model restrictions.
## Those values should be edited following the 
## analytical expression. MG5 ignores those values 
## but they are important for interfacing the output of MG5
## to external program such as Pythia.
  12 0.000000 # ve : 0.0 
  14 0.000000 # vm : 0.0 
  16 0.000000 # vt : 0.0 
  21 0.000000 # g : 0.0 
  22 0.000000 # a : 0.0 
  24 79.824360 # w+ : cmath.sqrt(MZ__exp__2/2. + cmath.sqrt(MZ__exp__4/4. - (aEW*cmath.pi*MZ__exp__2)/(Gf*sqrt__2))) 

###################################
## INFORMATION FOR SMINPUTS
###################################
Block sminputs 
    1 1.279000e+02 # aEWM1 
    2 1.166370e-05 # Gf 
    3 1.184000e-01 # aS 

###################################
## INFORMATION FOR YUKAWA
###################################
Block yukawa 
    1 5.040000e-03 # ymdo 
    2 2.550000e-03 # ymup 
    3 1.010000e-01 # yms 
    4 1.270000e+00 # ymc 
    5 4.700000e+00 # ymb 
    6 1.720000e+02 # ymt 
   11 5.110000e-04 # yme 
   13 1.056600e-01 # ymm 
   15 1.777000e+00 # ymtau 

###################################
## INFORMATION FOR DECAY
###################################
DECAY   6 1.508336e+00 # WT 
DECAY  23 2.495200e+00 # WZ 
DECAY  24 2.085000e+00 # WW 
DECAY  25 5.753088e-03 # WH 
## Dependent parameters, given by model restrictions.
## Those values should be edited following the 
## analytical expression. MG5 ignores those values 
## but they are important for interfacing the output of MG5
## to external program such as Pythia.
DECAY  1 0.000000 # d : 0.0 
DECAY  2 0.000000 # u : 0.0 
DECAY  3 0.000000 # s : 0.0 
DECAY  4 0.000000 # c : 0.0 
DECAY  5 0.000000 # b : 0.0 
DECAY  11 0.000000 # e- : 0.0 
DECAY  12 0.000000 # ve : 0.0 
DECAY  13 0.000000 # mu- : 0.0 
DECAY  14 0.000000 # vm : 0.0 
DECAY  15 0.000000 # ta- : 0.0 
DECAY  16 0.000000 # vt : 0.0 
DECAY  21 0.000000 # g : 0.0 
DECAY  22 0.000000 # a : 0.0 
DECAY  10030 0.308725 # zph : (gz__exp__2*MZph*(5 + cmath.sqrt(1 - (4*MT__exp__2)/MZph__exp__2)))/(144.*cmath.pi) 
DECAY  10031 0.132629 # zpl : (5*gz__exp__2*MZpl)/(144.*cmath.pi) 
#===========================================================
# QUANTUM NUMBERS OF NEW STATE(S) (NON SM PDG CODE)
#===========================================================

Block QNUMBERS 10030  # zph 
        1 0  # 3 times electric charge
        2 3  # number of spin states (2S+1)
        3 1  # colour rep (1: singlet, 3: triplet, 8: octet)
        4 0  # Particle/Antiparticle distinction (0=own anti)
Block QNUMBERS 10031  # zpl 
        1 0  # 3 times electric charge
        2 3  # number of spin states (2S+1)
        3 1  # colour rep (1: singlet, 3: triplet, 8: octet)
        4 0  # Particle/Antiparticle distinction (0=own anti)
</slha>
## END BANNER##
<MGGenerationInfo>
#  Number of Events        :         4002
#  Integrated weight (pb)  :  0.23236E-05
#  Max wgt                 :  0.94341E-09
#  Average wgt             :  0.58061E-09
</MGGenerationInfo>
</header>
<init>
     2212     2212  0.40000000000E+04  0.40000000000E+04 0 0  247000  247000 2   1
  0.23283123310E-05  0.40773522577E-08  0.94341140000E-09   0
</init>
<event>
 5   0  0.9277261E-09  0.3897826E+04  0.7818609E-02  0.8025482E-01
       -2   -1    0    0    0  501  0.00000000000E+00  0.00000000000E+00  0.17767342974E+04  0.17767342974E+04  0.25500000920E-02 0.  1.
        2   -1    0    0  501    0  0.00000000000E+00  0.00000000000E+00 -0.21377766145E+04  0.21377766145E+04  0.25500000920E-02 0. -1.
    10030    2    1    2    0    0  0.00000000000E+00  0.00000000000E+00 -0.36104231707E+03  0.39145109119E+04  0.38978255637E+04 0.  0.
        1    1    3    3  502    0  0.13892746526E+03  0.30608754058E+03 -0.21084446722E+04  0.21350712772E+04  0.50400001928E-02 0. -1.
       -1    1    3    3    0  502 -0.13892746526E+03 -0.30608754058E+03  0.17474023551E+04  0.17794396347E+04  0.50400001928E-02 0.  1.
</event>
<event>
 5   0  0.9434114E-09  0.3913576E+04  0.7818609E-02  0.8022212E-01
       -2   -1    0    0    0  501  0.00000000000E+00  0.00000000000E+00  0.13960176913E+04  0.13960176913E+04  0.25500000920E-02 0.  1.
        2   -1    0    0  501    0  0.00000000000E+00  0.00000000000E+00 -0.27428152625E+04  0.27428152625E+04  0.25500000920E-02 0. -1.
    10030    2    1    2    0    0  0.00000000000E+00  0.00000000000E+00 -0.13467975712E+04  0.41388329538E+04  0.39135756696E+04 0.  0.
        4    1    3    3  502    0  0.15822047939E+04  0.79325694672E+03 -0.15559297149E+04  0.23565965891E+04  0.12699999809E+01 0. -1.
       -4    1    3    3    0  502 -0.15822047939E+04 -0.79325694672E+03  0.20913214364E+03  0.17822363647E+04  0.12699999809E+01 0.  1.
</event>
<event>
 5   0  0.9078515E-09  0.3906607E+04  0.7818609E-02  0.8023656E-01
        2   -1    0    0  501    0  0.00000000000E+00  0.00000000000E+00  0.24751945424E+04  0.24751945424E+04  0.25500000920E-02 0.  1.
       -2   -1    0    0    0  501  0.00000000000E+00  0.00000000000E+00 -0.15414526774E+04  0.15414526774E+04  0.25500000920E-02 0. -1.
    10030    2    1    2    0    0  0.00000000000E+00  0.00000000000E+00  0.93374186498E+03  0.40166472198E+04  0.39066073539E+04 0.  0.
        3    1    3    3  502    0  0.58282679102E+03 -0.71426315683E+03 -0.13037090496E+04  0.15967204583E+04  0.10100000352E+00 0. -1.
       -3    1    3    3    0  502 -0.58282679102E+03  0.71426315683E+03  0.22374509146E+04  0.24199267615E+04  0.10100000352E+00 0.  1.
</event>
<event>
 5   0  0.9277261E-09  0.3898837E+04  0.7818609E-02  0.8025271E-01
       -2   -1    0    0    0  501  0.00000000000E+00  0.00000000000E+00  0.12846904486E+04  0.12846904486E+04  0.25500000920E-02 0. -1.
        2   -1    0    0  501    0  0.00000000000E+00  0.00000000000E+00 -0.29580919151E+04  0.29580919151E+04  0.25500000920E-02 0.  1.
    10030    2    1    2    0    0  0.00000000000E+00  0.00000000000E+00 -0.16734014665E+04  0.42427823638E+04  0.38988369699E+04 0.  0.
        1    1    3    3  502    0  0.18353807889E+04 -0.40723899186E+03 -0.13977042022E+04  0.23426573104E+04  0.50400001928E-02 0.  1.
       -1    1    3    3    0  502 -0.18353807889E+04  0.40723899186E+03 -0.27569726427E+03  0.19001250534E+04  0.50400001928E-02 0. -1.
</event>
<event>
 5   0  0.9277261E-09  0.3903893E+04  0.7818609E-02  0.8024220E-01
        2   -1    0    0  501    0  0.00000000000E+00  0.00000000000E+00  0.24094536955E+04  0.24094536955E+04  0.25500000920E-02 0.  1.
       -2   -1    0    0    0  501  0.00000000000E+00  0.00000000000E+00 -0.15813105756E+04  0.15813105756E+04  0.25500000920E-02 0. -1.
    10030    2    1    2    0    0  0.00000000000E+00  0.00000000000E+00  0.82814311991E+03  0.39907642712E+04  0.39038927292E+04 0.  0.
        1    1    3    3  502    0 -0.89495811756E+03 -0.58988494199E+03  0.20816848683E+04  0.23414367743E+04  0.50400001928E-02 0.  1.
       -1    1    3    3    0  502  0.89495811756E+03  0.58988494199E+03 -0.12535417484E+04  0.16493274969E+04  0.50400001928E-02 0. -1.
</event>
<event>
 5   0  0.2929054E-09  0.3900012E+04  0.7818609E-02  0.8025027E-01
       -1   -1    0    0    0  501  0.00000000000E+00  0.00000000000E+00  0.15119101976E+04  0.15119101976E+04  0.50400001928E-02 0. -1.
        1   -1    0    0  501    0  0.00000000000E+00  0.00000000000E+00 -0.25150455731E+04  0.25150455731E+04  0.50400001928E-02 0.  1.
    10030    2    1    2    0    0  0.00000000000E+00  0.00000000000E+00 -0.10031353755E+04  0.40269557707E+04  0.39000118201E+04 0.  0.
        1    1    3    3  502    0 -0.53753448983E+03  0.23035264679E+03  0.14192292458E+04  0.15349974989E+04  0.50400001928E-02 0. -1.
       -1    1    3    3    0  502  0.53753448983E+03 -0.23035264679E+03 -0.24223646213E+04  0.24919582717E+04  0.50400001928E-02 0.  1.
</event>
<event>
 5   0  0.2904500E-09  0.3899967E+04  0.7818609E-02  0.8025036E-01
        1   -1    0    0  501    0  0.00000000000E+00  0.00000000000E+00  0.13138946007E+04  0.13138946007E+04  0.50400001928E-02 0.  1.
       -1   -1    0    0    0  501  0.00000000000E+00  0.00000000000E+00 -0.28940186151E+04  0.28940186151E+04  0.50400001928E-02 0. -1.
    10030    2    1    2    0    0  0.00000000000E+00  0.00000000000E+00 -0.15801240144E+04  0.42079132158E+04  0.38999668885E+04 0.  0.
        3    1    3    3  502    0 -0.16865200363E+04  0.81062810208E+03 -0.13819857732E+04  0.23262313815E+04  0.10100000352E+00 0. -1.
       -3    1    3    3    0  502  0.16865200363E+04 -0.81062810208E+03 -0.19813824117E+03  0.18816818343E+04  0.10100000352E+00 0.  1.
</event>
<event>
 5   0  0.9434114E-09  0.3901393E+04  0.7818609E-02  0.8024739E-01
       -2   -1    0    0    0  501  0.00000000000E+00  0.00000000000E+00  0.13930090400E+04  0.13930090400E+04  0.25500000920E-02 0. -1.
        2   -1    0    0  501    0  0.00000000000E+00  0.00000000000E+00 -0.27316533311E+04  0.27316533311E+04  0.25500000920E-02 0.  1.
    10030    2    1    2    0    0  0.00000000000E+00  0.00000000000E+00 -0.13386442911E+04  0.41246623711E+04  0.39013934866E+04 0.  0.
        4    1    3    3  502    0  0.14413431364E+04  0.72469661352E+03  0.49004823057E+03  0.16860617129E+04  0.12699999809E+01 0. -1.
       -4    1    3    3    0  502 -0.14413431364E+04 -0.72469661352E+03 -0.18286925217E+04  0.24386006582E+04  0.12699999809E+01 0.  1.
</event>
<event>
 5   0  0.9368546E-09  0.3896967E+04  0.7818609E-02  0.8025660E-01
        2   -1    0    0  501    0  0.00000000000E+00  0.00000000000E+00  0.22007783645E+04  0.22007783645E+04  0.25500000920E-02 0.  1.
       -2   -1    0    0    0  501  0.00000000000E+00  0.00000000000E+00 -0.17251117727E+04  0.17251117727E+04  0.25500000920E-02 0. -1.
    10030    2    1    2    0    0  0.00000000000E+00  0.00000000000E+00  0.47566659177E+03  0.39258901372E+04  0.38969673675E+04 0.  0.
        5    1    3    3  502    0  0.40689609449E+03  0.37339960809E+03 -0.16446106499E+04  0.17348654065E+04  0.46999998093E+01 0. -1.
       -5    1    3    3    0  502 -0.40689609449E+03 -0.37339960809E+03  0.21202772417E+04  0.21910247307E+04  0.46999998093E+01 0.  1.
</event>
<event>
 5   0  0.9277261E-09  0.3899628E+04  0.7818609E-02  0.8025107E-01
        2   -1    0    0  501    0  0.00000000000E+00  0.00000000000E+00  0.24430849290E+04  0.24430849290E+04  0.25500000920E-02 0. -1.
       -2   -1    0    0    0  501  0.00000000000E+00  0.00000000000E+00 -0.15561365617E+04  0.15561365617E+04  0.25500000920E-02 0.  1.
    10030    2    1    2    0    0  0.00000000000E+00  0.00000000000E+00  0.88694836733E+03  0.39992214907E+04  0.38996275624E+04 0.  0.
        1    1    3    3  502    0  0.18150478646E+04 -0.56374617240E+03  0.88998473790E+03  0.20986379705E+04  0.50400001928E-02 0. -1.
       -1    1    3    3    0  502 -0.18150478646E+04  0.56374617240E+03 -0.30363705637E+01  0.19005835202E+04  0.50400001928E-02 0.  1.
</event>
<event>
 5   0  0.9368546E-09  0.3902896E+04  0.7818609E-02  0.8024427E-01
       -2   -1    0    0    0  501  0.00000000000E+00  0.00000000000E+00  0.21137119056E+04  0.21137119056E+04  0.25500000920E-02 0. -1.
        2   -1    0    0  501    0  0.00000000000E+00  0.00000000000E+00 -0.18016402180E+04  0.18016402180E+04  0.25500000920E-02 0.  1.
    10030    2    1    2    0    0  0.00000000000E+00  0.00000000000E+00  0.31207168762E+03  0.39153521237E+04  0.39028955295E+04 0.  0.
        5    1    3    3  502    0 -0.64764592524E+03  0.14534766686E+04  0.12892812746E+04  0.20480009682E+04  0.46999998093E+01 0. -1.
       -5    1    3    3    0  502  0.64764592524E+03 -0.14534766686E+04 -0.97720958701E+03  0.18673511554E+04  0.46999998093E+01 0.  1.
</event>
<event>
 5   0  0.9368546E-09  0.3905577E+04  0.7818609E-02  0.8023870E-01
       -2   -1    0    0    0  501  0.00000000000E+00  0.00000000000E+00  0.14971195489E+04  0.14971195489E+04  0.25500000920E-02 0. -1.
        2   -1    0    0  501    0  0.00000000000E+00  0.00000000000E+00 -0.25471460767E+04  0.25471460767E+04  0.25500000920E-02 0.  1.
    10030    2    1    2    0    0  0.00000000000E+00  0.00000000000E+00 -0.10500265278E+04  0.40442656256E+04  0.39055766209E+04 0.  0.
        5    1    3    3  502    0 -0.22817000669E+03  0.64644091607E+03 -0.24184443487E+04  0.25137308066E+04  0.46999998093E+01 0.  1.
       -5    1    3    3    0  502  0.22817000669E+03 -0.64644091607E+03  0.13684178209E+04  0.15305348191E+04  0.46999998093E+01 0. -1.
</event>
<event>
 5   0  0.2904500E-09  0.3899422E+04  0.7818609E-02  0.8025149E-01
       -1   -1    0    0    0  501  0.00000000000E+00  0.00000000000E+00  0.25774463341E+04  0.25774463341E+04  0.50400001928E-02 0.  1.
        1   -1    0    0  501    0  0.00000000000E+00  0.00000000000E+00 -0.14748599712E+04  0.14748599712E+04  0.50400001928E-02 0. -1.
    10030    2    1    2    0    0  0.00000000000E+00  0.00000000000E+00  0.11025863629E+04  0.40523063053E+04  0.38994217141E+04 0.  0.
        5    1    3    3  502    0  0.12175929328E+03  0.94570155092E+03 -0.12160229330E+04  0.15452865794E+04  0.46999998093E+01 0. -1.
       -5    1    3    3    0  502 -0.12175929328E+03 -0.94570155092E+03  0.23186092959E+04  0.25070197259E+04  0.46999998093E+01 0.  1.
</event>
<event>
 5   0  0.2904500E-09  0.3900499E+04  0.7818609E-02  0.8024925E-01
       -3   -1    0    0    0  501  0.00000000000E+00  0.00000000000E+00  0.22774160417E+04  0.22774160439E+04  0.10100000352E+00 0. -1.
        3   -1    0    0  501    0  0.00000000000E+00  0.00000000000E+00 -0.16700829627E+04  0.16700829658E+04  0.10100000352E+00 0.  1.
    10030    2    1    2    0    0  0.00000000000E+00  0.00000000000E+00  0.60733307898E+03  0.39474990097E+04  0.39004993222E+04 0.  0.
        1    1    3    3  502    0 -0.14241979874E+04 -0.66396075406E+03  0.14726999693E+04  0.21536083650E+04  0.50400001928E-02 0. -1.
       -1    1    3    3    0  502  0.14241979874E+04  0.66396075406E+03 -0.86536689029E+03  0.17938906447E+04  0.50400001928E-02 0.  1.
</event>
<event>
 5   0  0.2929054E-09  0.3901993E+04  0.7818609E-02  0.8024615E-01
       -1   -1    0    0    0  501  0.00000000000E+00  0.00000000000E+00  0.17655020394E+04  0.17655020394E+04  0.50400001928E-02 0.  1.
        1   -1    0    0  501    0  0.00000000000E+00  0.00000000000E+00 -0.21559796277E+04  0.21559796277E+04  0.50400001928E-02 0. -1.
    10030    2    1    2    0    0  0.00000000000E+00  0.00000000000E+00 -0.39047758832E+03  0.39214816671E+04  0.39019925318E+04 0.  0.
        1    1    3    3  502    0 -0.22988880132E+03 -0.19181604687E+04 -0.46899237651E+03  0.19879995709E+04  0.50400001928E-02 0.  1.
       -1    1    3    3    0  502  0.22988880132E+03  0.19181604687E+04  0.78514788191E+02  0.19334820962E+04  0.50400001928E-02 0. -1.
</event>
<event>
 5   0  0.2904500E-09  0.3899702E+04  0.7818609E-02  0.8025091E-01
        1   -1    0    0  501    0  0.00000000000E+00  0.00000000000E+00  0.19292830467E+04  0.19292830467E+04  0.50400001928E-02 0.  1.
       -1   -1    0    0    0  501  0.00000000000E+00  0.00000000000E+00 -0.19706384277E+04  0.19706384277E+04  0.50400001928E-02 0. -1.
    10030    2    1    2    0    0  0.00000000000E+00  0.00000000000E+00 -0.41355381015E+02  0.38999214744E+04  0.38997021988E+04 0.  0.
        3    1    3    3  502    0 -0.24429457830E+03  0.18117788446E+04  0.65736992918E+03  0.19427706135E+04  0.10100000352E+00 0.  1.
       -3    1    3    3    0  502  0.24429457830E+03 -0.18117788446E+04 -0.69872531020E+03  0.19571508609E+04  0.10100000352E+00 0. -1.
</event>
<event>
 5   0  0.2904500E-09  0.3902611E+04  0.7818609E-02  0.8024486E-01
       -1   -1    0    0    0  501  0.00000000000E+00  0.00000000000E+00  0.19762839410E+04  0.19762839410E+04  0.50400001928E-02 0.  1.
        1   -1    0    0  501    0  0.00000000000E+00  0.00000000000E+00 -0.19266426264E+04  0.19266426264E+04  0.50400001928E-02 0. -1.
    10030    2    1    2    0    0  0.00000000000E+00  0.00000000000E+00  0.49641314624E+02  0.39029265674E+04  0.39026108608E+04 0.  0.
        3    1    3    3  502    0  0.17389834788E+04  0.88430263306E+03 -0.14402230755E+02  0.19509644079E+04  0.10100000352E+00 0.  1.
       -3    1    3    3    0  502 -0.17389834788E+04 -0.88430263306E+03  0.64043545379E+02  0.19519621596E+04  0.10100000352E+00 0. -1.
</event>
<event>
 5   0  0.9434114E-09  0.3899777E+04  0.7818609E-02  0.8025076E-01
        2   -1    0    0  501    0  0.00000000000E+00  0.00000000000E+00  0.21424575610E+04  0.21424575610E+04  0.25500000920E-02 0. -1.
       -2   -1    0    0    0  501  0.00000000000E+00  0.00000000000E+00 -0.17746281476E+04  0.17746281476E+04  0.25500000920E-02 0.  1.
    10030    2    1    2    0    0  0.00000000000E+00  0.00000000000E+00  0.36782941331E+03  0.39170857086E+04  0.38997771694E+04 0.  0.
        4    1    3    3  502    0  0.11766483038E+04  0.11649828546E+04 -0.85040203389E+03  0.18614165343E+04  0.12699999809E+01 0.  1.
       -4    1    3    3    0  502 -0.11766483038E+04 -0.11649828546E+04  0.12182314472E+04  0.20556691743E+04  0.12699999809E+01 0. -1.
</event>
<event>
 5   0  0.2904500E-09  0.3899484E+04  0.7818609E-02  0.8025136E-01
       -1   -1    0    0    0  501  0.00000000000E+00  0.00000000000E+00  0.20133785125E+04  0.20133785125E+04  0.50400001928E-02 0.  1.
        1   -1    0    0  501    0  0.00000000000E+00  0.00000000000E+00 -0.18881170585E+04  0.18881170585E+04  0.50400001928E-02 0. -1.
    10030    2    1    2    0    0  0.00000000000E+00  0.00000000000E+00  0.12526145402E+03  0.39014955710E+04  0.38994842298E+04 0.  0.
        4    1    3    3  502    0 -0.12234739543E+03  0.11605529374E+04  0.16253712885E+04  0.20009211489E+04  0.12699999809E+01 0.  1.
       -4    1    3    3    0  502  0.12234739543E+03 -0.11605529374E+04 -0.15001098345E+04  0.19005744221E+04  0.12699999809E+01 0. -1.
</event>
<event>
 5   0  0.2929054E-09  0.3900115E+04  0.7818609E-02  0.8025005E-01
       -1   -1    0    0    0  501  0.00000000000E+00  0.00000000000E+00  0.25101305325E+04  0.25101305325E+04  0.50400001928E-02 0. -1.
        1   -1    0    0  501    0  0.00000000000E+00  0.00000000000E+00 -0.15149505259E+04  0.15149505259E+04  0.50400001928E-02 0.  1.
    10030    2    1    2    0    0  0.00000000000E+00  0.00000000000E+00  0.99518000660E+03  0.40250810584E+04  0.39001146498E+04 0.  0.
        1    1    3    3  502    0 -0.16680253793E+02  0.19430624251E+04  0.32815354354E+03  0.19706482605E+04  0.50400001928E-02 0.  1.
       -1    1    3    3    0  502  0.16680253793E+02 -0.19430624251E+04  0.66702646306E+03  0.20544327979E+04  0.50400001928E-02 0. -1.
</event>
<event>
 5   0  0.6335942E-09  0.3901506E+04  0.7818609E-02  0.8024716E-01
       -2   -1    0    0    0  501  0.00000000000E+00  0.00000000000E+00  0.17832850565E+04  0.17832850565E+04  0.25500000920E-02 0.  1.
        2   -1    0    0  501    0  0.00000000000E+00  0.00000000000E+00 -0.21339479535E+04  0.21339479535E+04  0.25500000920E-02 0. -1.
    10030    2    1    2    0    0  0.00000000000E+00  0.00000000000E+00 -0.35066289699E+03  0.39172330100E+04  0.39015061178E+04 0.  0.
        2    1    3    3  502    0  0.88530764145E+03 -0.13461752514E+04  0.92886531891E+03  0.18597710096E+04  0.25500000920E-02 0.  1.
       -2    1    3    3    0  502 -0.88530764145E+03  0.13461752514E+04 -0.12795282159E+04  0.20574620003E+04  0.25500000920E-02 0. -1.
</event>
<event>
 5   0  0.2904500E-09  0.3901352E+04  0.7818609E-02  0.8024748E-01
        1   -1    0    0  501    0  0.00000000000E+00  0.00000000000E+00  0.17313863107E+04  0.17313863107E+04  0.50400001928E-02 0.  1.
       -1   -1    0    0    0  501  0.00000000000E+00  0.00000000000E+00 -0.21977402481E+04  0.21977402481E+04  0.50400001928E-02 0. -1.
    10030    2    1    2    0    0  0.00000000000E+00  0.00000000000E+00 -0.46635393740E+03  0.39291265588E+04  0.39013522681E+04 0.  0.
        3    1    3    3  502    0  0.16455041786E+04  0.51959513510E+03  0.68295512845E+03  0.18558261837E+04  0.10100000352E+00 0.  1.
       -3    1    3    3    0  502 -0.16455041786E+04 -0.51959513510E+03 -0.11493090658E+04  0.20733003751E+04  0.10100000352E+00 0. -1.
</event>
<event>
 5   0  0.2904500E-09  0.3900099E+04  0.7818609E-02  0.8025009E-01
       -3   -1    0    0    0  501  0.00000000000E+00  0.00000000000E+00  0.28841625344E+04  0.28841625361E+04  0.10100000352E+00 0. -1.
        3   -1    0    0  501    0  0.00000000000E+00  0.00000000000E+00 -0.13184736561E+04  0.13184736600E+04  0.10100000352E+00 0.  1.
    10030    2    1    2    0    0  0.00000000000E+00  0.00000000000E+00  0.15656888783E+04  0.42026361961E+04  0.39000986312E+04 0.  0.
        5    1    3    3  502    0 -0.52554799460E+03 -0.17331206921E+04  0.37352955800E+01  0.18110615866E+04  0.46999998093E+01 0. -1.
       -5    1    3    3    0  502  0.52554799460E+03  0.17331206921E+04  0.15619535827E+04  0.23915746095E+04  0.46999998093E+01 0.  1.
</event>
<event>
 5   0  0.9277261E-09  0.3903385E+04  0.7818609E-02  0.8024326E-01
       -2   -1    0    0    0  501  0.00000000000E+00  0.00000000000E+00  0.19489528743E+04  0.19489528743E+04  0.25500000920E-02 0.  1.
        2   -1    0    0  501    0  0.00000000000E+00  0.00000000000E+00 -0.19544361102E+04  0.19544361102E+04  0.25500000920E-02 0. -1.
    10030    2    1    2    0    0  0.00000000000E+00  0.00000000000E+00 -0.54832358799E+01  0.39033889845E+04  0.39033851333E+04 0.  0.
        1    1    3    3  502    0 -0.40443756198E+03  0.14456485372E+04 -0.12499936012E+04  0.19534465536E+04  0.50400001928E-02 0. -1.
       -1    1    3    3    0  502  0.40443756198E+03 -0.14456485372E+04  0.12445103653E+04  0.19499424309E+04  0.50400001928E-02 0.  1.
</event>
<event>
 5   0  0.2904500E-09  0.3898763E+04  0.7818609E-02  0.8025286E-01
       -1   -1    0    0    0  501  0.00000000000E+00  0.00000000000E+00  0.20426669943E+04  0.20426669943E+04  0.50400001928E-02 0.  1.
        1   -1    0    0  501    0  0.00000000000E+00  0.00000000000E+00 -0.18603563709E+04  0.18603563709E+04  0.50400001928E-02 0. -1.
    10030    2    1    2    0    0  0.00000000000E+00  0.00000000000E+00  0.18231062339E+03  0.39030233653E+04  0.38987631662E+04 0.  0.
        4    1    3    3  502    0  0.76512579491E+02 -0.15797256649E+04 -0.10496949567E+04  0.18982224491E+04  0.12699999809E+01 0. -1.
       -4    1    3    3    0  502 -0.76512579491E+02  0.15797256649E+04  0.12320055801E+04  0.20048009162E+04  0.12699999809E+01 0.  1.
</event>
<event>
 5   0  0.6335942E-09  0.3900286E+04  0.7818609E-02  0.8024970E-01
        2   -1    0    0  501    0  0.00000000000E+00  0.00000000000E+00  0.24855446391E+04  0.24855446391E+04  0.25500000920E-02 0.  1.
       -2   -1    0    0    0  501  0.00000000000E+00  0.00000000000E+00 -0.15300698001E+04  0.15300698001E+04  0.25500000920E-02 0. -1.
    10030    2    1    2    0    0  0.00000000000E+00  0.00000000000E+00  0.95547483901E+03  0.40156144391E+04  0.39002855223E+04 0.  0.
        2    1    3    3  502    0  0.74486788577E+03 -0.66764919447E+03  0.22012971490E+04  0.24179108239E+04  0.25500000920E-02 0.  1.
       -2    1    3    3    0  502 -0.74486788577E+03  0.66764919447E+03 -0.12458223100E+04  0.15977036152E+04  0.25500000920E-02 0. -1.
</event>
<event>
 5   0  0.2904500E-09  0.3898429E+04  0.7818609E-02  0.8025356E-01
       -1   -1    0    0    0  501  0.00000000000E+00  0.00000000000E+00  0.15473885031E+04  0.15473885031E+04  0.50400001928E-02 0. -1.
        1   -1    0    0  501    0  0.00000000000E+00  0.00000000000E+00 -0.24553861712E+04  0.24553861712E+04  0.50400001928E-02 0.  1.
    10030    2    1    2    0    0  0.00000000000E+00  0.00000000000E+00 -0.90799766817E+03  0.40027746743E+04  0.38984285716E+04 0.  0.
        2    1    3    3  502    0  0.62515585470E+03 -0.84264898779E+03  0.12326999612E+04  0.16187731014E+04  0.25500000920E-02 0. -1.
       -2    1    3    3    0  502 -0.62515585470E+03  0.84264898779E+03 -0.21406976294E+04  0.23840015729E+04  0.25500000920E-02 0.  1.
</event>
<event>
 5   0  0.9277261E-09  0.3898997E+04  0.7818609E-02  0.8025238E-01
        2   -1    0    0  501    0  0.00000000000E+00  0.00000000000E+00  0.18246693555E+04  0.18246693555E+04  0.25500000920E-02 0. -1.
       -2   -1    0    0    0  501  0.00000000000E+00  0.00000000000E+00 -0.20828675506E+04  0.20828675506E+04  0.25500000920E-02 0.  1.
    10030    2    1    2    0    0  0.00000000000E+00  0.00000000000E+00 -0.25819819502E+03  0.39075369061E+04  0.38989970973E+04 0.  0.
        1    1    3    3  502    0  0.11752523874E+04 -0.78688281422E+03 -0.14737314037E+04  0.20426176803E+04  0.50400001928E-02 0.  1.
       -1    1    3    3    0  502 -0.11752523874E+04  0.78688281422E+03  0.12155332087E+04  0.18649192258E+04  0.50400001928E-02 0. -1.
</event>
<event>
 5   0  0.9078515E-09  0.3899020E+04  0.7818609E-02  0.8025233E-01
       -2   -1    0    0    0  501  0.00000000000E+00  0.00000000000E+00  0.17695398755E+04  0.17695398755E+04  0.25500000920E-02 0.  1.
        2   -1    0    0  501    0  0.00000000000E+00  0.00000000000E+00 -0.21477834240E+04  0.21477834240E+04  0.25500000920E-02 0. -1.
    10030    2    1    2    0    0  0.00000000000E+00  0.00000000000E+00 -0.37824354849E+03  0.39173232994E+04  0.38990195755E+04 0.  0.
        3    1    3    3  502    0  0.20170518908E+03 -0.19008356019E+04 -0.57397015245E+03  0.19958213134E+04  0.10100000352E+00 0. -1.
       -3    1    3    3    0  502 -0.20170518908E+03  0.19008356019E+04  0.19572660396E+03  0.19215019861E+04  0.10100000352E+00 0.  1.
</event>
<event>
 5   0  0.2904500E-09  0.3900499E+04  0.7818609E-02  0.8024925E-01
        1   -1    0    0  501    0  0.00000000000E+00  0.00000000000E+00  0.18610232446E+04  0.18610232446E+04  0.50400001928E-02 0.  1.
       -1   -1    0    0    0  501  0.00000000000E+00  0.00000000000E+00 -0.20437533642E+04  0.20437533642E+04  0.50400001928E-02 0. -1.
    10030    2    1    2    0    0  0.00000000000E+00  0.00000000000E+00 -0.18273011966E+03  0.39047766088E+04  0.39004986948E+04 0.  0.
        2    1    3    3  502    0  0.15858611047E+04 -0.75309002555E+02 -0.12252350349E+04  0.20054495207E+04  0.25500000920E-02 0. -1.
       -2    1    3    3    0  502 -0.15858611047E+04  0.75309002555E+02  0.10425049152E+04  0.18993270881E+04  0.25500000920E-02 0.  1.
</event>
<event>
 5   0  0.9277261E-09  0.3898609E+04  0.7818609E-02  0.8025319E-01
       -2   -1    0    0    0  501  0.00000000000E+00  0.00000000000E+00  0.21830900839E+04  0.21830900839E+04  0.25500000920E-02 0.  1.
        2   -1    0    0  501    0  0.00000000000E+00  0.00000000000E+00 -0.17405548475E+04  0.17405548475E+04  0.25500000920E-02 0. -1.
    10030    2    1    2    0    0  0.00000000000E+00  0.00000000000E+00  0.44253523637E+03  0.39236449314E+04  0.38986089971E+04 0.  0.
        1    1    3    3  502    0 -0.10515079483E+04  0.14503497426E+04  0.99471088493E+03  0.20490566331E+04  0.50400001928E-02 0.  1.
       -1    1    3    3    0  502  0.10515079483E+04 -0.14503497426E+04 -0.55217564856E+03  0.18745882983E+04  0.50400001928E-02 0. -1.
</event>
<event>
 5   0  0.9277261E-09  0.3899913E+04  0.7818609E-02  0.8025047E-01
       -2   -1    0    0    0  501  0.00000000000E+00  0.00000000000E+00  0.19813872208E+04  0.19813872208E+04  0.25500000920E-02 0.  1.
        2   -1    0    0  501    0  0.00000000000E+00  0.00000000000E+00 -0.19190246542E+04  0.19190246542E+04  0.25500000920E-02 0. -1.
    10030    2    1    2    0    0  0.00000000000E+00  0.00000000000E+00  0.62362566625E+02  0.39004118751E+04  0.38999132946E+04 0.  0.
        1    1    3    3  502    0  0.60257870111E+03  0.50862660491E+03 -0.17524504295E+04  0.19216879617E+04  0.50400001928E-02 0. -1.
       -1    1    3    3    0  502 -0.60257870111E+03 -0.50862660491E+03  0.18148129961E+04  0.19787239133E+04  0.50400001928E-02 0.  1.
</event>
<event>
 5   0  0.2904500E-09  0.3900366E+04  0.7818609E-02  0.8024953E-01
        1   -1    0    0  501    0  0.00000000000E+00  0.00000000000E+00  0.22505589588E+04  0.22505589588E+04  0.50400001928E-02 0.  1.
       -1   -1    0    0    0  501  0.00000000000E+00  0.00000000000E+00 -0.16898978161E+04  0.16898978161E+04  0.50400001928E-02 0. -1.
    10030    2    1    2    0    0  0.00000000000E+00  0.00000000000E+00  0.56066114269E+03  0.39404567749E+04  0.39003664800E+04 0.  0.
        3    1    3    3  502    0 -0.92726931839E+03  0.16264524221E+04 -0.27121010534E+03  0.18917533670E+04  0.10100000352E+00 0. -1.
       -3    1    3    3    0  502  0.92726931839E+03 -0.16264524221E+04  0.83187124804E+03  0.20487034079E+04  0.10100000352E+00 0.  1.
</event>
<event>
 5   0  0.9078515E-09  0.3901096E+04  0.7818609E-02  0.8024801E-01
       -2   -1    0    0    0  501  0.00000000000E+00  0.00000000000E+00  0.22635122521E+04  0.22635122521E+04  0.25500000920E-02 0.  1.
        2   -1    0    0  501    0  0.00000000000E+00  0.00000000000E+00 -0.16808553980E+04  0.16808553980E+04  0.25500000920E-02 0. -1.
    10030    2    1    2    0    0  0.00000000000E+00  0.00000000000E+00  0.58265685407E+03  0.39443676501E+04  0.39010956345E+04 0.  0.
        3    1    3    3  502    0 -0.13921905181E+04 -0.42409405372E+03  0.16044202909E+04  0.21661520457E+04  0.10100000352E+00 0.  1.
       -3    1    3    3    0  502  0.13921905181E+04  0.42409405372E+03 -0.10217634368E+04  0.17782156045E+04  0.10100000352E+00 0. -1.
</event>
<event>
 5   0  0.2904500E-09  0.3896991E+04  0.7818609E-02  0.8025655E-01
       -1   -1    0    0    0  501  0.00000000000E+00  0.00000000000E+00  0.19944517651E+04  0.19944517651E+04  0.50400001928E-02 0.  1.
        1   -1    0    0  501    0  0.00000000000E+00  0.00000000000E+00 -0.19035980222E+04  0.19035980222E+04  0.50400001928E-02 0. -1.
    10030    2    1    2    0    0  0.00000000000E+00  0.00000000000E+00  0.90853742866E+02  0.38980497873E+04  0.38969908573E+04 0.  0.
        4    1    3    3  502    0  0.67622427861E+03 -0.55356331764E+02 -0.17816206406E+04  0.19064410084E+04  0.12699999809E+01 0. -1.
       -4    1    3    3    0  502 -0.67622427861E+03  0.55356331764E+02  0.18724743835E+04  0.19916087789E+04  0.12699999809E+01 0.  1.
</event>
<event>
 5   0  0.2904500E-09  0.3896395E+04  0.7818609E-02  0.8025779E-01
        1   -1    0    0  501    0  0.00000000000E+00  0.00000000000E+00  0.30391964212E+04  0.30391964212E+04  0.50400001928E-02 0. -1.
       -1   -1    0    0    0  501  0.00000000000E+00  0.00000000000E+00 -0.12488408145E+04  0.12488408145E+04  0.50400001928E-02 0.  1.
    10030    2    1    2    0    0  0.00000000000E+00  0.00000000000E+00  0.17903556067E+04  0.42880372357E+04  0.38963945047E+04 0.  0.
        4    1    3    3  502    0 -0.44765324127E+02  0.69841770000E+03 -0.11057250862E+04  0.13085949706E+04  0.12699999809E+01 0.  1.
       -4    1    3    3    0  502  0.44765324127E+02 -0.69841770000E+03  0.28960806930E+04  0.29794422651E+04  0.12699999809E+01 0. -1.
</event>
<event>
 5   0  0.2904500E-09  0.3898029E+04  0.7818609E-02  0.8025439E-01
        1   -1    0    0  501    0  0.00000000000E+00  0.00000000000E+00  0.21107995226E+04  0.21107995226E+04  0.50400001928E-02 0. -1.
       -1   -1    0    0    0  501  0.00000000000E+00  0.00000000000E+00 -0.17996297594E+04  0.17996297594E+04  0.50400001928E-02 0.  1.
    10030    2    1    2    0    0  0.00000000000E+00  0.00000000000E+00  0.31116976316E+03  0.39104292820E+04  0.38980290594E+04 0.  0.
        3    1    3    3  502    0  0.16863789997E+04 -0.70601243673E+03  0.83325579200E+03  0.20091398450E+04  0.10100000352E+00 0. -1.
       -3    1    3    3    0  502 -0.16863789997E+04  0.70601243673E+03 -0.52208602884E+03  0.19012894370E+04  0.10100000352E+00 0.  1.
</event>
<event>
 5   0  0.6335942E-09  0.3904095E+04  0.7818609E-02  0.8024178E-01
       -2   -1    0    0    0  501  0.00000000000E+00  0.00000000000E+00  0.14218742793E+04  0.14218742793E+04  0.25500000920E-02 0.  1.
        2   -1    0    0  501    0  0.00000000000E+00  0.00000000000E+00 -0.26799065610E+04  0.26799065610E+04  0.25500000920E-02 0. -1.
    10030    2    1    2    0    0  0.00000000000E+00  0.00000000000E+00 -0.12580322817E+04  0.41017808402E+04  0.39040953932E+04 0.  0.
        2    1    3    3  502    0  0.82567650471E+03  0.49659711131E+03 -0.24126657988E+04  0.25979427704E+04  0.25500000920E-02 0. -1.
       -2    1    3    3    0  502 -0.82567650471E+03 -0.49659711131E+03  0.11546335171E+04  0.15038380698E+04  0.25500000920E-02 0.  1.
</event>
<event>
 5   0  0.6335942E-09  0.3899796E+04  0.7818609E-02  0.8025072E-01
       -2   -1    0    0    0  501  0.00000000000E+00  0.00000000000E+00  0.11960447986E+04  0.11960447986E+04  0.25500000920E-02 0. -1.
        2   -1    0    0  501    0  0.00000000000E+00  0.00000000000E+00 -0.31788954422E+04  0.31788954422E+04  0.25500000920E-02 0.  1.
    10030    2    1    2    0    0  0.00000000000E+00  0.00000000000E+00 -0.19828506436E+04  0.43749402409E+04  0.38997955634E+04 0.  0.
        2    1    3    3  502    0 -0.11154270882E+04 -0.15032219767E+04 -0.16040840997E+04  0.24651449652E+04  0.25500000920E-02 0. -1.
       -2    1    3    3    0  502  0.11154270882E+04  0.15032219767E+04 -0.37876654390E+03  0.19097952757E+04  0.25500000920E-02 0.  1.
</event>
<event>
 5   0  0.9368546E-09  0.3899593E+04  0.7818609E-02  0.8025114E-01
       -2   -1    0    0    0  501  0.00000000000E+00  0.00000000000E+00  0.19774602988E+04  0.19774602988E+04  0.25500000920E-02 0.  1.
        2   -1    0    0  501    0  0.00000000000E+00  0.00000000000E+00 -0.19225195498E+04  0.19225195498E+04  0.25500000920E-02 0. -1.
    10030    2    1    2    0    0  0.00000000000E+00  0.00000000000E+00  0.54940748921E+02  0.38999798486E+04  0.38995928420E+04 0.  0.
        5    1    3    3  502    0  0.13830709553E+03 -0.16519072851E+03 -0.19105731151E+04  0.19226878446E+04  0.46999998093E+01 0. -1.
       -5    1    3    3    0  502 -0.13830709553E+03  0.16519072851E+03  0.19655138640E+04  0.19772920040E+04  0.46999998093E+01 0.  1.
</event>
<event>
 5   0  0.2904500E-09  0.3900423E+04  0.7818609E-02  0.8024941E-01
       -1   -1    0    0    0  501  0.00000000000E+00  0.00000000000E+00  0.22948795347E+04  0.22948795347E+04  0.50400001928E-02 0. -1.
        1   -1    0    0  501    0  0.00000000000E+00  0.00000000000E+00 -0.16573090570E+04  0.16573090571E+04  0.50400001928E-02 0.  1.
    10030    2    1    2    0    0  0.00000000000E+00  0.00000000000E+00  0.63757047761E+03  0.39521885917E+04  0.39004228682E+04 0.  0.
        3    1    3    3  502    0  0.90573699667E+03 -0.16944960732E+04 -0.19787344331E+02  0.19214754743E+04  0.10100000352E+00 0.  1.
       -3    1    3    3    0  502 -0.90573699667E+03  0.16944960732E+04  0.65735782194E+03  0.20307131174E+04  0.10100000352E+00 0. -1.
</event>
<event>
 5   0  0.2904500E-09  0.3898335E+04  0.7818609E-02  0.8025376E-01
       -1   -1    0    0    0  501  0.00000000000E+00  0.00000000000E+00  0.15865788630E+04  0.15865788630E+04  0.50400001928E-02 0. -1.
        1   -1    0    0  501    0  0.00000000000E+00  0.00000000000E+00 -0.23946197908E+04  0.23946197908E+04  0.50400001928E-02 0.  1.
    10030    2    1    2    0    0  0.00000000000E+00  0.00000000000E+00 -0.80804092779E+03  0.39811986538E+04  0.38983345906E+04 0.  0.
        5    1    3    3  502    0 -0.18282766345E+04  0.50882007053E+03 -0.85814975918E+03  0.20827713306E+04  0.46999998093E+01 0.  1.
       -5    1    3    3    0  502  0.18282766345E+04 -0.50882007053E+03  0.50108831388E+02  0.18984273232E+04  0.46999998093E+01 0. -1.
</event>
<event>
 5   0  0.6335942E-09  0.3898774E+04  0.7818609E-02  0.8025284E-01
       -2   -1    0    0    0  501  0.00000000000E+00  0.00000000000E+00  0.22613555171E+04  0.22613555171E+04  0.25500000920E-02 0. -1.
        2   -1    0    0  501    0  0.00000000000E+00  0.00000000000E+00 -0.16804565507E+04  0.16804565507E+04  0.25500000920E-02 0.  1.
    10030    2    1    2    0    0  0.00000000000E+00  0.00000000000E+00  0.58089896631E+03  0.39418120678E+04  0.38987740084E+04 0.  0.
        2    1    3    3  502    0  0.13984926511E+03  0.17126530924E+04  0.12211387764E+04  0.21080603272E+04  0.25500000920E-02 0. -1.
       -2    1    3    3    0  502 -0.13984926511E+03 -0.17126530924E+04 -0.64023981013E+03  0.18337517406E+04  0.25500000920E-02 0.  1.
</event>
<event>
 5   0  0.9078515E-09  0.3899725E+04  0.7818609E-02  0.8025086E-01
       -2   -1    0    0    0  501  0.00000000000E+00  0.00000000000E+00  0.18565507641E+04  0.18565507641E+04  0.25500000920E-02 0.  1.
        2   -1    0    0  501    0  0.00000000000E+00  0.00000000000E+00 -0.20478645570E+04  0.20478645570E+04  0.25500000920E-02 0. -1.
    10030    2    1    2    0    0  0.00000000000E+00  0.00000000000E+00 -0.19131379292E+03  0.39044153211E+04  0.38997253791E+04 0.  0.
        3    1    3    3  502    0  0.55019578614E+03  0.13747333294E+04  0.11744732666E+04  0.18899721146E+04  0.10100000352E+00 0.  1.
       -3    1    3    3    0  502 -0.55019578614E+03 -0.13747333294E+04 -0.13657870595E+04  0.20144432065E+04  0.10100000352E+00 0. -1.
</event>
<event>
 5   0  0.9434114E-09  0.3899516E+04  0.7818609E-02  0.8025130E-01
        2   -1    0    0  501    0  0.00000000000E+00  0.00000000000E+00  0.26830780577E+04  0.26830780577E+04  0.25500000920E-02 0.  1.
       -2   -1    0    0    0  501  0.00000000000E+00  0.00000000000E+00 -0.14168636787E+04  0.14168636787E+04  0.25500000920E-02 0. -1.
    10030    2    1    2    0    0  0.00000000000E+00  0.00000000000E+00  0.12662143790E+04  0.40999417364E+04  0.38995157890E+04 0.  0.
        4    1    3    3  502    0  0.13142316319E+04  0.15612451102E+03 -0.87225582228E+03  0.15850588246E+04  0.12699999809E+01 0. -1.
       -4    1    3    3    0  502 -0.13142316319E+04 -0.15612451102E+03  0.21384702013E+04  0.25148829118E+04  0.12699999809E+01 0.  1.
</event>
<event>
 5   0  0.6335942E-09  0.3901415E+04  0.7818609E-02  0.8024735E-01
       -2   -1    0    0    0  501  0.00000000000E+00  0.00000000000E+00  0.17548437258E+04  0.17548437258E+04  0.25500000920E-02 0. -1.
        2   -1    0    0  501    0  0.00000000000E+00  0.00000000000E+00 -0.21684325884E+04  0.21684325884E+04  0.25500000920E-02 0.  1.
    10030    2    1    2    0    0  0.00000000000E+00  0.00000000000E+00 -0.41358886260E+03  0.39232763143E+04  0.39014152933E+04 0.  0.
        2    1    3    3  502    0  0.43960234148E+03  0.15060692501E+04  0.95891003538E+03  0.18387504618E+04  0.25500000920E-02 0. -1.
       -2    1    3    3    0  502 -0.43960234148E+03 -0.15060692501E+04 -0.13724988980E+04  0.20845258525E+04  0.25500000920E-02 0.  1.
</event>
<event>
 5   0  0.9277261E-09  0.3898875E+04  0.7818609E-02  0.8025263E-01
        2   -1    0    0  501    0  0.00000000000E+00  0.00000000000E+00  0.15485119769E+04  0.15485119769E+04  0.25500000920E-02 0.  1.
       -2   -1    0    0    0  501  0.00000000000E+00  0.00000000000E+00 -0.24541668604E+04  0.24541668604E+04  0.25500000920E-02 0. -1.
    10030    2    1    2    0    0  0.00000000000E+00  0.00000000000E+00 -0.90565488347E+03  0.40026788372E+04  0.38988751078E+04 0.  0.
        1    1    3    3  502    0 -0.95108292080E+03 -0.16703684229E+04 -0.78646822240E+03  0.20768297127E+04  0.50400001928E-02 0. -1.
       -1    1    3    3    0  502  0.95108292080E+03  0.16703684229E+04 -0.11918666107E+03  0.19258491246E+04  0.50400001928E-02 0.  1.
</event>
<event>
 5   0  0.2904500E-09  0.3900156E+04  0.7818609E-02  0.8024997E-01
       -1   -1    0    0    0  501  0.00000000000E+00  0.00000000000E+00  0.19616964594E+04  0.19616964594E+04  0.50400001928E-02 0. -1.
        1   -1    0    0  501    0  0.00000000000E+00  0.00000000000E+00 -0.19385287272E+04  0.19385287272E+04  0.50400001928E-02 0.  1.
    10030    2    1    2    0    0  0.00000000000E+00  0.00000000000E+00  0.23167732209E+02  0.39002251866E+04  0.39001563767E+04 0.  0.
        3    1    3    3  502    0 -0.87313127454E+03 -0.62144148242E+03  0.16408017306E+04  0.19597903123E+04  0.10100000352E+00 0. -1.
       -3    1    3    3    0  502  0.87313127454E+03  0.62144148242E+03 -0.16176339984E+04  0.19404348744E+04  0.10100000352E+00 0.  1.
</event>
<event>
 5   0  0.9368546E-09  0.3900215E+04  0.7818609E-02  0.8024984E-01
       -2   -1    0    0    0  501  0.00000000000E+00  0.00000000000E+00  0.14359444164E+04  0.14359444164E+04  0.25500000920E-02 0. -1.
        2   -1    0    0  501    0  0.00000000000E+00  0.00000000000E+00 -0.26483754149E+04  0.26483754149E+04  0.25500000920E-02 0.  1.
    10030    2    1    2    0    0  0.00000000000E+00  0.00000000000E+00 -0.12124309985E+04  0.40843198314E+04  0.39002153221E+04 0.  0.
        5    1    3    3  502    0 -0.80106074791E+02 -0.10630449271E+04  0.11037806670E+04  0.15345472789E+04  0.46999998093E+01 0. -1.
       -5    1    3    3    0  502  0.80106074791E+02  0.10630449271E+04 -0.23162116655E+04  0.25497725525E+04  0.46999998093E+01 0.  1.
</event>
<event>
 5   0  0.2904500E-09  0.3899539E+04  0.7818609E-02  0.8025125E-01
        1   -1    0    0  501    0  0.00000000000E+00  0.00000000000E+00  0.23581980483E+04  0.23581980483E+04  0.50400001928E-02 0.  1.
       -1   -1    0    0    0  501  0.00000000000E+00  0.00000000000E+00 -0.16120789317E+04  0.16120789317E+04  0.50400001928E-02 0. -1.
    10030    2    1    2    0    0  0.00000000000E+00  0.00000000000E+00  0.74611911664E+03  0.39702769800E+04  0.38995391473E+04 0.  0.
        5    1    3    3  502    0  0.10226183912E+04  0.13148920123E+04  0.14047976549E+04  0.21790291231E+04  0.46999998093E+01 0.  1.
       -5    1    3    3    0  502 -0.10226183912E+04 -0.13148920123E+04 -0.65867853829E+03  0.17912478569E+04  0.46999998093E+01 0. -1.
</event>
<event>
 5   0  0.2904500E-09  0.3899553E+04  0.7818609E-02  0.8025122E-01
        1   -1    0    0  501    0  0.00000000000E+00  0.00000000000E+00  0.21525530952E+04  0.21525530953E+04  0.50400001928E-02 0.  1.
       -1   -1    0    0    0  501  0.00000000000E+00  0.00000000000E+00 -0.17661020464E+04  0.17661020464E+04  0.50400001928E-02 0. -1.
    10030    2    1    2    0    0  0.00000000000E+00  0.00000000000E+00  0.38645104888E+03  0.39186551416E+04  0.38995530136E+04 0.  0.
        3    1    3    3  502    0 -0.70323139281E+03 -0.15815550179E+04  0.10952739482E+04  0.20482860392E+04  0.10100000352E+00 0.  1.
       -3    1    3    3    0  502  0.70323139281E+03  0.15815550179E+04 -0.70882289931E+03  0.18703691024E+04  0.10100000352E+00 0. -1.
</event>
<event>
 5   0  0.9277261E-09  0.3900353E+04  0.7818609E-02  0.8024956E-01
       -2   -1    0    0    0  501  0.00000000000E+00  0.00000000000E+00  0.13114008105E+04  0.13114008105E+04  0.25500000920E-02 0.  1.
        2   -1    0    0  501    0  0.00000000000E+00  0.00000000000E+00 -0.29000953843E+04  0.29000953843E+04  0.25500000920E-02 0. -1.
    10030    2    1    2    0    0  0.00000000000E+00  0.00000000000E+00 -0.15886945738E+04  0.42114961948E+04  0.39003525162E+04 0.  0.
        1    1    3    3  502    0  0.13394405900E+04 -0.12484525241E+04 -0.69649191902E+02  0.18323716350E+04  0.50400001928E-02 0.  1.
       -1    1    3    3    0  502 -0.13394405900E+04  0.12484525241E+04 -0.15190453819E+04  0.23791245598E+04  0.50400001928E-02 0. -1.
</event>
<event>
 5   0  0.2929054E-09  0.3900571E+04  0.7818609E-02  0.8024911E-01
       -1   -1    0    0    0  501  0.00000000000E+00  0.00000000000E+00  0.29187536247E+04  0.29187536247E+04  0.50400001928E-02 0.  1.
        1   -1    0    0  501    0  0.00000000000E+00  0.00000000000E+00 -0.13031634700E+04  0.13031634700E+04  0.50400001928E-02 0. -1.
    10030    2    1    2    0    0  0.00000000000E+00  0.00000000000E+00  0.16155901547E+04  0.42219170947E+04  0.39005707796E+04 0.  0.
        1    1    3    3  502    0  0.46454277154E+02 -0.98666564658E+03  0.26279866291E+04  0.28074865664E+04  0.50400001928E-02 0.  1.
       -1    1    3    3    0  502 -0.46454277154E+02  0.98666564658E+03 -0.10123964744E+04  0.14144305283E+04  0.50400001928E-02 0. -1.
</event>
<event>
 5   0  0.2904500E-09  0.3907862E+04  0.7818609E-02  0.8023396E-01
       -1   -1    0    0    0  501  0.00000000000E+00  0.00000000000E+00  0.14484925177E+04  0.14484925177E+04  0.50400001928E-02 0.  1.
        1   -1    0    0  501    0  0.00000000000E+00  0.00000000000E+00 -0.26357381691E+04  0.26357381691E+04  0.50400001928E-02 0. -1.
    10030    2    1    2    0    0  0.00000000000E+00  0.00000000000E+00 -0.11872456513E+04  0.40842306868E+04  0.39078623397E+04 0.  0.
        3    1    3    3  502    0  0.18061205272E+04  0.63831610481E+03 -0.99613856547E+03  0.21591227062E+04  0.10100000352E+00 0.  1.
       -3    1    3    3    0  502 -0.18061205272E+04 -0.63831610481E+03 -0.19110708587E+03  0.19251079806E+04  0.10100000352E+00 0. -1.
</event>
<event>
 5   0  0.2904500E-09  0.3899774E+04  0.7818609E-02  0.8025076E-01
       -1   -1    0    0    0  501  0.00000000000E+00  0.00000000000E+00  0.11612733897E+04  0.11612733897E+04  0.50400001928E-02 0. -1.
        1   -1    0    0  501    0  0.00000000000E+00  0.00000000000E+00 -0.32740433105E+04  0.32740433105E+04  0.50400001928E-02 0.  1.
    10030    2    1    2    0    0  0.00000000000E+00  0.00000000000E+00 -0.21127699208E+04  0.44353167002E+04  0.38997740309E+04 0.  0.
        2    1    3    3  502    0 -0.75065210541E+03 -0.10202015876E+04  0.62968761640E+03  0.14144950891E+04  0.25500000920E-02 0. -1.
       -2    1    3    3    0  502  0.75065210541E+03  0.10202015876E+04 -0.27424575372E+04  0.30208216111E+04  0.25500000920E-02 0.  1.
</event>
<event>
 5   0  0.2904500E-09  0.3896109E+04  0.7818609E-02  0.8025839E-01
        1   -1    0    0  501    0  0.00000000000E+00  0.00000000000E+00  0.30310621658E+04  0.30310621658E+04  0.50400001928E-02 0. -1.
       -1   -1    0    0    0  501  0.00000000000E+00  0.00000000000E+00 -0.12520089681E+04  0.12520089681E+04  0.50400001928E-02 0.  1.
    10030    2    1    2    0    0  0.00000000000E+00  0.00000000000E+00  0.17790531978E+04  0.42830711339E+04  0.38961093488E+04 0.  0.
        5    1    3    3  502    0 -0.88667697513E+03  0.63344908888E+03  0.26646616720E+04  0.28788709110E+04  0.46999998093E+01 0. -1.
       -5    1    3    3    0  502  0.88667697513E+03 -0.63344908888E+03 -0.88560847420E+03  0.14042002229E+04  0.46999998093E+01 0.  1.
</event>
<event>
 5   0  0.6335942E-09  0.3900873E+04  0.7818609E-02  0.8024848E-01
       -2   -1    0    0    0  501  0.00000000000E+00  0.00000000000E+00  0.19323347147E+04  0.19323347147E+04  0.25500000920E-02 0. -1.
        2   -1    0    0  501    0  0.00000000000E+00  0.00000000000E+00 -0.19687077009E+04  0.19687077009E+04  0.25500000920E-02 0.  1.
    10030    2    1    2    0    0  0.00000000000E+00  0.00000000000E+00 -0.36372986252E+02  0.39010424156E+04  0.39008728427E+04 0.  0.
        2    1    3    3  502    0 -0.16398654164E+03  0.15096494516E+04 -0.12422777663E+04  0.19619345303E+04  0.25500000920E-02 0.  1.
       -2    1    3    3    0  502  0.16398654164E+03 -0.15096494516E+04  0.12059047800E+04  0.19391078854E+04  0.25500000920E-02 0. -1.
</event>
<event>
 5   0  0.9277261E-09  0.3916591E+04  0.7818609E-02  0.8021587E-01
       -2   -1    0    0    0  501  0.00000000000E+00  0.00000000000E+00  0.14983644329E+04  0.14983644329E+04  0.25500000920E-02 0. -1.
        2   -1    0    0  501    0  0.00000000000E+00  0.00000000000E+00 -0.25594044399E+04  0.25594044399E+04  0.25500000920E-02 0.  1.
    10030    2    1    2    0    0  0.00000000000E+00  0.00000000000E+00 -0.10610400070E+04  0.40577688728E+04  0.39165906512E+04 0.  0.
        1    1    3    3  502    0 -0.49808403362E+03 -0.85715594714E+03 -0.22802166463E+04  0.24864014110E+04  0.50400001928E-02 0.  1.
       -1    1    3    3    0  502  0.49808403362E+03  0.85715594714E+03  0.12191766394E+04  0.15713674619E+04  0.50400001928E-02 0. -1.
</event>
<event>
 5   0  0.2904500E-09  0.3902474E+04  0.7818609E-02  0.8024515E-01
       -1   -1    0    0    0  501  0.00000000000E+00  0.00000000000E+00  0.18667064283E+04  0.18667064283E+04  0.50400001928E-02 0.  1.
        1   -1    0    0  501    0  0.00000000000E+00  0.00000000000E+00 -0.20395950601E+04  0.20395950601E+04  0.50400001928E-02 0. -1.
    10030    2    1    2    0    0  0.00000000000E+00  0.00000000000E+00 -0.17288863173E+03  0.39063014884E+04  0.39024736821E+04 0.  0.
        4    1    3    3  502    0 -0.15318788469E+04  0.75679297224E+03 -0.10296717216E+04  0.19948969576E+04  0.12699999809E+01 0. -1.
       -4    1    3    3    0  502  0.15318788469E+04 -0.75679297224E+03  0.85678308985E+03  0.19114045308E+04  0.12699999809E+01 0.  1.
</event>
<event>
 5   0  0.6335942E-09  0.3904384E+04  0.7818609E-02  0.8024118E-01
        2   -1    0    0  501    0  0.00000000000E+00  0.00000000000E+00  0.24862804253E+04  0.24862804253E+04  0.25500000920E-02 0. -1.
       -2   -1    0    0    0  501  0.00000000000E+00  0.00000000000E+00 -0.15328332570E+04  0.15328332570E+04  0.25500000920E-02 0.  1.
    10030    2    1    2    0    0  0.00000000000E+00  0.00000000000E+00  0.95344716822E+03  0.40191136823E+04  0.39043838552E+04 0.  0.
        2    1    3    3  502    0 -0.18356702490E+04  0.56713837966E+03  0.83289985001E+03  0.20940519012E+04  0.25500000920E-02 0. -1.
       -2    1    3    3    0  502  0.18356702490E+04 -0.56713837966E+03  0.12054731821E+03  0.19250617810E+04  0.25500000920E-02 0.  1.
</event>
<event>
 5   0  0.2904500E-09  0.3899212E+04  0.7818609E-02  0.8025193E-01
       -1   -1    0    0    0  501  0.00000000000E+00  0.00000000000E+00  0.23939131807E+04  0.23939131807E+04  0.50400001928E-02 0.  1.
        1   -1    0    0  501    0  0.00000000000E+00  0.00000000000E+00 -0.15877614849E+04  0.15877614849E+04  0.50400001928E-02 0. -1.
    10030    2    1    2    0    0  0.00000000000E+00  0.00000000000E+00  0.80615169578E+03  0.39816746656E+04  0.38992117904E+04 0.  0.
        3    1    3    3  502    0  0.95103499361E+03  0.93602698020E+03 -0.10483743963E+04  0.16969687539E+04  0.10100000352E+00 0. -1.
       -3    1    3    3    0  502 -0.95103499361E+03 -0.93602698020E+03  0.18545260921E+04  0.22847059117E+04  0.10100000352E+00 0.  1.
</event>
<event>
 5   0  0.6335942E-09  0.3895641E+04  0.7818609E-02  0.8025936E-01
       -2   -1    0    0    0  501  0.00000000000E+00  0.00000000000E+00  0.27511043063E+04  0.27511043063E+04  0.25500000920E-02 0. -1.
        2   -1    0    0  501    0  0.00000000000E+00  0.00000000000E+00 -0.13790842802E+04  0.13790842802E+04  0.25500000920E-02 0.  1.
    10030    2    1    2    0    0  0.00000000000E+00  0.00000000000E+00  0.13720200262E+04  0.41301885865E+04  0.38956410009E+04 0.  0.
        2    1    3    3  502    0 -0.10798016584E+04  0.38431989741E+03  0.23557382852E+04  0.26197664540E+04  0.25500000920E-02 0. -1.
       -2    1    3    3    0  502  0.10798016584E+04 -0.38431989741E+03 -0.98371825906E+03  0.15104221325E+04  0.25500000920E-02 0.  1.
</event>
<event>
 5   0  0.2904500E-09  0.3900743E+04  0.7818609E-02  0.8024875E-01
       -1   -1    0    0    0  501  0.00000000000E+00  0.00000000000E+00  0.23404718535E+04  0.23404718535E+04  0.50400001928E-02 0.  1.
        1   -1    0    0  501    0  0.00000000000E+00  0.00000000000E+00 -0.16252916615E+04  0.16252916615E+04  0.50400001928E-02 0. -1.
    10030    2    1    2    0    0  0.00000000000E+00  0.00000000000E+00  0.71518019206E+03  0.39657635150E+04  0.39007432048E+04 0.  0.
        2    1    3    3  502    0 -0.87244563154E+03 -0.11421203527E+04  0.16980318636E+04  0.22246151329E+04  0.25500000920E-02 0.  1.
       -2    1    3    3    0  502  0.87244563154E+03  0.11421203527E+04 -0.98285167149E+03  0.17411483820E+04  0.25500000920E-02 0. -1.
</event>
<event>
 5   0  0.2904500E-09  0.3904888E+04  0.7818609E-02  0.8024013E-01
        1   -1    0    0  501    0  0.00000000000E+00  0.00000000000E+00  0.11051427813E+04  0.11051427813E+04  0.50400001928E-02 0. -1.
       -1   -1    0    0    0  501  0.00000000000E+00  0.00000000000E+00 -0.34493617277E+04  0.34493617277E+04  0.50400001928E-02 0.  1.
    10030    2    1    2    0    0  0.00000000000E+00  0.00000000000E+00 -0.23442189465E+04  0.45545045090E+04  0.39048878158E+04 0.  0.
        2    1    3    3  502    0  0.73918319965E+03  0.12500860763E+04 -0.26941667657E+04  0.30606603147E+04  0.25500000920E-02 0.  1.
       -2    1    3    3    0  502 -0.73918319965E+03 -0.12500860763E+04  0.34994781921E+03  0.14938441943E+04  0.25500000920E-02 0. -1.
</event>
<event>
 5   0  0.2904500E-09  0.3899723E+04  0.7818609E-02  0.8025087E-01
        1   -1    0    0  501    0  0.00000000000E+00  0.00000000000E+00  0.16651234736E+04  0.16651234736E+04  0.50400001928E-02 0.  1.
       -1   -1    0    0    0  501  0.00000000000E+00  0.00000000000E+00 -0.22832905806E+04  0.22832905806E+04  0.50400001928E-02 0. -1.
    10030    2    1    2    0    0  0.00000000000E+00  0.00000000000E+00 -0.61816710697E+03  0.39484140542E+04  0.38997234480E+04 0.  0.
        2    1    3    3  502    0  0.38828868128E+03 -0.48479924849E+03 -0.21804469439E+04  0.22671892922E+04  0.25500000920E-02 0. -1.
       -2    1    3    3    0  502 -0.38828868128E+03  0.48479924849E+03  0.15622798370E+04  0.16812247620E+04  0.25500000920E-02 0.  1.
</event>
<event>
 5   0  0.6335942E-09  0.3908921E+04  0.7818609E-02  0.8023176E-01
       -2   -1    0    0    0  501  0.00000000000E+00  0.00000000000E+00  0.13387582401E+04  0.13387582401E+04  0.25500000920E-02 0.  1.
        2   -1    0    0  501    0  0.00000000000E+00  0.00000000000E+00 -0.28533270152E+04  0.28533270152E+04  0.25500000920E-02 0. -1.
    10030    2    1    2    0    0  0.00000000000E+00  0.00000000000E+00 -0.15145687752E+04  0.41920852553E+04  0.39089205944E+04 0.  0.
        2    1    3    3  502    0 -0.12342640435E+04 -0.77283645684E+03  0.64069087534E+03  0.15909647123E+04  0.25500000920E-02 0.  1.
       -2    1    3    3    0  502  0.12342640435E+04  0.77283645684E+03 -0.21552596505E+04  0.26011205430E+04  0.25500000920E-02 0. -1.
</event>
<event>
 5   0  0.2904500E-09  0.3877305E+04  0.7818609E-02  0.8029766E-01
       -1   -1    0    0    0  501  0.00000000000E+00  0.00000000000E+00  0.29571524385E+04  0.29571524385E+04  0.50400001928E-02 0.  1.
        1   -1    0    0  501    0  0.00000000000E+00  0.00000000000E+00 -0.12709434351E+04  0.12709434351E+04  0.50400001928E-02 0. -1.
    10030    2    1    2    0    0  0.00000000000E+00  0.00000000000E+00  0.16862090034E+04  0.42280958737E+04  0.38773049808E+04 0.  0.
        5    1    3    3  502    0  0.91591706785E+03  0.13657304547E+04  0.19627539292E+04  0.25605758779E+04  0.46999998093E+01 0.  1.
       -5    1    3    3    0  502 -0.91591706785E+03 -0.13657304547E+04 -0.27654492579E+03  0.16675199957E+04  0.46999998093E+01 0. -1.
</event>
<event>
 5   0  0.9368546E-09  0.3899933E+04  0.7818609E-02  0.8025043E-01
        2   -1    0    0  501    0  0.00000000000E+00  0.00000000000E+00  0.13782992920E+04  0.13782992920E+04  0.25500000920E-02 0.  1.
       -2   -1    0    0    0  501  0.00000000000E+00  0.00000000000E+00 -0.27587401179E+04  0.27587401179E+04  0.25500000920E-02 0. -1.
    10030    2    1    2    0    0  0.00000000000E+00  0.00000000000E+00 -0.13804408259E+04  0.41370394099E+04  0.38999331027E+04 0.  0.
        5    1    3    3  502    0 -0.10706049786E+04  0.89776693441E+03  0.75268533228E+03  0.15870531775E+04  0.46999998093E+01 0.  1.
       -5    1    3    3    0  502  0.10706049786E+04 -0.89776693441E+03 -0.21331261582E+04  0.25499862324E+04  0.46999998093E+01 0. -1.
</event>
<event>
 5   0  0.9078515E-09  0.3886878E+04  0.7818609E-02  0.8027764E-01
        2   -1    0    0  501    0  0.00000000000E+00  0.00000000000E+00  0.23919507183E+04  0.23919507183E+04  0.25500000920E-02 0.  1.
       -2   -1    0    0    0  501  0.00000000000E+00  0.00000000000E+00 -0.15790275348E+04  0.15790275348E+04  0.25500000920E-02 0. -1.
    10030    2    1    2    0    0  0.00000000000E+00  0.00000000000E+00  0.81292318355E+03  0.39709782531E+04  0.38868784628E+04 0.  0.
        3    1    3    3  502    0  0.13881765240E+03  0.18702429035E+03  0.23776403531E+04  0.23890211562E+04  0.10100000352E+00 0.  1.
       -3    1    3    3    0  502 -0.13881765240E+03 -0.18702429035E+03 -0.15647171695E+04  0.15819570970E+04  0.10100000352E+00 0. -1.
</event>
<event>
 5   0  0.6335942E-09  0.3898528E+04  0.7818609E-02  0.8025335E-01
       -2   -1    0    0    0  501  0.00000000000E+00  0.00000000000E+00  0.20349416841E+04  0.20349416841E+04  0.25500000920E-02 0. -1.
        2   -1    0    0  501    0  0.00000000000E+00  0.00000000000E+00 -0.18671933927E+04  0.18671933927E+04  0.25500000920E-02 0.  1.
    10030    2    1    2    0    0  0.00000000000E+00  0.00000000000E+00  0.16774829136E+03  0.39021350768E+04  0.38985277565E+04 0.  0.
        2    1    3    3  502    0 -0.11678634589E+04 -0.15583816530E+04 -0.88733992753E+00  0.19474237398E+04  0.25500000920E-02 0. -1.
       -2    1    3    3    0  502  0.11678634589E+04  0.15583816530E+04  0.16863563129E+03  0.19547113370E+04  0.25500000920E-02 0.  1.
</event>
<event>
 5   0  0.2904500E-09  0.3899042E+04  0.7818609E-02  0.8025228E-01
       -1   -1    0    0    0  501  0.00000000000E+00  0.00000000000E+00  0.17163930280E+04  0.17163930280E+04  0.50400001928E-02 0. -1.
        1   -1    0    0  501    0  0.00000000000E+00  0.00000000000E+00 -0.22143134650E+04  0.22143134650E+04  0.50400001928E-02 0.  1.
    10030    2    1    2    0    0  0.00000000000E+00  0.00000000000E+00 -0.49792043697E+03  0.39307064930E+04  0.38990420327E+04 0.  0.
        4    1    3    3  502    0 -0.11855299353E+04 -0.10176400712E+04 -0.14244302873E+04  0.21142553768E+04  0.12699999809E+01 0.  1.
       -4    1    3    3    0  502  0.11855299353E+04  0.10176400712E+04  0.92650985028E+03  0.18164511162E+04  0.12699999809E+01 0. -1.
</event>
<event>
 5   0  0.9368546E-09  0.3899599E+04  0.7818609E-02  0.8025113E-01
        2   -1    0    0  501    0  0.00000000000E+00  0.00000000000E+00  0.16324709855E+04  0.16324709855E+04  0.25500000920E-02 0. -1.
       -2   -1    0    0    0  501  0.00000000000E+00  0.00000000000E+00 -0.23288122958E+04  0.23288122958E+04  0.25500000920E-02 0.  1.
    10030    2    1    2    0    0  0.00000000000E+00  0.00000000000E+00 -0.69634131035E+03  0.39612832813E+04  0.38995992120E+04 0.  0.
        5    1    3    3  502    0 -0.11693391714E+04  0.15535723751E+04 -0.49451612889E+03  0.20063672431E+04  0.46999998093E+01 0.  1.
       -5    1    3    3    0  502  0.11693391714E+04 -0.15535723751E+04 -0.20182518145E+03  0.19549160382E+04  0.46999998093E+01 0. -1.
</event>
<event>
 5   0  0.6335942E-09  0.3899262E+04  0.7818609E-02  0.8025183E-01
        2   -1    0    0  501    0  0.00000000000E+00  0.00000000000E+00  0.22279566633E+04  0.22279566633E+04  0.25500000920E-02 0.  1.
       -2   -1    0    0    0  501  0.00000000000E+00  0.00000000000E+00 -0.17060748014E+04  0.17060748014E+04  0.25500000920E-02 0. -1.
    10030    2    1    2    0    0  0.00000000000E+00  0.00000000000E+00  0.52188186190E+03  0.39340314648E+04  0.38992618389E+04 0.  0.
        2    1    3    3  502    0 -0.82700654381E+03  0.17384751958E+04  0.57162330034E+03  0.20082303223E+04  0.25500000920E-02 0.  1.
       -2    1    3    3    0  502  0.82700654381E+03 -0.17384751958E+04 -0.49741438438E+02  0.19258011425E+04  0.25500000920E-02 0. -1.
</event>
<event>
 5   0  0.2904500E-09  0.3900959E+04  0.7818609E-02  0.8024830E-01
        1   -1    0    0  501    0  0.00000000000E+00  0.00000000000E+00  0.27642647208E+04  0.27642647208E+04  0.50400001928E-02 0.  1.
       -1   -1    0    0    0  501  0.00000000000E+00  0.00000000000E+00 -0.13762686156E+04  0.13762686156E+04  0.50400001928E-02 0. -1.
    10030    2    1    2    0    0  0.00000000000E+00  0.00000000000E+00  0.13879961052E+04  0.41405333364E+04  0.39009592566E+04 0.  0.
        2    1    3    3  502    0  0.14811130636E+04 -0.11353110948E+04  0.91937983734E+02  0.18684431438E+04  0.25500000920E-02 0. -1.
       -2    1    3    3    0  502 -0.14811130636E+04  0.11353110948E+04  0.12960581215E+04  0.22720901926E+04  0.25500000920E-02 0.  1.
</event>
<event>
 5   0  0.9078515E-09  0.3897882E+04  0.7818609E-02  0.8025470E-01
       -2   -1    0    0    0  501  0.00000000000E+00  0.00000000000E+00  0.12864968902E+04  0.12864968902E+04  0.25500000920E-02 0.  1.
        2   -1    0    0  501    0  0.00000000000E+00  0.00000000000E+00 -0.29524909729E+04  0.29524909729E+04  0.25500000920E-02 0. -1.
    10030    2    1    2    0    0  0.00000000000E+00  0.00000000000E+00 -0.16659940827E+04  0.42389878631E+04  0.38978817094E+04 0.  0.
        3    1    3    3  502    0  0.13952130229E+04 -0.98165832953E+03  0.19186158591E+03  0.17167071193E+04  0.10100000352E+00 0.  1.
       -3    1    3    3    0  502 -0.13952130229E+04  0.98165832953E+03 -0.18578556686E+04  0.25222807438E+04  0.10100000352E+00 0. -1.
</event>
<event>
 5   0  0.9078515E-09  0.3898161E+04  0.7818609E-02  0.8025412E-01
       -2   -1    0    0    0  501  0.00000000000E+00  0.00000000000E+00  0.26893566958E+04  0.26893566958E+04  0.25500000920E-02 0. -1.
        2   -1    0    0  501    0  0.00000000000E+00  0.00000000000E+00 -0.14125739179E+04  0.14125739179E+04  0.25500000920E-02 0.  1.
    10030    2    1    2    0    0  0.00000000000E+00  0.00000000000E+00  0.12767827779E+04  0.41019306137E+04  0.38981611687E+04 0.  0.
        3    1    3    3  502    0  0.14039316775E+04  0.41132399730E+03  0.19936210650E+04  0.24727993341E+04  0.10100000352E+00 0. -1.
       -3    1    3    3    0  502 -0.14039316775E+04 -0.41132399730E+03 -0.71683828717E+03  0.16291312795E+04  0.10100000352E+00 0.  1.
</event>
<event>
 5   0  0.2904500E-09  0.3900553E+04  0.7818609E-02  0.8024914E-01
       -1   -1    0    0    0  501  0.00000000000E+00  0.00000000000E+00  0.17148832167E+04  0.17148832167E+04  0.50400001928E-02 0. -1.
        1   -1    0    0  501    0  0.00000000000E+00  0.00000000000E+00 -0.22179807451E+04  0.22179807451E+04  0.50400001928E-02 0.  1.
    10030    2    1    2    0    0  0.00000000000E+00  0.00000000000E+00 -0.50309752845E+03  0.39328639618E+04  0.39005527581E+04 0.  0.
        5    1    3    3  502    0 -0.37273716134E+03  0.18527845659E+04 -0.73700595270E+03  0.20285323521E+04  0.46999998093E+01 0.  1.
       -5    1    3    3    0  502  0.37273716134E+03 -0.18527845659E+04  0.23390842425E+03  0.19043316098E+04  0.46999998093E+01 0. -1.
</event>
<event>
 5   0  0.2904500E-09  0.3904038E+04  0.7818609E-02  0.8024190E-01
        1   -1    0    0  501    0  0.00000000000E+00  0.00000000000E+00  0.23310481639E+04  0.23310481640E+04  0.50400001928E-02 0. -1.
       -1   -1    0    0    0  501  0.00000000000E+00  0.00000000000E+00 -0.16346200262E+04  0.16346200262E+04  0.50400001928E-02 0.  1.
    10030    2    1    2    0    0  0.00000000000E+00  0.00000000000E+00  0.69642813773E+03  0.39656681902E+04  0.39040379152E+04 0.  0.
        3    1    3    3  502    0 -0.46275297280E+03 -0.13215773488E+04  0.17297099373E+04  0.22254445579E+04  0.10100000352E+00 0. -1.
       -3    1    3    3    0  502  0.46275297280E+03  0.13215773488E+04 -0.10332817996E+04  0.17402236323E+04  0.10100000352E+00 0.  1.
</event>
<event>
 5   0  0.9277261E-09  0.3901444E+04  0.7818609E-02  0.8024729E-01
       -2   -1    0    0    0  501  0.00000000000E+00  0.00000000000E+00  0.19429045646E+04  0.19429045647E+04  0.25500000920E-02 0.  1.
        2   -1    0    0  501    0  0.00000000000E+00  0.00000000000E+00 -0.19585709241E+04  0.19585709241E+04  0.25500000920E-02 0. -1.
    10030    2    1    2    0    0  0.00000000000E+00  0.00000000000E+00 -0.15666359489E+02  0.39014754888E+04  0.39014440346E+04 0.  0.
        1    1    3    3  502    0  0.95310485408E+03 -0.16932687854E+04  0.16464530010E+03  0.19500451577E+04  0.50400001928E-02 0.  1.
       -1    1    3    3    0  502 -0.95310485408E+03  0.16932687854E+04 -0.18031165959E+03  0.19514303311E+04  0.50400001928E-02 0. -1.
</event>
<event>
 5   0  0.9434114E-09  0.3899062E+04  0.7818609E-02  0.8025224E-01
       -2   -1    0    0    0  501  0.00000000000E+00  0.00000000000E+00  0.17238239930E+04  0.17238239930E+04  0.25500000920E-02 0. -1.
        2   -1    0    0  501    0  0.00000000000E+00  0.00000000000E+00 -0.22047910875E+04  0.22047910875E+04  0.25500000920E-02 0.  1.
    10030    2    1    2    0    0  0.00000000000E+00  0.00000000000E+00 -0.48096709448E+03  0.39286150806E+04  0.38990623367E+04 0.  0.
        4    1    3    3  502    0 -0.12299800992E+04  0.87621290526E+03  0.10017724552E+04  0.18122223276E+04  0.12699999809E+01 0. -1.
       -4    1    3    3    0  502  0.12299800992E+04 -0.87621290526E+03 -0.14827395497E+04  0.21163927530E+04  0.12699999809E+01 0.  1.
</event>
<event>
 5   0  0.9434114E-09  0.3902116E+04  0.7818609E-02  0.8024589E-01
        2   -1    0    0  501    0  0.00000000000E+00  0.00000000000E+00  0.22857544026E+04  0.22857544026E+04  0.25500000920E-02 0. -1.
       -2   -1    0    0    0  501  0.00000000000E+00  0.00000000000E+00 -0.16653702871E+04  0.16653702871E+04  0.25500000920E-02 0.  1.
    10030    2    1    2    0    0  0.00000000000E+00  0.00000000000E+00  0.62038411549E+03  0.39511246896E+04  0.39021160749E+04 0.  0.
        4    1    3    3  502    0  0.60102989907E+03  0.99035156994E+03  0.18998113633E+04  0.22251557250E+04  0.12699999809E+01 0. -1.
       -4    1    3    3    0  502 -0.60102989907E+03 -0.99035156994E+03 -0.12794272478E+04  0.17259689646E+04  0.12699999809E+01 0.  1.
</event>
<event>
 5   0  0.6335942E-09  0.3903246E+04  0.7818609E-02  0.8024354E-01
       -2   -1    0    0    0  501  0.00000000000E+00  0.00000000000E+00  0.15301899990E+04  0.15301899990E+04  0.25500000920E-02 0.  1.
        2   -1    0    0  501    0  0.00000000000E+00  0.00000000000E+00 -0.24891243506E+04  0.24891243506E+04  0.25500000920E-02 0. -1.
    10030    2    1    2    0    0  0.00000000000E+00  0.00000000000E+00 -0.95893435164E+03  0.40193143496E+04  0.39032464373E+04 0.  0.
        2    1    3    3  502    0 -0.99493241822E+03 -0.79414371147E+03 -0.20027385894E+04  0.23730816692E+04  0.25500000920E-02 0. -1.
       -2    1    3    3    0  502  0.99493241822E+03  0.79414371147E+03  0.10438042378E+04  0.16462326804E+04  0.25500000920E-02 0.  1.
</event>
<event>
 5   0  0.2929054E-09  0.3899633E+04  0.7818609E-02  0.8025106E-01
       -1   -1    0    0    0  501  0.00000000000E+00  0.00000000000E+00  0.18178991113E+04  0.18178991113E+04  0.50400001928E-02 0. -1.
        1   -1    0    0  501    0  0.00000000000E+00  0.00000000000E+00 -0.20913063610E+04  0.20913063610E+04  0.50400001928E-02 0.  1.
    10030    2    1    2    0    0  0.00000000000E+00  0.00000000000E+00 -0.27340724969E+03  0.39092054724E+04  0.38996327905E+04 0.  0.
        1    1    3    3  502    0 -0.18595233132E+04 -0.25089788673E+03  0.39469884063E+03  0.19174367986E+04  0.50400001928E-02 0. -1.
       -1    1    3    3    0  502  0.18595233132E+04  0.25089788673E+03 -0.66810609032E+03  0.19917686738E+04  0.50400001928E-02 0.  1.
</event>
<event>
 5   0  0.9434114E-09  0.3895328E+04  0.7818609E-02  0.8026002E-01
        2   -1    0    0  501    0  0.00000000000E+00  0.00000000000E+00  0.24949725758E+04  0.24949725758E+04  0.25500000920E-02 0. -1.
       -2   -1    0    0    0  501  0.00000000000E+00  0.00000000000E+00 -0.15204154966E+04  0.15204154966E+04  0.25500000920E-02 0.  1.
    10030    2    1    2    0    0  0.00000000000E+00  0.00000000000E+00  0.97455707921E+03  0.40153880725E+04  0.38953279544E+04 0.  0.
        4    1    3    3  502    0  0.18137242674E+04 -0.41860610650E+03 -0.10359586891E+03  0.18642855220E+04  0.12699999809E+01 0.  1.
       -4    1    3    3    0  502 -0.18137242674E+04  0.41860610650E+03  0.10781529481E+04  0.21511025505E+04  0.12699999809E+01 0. -1.
</event>
<event>
 5   0  0.9434114E-09  0.3900352E+04  0.7818609E-02  0.8024956E-01
        2   -1    0    0  501    0  0.00000000000E+00  0.00000000000E+00  0.15608299193E+04  0.15608299193E+04  0.25500000920E-02 0. -1.
       -2   -1    0    0    0  501  0.00000000000E+00  0.00000000000E+00 -0.24366442940E+04  0.24366442940E+04  0.25500000920E-02 0.  1.
    10030    2    1    2    0    0  0.00000000000E+00  0.00000000000E+00 -0.87581437467E+03  0.39974742133E+04  0.39003524542E+04 0.  0.
        4    1    3    3  502    0  0.32295181717E+03  0.12956434727E+04  0.10188210919E+04  0.16795796840E+04  0.12699999809E+01 0. -1.
       -4    1    3    3    0  502 -0.32295181717E+03 -0.12956434727E+04 -0.18946354666E+04  0.23178945293E+04  0.12699999809E+01 0.  1.
</event>
<event>
 5   0  0.9078515E-09  0.3899609E+04  0.7818609E-02  0.8025111E-01
        2   -1    0    0  501    0  0.00000000000E+00  0.00000000000E+00  0.20089679399E+04  0.20089679399E+04  0.25500000920E-02 0.  1.
       -2   -1    0    0    0  501  0.00000000000E+00  0.00000000000E+00 -0.18923835339E+04  0.18923835339E+04  0.25500000920E-02 0. -1.
    10030    2    1    2    0    0  0.00000000000E+00  0.00000000000E+00  0.11658440599E+03  0.39013514738E+04  0.38996091341E+04 0.  0.
        3    1    3    3  502    0 -0.87664447924E+03 -0.72591937313E+03  0.16421209372E+04  0.19980054208E+04  0.10100000352E+00 0.  1.
       -3    1    3    3    0  502  0.87664447924E+03  0.72591937313E+03 -0.15255365312E+04  0.19033460530E+04  0.10100000352E+00 0. -1.
</event>
<event>
 5   0  0.2904500E-09  0.3899621E+04  0.7818609E-02  0.8025108E-01
        1   -1    0    0  501    0  0.00000000000E+00  0.00000000000E+00  0.26413477539E+04  0.26413477539E+04  0.50400001928E-02 0.  1.
       -1   -1    0    0    0  501  0.00000000000E+00  0.00000000000E+00 -0.14393261576E+04  0.14393261576E+04  0.50400001928E-02 0. -1.
    10030    2    1    2    0    0  0.00000000000E+00  0.00000000000E+00  0.12020215964E+04  0.40806739115E+04  0.38996209629E+04 0.  0.
        3    1    3    3  502    0  0.11440096378E+04  0.15787972702E+04  0.58002915170E+03  0.20341565079E+04  0.10100000352E+00 0. -1.
       -3    1    3    3    0  502 -0.11440096378E+04 -0.15787972702E+04  0.62199244467E+03  0.20465174036E+04  0.10100000352E+00 0.  1.
</event>
<event>
 5   0  0.9368546E-09  0.3897749E+04  0.7818609E-02  0.8025498E-01
        2   -1    0    0  501    0  0.00000000000E+00  0.00000000000E+00  0.22686736001E+04  0.22686736001E+04  0.25500000920E-02 0. -1.
       -2   -1    0    0    0  501  0.00000000000E+00  0.00000000000E+00 -0.16741552031E+04  0.16741552031E+04  0.25500000920E-02 0.  1.
    10030    2    1    2    0    0  0.00000000000E+00  0.00000000000E+00  0.59451839701E+03  0.39428288032E+04  0.38977489462E+04 0.  0.
        5    1    3    3  502    0 -0.20012948934E+03  0.16813923652E+04  0.12732798136E+04  0.21185834116E+04  0.46999998093E+01 0. -1.
       -5    1    3    3    0  502  0.20012948934E+03 -0.16813923652E+04 -0.67876141660E+03  0.18242453916E+04  0.46999998093E+01 0.  1.
</event>
<event>
 5   0  0.9434114E-09  0.3900191E+04  0.7818609E-02  0.8024990E-01
        2   -1    0    0  501    0  0.00000000000E+00  0.00000000000E+00  0.24485182679E+04  0.24485182679E+04  0.25500000920E-02 0.  1.
       -2   -1    0    0    0  501  0.00000000000E+00  0.00000000000E+00 -0.15531318032E+04  0.15531318032E+04  0.25500000920E-02 0. -1.
    10030    2    1    2    0    0  0.00000000000E+00  0.00000000000E+00  0.89538646470E+03  0.40016500712E+04  0.39001905557E+04 0.  0.
        4    1    3    3  502    0 -0.10739716073E+04 -0.12301802516E+04  0.15413064815E+04  0.22455257174E+04  0.12699999809E+01 0.  1.
       -4    1    3    3    0  502  0.10739716073E+04  0.12301802516E+04 -0.64592001682E+03  0.17561243537E+04  0.12699999809E+01 0. -1.
</event>
<event>
 5   0  0.9434114E-09  0.3899296E+04  0.7818609E-02  0.8025176E-01
       -2   -1    0    0    0  501  0.00000000000E+00  0.00000000000E+00  0.31976925185E+04  0.31976925185E+04  0.25500000920E-02 0. -1.
        2   -1    0    0  501    0  0.00000000000E+00  0.00000000000E+00 -0.11887093578E+04  0.11887093578E+04  0.25500000920E-02 0.  1.
    10030    2    1    2    0    0  0.00000000000E+00  0.00000000000E+00  0.20089831607E+04  0.43864018764E+04  0.38992958442E+04 0.  0.
        4    1    3    3  502    0 -0.94461879827E+03  0.68765076385E+03  0.27602188515E+04  0.29973284719E+04  0.12699999809E+01 0. -1.
       -4    1    3    3    0  502  0.94461879827E+03 -0.68765076385E+03 -0.75123569078E+03  0.13890734045E+04  0.12699999809E+01 0.  1.
</event>
<event>
 5   0  0.9277261E-09  0.3901594E+04  0.7818609E-02  0.8024698E-01
       -2   -1    0    0    0  501  0.00000000000E+00  0.00000000000E+00  0.22629601907E+04  0.22629601907E+04  0.25500000920E-02 0. -1.
        2   -1    0    0  501    0  0.00000000000E+00  0.00000000000E+00 -0.16816948167E+04  0.16816948167E+04  0.25500000920E-02 0.  1.
    10030    2    1    2    0    0  0.00000000000E+00  0.00000000000E+00  0.58126537406E+03  0.39446550074E+04  0.39015937374E+04 0.  0.
        1    1    3    3  502    0 -0.91249010154E+03 -0.17164499569E+04  0.45605321615E+03  0.19967030766E+04  0.50400001928E-02 0. -1.
       -1    1    3    3    0  502  0.91249010154E+03  0.17164499569E+04  0.12521215791E+03  0.19479519308E+04  0.50400001928E-02 0.  1.
</event>
<event>
 5   0  0.2929054E-09  0.3895644E+04  0.7818609E-02  0.8025936E-01
       -1   -1    0    0    0  501  0.00000000000E+00  0.00000000000E+00  0.13273053050E+04  0.13273053050E+04  0.50400001928E-02 0.  1.
        1   -1    0    0  501    0  0.00000000000E+00  0.00000000000E+00 -0.28584309681E+04  0.28584309681E+04  0.50400001928E-02 0. -1.
    10030    2    1    2    0    0  0.00000000000E+00  0.00000000000E+00 -0.15311256631E+04  0.41857362731E+04  0.38956440227E+04 0.  0.
        1    1    3    3  502    0 -0.18095220746E+04  0.35324676368E+03 -0.14407320167E+04  0.23398423363E+04  0.50400001928E-02 0.  1.
       -1    1    3    3    0  502  0.18095220746E+04 -0.35324676368E+03 -0.90393646394E+02  0.18458939368E+04  0.50400001928E-02 0. -1.
</event>
<event>
 5   0  0.6335942E-09  0.3897180E+04  0.7818609E-02  0.8025616E-01
        2   -1    0    0  501    0  0.00000000000E+00  0.00000000000E+00  0.29415041540E+04  0.29415041540E+04  0.25500000920E-02 0. -1.
       -2   -1    0    0    0  501  0.00000000000E+00  0.00000000000E+00 -0.12908373644E+04  0.12908373644E+04  0.25500000920E-02 0.  1.
    10030    2    1    2    0    0  0.00000000000E+00  0.00000000000E+00  0.16506667897E+04  0.42323415184E+04  0.38971802471E+04 0.  0.
        2    1    3    3  502    0 -0.58431737158E+02  0.24531254140E+03 -0.12730416421E+04  0.12977779214E+04  0.25500000920E-02 0.  1.
       -2    1    3    3    0  502  0.58431737158E+02 -0.24531254140E+03  0.29237084317E+04  0.29345635970E+04  0.25500000920E-02 0. -1.
</event>
<event>
 5   0  0.2904500E-09  0.3900158E+04  0.7818609E-02  0.8024996E-01
       -1   -1    0    0    0  501  0.00000000000E+00  0.00000000000E+00  0.17571812620E+04  0.17571812620E+04  0.50400001928E-02 0.  1.
        1   -1    0    0  501    0  0.00000000000E+00  0.00000000000E+00 -0.21641527736E+04  0.21641527736E+04  0.50400001928E-02 0. -1.
    10030    2    1    2    0    0  0.00000000000E+00  0.00000000000E+00 -0.40697151158E+03  0.39213340356E+04  0.39001583054E+04 0.  0.
        4    1    3    3  502    0  0.30742469882E+03 -0.19069669490E+04  0.65875904851E+02  0.19327116023E+04  0.12699999809E+01 0.  1.
       -4    1    3    3    0  502 -0.30742469882E+03  0.19069669490E+04 -0.47284741643E+03  0.19886224333E+04  0.12699999809E+01 0. -1.
</event>
<event>
 5   0  0.2904500E-09  0.3897306E+04  0.7818609E-02  0.8025590E-01
        1   -1    0    0  501    0  0.00000000000E+00  0.00000000000E+00  0.16360547618E+04  0.16360547618E+04  0.50400001928E-02 0. -1.
       -1   -1    0    0    0  501  0.00000000000E+00  0.00000000000E+00 -0.23209791805E+04  0.23209791805E+04  0.50400001928E-02 0.  1.
    10030    2    1    2    0    0  0.00000000000E+00  0.00000000000E+00 -0.68492441878E+03  0.39570339423E+04  0.38973062699E+04 0.  0.
        2    1    3    3  502    0 -0.18023282383E+04 -0.74063925066E+03 -0.32442876102E+03  0.19753955551E+04  0.25500000920E-02 0.  1.
       -2    1    3    3    0  502  0.18023282383E+04  0.74063925066E+03 -0.36049565776E+03  0.19816383872E+04  0.25500000920E-02 0. -1.
</event>
<event>
 5   0  0.9078515E-09  0.3890170E+04  0.7818609E-02  0.8027077E-01
        2   -1    0    0  501    0  0.00000000000E+00  0.00000000000E+00  0.16039629976E+04  0.16039629976E+04  0.25500000920E-02 0.  1.
       -2   -1    0    0    0  501  0.00000000000E+00  0.00000000000E+00 -0.23587546859E+04  0.23587546859E+04  0.25500000920E-02 0. -1.
    10030    2    1    2    0    0  0.00000000000E+00  0.00000000000E+00 -0.75479168833E+03  0.39627176835E+04  0.38901697838E+04 0.  0.
        3    1    3    3  502    0  0.88819203042E+03  0.10815459064E+04 -0.17534125790E+04  0.22434532117E+04  0.10100000352E+00 0. -1.
       -3    1    3    3    0  502 -0.88819203042E+03 -0.10815459064E+04  0.99862089071E+03  0.17192644718E+04  0.10100000352E+00 0.  1.
</event>
<event>
 5   0  0.2929054E-09  0.3898531E+04  0.7818609E-02  0.8025335E-01
        1   -1    0    0  501    0  0.00000000000E+00  0.00000000000E+00  0.19283485432E+04  0.19283485432E+04  0.50400001928E-02 0.  1.
       -1   -1    0    0    0  501  0.00000000000E+00  0.00000000000E+00 -0.19704097098E+04  0.19704097098E+04  0.50400001928E-02 0. -1.
    10030    2    1    2    0    0  0.00000000000E+00  0.00000000000E+00 -0.42061166533E+02  0.38987582530E+04  0.38985313611E+04 0.  0.
        1    1    3    3  502    0 -0.17605077255E+04 -0.83253415721E+03  0.63449885962E+02  0.19484677217E+04  0.50400001928E-02 0. -1.
       -1    1    3    3    0  502  0.17605077255E+04  0.83253415721E+03 -0.10551105250E+03  0.19502905313E+04  0.50400001928E-02 0.  1.
</event>
<event>
 5   0  0.9434114E-09  0.3898149E+04  0.7818609E-02  0.8025414E-01
       -2   -1    0    0    0  501  0.00000000000E+00  0.00000000000E+00  0.17221223083E+04  0.17221223083E+04  0.25500000920E-02 0.  1.
        2   -1    0    0  501    0  0.00000000000E+00  0.00000000000E+00 -0.22059363928E+04  0.22059363928E+04  0.25500000920E-02 0. -1.
    10030    2    1    2    0    0  0.00000000000E+00  0.00000000000E+00 -0.48381408450E+03  0.39280587010E+04  0.38981494444E+04 0.  0.
        4    1    3    3  502    0  0.27148494538E+03 -0.44899725924E+03  0.16496177956E+04  0.17310525985E+04  0.12699999809E+01 0.  1.
       -4    1    3    3    0  502 -0.27148494538E+03  0.44899725924E+03 -0.21334318801E+04  0.21970061025E+04  0.12699999809E+01 0. -1.
</event>
<event>
 5   0  0.2904500E-09  0.3900373E+04  0.7818609E-02  0.8024952E-01
       -1   -1    0    0    0  501  0.00000000000E+00  0.00000000000E+00  0.17622571184E+04  0.17622571184E+04  0.50400001928E-02 0.  1.
        1   -1    0    0  501    0  0.00000000000E+00  0.00000000000E+00 -0.21581564286E+04  0.21581564286E+04  0.50400001928E-02 0. -1.
    10030    2    1    2    0    0  0.00000000000E+00  0.00000000000E+00 -0.39589931023E+03  0.39204135471E+04  0.39003725612E+04 0.  0.
        5    1    3    3  502    0  0.39235984157E+03  0.14128344109E+04 -0.14903077124E+04  0.20907143481E+04  0.46999998093E+01 0. -1.
       -5    1    3    3    0  502 -0.39235984157E+03 -0.14128344109E+04  0.10944084022E+04  0.18296991989E+04  0.46999998093E+01 0.  1.
</event>
<event>
 5   0  0.9277261E-09  0.3900825E+04  0.7818609E-02  0.8024858E-01
        2   -1    0    0  501    0  0.00000000000E+00  0.00000000000E+00  0.19320389759E+04  0.19320389759E+04  0.25500000920E-02 0. -1.
       -2   -1    0    0    0  501  0.00000000000E+00  0.00000000000E+00 -0.19689604876E+04  0.19689604876E+04  0.25500000920E-02 0.  1.
    10030    2    1    2    0    0  0.00000000000E+00  0.00000000000E+00 -0.36921511722E+02  0.39009994635E+04  0.39008247353E+04 0.  0.
        1    1    3    3  502    0  0.25176800773E+03 -0.97089295777E+03  0.16543628486E+04  0.19346670773E+04  0.50400001928E-02 0. -1.
       -1    1    3    3    0  502 -0.25176800773E+03  0.97089295777E+03 -0.16912843603E+04  0.19663323861E+04  0.50400001928E-02 0.  1.
</event>
<event>
 5   0  0.9078515E-09  0.3899962E+04  0.7818609E-02  0.8025037E-01
       -2   -1    0    0    0  501  0.00000000000E+00  0.00000000000E+00  0.13495864738E+04  0.13495864738E+04  0.25500000920E-02 0.  1.
        2   -1    0    0  501    0  0.00000000000E+00  0.00000000000E+00 -0.28174745427E+04  0.28174745427E+04  0.25500000920E-02 0. -1.
    10030    2    1    2    0    0  0.00000000000E+00  0.00000000000E+00 -0.14678880689E+04  0.41670610164E+04  0.38999618116E+04 0.  0.
        3    1    3    3  502    0  0.12743536449E+04  0.11150745573E+04 -0.17671539324E+04  0.24474888174E+04  0.10100000352E+00 0.  1.
       -3    1    3    3    0  502 -0.12743536449E+04 -0.11150745573E+04  0.29926586347E+03  0.17195721990E+04  0.10100000352E+00 0. -1.
</event>
<event>
 5   0  0.2904500E-09  0.3900609E+04  0.7818609E-02  0.8024903E-01
       -1   -1    0    0    0  501  0.00000000000E+00  0.00000000000E+00  0.25021846137E+04  0.25021846137E+04  0.50400001928E-02 0. -1.
        1   -1    0    0  501    0  0.00000000000E+00  0.00000000000E+00 -0.15201464033E+04  0.15201464033E+04  0.50400001928E-02 0.  1.
    10030    2    1    2    0    0  0.00000000000E+00  0.00000000000E+00  0.98203821042E+03  0.40223310170E+04  0.39006086402E+04 0.  0.
        3    1    3    3  502    0 -0.14299198569E+03  0.19282911557E+04  0.22824676980E+03  0.19470105514E+04  0.10100000352E+00 0.  1.
       -3    1    3    3    0  502  0.14299198569E+03 -0.19282911557E+04  0.75379144062E+03  0.20753204657E+04  0.10100000352E+00 0. -1.
</event>
<event>
 5   0  0.6335942E-09  0.3898674E+04  0.7818609E-02  0.8025305E-01
       -2   -1    0    0    0  501  0.00000000000E+00  0.00000000000E+00  0.18090617458E+04  0.18090617458E+04  0.25500000920E-02 0.  1.
        2   -1    0    0  501    0  0.00000000000E+00  0.00000000000E+00 -0.21004890852E+04  0.21004890852E+04  0.25500000920E-02 0. -1.
    10030    2    1    2    0    0  0.00000000000E+00  0.00000000000E+00 -0.29142733937E+03  0.39095508310E+04  0.38986738523E+04 0.  0.
        2    1    3    3  502    0 -0.17568264332E+04 -0.28179854252E+03 -0.94421716362E+03  0.20142977900E+04  0.25500000920E-02 0. -1.
       -2    1    3    3    0  502  0.17568264332E+04  0.28179854252E+03  0.65278982425E+03  0.18952530410E+04  0.25500000920E-02 0.  1.
</event>
<event>
 5   0  0.6335942E-09  0.3899626E+04  0.7818609E-02  0.8025107E-01
       -2   -1    0    0    0  501  0.00000000000E+00  0.00000000000E+00  0.19656729032E+04  0.19656729032E+04  0.25500000920E-02 0. -1.
        2   -1    0    0  501    0  0.00000000000E+00  0.00000000000E+00 -0.19340807066E+04  0.19340807066E+04  0.25500000920E-02 0.  1.
    10030    2    1    2    0    0  0.00000000000E+00  0.00000000000E+00  0.31592196633E+02  0.38997536098E+04  0.38996256423E+04 0.  0.
        2    1    3    3  502    0  0.16805770195E+03 -0.17307844857E+04  0.89781807434E+03  0.19570221311E+04  0.25500000920E-02 0. -1.
       -2    1    3    3    0  502 -0.16805770195E+03  0.17307844857E+04 -0.86622587771E+03  0.19427314787E+04  0.25500000920E-02 0.  1.
</event>
<event>
 5   0  0.9434114E-09  0.3899422E+04  0.7818609E-02  0.8025149E-01
       -2   -1    0    0    0  501  0.00000000000E+00  0.00000000000E+00  0.14237582492E+04  0.14237582492E+04  0.25500000920E-02 0. -1.
        2   -1    0    0  501    0  0.00000000000E+00  0.00000000000E+00 -0.26699564309E+04  0.26699564309E+04  0.25500000920E-02 0.  1.
    10030    2    1    2    0    0  0.00000000000E+00  0.00000000000E+00 -0.12461981817E+04  0.40937146801E+04  0.38994217487E+04 0.  0.
        4    1    3    3  502    0  0.14556562928E+03  0.51462223096E+03 -0.25914447539E+04  0.26460561065E+04  0.12699999809E+01 0.  1.
       -4    1    3    3    0  502 -0.14556562928E+03 -0.51462223096E+03  0.13452465722E+04  0.14476585737E+04  0.12699999809E+01 0. -1.
</event>
<event>
 5   0  0.2904500E-09  0.3900720E+04  0.7818609E-02  0.8024879E-01
       -1   -1    0    0    0  501  0.00000000000E+00  0.00000000000E+00  0.16010265656E+04  0.16010265657E+04  0.50400001928E-02 0. -1.
        1   -1    0    0  501    0  0.00000000000E+00  0.00000000000E+00 -0.23759161907E+04  0.23759161907E+04  0.50400001928E-02 0.  1.
    10030    2    1    2    0    0  0.00000000000E+00  0.00000000000E+00 -0.77488962504E+03  0.39769427564E+04  0.39007204150E+04 0.  0.
        2    1    3    3  502    0 -0.87744877449E+03 -0.51980084483E+03 -0.20823971199E+04  0.23187253040E+04  0.25500000920E-02 0.  1.
       -2    1    3    3    0  502  0.87744877449E+03  0.51980084483E+03  0.13075074949E+04  0.16582174524E+04  0.25500000920E-02 0. -1.
</event>
<event>
 5   0  0.2904500E-09  0.3899296E+04  0.7818609E-02  0.8025176E-01
        1   -1    0    0  501    0  0.00000000000E+00  0.00000000000E+00  0.18157166645E+04  0.18157166645E+04  0.50400001928E-02 0.  1.
       -1   -1    0    0    0  501  0.00000000000E+00  0.00000000000E+00 -0.20934588999E+04  0.20934588999E+04  0.50400001928E-02 0. -1.
    10030    2    1    2    0    0  0.00000000000E+00  0.00000000000E+00 -0.27774223546E+03  0.39091755644E+04  0.38992964550E+04 0.  0.
        3    1    3    3  502    0 -0.14096178077E+04  0.13053921360E+04  0.19371810068E+03  0.19309577171E+04  0.10100000352E+00 0.  1.
       -3    1    3    3    0  502  0.14096178077E+04 -0.13053921360E+04 -0.47146033614E+03  0.19782178473E+04  0.10100000352E+00 0. -1.
</event>
<event>
 5   0  0.2904500E-09  0.3900178E+04  0.7818609E-02  0.8024992E-01
       -1   -1    0    0    0  501  0.00000000000E+00  0.00000000000E+00  0.26050814478E+04  0.26050814478E+04  0.50400001928E-02 0.  1.
        1   -1    0    0  501    0  0.00000000000E+00  0.00000000000E+00 -0.14597803561E+04  0.14597803561E+04  0.50400001928E-02 0. -1.
    10030    2    1    2    0    0  0.00000000000E+00  0.00000000000E+00  0.11453010918E+04  0.40648618039E+04  0.39001778029E+04 0.  0.
        4    1    3    3  502    0  0.25850507678E+03  0.65453308543E+03 -0.13228255367E+04  0.14983682618E+04  0.12699999809E+01 0. -1.
       -4    1    3    3    0  502 -0.25850507678E+03 -0.65453308543E+03  0.24681266285E+04  0.25664935421E+04  0.12699999809E+01 0.  1.
</event>
<event>
 5   0  0.2904500E-09  0.3900212E+04  0.7818609E-02  0.8024985E-01
       -1   -1    0    0    0  501  0.00000000000E+00  0.00000000000E+00  0.21054081812E+04  0.21054081812E+04  0.50400001928E-02 0. -1.
        1   -1    0    0  501    0  0.00000000000E+00  0.00000000000E+00 -0.18062590730E+04  0.18062590730E+04  0.50400001928E-02 0.  1.
    10030    2    1    2    0    0  0.00000000000E+00  0.00000000000E+00  0.29914910814E+03  0.39116672542E+04  0.39002115992E+04 0.  0.
        2    1    3    3  502    0 -0.13098288036E+04 -0.24440618169E+03  0.15776693337E+04  0.20650487653E+04  0.25500000920E-02 0. -1.
       -2    1    3    3    0  502  0.13098288036E+04  0.24440618169E+03 -0.12785202256E+04  0.18466184889E+04  0.25500000920E-02 0.  1.
</event>
<event>
 5   0  0.2929054E-09  0.3898122E+04  0.7818609E-02  0.8025420E-01
       -1   -1    0    0    0  501  0.00000000000E+00  0.00000000000E+00  0.26001527724E+04  0.26001527724E+04  0.50400001928E-02 0. -1.
        1   -1    0    0  501    0  0.00000000000E+00  0.00000000000E+00 -0.14610057356E+04  0.14610057356E+04  0.50400001928E-02 0.  1.
    10030    2    1    2    0    0  0.00000000000E+00  0.00000000000E+00  0.11391470369E+04  0.40611585080E+04  0.38981216574E+04 0.  0.
        1    1    3    3  502    0 -0.49111142839E+03 -0.55547325513E+03 -0.13083413457E+04  0.15038277990E+04  0.50400001928E-02 0.  1.
       -1    1    3    3    0  502  0.49111142839E+03  0.55547325513E+03  0.24474883826E+04  0.25573307090E+04  0.50400001928E-02 0. -1.
</event>
<event>
 5   0  0.6335942E-09  0.3901114E+04  0.7818609E-02  0.8024798E-01
        2   -1    0    0  501    0  0.00000000000E+00  0.00000000000E+00  0.17298062943E+04  0.17298062943E+04  0.25500000920E-02 0.  1.
       -2   -1    0    0    0  501  0.00000000000E+00  0.00000000000E+00 -0.21994790214E+04  0.21994790215E+04  0.25500000920E-02 0. -1.
    10030    2    1    2    0    0  0.00000000000E+00  0.00000000000E+00 -0.46967272712E+03  0.39292853158E+04  0.39011140232E+04 0.  0.
        2    1    3    3  502    0  0.27940899207E+03  0.34262595971E+03 -0.21483477042E+04  0.21933672267E+04  0.25500000920E-02 0. -1.
       -2    1    3    3    0  502 -0.27940899207E+03 -0.34262595971E+03  0.16786749771E+04  0.17359180890E+04  0.25500000920E-02 0.  1.
</event>
<event>
 5   0  0.2904500E-09  0.3900125E+04  0.7818609E-02  0.8025003E-01
       -1   -1    0    0    0  501  0.00000000000E+00  0.00000000000E+00  0.19983405656E+04  0.19983405656E+04  0.50400001928E-02 0. -1.
        1   -1    0    0  501    0  0.00000000000E+00  0.00000000000E+00 -0.19029504162E+04  0.19029504162E+04  0.50400001928E-02 0.  1.
    10030    2    1    2    0    0  0.00000000000E+00  0.00000000000E+00  0.95390149395E+02  0.39012909819E+04  0.39001246191E+04 0.  0.
        2    1    3    3  502    0  0.14287967027E+04  0.18129488049E+03  0.13627802836E+04  0.19828005327E+04  0.25500000920E-02 0. -1.
       -2    1    3    3    0  502 -0.14287967027E+04 -0.18129488049E+03 -0.12673901342E+04  0.19184904492E+04  0.25500000920E-02 0.  1.
</event>
<event>
 5   0  0.6335942E-09  0.3898329E+04  0.7818609E-02  0.8025377E-01
       -2   -1    0    0    0  501  0.00000000000E+00  0.00000000000E+00  0.15451556524E+04  0.15451556524E+04  0.25500000920E-02 0.  1.
        2   -1    0    0  501    0  0.00000000000E+00  0.00000000000E+00 -0.24588091360E+04  0.24588091360E+04  0.25500000920E-02 0. -1.
    10030    2    1    2    0    0  0.00000000000E+00  0.00000000000E+00 -0.91365348368E+03  0.40039647884E+04  0.38983293009E+04 0.  0.
        2    1    3    3  502    0 -0.12362377849E+04  0.58610612591E+03 -0.18827692032E+04  0.23273642010E+04  0.25500000920E-02 0. -1.
       -2    1    3    3    0  502  0.12362377849E+04 -0.58610612591E+03  0.96911571953E+03  0.16766005874E+04  0.25500000920E-02 0.  1.
</event>
<event>
 5   0  0.2904500E-09  0.3899614E+04  0.7818609E-02  0.8025110E-01
       -1   -1    0    0    0  501  0.00000000000E+00  0.00000000000E+00  0.18630871232E+04  0.18630871232E+04  0.50400001928E-02 0. -1.
        1   -1    0    0  501    0  0.00000000000E+00  0.00000000000E+00 -0.20405630401E+04  0.20405630401E+04  0.50400001928E-02 0.  1.
    10030    2    1    2    0    0  0.00000000000E+00  0.00000000000E+00 -0.17747591699E+03  0.39036501633E+04  0.38996136855E+04 0.  0.
        4    1    3    3  502    0 -0.13320624339E+04  0.11373850690E+04 -0.94619331943E+03  0.19908085126E+04  0.12699999809E+01 0.  1.
       -4    1    3    3    0  502  0.13320624339E+04 -0.11373850690E+04  0.76871740244E+03  0.19128416507E+04  0.12699999809E+01 0. -1.
</event>
<event>
 5   0  0.2904500E-09  0.3900742E+04  0.7818609E-02  0.8024875E-01
        1   -1    0    0  501    0  0.00000000000E+00  0.00000000000E+00  0.16304529336E+04  0.16304529336E+04  0.50400001928E-02 0.  1.
       -1   -1    0    0    0  501  0.00000000000E+00  0.00000000000E+00 -0.23330612734E+04  0.23330612734E+04  0.50400001928E-02 0. -1.
    10030    2    1    2    0    0  0.00000000000E+00  0.00000000000E+00 -0.70260833979E+03  0.39635142071E+04  0.39007417744E+04 0.  0.
        3    1    3    3  502    0  0.18924883585E+04  0.27872084462E+03  0.35277396031E+02  0.19132281623E+04  0.10100000352E+00 0. -1.
       -3    1    3    3    0  502 -0.18924883585E+04 -0.27872084462E+03 -0.73788573582E+03  0.20502860448E+04  0.10100000352E+00 0.  1.
</event>
<event>
 5   0  0.6335942E-09  0.3904191E+04  0.7818609E-02  0.8024158E-01
        2   -1    0    0  501    0  0.00000000000E+00  0.00000000000E+00  0.21033537880E+04  0.21033537880E+04  0.25500000920E-02 0.  1.
       -2   -1    0    0    0  501  0.00000000000E+00  0.00000000000E+00 -0.18117147808E+04  0.18117147808E+04  0.25500000920E-02 0. -1.
    10030    2    1    2    0    0  0.00000000000E+00  0.00000000000E+00  0.29163900724E+03  0.39150685688E+04  0.39041911567E+04 0.  0.
        2    1    3    3  502    0  0.50529387852E+03  0.17312522005E+04 -0.60333691560E+03  0.19017285608E+04  0.25500000920E-02 0. -1.
       -2    1    3    3    0  502 -0.50529387852E+03 -0.17312522005E+04  0.89497592284E+03  0.20133400080E+04  0.25500000920E-02 0.  1.
</event>
<event>
 5   0  0.9277261E-09  0.3897487E+04  0.7818609E-02  0.8025552E-01
        2   -1    0    0  501    0  0.00000000000E+00  0.00000000000E+00  0.21595041254E+04  0.21595041254E+04  0.25500000920E-02 0.  1.
       -2   -1    0    0    0  501  0.00000000000E+00  0.00000000000E+00 -0.17585520516E+04  0.17585520516E+04  0.25500000920E-02 0. -1.
    10030    2    1    2    0    0  0.00000000000E+00  0.00000000000E+00  0.40095207385E+03  0.39180561770E+04  0.38974865799E+04 0.  0.
        1    1    3    3  502    0 -0.14858899224E+04  0.35846235824E+03  0.14156718214E+04  0.20833844652E+04  0.50400001928E-02 0.  1.
       -1    1    3    3    0  502  0.14858899224E+04 -0.35846235824E+03 -0.10147197476E+04  0.18346717118E+04  0.50400001928E-02 0. -1.
</event>
<event>
 5   0  0.9078515E-09  0.3898741E+04  0.7818609E-02  0.8025291E-01
        2   -1    0    0  501    0  0.00000000000E+00  0.00000000000E+00  0.25241631030E+04  0.25241631030E+04  0.25500000920E-02 0. -1.
       -2   -1    0    0    0  501  0.00000000000E+00  0.00000000000E+00 -0.15054675934E+04  0.15054675934E+04  0.25500000920E-02 0.  1.
    10030    2    1    2    0    0  0.00000000000E+00  0.00000000000E+00  0.10186955096E+04  0.40296306964E+04  0.38987412082E+04 0.  0.
        3    1    3    3  502    0  0.11296149973E+04  0.10309269646E+04  0.17587332399E+04  0.23306615086E+04  0.10100000352E+00 0. -1.
       -3    1    3    3    0  502 -0.11296149973E+04 -0.10309269646E+04 -0.74003773032E+03  0.16989691878E+04  0.10100000352E+00 0.  1.
</event>
<event>
 5   0  0.2904500E-09  0.3900645E+04  0.7818609E-02  0.8024895E-01
        1   -1    0    0  501    0  0.00000000000E+00  0.00000000000E+00  0.14198835555E+04  0.14198835555E+04  0.50400001928E-02 0.  1.
       -1   -1    0    0    0  501  0.00000000000E+00  0.00000000000E+00 -0.26789220303E+04  0.26789220303E+04  0.50400001928E-02 0. -1.
    10030    2    1    2    0    0  0.00000000000E+00  0.00000000000E+00 -0.12590384748E+04  0.40988055858E+04  0.39006447351E+04 0.  0.
        2    1    3    3  502    0  0.11763100754E+04  0.98384633990E+03  0.63672923419E+03  0.16604466663E+04  0.25500000920E-02 0.  1.
       -2    1    3    3    0  502 -0.11763100754E+04 -0.98384633990E+03 -0.18957677090E+04  0.24383589195E+04  0.25500000920E-02 0. -1.
</event>
<event>
 5   0  0.2929054E-09  0.3900800E+04  0.7818609E-02  0.8024863E-01
        1   -1    0    0  501    0  0.00000000000E+00  0.00000000000E+00  0.15707525685E+04  0.15707525685E+04  0.50400001928E-02 0.  1.
       -1   -1    0    0    0  501  0.00000000000E+00  0.00000000000E+00 -0.24218072384E+04  0.24218072384E+04  0.50400001928E-02 0. -1.
    10030    2    1    2    0    0  0.00000000000E+00  0.00000000000E+00 -0.85105466988E+03  0.39925598068E+04  0.39007998872E+04 0.  0.
        1    1    3    3  502    0 -0.30998894516E+03  0.15829290514E+04  0.69676143762E+03  0.17570526540E+04  0.50400001928E-02 0.  1.
       -1    1    3    3    0  502  0.30998894516E+03 -0.15829290514E+04 -0.15478161075E+04  0.22355071529E+04  0.50400001928E-02 0. -1.
</event>
<event>
 5   0  0.2904500E-09  0.3887339E+04  0.7818609E-02  0.8027668E-01
       -1   -1    0    0    0  501  0.00000000000E+00  0.00000000000E+00  0.19484247625E+04  0.19484247625E+04  0.50400001928E-02 0.  1.
        1   -1    0    0  501    0  0.00000000000E+00  0.00000000000E+00 -0.19389257966E+04  0.19389257966E+04  0.50400001928E-02 0. -1.
    10030    2    1    2    0    0  0.00000000000E+00  0.00000000000E+00  0.94989659050E+01  0.38873505591E+04  0.38873389534E+04 0.  0.
        3    1    3    3  502    0  0.11186541502E+04  0.90637179187E+03 -0.13009933217E+04  0.19404846215E+04  0.10100000352E+00 0. -1.
       -3    1    3    3    0  502 -0.11186541502E+04 -0.90637179187E+03  0.13104922876E+04  0.19468659376E+04  0.10100000352E+00 0.  1.
</event>
<event>
 5   0  0.9277261E-09  0.3901044E+04  0.7818609E-02  0.8024812E-01
       -2   -1    0    0    0  501  0.00000000000E+00  0.00000000000E+00  0.16574029534E+04  0.16574029534E+04  0.25500000920E-02 0. -1.
        2   -1    0    0  501    0  0.00000000000E+00  0.00000000000E+00 -0.22954805227E+04  0.22954805227E+04  0.25500000920E-02 0.  1.
    10030    2    1    2    0    0  0.00000000000E+00  0.00000000000E+00 -0.63807756935E+03  0.39528834761E+04  0.39010440642E+04 0.  0.
        1    1    3    3  502    0 -0.18364271049E+04  0.37431050843E+03  0.22847783936E+03  0.18880611726E+04  0.50400001928E-02 0. -1.
       -1    1    3    3    0  502  0.18364271049E+04 -0.37431050843E+03 -0.86655540871E+03  0.20648223034E+04  0.50400001928E-02 0.  1.
</event>
<event>
 5   0  0.6335942E-09  0.3895679E+04  0.7818609E-02  0.8025928E-01
       -2   -1    0    0    0  501  0.00000000000E+00  0.00000000000E+00  0.31409468932E+04  0.31409468932E+04  0.25500000920E-02 0.  1.
        2   -1    0    0  501    0  0.00000000000E+00  0.00000000000E+00 -0.12079412537E+04  0.12079412537E+04  0.25500000920E-02 0. -1.
    10030    2    1    2    0    0  0.00000000000E+00  0.00000000000E+00  0.19330056394E+04  0.43488881469E+04  0.38956793133E+04 0.  0.
        2    1    3    3  502    0 -0.49583246861E+02 -0.76862531770E+03 -0.10307210448E+04  0.12867125746E+04  0.25500000920E-02 0. -1.
       -2    1    3    3    0  502  0.49583246861E+02  0.76862531770E+03  0.29637266842E+04  0.30621755724E+04  0.25500000920E-02 0.  1.
</event>
<event>
 5   0  0.9368546E-09  0.3900041E+04  0.7818609E-02  0.8025021E-01
        2   -1    0    0  501    0  0.00000000000E+00  0.00000000000E+00  0.23125364830E+04  0.23125364830E+04  0.25500000920E-02 0. -1.
       -2   -1    0    0    0  501  0.00000000000E+00  0.00000000000E+00 -0.16443325722E+04  0.16443325722E+04  0.25500000920E-02 0.  1.
    10030    2    1    2    0    0  0.00000000000E+00  0.00000000000E+00  0.66820391077E+03  0.39568690552E+04  0.39000405452E+04 0.  0.
        5    1    3    3  502    0 -0.55835329094E+02 -0.11024984077E+04 -0.12967836043E+04  0.17030238194E+04  0.46999998093E+01 0.  1.
       -5    1    3    3    0  502  0.55835329094E+02  0.11024984077E+04  0.19649875150E+04  0.22538452359E+04  0.46999998093E+01 0. -1.
</event>
<event>
 5   0  0.9368546E-09  0.3902097E+04  0.7818609E-02  0.8024593E-01
        2   -1    0    0  501    0  0.00000000000E+00  0.00000000000E+00  0.25910888176E+04  0.25910888176E+04  0.25500000920E-02 0.  1.
       -2   -1    0    0    0  501  0.00000000000E+00  0.00000000000E+00 -0.14691082723E+04  0.14691082723E+04  0.25500000920E-02 0. -1.
    10030    2    1    2    0    0  0.00000000000E+00  0.00000000000E+00  0.11219805453E+04  0.40601970899E+04  0.39020968805E+04 0.  0.
        5    1    3    3  502    0  0.49256892889E+03  0.13857248004E+04 -0.77302788117E+03  0.16614606728E+04  0.46999998093E+01 0. -1.
       -5    1    3    3    0  502 -0.49256892889E+03 -0.13857248004E+04  0.18950084264E+04  0.23987364170E+04  0.46999998093E+01 0.  1.
</event>
<event>
 5   0  0.9434114E-09  0.3900853E+04  0.7818609E-02  0.8024852E-01
       -2   -1    0    0    0  501  0.00000000000E+00  0.00000000000E+00  0.27881943587E+04  0.27881943587E+04  0.25500000920E-02 0.  1.
        2   -1    0    0  501    0  0.00000000000E+00  0.00000000000E+00 -0.13643827216E+04  0.13643827216E+04  0.25500000920E-02 0. -1.
    10030    2    1    2    0    0  0.00000000000E+00  0.00000000000E+00  0.14238116371E+04  0.41525770803E+04  0.39008533463E+04 0.  0.
        4    1    3    3  502    0 -0.17246781815E+03 -0.11096517497E+04  0.24095199512E+04  0.26583566657E+04  0.12699999809E+01 0.  1.
       -4    1    3    3    0  502  0.17246781815E+03  0.11096517497E+04 -0.98570831413E+03  0.14942204146E+04  0.12699999809E+01 0. -1.
</event>
<event>
 5   0  0.2904500E-09  0.3898982E+04  0.7818609E-02  0.8025241E-01
        1   -1    0    0  501    0  0.00000000000E+00  0.00000000000E+00  0.10778236732E+04  0.10778236732E+04  0.50400001928E-02 0. -1.
       -1   -1    0    0    0  501  0.00000000000E+00  0.00000000000E+00 -0.35261005468E+04  0.35261005468E+04  0.50400001928E-02 0.  1.
    10030    2    1    2    0    0  0.00000000000E+00  0.00000000000E+00 -0.24482768736E+04  0.46039242200E+04  0.38989817355E+04 0.  0.
        3    1    3    3  502    0 -0.84729857826E+03  0.60388341913E+03  0.72254648728E+03  0.12667531334E+04  0.10100000352E+00 0. -1.
       -3    1    3    3    0  502  0.84729857826E+03 -0.60388341913E+03 -0.31708233609E+04  0.33371710865E+04  0.10100000352E+00 0.  1.
</event>
<event>
 5   0  0.9277261E-09  0.3899546E+04  0.7818609E-02  0.8025124E-01
        2   -1    0    0  501    0  0.00000000000E+00  0.00000000000E+00  0.13800922766E+04  0.13800922766E+04  0.25500000920E-02 0.  1.
       -2   -1    0    0    0  501  0.00000000000E+00  0.00000000000E+00 -0.27546093250E+04  0.27546093250E+04  0.25500000920E-02 0. -1.
    10030    2    1    2    0    0  0.00000000000E+00  0.00000000000E+00 -0.13745170484E+04  0.41347016016E+04  0.38995461554E+04 0.  0.
        1    1    3    3  502    0  0.18271537661E+04  0.48598042082E+03 -0.11923761484E+04  0.22352692754E+04  0.50400001928E-02 0.  1.
       -1    1    3    3    0  502 -0.18271537661E+04 -0.48598042082E+03 -0.18214089997E+03  0.18994323262E+04  0.50400001928E-02 0. -1.
</event>
<event>
 5   0  0.9368546E-09  0.3899649E+04  0.7818609E-02  0.8025102E-01
       -2   -1    0    0    0  501  0.00000000000E+00  0.00000000000E+00  0.15626413511E+04  0.15626413511E+04  0.25500000920E-02 0. -1.
        2   -1    0    0  501    0  0.00000000000E+00  0.00000000000E+00 -0.24329422187E+04  0.24329422187E+04  0.25500000920E-02 0.  1.
    10030    2    1    2    0    0  0.00000000000E+00  0.00000000000E+00 -0.87030086764E+03  0.39955835698E+04  0.38996492744E+04 0.  0.
        5    1    3    3  502    0  0.92326047396E+03  0.16542678590E+04 -0.90778130524E+03  0.21007382132E+04  0.46999998093E+01 0.  1.
       -5    1    3    3    0  502 -0.92326047396E+03 -0.16542678590E+04  0.37480437600E+02  0.18948453566E+04  0.46999998093E+01 0. -1.
</event>
<event>
 5   0  0.2904500E-09  0.3902690E+04  0.7818609E-02  0.8024470E-01
        1   -1    0    0  501    0  0.00000000000E+00  0.00000000000E+00  0.19400965479E+04  0.19400965479E+04  0.50400001928E-02 0. -1.
       -1   -1    0    0    0  501  0.00000000000E+00  0.00000000000E+00 -0.19626582211E+04  0.19626582211E+04  0.50400001928E-02 0.  1.
    10030    2    1    2    0    0  0.00000000000E+00  0.00000000000E+00 -0.22561673234E+02  0.39027547691E+04  0.39026895544E+04 0.  0.
        2    1    3    3  502    0  0.20200860276E+03  0.35514540152E+03 -0.19194035753E+04  0.19624081677E+04  0.25500000920E-02 0.  1.
       -2    1    3    3    0  502 -0.20200860276E+03 -0.35514540152E+03  0.18968419021E+04  0.19403466013E+04  0.25500000920E-02 0. -1.
</event>
<event>
 5   0  0.9434114E-09  0.3897870E+04  0.7818609E-02  0.8025472E-01
        2   -1    0    0  501    0  0.00000000000E+00  0.00000000000E+00  0.20303083501E+04  0.20303083501E+04  0.25500000920E-02 0. -1.
       -2   -1    0    0    0  501  0.00000000000E+00  0.00000000000E+00 -0.18708226664E+04  0.18708226664E+04  0.25500000920E-02 0.  1.
    10030    2    1    2    0    0  0.00000000000E+00  0.00000000000E+00  0.15948568372E+03  0.39011310165E+04  0.38978696136E+04 0.  0.
        4    1    3    3  502    0 -0.11681403727E+04  0.91306348392E+03  0.13457551638E+04  0.20023225089E+04  0.12699999809E+01 0. -1.
       -4    1    3    3    0  502  0.11681403727E+04 -0.91306348392E+03 -0.11862694800E+04  0.18988085075E+04  0.12699999809E+01 0.  1.
</event>
<event>
 5   0  0.6335942E-09  0.3898518E+04  0.7818609E-02  0.8025338E-01
       -2   -1    0    0    0  501  0.00000000000E+00  0.00000000000E+00  0.21686901014E+04  0.21686901014E+04  0.25500000920E-02 0.  1.
        2   -1    0    0  501    0  0.00000000000E+00  0.00000000000E+00 -0.17520302211E+04  0.17520302211E+04  0.25500000920E-02 0. -1.
    10030    2    1    2    0    0  0.00000000000E+00  0.00000000000E+00  0.41665988025E+03  0.39207203225E+04  0.38985179737E+04 0.  0.
        2    1    3    3  502    0  0.12311960510E+04  0.15095917128E+04  0.13793313397E+03  0.19528790041E+04  0.25500000920E-02 0. -1.
       -2    1    3    3    0  502 -0.12311960510E+04 -0.15095917128E+04  0.27872674628E+03  0.19678413184E+04  0.25500000920E-02 0.  1.
</event>
<event>
 5   0  0.2904500E-09  0.3900478E+04  0.7818609E-02  0.8024930E-01
        1   -1    0    0  501    0  0.00000000000E+00  0.00000000000E+00  0.12967768733E+04  0.12967768733E+04  0.50400001928E-02 0. -1.
       -1   -1    0    0    0  501  0.00000000000E+00  0.00000000000E+00 -0.29329894876E+04  0.29329894877E+04  0.50400001928E-02 0.  1.
    10030    2    1    2    0    0  0.00000000000E+00  0.00000000000E+00 -0.16362126143E+04  0.42297663610E+04  0.39004784000E+04 0.  0.
        5    1    3    3  502    0 -0.65791807012E+03 -0.19877273071E+02 -0.28088884334E+04  0.28849831221E+04  0.46999998093E+01 0.  1.
       -5    1    3    3    0  502  0.65791807012E+03  0.19877273071E+02  0.11726758191E+04  0.13447832389E+04  0.46999998093E+01 0. -1.
</event>
<event>
 5   0  0.9078515E-09  0.3899535E+04  0.7818609E-02  0.8025126E-01
       -2   -1    0    0    0  501  0.00000000000E+00  0.00000000000E+00  0.23957883055E+04  0.23957883055E+04  0.25500000920E-02 0. -1.
        2   -1    0    0  501    0  0.00000000000E+00  0.00000000000E+00 -0.15867816023E+04  0.15867816023E+04  0.25500000920E-02 0.  1.
    10030    2    1    2    0    0  0.00000000000E+00  0.00000000000E+00  0.80900670324E+03  0.39825699078E+04  0.38995347446E+04 0.  0.
        3    1    3    3  502    0 -0.70534137826E+03  0.10255075491E+04  0.19372675904E+04  0.23026458521E+04  0.10100000352E+00 0. -1.
       -3    1    3    3    0  502  0.70534137826E+03 -0.10255075491E+04 -0.11282608872E+04  0.16799240557E+04  0.10100000352E+00 0.  1.
</event>
<event>
 5   0  0.6335942E-09  0.3899767E+04  0.7818609E-02  0.8025078E-01
       -2   -1    0    0    0  501  0.00000000000E+00  0.00000000000E+00  0.18726205829E+04  0.18726205829E+04  0.25500000920E-02 0. -1.
        2   -1    0    0  501    0  0.00000000000E+00  0.00000000000E+00 -0.20303340431E+04  0.20303340431E+04  0.25500000920E-02 0.  1.
    10030    2    1    2    0    0  0.00000000000E+00  0.00000000000E+00 -0.15771346025E+03  0.39029546260E+04  0.38997668234E+04 0.  0.
        2    1    3    3  502    0  0.86742799453E+03  0.25700204382E+03  0.16498548337E+04  0.18816222651E+04  0.25500000920E-02 0. -1.
       -2    1    3    3    0  502 -0.86742799453E+03 -0.25700204382E+03 -0.18075682939E+04  0.20213323609E+04  0.25500000920E-02 0.  1.
</event>
<event>
 5   0  0.9368546E-09  0.3897707E+04  0.7818609E-02  0.8025506E-01
        2   -1    0    0  501    0  0.00000000000E+00  0.00000000000E+00  0.15639417042E+04  0.15639417042E+04  0.25500000920E-02 0. -1.
       -2   -1    0    0    0  501  0.00000000000E+00  0.00000000000E+00 -0.24284979203E+04  0.24284979203E+04  0.25500000920E-02 0.  1.
    10030    2    1    2    0    0  0.00000000000E+00  0.00000000000E+00 -0.86455621613E+03  0.39924396245E+04  0.38977065955E+04 0.  0.
        5    1    3    3  502    0  0.52753221656E+03 -0.17943764758E+04  0.12869120144E+03  0.18747428335E+04  0.46999998093E+01 0. -1.
       -5    1    3    3    0  502 -0.52753221656E+03  0.17943764758E+04 -0.99324741757E+03  0.21176967911E+04  0.46999998093E+01 0.  1.
</event>
<event>
 5   0  0.2904500E-09  0.3902493E+04  0.7818609E-02  0.8024511E-01
        1   -1    0    0  501    0  0.00000000000E+00  0.00000000000E+00  0.22640623128E+04  0.22640623128E+04  0.50400001928E-02 0.  1.
       -1   -1    0    0    0  501  0.00000000000E+00  0.00000000000E+00 -0.16816509567E+04  0.16816509568E+04  0.50400001928E-02 0. -1.
    10030    2    1    2    0    0  0.00000000000E+00  0.00000000000E+00  0.58241135600E+03  0.39457132695E+04  0.39024928210E+04 0.  0.
        3    1    3    3  502    0  0.26457307971E+03 -0.12067635658E+04 -0.12358475484E+04  0.17474542602E+04  0.10100000352E+00 0. -1.
       -3    1    3    3    0  502 -0.26457307971E+03  0.12067635658E+04  0.18182589044E+04  0.21982590093E+04  0.10100000352E+00 0.  1.
</event>
<event>
 5   0  0.9277261E-09  0.3906624E+04  0.7818609E-02  0.8023653E-01
       -2   -1    0    0    0  501  0.00000000000E+00  0.00000000000E+00  0.15792935014E+04  0.15792935014E+04  0.25500000920E-02 0.  1.
        2   -1    0    0  501    0  0.00000000000E+00  0.00000000000E+00 -0.24159075397E+04  0.24159075397E+04  0.25500000920E-02 0. -1.
    10030    2    1    2    0    0  0.00000000000E+00  0.00000000000E+00 -0.83661403828E+03  0.39952010412E+04  0.39066236459E+04 0.  0.
        1    1    3    3  502    0  0.82560533956E+03  0.15512949068E+04  0.45384056075E+03  0.18149686827E+04  0.50400001928E-02 0.  1.
       -1    1    3    3    0  502 -0.82560533956E+03 -0.15512949068E+04 -0.12904545990E+04  0.21802323584E+04  0.50400001928E-02 0. -1.
</event>
<event>
 5   0  0.2904500E-09  0.3898853E+04  0.7818609E-02  0.8025268E-01
        1   -1    0    0  501    0  0.00000000000E+00  0.00000000000E+00  0.27524780732E+04  0.27524780732E+04  0.50400001928E-02 0. -1.
       -1   -1    0    0    0  501  0.00000000000E+00  0.00000000000E+00 -0.13806697358E+04  0.13806697358E+04  0.50400001928E-02 0.  1.
    10030    2    1    2    0    0  0.00000000000E+00  0.00000000000E+00  0.13718083374E+04  0.41331478091E+04  0.38988527411E+04 0.  0.
        3    1    3    3  502    0 -0.17280693272E+04 -0.90101875572E+03  0.63612755051E+03  0.20500528453E+04  0.10100000352E+00 0.  1.
       -3    1    3    3    0  502  0.17280693272E+04  0.90101875572E+03  0.73568078693E+03  0.20830949638E+04  0.10100000352E+00 0. -1.
</event>
<event>
 5   0  0.6335942E-09  0.3901609E+04  0.7818609E-02  0.8024695E-01
        2   -1    0    0  501    0  0.00000000000E+00  0.00000000000E+00  0.21231121102E+04  0.21231121102E+04  0.25500000920E-02 0.  1.
       -2   -1    0    0    0  501  0.00000000000E+00  0.00000000000E+00 -0.17924806584E+04  0.17924806584E+04  0.25500000920E-02 0. -1.
    10030    2    1    2    0    0  0.00000000000E+00  0.00000000000E+00  0.33063145183E+03  0.39155927687E+04  0.39016085879E+04 0.  0.
        2    1    3    3  502    0 -0.16498249001E+04  0.14875756742E+03 -0.86871034298E+03  0.18704835404E+04  0.25500000920E-02 0. -1.
       -2    1    3    3    0  502  0.16498249001E+04 -0.14875756742E+03  0.11993417948E+04  0.20451092283E+04  0.25500000920E-02 0.  1.
</event>
<event>
 5   0  0.9277261E-09  0.3899655E+04  0.7818609E-02  0.8025101E-01
       -2   -1    0    0    0  501  0.00000000000E+00  0.00000000000E+00  0.13603154563E+04  0.13603154563E+04  0.25500000920E-02 0.  1.
        2   -1    0    0  501    0  0.00000000000E+00  0.00000000000E+00 -0.27948128213E+04  0.27948128213E+04  0.25500000920E-02 0. -1.
    10030    2    1    2    0    0  0.00000000000E+00  0.00000000000E+00 -0.14344973650E+04  0.41551282776E+04  0.38996548967E+04 0.  0.
        1    1    3    3  502    0 -0.89669312305E+02 -0.15505084731E+04 -0.19733374926E+04  0.25112104592E+04  0.50400001928E-02 0. -1.
       -1    1    3    3    0  502  0.89669312305E+02  0.15505084731E+04  0.53884012762E+03  0.16439178184E+04  0.50400001928E-02 0.  1.
</event>
<event>
 5   0  0.9277261E-09  0.3904179E+04  0.7818609E-02  0.8024161E-01
       -2   -1    0    0    0  501  0.00000000000E+00  0.00000000000E+00  0.15112482368E+04  0.15112482368E+04  0.25500000920E-02 0.  1.
        2   -1    0    0  501    0  0.00000000000E+00  0.00000000000E+00 -0.25215268799E+04  0.25215268799E+04  0.25500000920E-02 0. -1.
    10030    2    1    2    0    0  0.00000000000E+00  0.00000000000E+00 -0.10102786431E+04  0.40327751167E+04  0.39041788132E+04 0.  0.
        1    1    3    3  502    0  0.12393178118E+04 -0.14145576417E+04 -0.10456049725E+04  0.21517833810E+04  0.50400001928E-02 0. -1.
       -1    1    3    3    0  502 -0.12393178118E+04  0.14145576417E+04  0.35326329449E+02  0.18809917357E+04  0.50400001928E-02 0.  1.
</event>
<event>
 5   0  0.9078515E-09  0.3899498E+04  0.7818609E-02  0.8025134E-01
        2   -1    0    0  501    0  0.00000000000E+00  0.00000000000E+00  0.26314814192E+04  0.26314814192E+04  0.25500000920E-02 0. -1.
       -2   -1    0    0    0  501  0.00000000000E+00  0.00000000000E+00 -0.14446317339E+04  0.14446317339E+04  0.25500000920E-02 0.  1.
    10030    2    1    2    0    0  0.00000000000E+00  0.00000000000E+00  0.11868496853E+04  0.40761131532E+04  0.38994982064E+04 0.  0.
        3    1    3    3  502    0  0.10732633033E+04 -0.76244521610E+03  0.20967217678E+04  0.24757744258E+04  0.10100000352E+00 0. -1.
       -3    1    3    3    0  502 -0.10732633033E+04  0.76244521610E+03 -0.90987208245E+03  0.16003387274E+04  0.10100000352E+00 0.  1.
</event>
<event>
 5   0  0.2904500E-09  0.3902245E+04  0.7818609E-02  0.8024562E-01
       -1   -1    0    0    0  501  0.00000000000E+00  0.00000000000E+00  0.21358290879E+04  0.21358290879E+04  0.50400001928E-02 0.  1.
        1   -1    0    0  501    0  0.00000000000E+00  0.00000000000E+00 -0.17823897011E+04  0.17823897011E+04  0.50400001928E-02 0. -1.
    10030    2    1    2    0    0  0.00000000000E+00  0.00000000000E+00  0.35343938677E+03  0.39182187890E+04  0.39022453893E+04 0.  0.
        2    1    3    3  502    0  0.19067443841E+04  0.33708033410E+03 -0.64226049810E+02  0.19373751014E+04  0.25500000920E-02 0. -1.
       -2    1    3    3    0  502 -0.19067443841E+04 -0.33708033410E+03  0.41766543658E+03  0.19808436876E+04  0.25500000920E-02 0.  1.
</event>
<event>
 5   0  0.2904500E-09  0.3898422E+04  0.7818609E-02  0.8025357E-01
       -1   -1    0    0    0  501  0.00000000000E+00  0.00000000000E+00  0.17456692658E+04  0.17456692658E+04  0.50400001928E-02 0.  1.
        1   -1    0    0  501    0  0.00000000000E+00  0.00000000000E+00 -0.21764856501E+04  0.21764856501E+04  0.50400001928E-02 0. -1.
    10030    2    1    2    0    0  0.00000000000E+00  0.00000000000E+00 -0.43081638427E+03  0.39221549160E+04  0.38984222998E+04 0.  0.
        3    1    3    3  502    0 -0.59855726416E+03  0.71196686461E+03 -0.19388034634E+04  0.21503782213E+04  0.10100000352E+00 0. -1.
       -3    1    3    3    0  502  0.59855726416E+03 -0.71196686461E+03  0.15079870791E+04  0.17717766947E+04  0.10100000352E+00 0.  1.
</event>
<event>
 5   0  0.9434114E-09  0.3899920E+04  0.7818609E-02  0.8025046E-01
       -2   -1    0    0    0  501  0.00000000000E+00  0.00000000000E+00  0.31712902697E+04  0.31712902697E+04  0.25500000920E-02 0.  1.
        2   -1    0    0  501    0  0.00000000000E+00  0.00000000000E+00 -0.11989894059E+04  0.11989894059E+04  0.25500000920E-02 0. -1.
    10030    2    1    2    0    0  0.00000000000E+00  0.00000000000E+00  0.19723008638E+04  0.43702796755E+04  0.38999197101E+04 0.  0.
        4    1    3    3  502    0  0.94521007397E+02 -0.99698917649E+03  0.28610914458E+04  0.30312979914E+04  0.12699999809E+01 0.  1.
       -4    1    3    3    0  502 -0.94521007397E+02  0.99698917649E+03 -0.88879058198E+03  0.13389816841E+04  0.12699999809E+01 0. -1.
</event>
<event>
 5   0  0.2904500E-09  0.3900293E+04  0.7818609E-02  0.8024968E-01
        1   -1    0    0  501    0  0.00000000000E+00  0.00000000000E+00  0.16511092815E+04  0.16511092815E+04  0.50400001928E-02 0.  1.
       -1   -1    0    0    0  501  0.00000000000E+00  0.00000000000E+00 -0.23033437335E+04  0.23033437335E+04  0.50400001928E-02 0. -1.
    10030    2    1    2    0    0  0.00000000000E+00  0.00000000000E+00 -0.65223445202E+03  0.39544530150E+04  0.39002934335E+04 0.  0.
        4    1    3    3  502    0 -0.44995027377E+03 -0.41217069598E+03  0.15518259659E+04  0.16674847444E+04  0.12699999809E+01 0.  1.
       -4    1    3    3    0  502  0.44995027377E+03  0.41217069598E+03 -0.22040604180E+04  0.22869682705E+04  0.12699999809E+01 0. -1.
</event>
<event>
 5   0  0.2929054E-09  0.3892608E+04  0.7818609E-02  0.8026568E-01
       -1   -1    0    0    0  501  0.00000000000E+00  0.00000000000E+00  0.23089754058E+04  0.23089754058E+04  0.50400001928E-02 0.  1.
        1   -1    0    0  501    0  0.00000000000E+00  0.00000000000E+00 -0.16405977886E+04  0.16405977886E+04  0.50400001928E-02 0. -1.
    10030    2    1    2    0    0  0.00000000000E+00  0.00000000000E+00  0.66837761716E+03  0.39495731944E+04  0.38926083516E+04 0.  0.
        1    1    3    3  502    0 -0.39554327945E+03  0.22288110938E+03 -0.15861170043E+04  0.16498174524E+04  0.50400001928E-02 0. -1.
       -1    1    3    3    0  502  0.39554327945E+03 -0.22288110938E+03  0.22544946214E+04  0.22997557420E+04  0.50400001928E-02 0.  1.
</event>
<event>
 5   0  0.9277261E-09  0.3905366E+04  0.7818609E-02  0.8023914E-01
        2   -1    0    0  501    0  0.00000000000E+00  0.00000000000E+00  0.21642108097E+04  0.21642108097E+04  0.25500000920E-02 0. -1.
       -2   -1    0    0    0  501  0.00000000000E+00  0.00000000000E+00 -0.17618296568E+04  0.17618296568E+04  0.25500000920E-02 0.  1.
    10030    2    1    2    0    0  0.00000000000E+00  0.00000000000E+00  0.40238115293E+03  0.39260404665E+04  0.39053659434E+04 0.  0.
        1    1    3    3  502    0  0.96446011175E+03 -0.10783555740E+04  0.15195968878E+04  0.20981441211E+04  0.50400001928E-02 0. -1.
       -1    1    3    3    0  502 -0.96446011175E+03  0.10783555740E+04 -0.11172157349E+04  0.18278963454E+04  0.50400001928E-02 0.  1.
</event>
<event>
 5   0  0.2904500E-09  0.3919150E+04  0.7818609E-02  0.8021058E-01
       -1   -1    0    0    0  501  0.00000000000E+00  0.00000000000E+00  0.21673700010E+04  0.21673700010E+04  0.50400001928E-02 0. -1.
        1   -1    0    0  501    0  0.00000000000E+00  0.00000000000E+00 -0.17717023040E+04  0.17717023040E+04  0.50400001928E-02 0.  1.
    10030    2    1    2    0    0  0.00000000000E+00  0.00000000000E+00  0.39566769695E+03  0.39390723050E+04  0.39191501244E+04 0.  0.
        5    1    3    3  502    0  0.16537920450E+04  0.10266612314E+04 -0.28813931394E+02  0.19467700801E+04  0.46999998093E+01 0. -1.
       -5    1    3    3    0  502 -0.16537920450E+04 -0.10266612314E+04  0.42448162834E+03  0.19923022248E+04  0.46999998093E+01 0.  1.
</event>
<event>
 5   0  0.6335942E-09  0.3899754E+04  0.7818609E-02  0.8025080E-01
        2   -1    0    0  501    0  0.00000000000E+00  0.00000000000E+00  0.21159729500E+04  0.21159729500E+04  0.25500000920E-02 0. -1.
       -2   -1    0    0    0  501  0.00000000000E+00  0.00000000000E+00 -0.17968190890E+04  0.17968190890E+04  0.25500000920E-02 0.  1.
    10030    2    1    2    0    0  0.00000000000E+00  0.00000000000E+00  0.31915386105E+03  0.39127920390E+04  0.38997541402E+04 0.  0.
        2    1    3    3  502    0 -0.15468199163E+04 -0.30861097774E+00 -0.10315604122E+04  0.18592387778E+04  0.25500000920E-02 0.  1.
       -2    1    3    3    0  502  0.15468199163E+04  0.30861097774E+00  0.13507142732E+04  0.20535532612E+04  0.25500000920E-02 0. -1.
</event>
<event>
 5   0  0.9434114E-09  0.3900550E+04  0.7818609E-02  0.8024915E-01
        2   -1    0    0  501    0  0.00000000000E+00  0.00000000000E+00  0.13776741848E+04  0.13776741848E+04  0.25500000920E-02 0.  1.
       -2   -1    0    0    0  501  0.00000000000E+00  0.00000000000E+00 -0.27608653551E+04  0.27608653551E+04  0.25500000920E-02 0. -1.
    10030    2    1    2    0    0  0.00000000000E+00  0.00000000000E+00 -0.13831911702E+04  0.41385395399E+04  0.39005501804E+04 0.  0.
        4    1    3    3  502    0  0.84314795084E+03 -0.17418136108E+04 -0.43440477001E+03  0.19833109284E+04  0.12699999809E+01 0.  1.
       -4    1    3    3    0  502 -0.84314795084E+03  0.17418136108E+04 -0.94878640022E+03  0.21552286115E+04  0.12699999809E+01 0. -1.
</event>
<event>
 5   0  0.9277261E-09  0.3902848E+04  0.7818609E-02  0.8024437E-01
        2   -1    0    0  501    0  0.00000000000E+00  0.00000000000E+00  0.30503837036E+04  0.30503837036E+04  0.25500000920E-02 0. -1.
       -2   -1    0    0    0  501  0.00000000000E+00  0.00000000000E+00 -0.12483860498E+04  0.12483860498E+04  0.25500000920E-02 0.  1.
    10030    2    1    2    0    0  0.00000000000E+00  0.00000000000E+00  0.18019976538E+04  0.42987697533E+04  0.39028484275E+04 0.  0.
        1    1    3    3  502    0 -0.11995604762E+04 -0.14342365072E+04  0.28568989602E+03  0.18914540468E+04  0.50400001928E-02 0.  1.
       -1    1    3    3    0  502  0.11995604762E+04  0.14342365072E+04  0.15163077578E+04  0.24073157065E+04  0.50400001928E-02 0. -1.
</event>
<event>
 5   0  0.6335942E-09  0.3899822E+04  0.7818609E-02  0.8025066E-01
        2   -1    0    0  501    0  0.00000000000E+00  0.00000000000E+00  0.18060845973E+04  0.18060845973E+04  0.25500000920E-02 0. -1.
       -2   -1    0    0    0  501  0.00000000000E+00  0.00000000000E+00 -0.21051911811E+04  0.21051911811E+04  0.25500000920E-02 0.  1.
    10030    2    1    2    0    0  0.00000000000E+00  0.00000000000E+00 -0.29910658378E+03  0.39112757784E+04  0.38998222352E+04 0.  0.
        2    1    3    3  502    0 -0.18916023482E+04  0.44997078373E+03 -0.24247450392E+01  0.19443865432E+04  0.25500000920E-02 0. -1.
       -2    1    3    3    0  502  0.18916023482E+04 -0.44997078373E+03 -0.29668183875E+03  0.19668892352E+04  0.25500000920E-02 0.  1.
</event>
<event>
 5   0  0.9277261E-09  0.3900477E+04  0.7818609E-02  0.8024930E-01
       -2   -1    0    0    0  501  0.00000000000E+00  0.00000000000E+00  0.14406326349E+04  0.14406326349E+04  0.25500000920E-02 0.  1.
        2   -1    0    0  501    0  0.00000000000E+00  0.00000000000E+00 -0.26401105058E+04  0.26401105058E+04  0.25500000920E-02 0. -1.
    10030    2    1    2    0    0  0.00000000000E+00  0.00000000000E+00 -0.11994778709E+04  0.40807431407E+04  0.39004765628E+04 0.  0.
        1    1    3    3  502    0 -0.12718803906E+04 -0.48029100433E+03 -0.20625989263E+04  0.24703589836E+04  0.50400001928E-02 0. -1.
       -1    1    3    3    0  502  0.12718803906E+04  0.48029100433E+03  0.86312105542E+03  0.16103841571E+04  0.50400001928E-02 0.  1.
</event>
<event>
 5   0  0.9078515E-09  0.3900920E+04  0.7818609E-02  0.8024838E-01
       -2   -1    0    0    0  501  0.00000000000E+00  0.00000000000E+00  0.15295526069E+04  0.15295526069E+04  0.25500000920E-02 0.  1.
        2   -1    0    0  501    0  0.00000000000E+00  0.00000000000E+00 -0.24871937404E+04  0.24871937404E+04  0.25500000920E-02 0. -1.
    10030    2    1    2    0    0  0.00000000000E+00  0.00000000000E+00 -0.95764113351E+03  0.40167463472E+04  0.39009197220E+04 0.  0.
        3    1    3    3  502    0 -0.66300745702E+03  0.15397574858E+04 -0.15053475323E+04  0.22531096747E+04  0.10100000352E+00 0. -1.
       -3    1    3    3    0  502  0.66300745702E+03 -0.15397574858E+04  0.54770639883E+03  0.17636366725E+04  0.10100000352E+00 0.  1.
</event>
<event>
 5   0  0.6335942E-09  0.3904218E+04  0.7818609E-02  0.8024152E-01
        2   -1    0    0  501    0  0.00000000000E+00  0.00000000000E+00  0.22938625134E+04  0.22938625134E+04  0.25500000920E-02 0. -1.
       -2   -1    0    0    0  501  0.00000000000E+00  0.00000000000E+00 -0.16612723688E+04  0.16612723688E+04  0.25500000920E-02 0.  1.
    10030    2    1    2    0    0  0.00000000000E+00  0.00000000000E+00  0.63259014464E+03  0.39551348822E+04  0.39042184423E+04 0.  0.
        2    1    3    3  502    0 -0.10411064156E+04 -0.14819956450E+04  0.10541597843E+04  0.20955826185E+04  0.25500000920E-02 0. -1.
       -2    1    3    3    0  502  0.10411064156E+04  0.14819956450E+04 -0.42156963961E+03  0.18595522637E+04  0.25500000920E-02 0.  1.
</event>
<event>
 5   0  0.2904500E-09  0.3895647E+04  0.7818609E-02  0.8025935E-01
       -1   -1    0    0    0  501  0.00000000000E+00  0.00000000000E+00  0.26069606494E+04  0.26069606494E+04  0.50400001928E-02 0. -1.
        1   -1    0    0  501    0  0.00000000000E+00  0.00000000000E+00 -0.14553409577E+04  0.14553409577E+04  0.50400001928E-02 0.  1.
    10030    2    1    2    0    0  0.00000000000E+00  0.00000000000E+00  0.11516196917E+04  0.40623016071E+04  0.38956471134E+04 0.  0.
        3    1    3    3  502    0  0.77744545031E+03 -0.17839462067E+04  0.66386825976E+03  0.20561144358E+04  0.10100000352E+00 0.  1.
       -3    1    3    3    0  502 -0.77744545031E+03  0.17839462067E+04  0.48775143195E+03  0.20061871713E+04  0.10100000352E+00 0. -1.
</event>
<event>
 5   0  0.2929054E-09  0.3896398E+04  0.7818609E-02  0.8025779E-01
       -1   -1    0    0    0  501  0.00000000000E+00  0.00000000000E+00  0.14571291858E+04  0.14571291858E+04  0.50400001928E-02 0.  1.
        1   -1    0    0  501    0  0.00000000000E+00  0.00000000000E+00 -0.26047655083E+04  0.26047655083E+04  0.50400001928E-02 0. -1.
    10030    2    1    2    0    0  0.00000000000E+00  0.00000000000E+00 -0.11476363224E+04  0.40618946941E+04  0.38963982570E+04 0.  0.
        1    1    3    3  502    0  0.19461553284E+04 -0.54021160781E+02 -0.49980251936E+03  0.20100351754E+04  0.50400001928E-02 0.  1.
       -1    1    3    3    0  502 -0.19461553284E+04  0.54021160781E+02 -0.64783380306E+03  0.20518595187E+04  0.50400001928E-02 0. -1.
</event>
<event>
 5   0  0.6335942E-09  0.3900093E+04  0.7818609E-02  0.8025010E-01
       -2   -1    0    0    0  501  0.00000000000E+00  0.00000000000E+00  0.21135341869E+04  0.21135341869E+04  0.25500000920E-02 0. -1.
        2   -1    0    0  501    0  0.00000000000E+00  0.00000000000E+00 -0.17992052435E+04  0.17992052436E+04  0.25500000920E-02 0.  1.
    10030    2    1    2    0    0  0.00000000000E+00  0.00000000000E+00  0.31432894335E+03  0.39127394305E+04  0.39000932253E+04 0.  0.
        2    1    3    3  502    0  0.55399685225E+03  0.11649767444E+02  0.20328882715E+04  0.21070555175E+04  0.25500000920E-02 0. -1.
       -2    1    3    3    0  502 -0.55399685225E+03 -0.11649767444E+02 -0.17185593281E+04  0.18056839130E+04  0.25500000920E-02 0.  1.
</event>
<event>
 5   0  0.9078515E-09  0.3900161E+04  0.7818609E-02  0.8024996E-01
        2   -1    0    0  501    0  0.00000000000E+00  0.00000000000E+00  0.19082043493E+04  0.19082043493E+04  0.25500000920E-02 0. -1.
       -2   -1    0    0    0  501  0.00000000000E+00  0.00000000000E+00 -0.19928756640E+04  0.19928756640E+04  0.25500000920E-02 0.  1.
    10030    2    1    2    0    0  0.00000000000E+00  0.00000000000E+00 -0.84671314661E+02  0.39010800133E+04  0.39001610273E+04 0.  0.
        3    1    3    3  502    0  0.57062961180E+03  0.18518712312E+03  0.18136072977E+04  0.19102575389E+04  0.10100000352E+00 0. -1.
       -3    1    3    3    0  502 -0.57062961180E+03 -0.18518712312E+03 -0.18982786123E+04  0.19908224744E+04  0.10100000352E+00 0.  1.
</event>
<event>
 5   0  0.9368546E-09  0.3898935E+04  0.7818609E-02  0.8025251E-01
        2   -1    0    0  501    0  0.00000000000E+00  0.00000000000E+00  0.29011844736E+04  0.29011844736E+04  0.25500000920E-02 0. -1.
       -2   -1    0    0    0  501  0.00000000000E+00  0.00000000000E+00 -0.13099559824E+04  0.13099559824E+04  0.25500000920E-02 0.  1.
    10030    2    1    2    0    0  0.00000000000E+00  0.00000000000E+00  0.15912284912E+04  0.42111404560E+04  0.38989352173E+04 0.  0.
        5    1    3    3  502    0 -0.13861475342E+04 -0.23372369366E+03 -0.66323421825E+03  0.15543273368E+04  0.46999998093E+01 0.  1.
       -5    1    3    3    0  502  0.13861475342E+04  0.23372369366E+03  0.22544627095E+04  0.26568131192E+04  0.46999998093E+01 0. -1.
</event>
<event>
 5   0  0.2904500E-09  0.3900727E+04  0.7818609E-02  0.8024878E-01
       -1   -1    0    0    0  501  0.00000000000E+00  0.00000000000E+00  0.24812643573E+04  0.24812643573E+04  0.50400001928E-02 0.  1.
        1   -1    0    0  501    0  0.00000000000E+00  0.00000000000E+00 -0.15330564829E+04  0.15330564829E+04  0.50400001928E-02 0. -1.
    10030    2    1    2    0    0  0.00000000000E+00  0.00000000000E+00  0.94820787438E+03  0.40143208402E+04  0.39007273213E+04 0.  0.
        2    1    3    3  502    0  0.77662275524E+02 -0.19309931917E+04  0.74473006228E+03  0.20710840159E+04  0.25500000920E-02 0.  1.
       -2    1    3    3    0  502 -0.77662275524E+02  0.19309931917E+04  0.20347781210E+03  0.19432368243E+04  0.25500000920E-02 0. -1.
</event>
<event>
 5   0  0.2904500E-09  0.3898010E+04  0.7818609E-02  0.8025443E-01
        1   -1    0    0  501    0  0.00000000000E+00  0.00000000000E+00  0.16930944838E+04  0.16930944838E+04  0.50400001928E-02 0. -1.
       -1   -1    0    0    0  501  0.00000000000E+00  0.00000000000E+00 -0.22435965079E+04  0.22435965079E+04  0.50400001928E-02 0.  1.
    10030    2    1    2    0    0  0.00000000000E+00  0.00000000000E+00 -0.55050202402E+03  0.39366909917E+04  0.38980101957E+04 0.  0.
        5    1    3    3  502    0 -0.73083005853E+03  0.38698609668E+03 -0.20576232826E+04  0.22175902409E+04  0.46999998093E+01 0.  1.
       -5    1    3    3    0  502  0.73083005853E+03 -0.38698609668E+03  0.15071212586E+04  0.17191007508E+04  0.46999998093E+01 0. -1.
</event>
<event>
 5   0  0.9277261E-09  0.3894476E+04  0.7818609E-02  0.8026179E-01
        2   -1    0    0  501    0  0.00000000000E+00  0.00000000000E+00  0.12326422745E+04  0.12326422745E+04  0.25500000920E-02 0.  1.
       -2   -1    0    0    0  501  0.00000000000E+00  0.00000000000E+00 -0.30761032270E+04  0.30761032270E+04  0.25500000920E-02 0. -1.
    10030    2    1    2    0    0  0.00000000000E+00  0.00000000000E+00 -0.18434609525E+04  0.43087455015E+04  0.38944755119E+04 0.  0.
        1    1    3    3  502    0  0.16896846519E+04  0.80889349255E+01 -0.19924780744E+04  0.26124832115E+04  0.50400001928E-02 0. -1.
       -1    1    3    3    0  502 -0.16896846519E+04 -0.80889349255E+01  0.14901712185E+03  0.16962622899E+04  0.50400001928E-02 0.  1.
</event>
<event>
 5   0  0.9434114E-09  0.3890596E+04  0.7818609E-02  0.8026988E-01
       -2   -1    0    0    0  501  0.00000000000E+00  0.00000000000E+00  0.25413004244E+04  0.25413004244E+04  0.25500000920E-02 0.  1.
        2   -1    0    0  501    0  0.00000000000E+00  0.00000000000E+00 -0.14890741899E+04  0.14890741899E+04  0.25500000920E-02 0. -1.
    10030    2    1    2    0    0  0.00000000000E+00  0.00000000000E+00  0.10522262345E+04  0.40303746143E+04  0.38905962889E+04 0.  0.
        4    1    3    3  502    0 -0.17526475198E+04  0.79940541513E+03  0.24552995478E+03  0.19419343238E+04  0.12699999809E+01 0. -1.
       -4    1    3    3    0  502  0.17526475198E+04 -0.79940541513E+03  0.80669627977E+03  0.20884402905E+04  0.12699999809E+01 0.  1.
</event>
<event>
 5   0  0.6335942E-09  0.3900281E+04  0.7818609E-02  0.8024971E-01
        2   -1    0    0  501    0  0.00000000000E+00  0.00000000000E+00  0.24690671701E+04  0.24690671701E+04  0.25500000920E-02 0. -1.
       -2   -1    0    0    0  501  0.00000000000E+00  0.00000000000E+00 -0.15402771609E+04  0.15402771609E+04  0.25500000920E-02 0.  1.
    10030    2    1    2    0    0  0.00000000000E+00  0.00000000000E+00  0.92879000918E+03  0.40093443311E+04  0.39002808981E+04 0.  0.
        2    1    3    3  502    0  0.71493218171E+03  0.28700777332E+03 -0.13772218944E+04  0.15780499462E+04  0.25500000920E-02 0.  1.
       -2    1    3    3    0  502 -0.71493218171E+03 -0.28700777332E+03  0.23060119036E+04  0.24312943848E+04  0.25500000920E-02 0. -1.
</event>
<event>
 5   0  0.6335942E-09  0.3898944E+04  0.7818609E-02  0.8025249E-01
       -2   -1    0    0    0  501  0.00000000000E+00  0.00000000000E+00  0.13215536859E+04  0.13215536859E+04  0.25500000920E-02 0. -1.
        2   -1    0    0  501    0  0.00000000000E+00  0.00000000000E+00 -0.28757376994E+04  0.28757376994E+04  0.25500000920E-02 0.  1.
    10030    2    1    2    0    0  0.00000000000E+00  0.00000000000E+00 -0.15541840136E+04  0.41972913853E+04  0.38989443475E+04 0.  0.
        2    1    3    3  502    0 -0.22781230848E+03  0.32362279070E+03  0.12778522268E+04  0.13377355763E+04  0.25500000920E-02 0. -1.
       -2    1    3    3    0  502  0.22781230848E+03 -0.32362279070E+03 -0.28320362403E+04  0.28595558090E+04  0.25500000920E-02 0.  1.
</event>
<event>
 5   0  0.9368546E-09  0.3899963E+04  0.7818609E-02  0.8025037E-01
        2   -1    0    0  501    0  0.00000000000E+00  0.00000000000E+00  0.14426918876E+04  0.14426918876E+04  0.25500000920E-02 0. -1.
       -2   -1    0    0    0  501  0.00000000000E+00  0.00000000000E+00 -0.26356485349E+04  0.26356485349E+04  0.25500000920E-02 0.  1.
    10030    2    1    2    0    0  0.00000000000E+00  0.00000000000E+00 -0.11929566472E+04  0.40783404225E+04  0.38999634665E+04 0.  0.
        5    1    3    3  502    0 -0.75056818747E+03  0.73323097229E+02  0.12840128832E+04  0.14891071334E+04  0.46999998093E+01 0. -1.
       -5    1    3    3    0  502  0.75056818747E+03 -0.73323097229E+02 -0.24769695304E+04  0.25892332891E+04  0.46999998093E+01 0.  1.
</event>
<event>
 5   0  0.2929054E-09  0.3892850E+04  0.7818609E-02  0.8026518E-01
        1   -1    0    0  501    0  0.00000000000E+00  0.00000000000E+00  0.31276342578E+04  0.31276342579E+04  0.50400001928E-02 0.  1.
       -1   -1    0    0    0  501  0.00000000000E+00  0.00000000000E+00 -0.12113212920E+04  0.12113212920E+04  0.50400001928E-02 0. -1.
    10030    2    1    2    0    0  0.00000000000E+00  0.00000000000E+00  0.19163129658E+04  0.43389555499E+04  0.38928498406E+04 0.  0.
        1    1    3    3  502    0  0.33660682462E+03 -0.37903752581E+03 -0.11364530704E+04  0.12443870707E+04  0.50400001928E-02 0. -1.
       -1    1    3    3    0  502 -0.33660682462E+03  0.37903752581E+03  0.30527660363E+04  0.30945684792E+04  0.50400001928E-02 0.  1.
</event>
<event>
 5   0  0.9368546E-09  0.3894294E+04  0.7818609E-02  0.8026217E-01
       -2   -1    0    0    0  501  0.00000000000E+00  0.00000000000E+00  0.29977638154E+04  0.29977638154E+04  0.25500000920E-02 0. -1.
        2   -1    0    0  501    0  0.00000000000E+00  0.00000000000E+00 -0.12647368355E+04  0.12647368355E+04  0.25500000920E-02 0.  1.
    10030    2    1    2    0    0  0.00000000000E+00  0.00000000000E+00  0.17330269799E+04  0.42625006509E+04  0.38942944528E+04 0.  0.
        5    1    3    3  502    0  0.10148426892E+04 -0.83441847725E+03 -0.70644320970E+03  0.14917251682E+04  0.46999998093E+01 0.  1.
       -5    1    3    3    0  502 -0.10148426892E+04  0.83441847725E+03  0.24394701896E+04  0.27707754826E+04  0.46999998093E+01 0. -1.
</event>
<event>
 5   0  0.9434114E-09  0.3900350E+04  0.7818609E-02  0.8024957E-01
       -2   -1    0    0    0  501  0.00000000000E+00  0.00000000000E+00  0.15552640518E+04  0.15552640518E+04  0.25500000920E-02 0.  1.
        2   -1    0    0  501    0  0.00000000000E+00  0.00000000000E+00 -0.24453607770E+04  0.24453607770E+04  0.25500000920E-02 0. -1.
    10030    2    1    2    0    0  0.00000000000E+00  0.00000000000E+00 -0.89009672524E+03  0.40006248288E+04  0.39003495793E+04 0.  0.
        4    1    3    3  502    0 -0.12608413097E+04 -0.57108277412E+03 -0.18541667935E+04  0.23138263665E+04  0.12699999809E+01 0. -1.
       -4    1    3    3    0  502  0.12608413097E+04  0.57108277412E+03  0.96407006829E+03  0.16867984623E+04  0.12699999809E+01 0.  1.
</event>
<event>
 5   0  0.2904500E-09  0.3895137E+04  0.7818609E-02  0.8026041E-01
        1   -1    0    0  501    0  0.00000000000E+00  0.00000000000E+00  0.24200300356E+04  0.24200300356E+04  0.50400001928E-02 0.  1.
       -1   -1    0    0    0  501  0.00000000000E+00  0.00000000000E+00 -0.15673458442E+04  0.15673458442E+04  0.50400001928E-02 0. -1.
    10030    2    1    2    0    0  0.00000000000E+00  0.00000000000E+00  0.85268419137E+03  0.39873758798E+04  0.38951374914E+04 0.  0.
        4    1    3    3  502    0  0.49809656374E+03 -0.16304229997E+04  0.13902572214E+04  0.21998172877E+04  0.12699999809E+01 0.  1.
       -4    1    3    3    0  502 -0.49809656374E+03  0.16304229997E+04 -0.53757303001E+03  0.17875585921E+04  0.12699999809E+01 0. -1.
</event>
<event>
 5   0  0.2904500E-09  0.3876188E+04  0.7818609E-02  0.8030000E-01
        1   -1    0    0  501    0  0.00000000000E+00  0.00000000000E+00  0.13987741295E+04  0.13987741295E+04  0.50400001928E-02 0. -1.
       -1   -1    0    0    0  501  0.00000000000E+00  0.00000000000E+00 -0.26853571655E+04  0.26853571655E+04  0.50400001928E-02 0.  1.
    10030    2    1    2    0    0  0.00000000000E+00  0.00000000000E+00 -0.12865830360E+04  0.40841312950E+04  0.38761878858E+04 0.  0.
        3    1    3    3  502    0  0.13365578009E+04  0.29545163852E+03 -0.20889502808E+04  0.24974770693E+04  0.10100000352E+00 0.  1.
       -3    1    3    3    0  502 -0.13365578009E+04 -0.29545163852E+03  0.80236724486E+03  0.15866542256E+04  0.10100000352E+00 0. -1.
</event>
<event>
 5   0  0.9368546E-09  0.3899786E+04  0.7818609E-02  0.8025074E-01
       -2   -1    0    0    0  501  0.00000000000E+00  0.00000000000E+00  0.12869453832E+04  0.12869453833E+04  0.25500000920E-02 0.  1.
        2   -1    0    0  501    0  0.00000000000E+00  0.00000000000E+00 -0.29543469815E+04  0.29543469815E+04  0.25500000920E-02 0. -1.
    10030    2    1    2    0    0  0.00000000000E+00  0.00000000000E+00 -0.16674015982E+04  0.42412923647E+04  0.38997862548E+04 0.  0.
        5    1    3    3  502    0  0.38260905327E+03 -0.17995712269E+04 -0.13121544357E+03  0.18444744159E+04  0.46999998093E+01 0.  1.
       -5    1    3    3    0  502 -0.38260905327E+03  0.17995712269E+04 -0.15361861546E+04  0.23968179488E+04  0.46999998093E+01 0. -1.
</event>
<event>
 5   0  0.9368546E-09  0.3899036E+04  0.7818609E-02  0.8025230E-01
       -2   -1    0    0    0  501  0.00000000000E+00  0.00000000000E+00  0.21889969288E+04  0.21889969288E+04  0.25500000920E-02 0. -1.
        2   -1    0    0  501    0  0.00000000000E+00  0.00000000000E+00 -0.17362382158E+04  0.17362382158E+04  0.25500000920E-02 0.  1.
    10030    2    1    2    0    0  0.00000000000E+00  0.00000000000E+00  0.45275871304E+03  0.39252351446E+04  0.38990358409E+04 0.  0.
        5    1    3    3  502    0  0.68146155320E+02 -0.71135011006E+03  0.20523850204E+04  0.21732393425E+04  0.46999998093E+01 0. -1.
       -5    1    3    3    0  502 -0.68146155320E+02  0.71135011006E+03 -0.15996263074E+04  0.17519958022E+04  0.46999998093E+01 0.  1.
</event>
<event>
 5   0  0.6335942E-09  0.3900214E+04  0.7818609E-02  0.8024985E-01
        2   -1    0    0  501    0  0.00000000000E+00  0.00000000000E+00  0.13968855304E+04  0.13968855304E+04  0.25500000920E-02 0. -1.
       -2   -1    0    0    0  501  0.00000000000E+00  0.00000000000E+00 -0.27224252231E+04  0.27224252231E+04  0.25500000920E-02 0.  1.
    10030    2    1    2    0    0  0.00000000000E+00  0.00000000000E+00 -0.13255396926E+04  0.41193107535E+04  0.39002135335E+04 0.  0.
        2    1    3    3  502    0  0.80744904025E+03  0.13765765450E+04 -0.18464311232E+04  0.24405419131E+04  0.25500000920E-02 0.  1.
       -2    1    3    3    0  502 -0.80744904025E+03 -0.13765765450E+04  0.52089143059E+03  0.16787688404E+04  0.25500000920E-02 0. -1.
</event>
<event>
 5   0  0.9434114E-09  0.3899382E+04  0.7818609E-02  0.8025158E-01
        2   -1    0    0  501    0  0.00000000000E+00  0.00000000000E+00  0.20587175048E+04  0.20587175048E+04  0.25500000920E-02 0.  1.
       -2   -1    0    0    0  501  0.00000000000E+00  0.00000000000E+00 -0.18464381701E+04  0.18464381701E+04  0.25500000920E-02 0. -1.
    10030    2    1    2    0    0  0.00000000000E+00  0.00000000000E+00  0.21227933474E+03  0.39051556749E+04  0.38993817881E+04 0.  0.
        4    1    3    3  502    0 -0.10108079661E+04  0.12013659332E+04  0.12638271722E+04  0.20155082694E+04  0.12699999809E+01 0.  1.
       -4    1    3    3    0  502  0.10108079661E+04 -0.12013659332E+04 -0.10515478375E+04  0.18896474055E+04  0.12699999809E+01 0. -1.
</event>
<event>
 5   0  0.2929054E-09  0.3890019E+04  0.7818609E-02  0.8027108E-01
       -1   -1    0    0    0  501  0.00000000000E+00  0.00000000000E+00  0.14939589705E+04  0.14939589705E+04  0.50400001928E-02 0. -1.
        1   -1    0    0  501    0  0.00000000000E+00  0.00000000000E+00 -0.25322395932E+04  0.25322395932E+04  0.50400001928E-02 0.  1.
    10030    2    1    2    0    0  0.00000000000E+00  0.00000000000E+00 -0.10382806228E+04  0.40261985637E+04  0.38900190517E+04 0.  0.
        1    1    3    3  502    0 -0.14434939470E+04 -0.10987087189E+04  0.20700899460E+03  0.18258390805E+04  0.50400001928E-02 0. -1.
       -1    1    3    3    0  502  0.14434939470E+04  0.10987087189E+04 -0.12452896174E+04  0.22003594832E+04  0.50400001928E-02 0.  1.
</event>
<event>
 5   0  0.2929054E-09  0.3901609E+04  0.7818609E-02  0.8024695E-01
        1   -1    0    0  501    0  0.00000000000E+00  0.00000000000E+00  0.12715203746E+04  0.12715203746E+04  0.50400001928E-02 0. -1.
       -1   -1    0    0    0  501  0.00000000000E+00  0.00000000000E+00 -0.29929831826E+04  0.29929831826E+04  0.50400001928E-02 0.  1.
    10030    2    1    2    0    0  0.00000000000E+00  0.00000000000E+00 -0.17214628080E+04  0.42645035572E+04  0.39016094615E+04 0.  0.
        1    1    3    3  502    0 -0.27727531569E+03  0.16535834683E+03  0.12421197037E+04  0.12833886169E+04  0.50400001928E-02 0. -1.
       -1    1    3    3    0  502  0.27727531569E+03 -0.16535834683E+03 -0.29635825118E+04  0.29811149403E+04  0.50400001928E-02 0.  1.
</event>
<event>
 5   0  0.2904500E-09  0.3887017E+04  0.7818609E-02  0.8027735E-01
        1   -1    0    0  501    0  0.00000000000E+00  0.00000000000E+00  0.21838067778E+04  0.21838067778E+04  0.50400001928E-02 0.  1.
       -1   -1    0    0    0  501  0.00000000000E+00  0.00000000000E+00 -0.17296518648E+04  0.17296518648E+04  0.50400001928E-02 0. -1.
    10030    2    1    2    0    0  0.00000000000E+00  0.00000000000E+00  0.45415491301E+03  0.39134586426E+04  0.38870170906E+04 0.  0.
        3    1    3    3  502    0 -0.56722515919E+03  0.15775319249E+04  0.12170639325E+04  0.20716167554E+04  0.10100000352E+00 0.  1.
       -3    1    3    3    0  502  0.56722515919E+03 -0.15775319249E+04 -0.76290901949E+03  0.18418418872E+04  0.10100000352E+00 0. -1.
</event>
<event>
 5   0  0.9434114E-09  0.3899994E+04  0.7818609E-02  0.8025030E-01
       -2   -1    0    0    0  501  0.00000000000E+00  0.00000000000E+00  0.14342405563E+04  0.14342405563E+04  0.25500000920E-02 0. -1.
        2   -1    0    0  501    0  0.00000000000E+00  0.00000000000E+00 -0.26512212564E+04  0.26512212564E+04  0.25500000920E-02 0.  1.
    10030    2    1    2    0    0  0.00000000000E+00  0.00000000000E+00 -0.12169807002E+04  0.40854618127E+04  0.38999943844E+04 0.  0.
        4    1    3    3  502    0  0.18420654454E+04 -0.63569062104E+03 -0.53309713887E+03  0.20202727151E+04  0.12699999809E+01 0. -1.
       -4    1    3    3    0  502 -0.18420654454E+04  0.63569062104E+03 -0.68388356130E+03  0.20651890977E+04  0.12699999809E+01 0.  1.
</event>
<event>
 5   0  0.2904500E-09  0.3900350E+04  0.7818609E-02  0.8024956E-01
       -3   -1    0    0    0  501  0.00000000000E+00  0.00000000000E+00  0.21744489393E+04  0.21744489417E+04  0.10100000352E+00 0. -1.
        3   -1    0    0  501    0  0.00000000000E+00  0.00000000000E+00 -0.17490326375E+04  0.17490326404E+04  0.10100000352E+00 0.  1.
    10030    2    1    2    0    0  0.00000000000E+00  0.00000000000E+00  0.42541630184E+03  0.39234815821E+04  0.39003498170E+04 0.  0.
        4    1    3    3  502    0  0.12506163288E+04 -0.86302333927E+03  0.14423859346E+04  0.20950726200E+04  0.12699999809E+01 0. -1.
       -4    1    3    3    0  502 -0.12506163288E+04  0.86302333927E+03 -0.10169696327E+04  0.18284089621E+04  0.12699999809E+01 0.  1.
</event>
<event>
 5   0  0.6335942E-09  0.3898607E+04  0.7818609E-02  0.8025319E-01
        2   -1    0    0  501    0  0.00000000000E+00  0.00000000000E+00  0.23467974002E+04  0.23467974002E+04  0.25500000920E-02 0.  1.
       -2   -1    0    0    0  501  0.00000000000E+00  0.00000000000E+00 -0.16191363203E+04  0.16191363203E+04  0.25500000920E-02 0. -1.
    10030    2    1    2    0    0  0.00000000000E+00  0.00000000000E+00  0.72766107996E+03  0.39659337205E+04  0.38986073960E+04 0.  0.
        2    1    3    3  502    0 -0.73651295016E+03 -0.80492042885E+03 -0.12794409910E+04  0.16814628964E+04  0.25500000920E-02 0. -1.
       -2    1    3    3    0  502  0.73651295016E+03  0.80492042885E+03  0.20071020710E+04  0.22844708241E+04  0.25500000920E-02 0.  1.
</event>
<event>
 5   0  0.2904500E-09  0.3900033E+04  0.7818609E-02  0.8025022E-01
        1   -1    0    0  501    0  0.00000000000E+00  0.00000000000E+00  0.16976268324E+04  0.16976268324E+04  0.50400001928E-02 0. -1.
       -1   -1    0    0    0  501  0.00000000000E+00  0.00000000000E+00 -0.22399298273E+04  0.22399298273E+04  0.50400001928E-02 0.  1.
    10030    2    1    2    0    0  0.00000000000E+00  0.00000000000E+00 -0.54230299494E+03  0.39375566597E+04  0.39000333216E+04 0.  0.
        4    1    3    3  502    0 -0.28430777278E+03  0.57853175464E+03 -0.21292478990E+04  0.22246860743E+04  0.12699999809E+01 0.  1.
       -4    1    3    3    0  502  0.28430777278E+03 -0.57853175464E+03  0.15869449041E+04  0.17128705854E+04  0.12699999809E+01 0. -1.
</event>
<event>
 5   0  0.2904500E-09  0.3900337E+04  0.7818609E-02  0.8024959E-01
        1   -1    0    0  501    0  0.00000000000E+00  0.00000000000E+00  0.23881816443E+04  0.23881816443E+04  0.50400001928E-02 0. -1.
       -1   -1    0    0    0  501  0.00000000000E+00  0.00000000000E+00 -0.15924906335E+04  0.15924906335E+04  0.50400001928E-02 0.  1.
    10030    2    1    2    0    0  0.00000000000E+00  0.00000000000E+00  0.79569101075E+03  0.39806722778E+04  0.39003368571E+04 0.  0.
        5    1    3    3  502    0  0.10531937910E+04 -0.27808038921E+03  0.20487504125E+04  0.23203332104E+04  0.46999998093E+01 0. -1.
       -5    1    3    3    0  502 -0.10531937910E+04  0.27808038921E+03 -0.12530594018E+04  0.16603390674E+04  0.46999998093E+01 0.  1.
</event>
<event>
 5   0  0.9434114E-09  0.3899174E+04  0.7818609E-02  0.8025201E-01
        2   -1    0    0  501    0  0.00000000000E+00  0.00000000000E+00  0.20520448611E+04  0.20520448611E+04  0.25500000920E-02 0. -1.
       -2   -1    0    0    0  501  0.00000000000E+00  0.00000000000E+00 -0.18522444885E+04  0.18522444885E+04  0.25500000920E-02 0.  1.
    10030    2    1    2    0    0  0.00000000000E+00  0.00000000000E+00  0.19980037267E+03  0.39042893496E+04  0.38991736479E+04 0.  0.
        4    1    3    3  502    0  0.66754135892E+02  0.15578184191E+04  0.12717487661E+04  0.20121135352E+04  0.12699999809E+01 0. -1.
       -4    1    3    3    0  502 -0.66754135892E+02 -0.15578184191E+04 -0.10719483934E+04  0.18921758144E+04  0.12699999809E+01 0.  1.
</event>
<event>
 5   0  0.2904500E-09  0.3899994E+04  0.7818609E-02  0.8025031E-01
        1   -1    0    0  501    0  0.00000000000E+00  0.00000000000E+00  0.20307584424E+04  0.20307584424E+04  0.50400001928E-02 0. -1.
       -1   -1    0    0    0  501  0.00000000000E+00  0.00000000000E+00 -0.18724469878E+04  0.18724469878E+04  0.50400001928E-02 0.  1.
    10030    2    1    2    0    0  0.00000000000E+00  0.00000000000E+00  0.15831145468E+03  0.39032054302E+04  0.38999936043E+04 0.  0.
        3    1    3    3  502    0 -0.81481214112E+03 -0.15933546828E+04  0.85425434283E+03  0.19830402071E+04  0.10100000352E+00 0. -1.
       -3    1    3    3    0  502  0.81481214112E+03  0.15933546828E+04 -0.69594288815E+03  0.19201652231E+04  0.10100000352E+00 0.  1.
</event>
<event>
 5   0  0.6335942E-09  0.3898786E+04  0.7818609E-02  0.8025282E-01
        2   -1    0    0  501    0  0.00000000000E+00  0.00000000000E+00  0.30594994333E+04  0.30594994333E+04  0.25500000920E-02 0. -1.
       -2   -1    0    0    0  501  0.00000000000E+00  0.00000000000E+00 -0.12420770360E+04  0.12420770360E+04  0.25500000920E-02 0.  1.
    10030    2    1    2    0    0  0.00000000000E+00  0.00000000000E+00  0.18174223973E+04  0.43015764693E+04  0.38987864717E+04 0.  0.
        2    1    3    3  502    0 -0.11470840943E+04 -0.90459623641E+03 -0.51538921290E+03  0.15491037122E+04  0.25500000920E-02 0.  1.
       -2    1    3    3    0  502  0.11470840943E+04  0.90459623641E+03  0.23328116102E+04  0.27524727572E+04  0.25500000920E-02 0. -1.
</event>
<event>
 5   0  0.6335942E-09  0.3905085E+04  0.7818609E-02  0.8023972E-01
        2   -1    0    0  501    0  0.00000000000E+00  0.00000000000E+00  0.20769868569E+04  0.20769868569E+04  0.25500000920E-02 0. -1.
       -2   -1    0    0    0  501  0.00000000000E+00  0.00000000000E+00 -0.18355546939E+04  0.18355546939E+04  0.25500000920E-02 0.  1.
    10030    2    1    2    0    0  0.00000000000E+00  0.00000000000E+00  0.24143216298E+03  0.39125415509E+04  0.39050853893E+04 0.  0.
        2    1    3    3  502    0  0.78906708281E+03  0.17715987639E+04  0.34749739980E+03  0.19702648260E+04  0.25500000920E-02 0.  1.
       -2    1    3    3    0  502 -0.78906708281E+03 -0.17715987639E+04 -0.10606523682E+03  0.19422767249E+04  0.25500000920E-02 0. -1.
</event>
<event>
 5   0  0.6335942E-09  0.3904683E+04  0.7818609E-02  0.8024056E-01
       -2   -1    0    0    0  501  0.00000000000E+00  0.00000000000E+00  0.23553563166E+04  0.23553563166E+04  0.25500000920E-02 0. -1.
        2   -1    0    0  501    0  0.00000000000E+00  0.00000000000E+00 -0.16182845180E+04  0.16182845180E+04  0.25500000920E-02 0.  1.
    10030    2    1    2    0    0  0.00000000000E+00  0.00000000000E+00  0.73707179865E+03  0.39736408346E+04  0.39046826562E+04 0.  0.
        2    1    3    3  502    0  0.70804149367E+03 -0.77293267324E+03 -0.13076372441E+04  0.16759065715E+04  0.25500000920E-02 0.  1.
       -2    1    3    3    0  502 -0.70804149367E+03  0.77293267324E+03  0.20447090428E+04  0.22977342631E+04  0.25500000920E-02 0. -1.
</event>
<event>
 5   0  0.9078515E-09  0.3900345E+04  0.7818609E-02  0.8024958E-01
        2   -1    0    0  501    0  0.00000000000E+00  0.00000000000E+00  0.20257420649E+04  0.20257420649E+04  0.25500000920E-02 0. -1.
       -2   -1    0    0    0  501  0.00000000000E+00  0.00000000000E+00 -0.18774215873E+04  0.18774215873E+04  0.25500000920E-02 0.  1.
    10030    2    1    2    0    0  0.00000000000E+00  0.00000000000E+00  0.14832047755E+03  0.39031636522E+04  0.39003445402E+04 0.  0.
        3    1    3    3  502    0 -0.10029431883E+04  0.77497981129E+03  0.15573526520E+04  0.20079432361E+04  0.10100000352E+00 0. -1.
       -3    1    3    3    0  502  0.10029431883E+04 -0.77497981129E+03 -0.14090321744E+04  0.18952204161E+04  0.10100000352E+00 0.  1.
</event>
<event>
 5   0  0.9277261E-09  0.3900095E+04  0.7818609E-02  0.8025010E-01
       -2   -1    0    0    0  501  0.00000000000E+00  0.00000000000E+00  0.12001192812E+04  0.12001192812E+04  0.25500000920E-02 0. -1.
        2   -1    0    0  501    0  0.00000000000E+00  0.00000000000E+00 -0.31685886154E+04  0.31685886154E+04  0.25500000920E-02 0.  1.
    10030    2    1    2    0    0  0.00000000000E+00  0.00000000000E+00 -0.19684693342E+04  0.43687078966E+04  0.39000945073E+04 0.  0.
        1    1    3    3  502    0  0.14516961360E+04 -0.12468837895E+04 -0.14041707179E+04  0.23735703615E+04  0.50400001928E-02 0. -1.
       -1    1    3    3    0  502 -0.14516961360E+04  0.12468837895E+04 -0.56429861632E+03  0.19951375352E+04  0.50400001928E-02 0.  1.
</event>
<event>
 5   0  0.9078515E-09  0.3900686E+04  0.7818609E-02  0.8024887E-01
       -2   -1    0    0    0  501  0.00000000000E+00  0.00000000000E+00  0.16670224914E+04  0.16670224914E+04  0.25500000920E-02 0. -1.
        2   -1    0    0  501    0  0.00000000000E+00  0.00000000000E+00 -0.22818157904E+04  0.22818157904E+04  0.25500000920E-02 0.  1.
    10030    2    1    2    0    0  0.00000000000E+00  0.00000000000E+00 -0.61479329901E+03  0.39488382818E+04  0.39006862185E+04 0.  0.
        3    1    3    3  502    0  0.16013766010E+04  0.10878366474E+02 -0.14343834081E+04  0.21498793289E+04  0.10100000352E+00 0.  1.
       -3    1    3    3    0  502 -0.16013766010E+04 -0.10878366474E+02  0.81959010908E+03  0.17989589529E+04  0.10100000352E+00 0. -1.
</event>
<event>
 5   0  0.2904500E-09  0.3898543E+04  0.7818609E-02  0.8025332E-01
        1   -1    0    0  501    0  0.00000000000E+00  0.00000000000E+00  0.23769773861E+04  0.23769773861E+04  0.50400001928E-02 0. -1.
       -1   -1    0    0    0  501  0.00000000000E+00  0.00000000000E+00 -0.15985258510E+04  0.15985258510E+04  0.50400001928E-02 0.  1.
    10030    2    1    2    0    0  0.00000000000E+00  0.00000000000E+00  0.77845153510E+03  0.39755032371E+04  0.38985432146E+04 0.  0.
        2    1    3    3  502    0  0.99133265844E+03  0.96973026505E+03 -0.10076859797E+04  0.17142194318E+04  0.25500000920E-02 0.  1.
       -2    1    3    3    0  502 -0.99133265844E+03 -0.96973026505E+03  0.17861375148E+04  0.22612838053E+04  0.25500000920E-02 0. -1.
</event>
<event>
 5   0  0.2904500E-09  0.3900499E+04  0.7818609E-02  0.8024925E-01
       -1   -1    0    0    0  501  0.00000000000E+00  0.00000000000E+00  0.14498985027E+04  0.14498985027E+04  0.50400001928E-02 0.  1.
        1   -1    0    0  501    0  0.00000000000E+00  0.00000000000E+00 -0.26232685664E+04  0.26232685664E+04  0.50400001928E-02 0. -1.
    10030    2    1    2    0    0  0.00000000000E+00  0.00000000000E+00 -0.11733700636E+04  0.40731670691E+04  0.39004990279E+04 0.  0.
        5    1    3    3  502    0  0.19147985770E+04  0.16373236704E+03 -0.93332733482E+03  0.21364418743E+04  0.46999998093E+01 0.  1.
       -5    1    3    3    0  502 -0.19147985770E+04 -0.16373236704E+03 -0.24004272882E+03  0.19367251948E+04  0.46999998093E+01 0. -1.
</event>
<event>
 5   0  0.6335942E-09  0.3902291E+04  0.7818609E-02  0.8024553E-01
        2   -1    0    0  501    0  0.00000000000E+00  0.00000000000E+00  0.18427622625E+04  0.18427622625E+04  0.25500000920E-02 0. -1.
       -2   -1    0    0    0  501  0.00000000000E+00  0.00000000000E+00 -0.20659032206E+04  0.20659032206E+04  0.25500000920E-02 0.  1.
    10030    2    1    2    0    0  0.00000000000E+00  0.00000000000E+00 -0.22314095805E+03  0.39086654831E+04  0.39022908620E+04 0.  0.
        2    1    3    3  502    0 -0.10986057776E+03  0.88297622951E+03  0.16277142456E+04  0.18550390922E+04  0.25500000920E-02 0. -1.
       -2    1    3    3    0  502  0.10986057776E+03 -0.88297622951E+03 -0.18508552036E+04  0.20536263909E+04  0.25500000920E-02 0.  1.
</event>
<event>
 5   0  0.6335942E-09  0.3894725E+04  0.7818609E-02  0.8026127E-01
        2   -1    0    0  501    0  0.00000000000E+00  0.00000000000E+00  0.20633998299E+04  0.20633998299E+04  0.25500000920E-02 0.  1.
       -2   -1    0    0    0  501  0.00000000000E+00  0.00000000000E+00 -0.18378505895E+04  0.18378505895E+04  0.25500000920E-02 0. -1.
    10030    2    1    2    0    0  0.00000000000E+00  0.00000000000E+00  0.22554924031E+03  0.39012504194E+04  0.38947249422E+04 0.  0.
        2    1    3    3  502    0  0.31016212580E+03  0.10755114202E+04 -0.14834118871E+04  0.18583423221E+04  0.25500000920E-02 0. -1.
       -2    1    3    3    0  502 -0.31016212580E+03 -0.10755114202E+04  0.17089611274E+04  0.20429080973E+04  0.25500000920E-02 0.  1.
</event>
<event>
 5   0  0.2904500E-09  0.3900992E+04  0.7818609E-02  0.8024823E-01
       -1   -1    0    0    0  501  0.00000000000E+00  0.00000000000E+00  0.27195251221E+04  0.27195251221E+04  0.50400001928E-02 0.  1.
        1   -1    0    0  501    0  0.00000000000E+00  0.00000000000E+00 -0.13989334336E+04  0.13989334336E+04  0.50400001928E-02 0. -1.
    10030    2    1    2    0    0  0.00000000000E+00  0.00000000000E+00  0.13205916885E+04  0.41184585556E+04  0.39009919850E+04 0.  0.
        5    1    3    3  502    0 -0.13004326882E+03  0.13096056095E+03  0.27102800294E+04  0.27165606652E+04  0.46999998093E+01 0.  1.
       -5    1    3    3    0  502  0.13004326882E+03 -0.13096056095E+03 -0.13896883409E+04  0.14018978904E+04  0.46999998093E+01 0. -1.
</event>
<event>
 5   0  0.2904500E-09  0.3898342E+04  0.7818609E-02  0.8025374E-01
        1   -1    0    0  501    0  0.00000000000E+00  0.00000000000E+00  0.21511443815E+04  0.21511443815E+04  0.50400001928E-02 0.  1.
       -1   -1    0    0    0  501  0.00000000000E+00  0.00000000000E+00 -0.17661608967E+04  0.17661608967E+04  0.50400001928E-02 0. -1.
    10030    2    1    2    0    0  0.00000000000E+00  0.00000000000E+00  0.38498348476E+03  0.39173052782E+04  0.38983417448E+04 0.  0.
        2    1    3    3  502    0  0.70280809279E+03 -0.10979904284E+04  0.16485903149E+04  0.21017545581E+04  0.25500000920E-02 0.  1.
       -2    1    3    3    0  502 -0.70280809279E+03  0.10979904284E+04 -0.12636068301E+04  0.18155507201E+04  0.25500000920E-02 0. -1.
</event>
<event>
 5   0  0.9368546E-09  0.3900353E+04  0.7818609E-02  0.8024956E-01
        2   -1    0    0  501    0  0.00000000000E+00  0.00000000000E+00  0.19502480472E+04  0.19502480472E+04  0.25500000920E-02 0. -1.
       -2   -1    0    0    0  501  0.00000000000E+00  0.00000000000E+00 -0.19501047380E+04  0.19501047380E+04  0.25500000920E-02 0.  1.
    10030    2    1    2    0    0  0.00000000000E+00  0.00000000000E+00  0.14330919809E+00  0.39003527853E+04  0.39003527826E+04 0.  0.
        5    1    3    3  502    0  0.24287893792E+03 -0.50051672688E+03 -0.18690614866E+04  0.19501077158E+04  0.46999998093E+01 0.  1.
       -5    1    3    3    0  502 -0.24287893792E+03  0.50051672688E+03  0.18692047958E+04  0.19502450695E+04  0.46999998093E+01 0. -1.
</event>
<event>
 5   0  0.9368546E-09  0.3896252E+04  0.7818609E-02  0.8025809E-01
        2   -1    0    0  501    0  0.00000000000E+00  0.00000000000E+00  0.18144888510E+04  0.18144888510E+04  0.25500000920E-02 0. -1.
       -2   -1    0    0    0  501  0.00000000000E+00  0.00000000000E+00 -0.20916060574E+04  0.20916060574E+04  0.25500000920E-02 0.  1.
    10030    2    1    2    0    0  0.00000000000E+00  0.00000000000E+00 -0.27711720641E+03  0.39060949084E+04  0.38962524928E+04 0.  0.
        5    1    3    3  502    0 -0.55372962661E+03 -0.18669106837E+04 -0.81831375253E+02  0.19490229512E+04  0.46999998093E+01 0. -1.
       -5    1    3    3    0  502  0.55372962661E+03  0.18669106837E+04 -0.19528583115E+03  0.19570719573E+04  0.46999998093E+01 0.  1.
</event>
<event>
 5   0  0.2904500E-09  0.3899406E+04  0.7818609E-02  0.8025153E-01
       -1   -1    0    0    0  501  0.00000000000E+00  0.00000000000E+00  0.20198526649E+04  0.20198526649E+04  0.50400001928E-02 0.  1.
        1   -1    0    0  501    0  0.00000000000E+00  0.00000000000E+00 -0.18819899998E+04  0.18819899998E+04  0.50400001928E-02 0. -1.
    10030    2    1    2    0    0  0.00000000000E+00  0.00000000000E+00  0.13786266513E+03  0.39018426647E+04  0.38994063735E+04 0.  0.
        3    1    3    3  502    0 -0.71678530548E+03 -0.16187574753E+04 -0.74839328101E+03  0.19220430409E+04  0.10100000352E+00 0. -1.
       -3    1    3    3    0  502  0.71678530548E+03  0.16187574753E+04  0.88625594614E+03  0.19797996238E+04  0.10100000352E+00 0.  1.
</event>
<event>
 5   0  0.2929054E-09  0.3908165E+04  0.7818609E-02  0.8023333E-01
       -1   -1    0    0    0  501  0.00000000000E+00  0.00000000000E+00  0.14907395443E+04  0.14907395443E+04  0.50400001928E-02 0.  1.
        1   -1    0    0  501    0  0.00000000000E+00  0.00000000000E+00 -0.25614391063E+04  0.25614391063E+04  0.50400001928E-02 0. -1.
    10030    2    1    2    0    0  0.00000000000E+00  0.00000000000E+00 -0.10706995620E+04  0.40521786506E+04  0.39081650764E+04 0.  0.
        1    1    3    3  502    0  0.35466226170E+03  0.14862428863E+04 -0.17983223075E+04  0.23598021863E+04  0.50400001928E-02 0. -1.
       -1    1    3    3    0  502 -0.35466226170E+03 -0.14862428863E+04  0.72762274553E+03  0.16923764642E+04  0.50400001928E-02 0.  1.
</event>
<event>
 5   0  0.9277261E-09  0.3900888E+04  0.7818609E-02  0.8024844E-01
        2   -1    0    0  501    0  0.00000000000E+00  0.00000000000E+00  0.19906624020E+04  0.19906624020E+04  0.25500000920E-02 0. -1.
       -2   -1    0    0    0  501  0.00000000000E+00  0.00000000000E+00 -0.19110384831E+04  0.19110384831E+04  0.25500000920E-02 0.  1.
    10030    2    1    2    0    0  0.00000000000E+00  0.00000000000E+00  0.79623918936E+02  0.39017008851E+04  0.39008883384E+04 0.  0.
        1    1    3    3  502    0  0.17939932358E+04  0.48650139547E+03 -0.55118937995E+03  0.19387895891E+04  0.50400001928E-02 0.  1.
       -1    1    3    3    0  502 -0.17939932358E+04 -0.48650139547E+03  0.63081329889E+03  0.19629112960E+04  0.50400001928E-02 0. -1.
</event>
<event>
 5   0  0.2904500E-09  0.3900085E+04  0.7818609E-02  0.8025012E-01
        3   -1    0    0  501    0  0.00000000000E+00  0.00000000000E+00  0.25373354324E+04  0.25373354344E+04  0.10100000352E+00 0. -1.
       -3   -1    0    0    0  501  0.00000000000E+00  0.00000000000E+00 -0.14986845120E+04  0.14986845154E+04  0.10100000352E+00 0.  1.
    10030    2    1    2    0    0  0.00000000000E+00  0.00000000000E+00  0.10386509204E+04  0.40360199498E+04  0.39000847813E+04 0.  0.
        1    1    3    3  502    0  0.18848857454E+04 -0.14465584313E+03  0.10144854427E+04  0.21454370882E+04  0.50400001928E-02 0. -1.
       -1    1    3    3    0  502 -0.18848857454E+04  0.14465584313E+03  0.24165477789E+02  0.18905828616E+04  0.50400001928E-02 0.  1.
</event>
<event>
 5   0  0.9078515E-09  0.3898834E+04  0.7818609E-02  0.8025272E-01
        2   -1    0    0  501    0  0.00000000000E+00  0.00000000000E+00  0.29524618462E+04  0.29524618462E+04  0.25500000920E-02 0.  1.
       -2   -1    0    0    0  501  0.00000000000E+00  0.00000000000E+00 -0.12871379678E+04  0.12871379678E+04  0.25500000920E-02 0. -1.
    10030    2    1    2    0    0  0.00000000000E+00  0.00000000000E+00  0.16653238784E+04  0.42395998139E+04  0.38988335387E+04 0.  0.
        3    1    3    3  502    0  0.16440427803E+04 -0.61003217130E+03  0.17586854397E+04  0.24835439194E+04  0.10100000352E+00 0. -1.
       -3    1    3    3    0  502 -0.16440427803E+04  0.61003217130E+03 -0.93361561322E+02  0.17560558946E+04  0.10100000352E+00 0.  1.
</event>
<event>
 5   0  0.9078515E-09  0.3898589E+04  0.7818609E-02  0.8025323E-01
        2   -1    0    0  501    0  0.00000000000E+00  0.00000000000E+00  0.24608835895E+04  0.24608835895E+04  0.25500000920E-02 0. -1.
       -2   -1    0    0    0  501  0.00000000000E+00  0.00000000000E+00 -0.15440591831E+04  0.15440591831E+04  0.25500000920E-02 0.  1.
    10030    2    1    2    0    0  0.00000000000E+00  0.00000000000E+00  0.91682440639E+03  0.40049427726E+04  0.38985894397E+04 0.  0.
        3    1    3    3  502    0  0.54207077033E+01 -0.39181178691E+03 -0.15031825730E+04  0.15534167884E+04  0.10100000352E+00 0.  1.
       -3    1    3    3    0  502 -0.54207077033E+01  0.39181178691E+03  0.24200069794E+04  0.24515259842E+04  0.10100000352E+00 0. -1.
</event>
<event>
 5   0  0.6335942E-09  0.3898485E+04  0.7818609E-02  0.8025344E-01
        2   -1    0    0  501    0  0.00000000000E+00  0.00000000000E+00  0.18207789731E+04  0.18207789731E+04  0.25500000920E-02 0. -1.
       -2   -1    0    0    0  501  0.00000000000E+00  0.00000000000E+00 -0.20867700371E+04  0.20867700371E+04  0.25500000920E-02 0.  1.
    10030    2    1    2    0    0  0.00000000000E+00  0.00000000000E+00 -0.26599106403E+03  0.39075490103E+04  0.38984853497E+04 0.  0.
        2    1    3    3  502    0  0.27830296589E+03 -0.17658961288E+04  0.64579566028E+03  0.19007613510E+04  0.25500000920E-02 0.  1.
       -2    1    3    3    0  502 -0.27830296589E+03  0.17658961288E+04 -0.91178672431E+03  0.20067876592E+04  0.25500000920E-02 0. -1.
</event>
<event>
 5   0  0.9434114E-09  0.3896371E+04  0.7818609E-02  0.8025784E-01
       -2   -1    0    0    0  501  0.00000000000E+00  0.00000000000E+00  0.12479221891E+04  0.12479221891E+04  0.25500000920E-02 0. -1.
        2   -1    0    0  501    0  0.00000000000E+00  0.00000000000E+00 -0.30413965899E+04  0.30413965899E+04  0.25500000920E-02 0.  1.
    10030    2    1    2    0    0  0.00000000000E+00  0.00000000000E+00 -0.17934744007E+04  0.42893187790E+04  0.38963707680E+04 0.  0.
        4    1    3    3  502    0 -0.71314252052E+03  0.50742698970E+03 -0.28127756818E+04  0.29458043135E+04  0.12699999809E+01 0.  1.
       -4    1    3    3    0  502  0.71314252052E+03 -0.50742698970E+03  0.10193012811E+04  0.13435144655E+04  0.12699999809E+01 0. -1.
</event>
<event>
 5   0  0.2904500E-09  0.3896619E+04  0.7818609E-02  0.8025733E-01
        1   -1    0    0  501    0  0.00000000000E+00  0.00000000000E+00  0.28494448959E+04  0.28494448959E+04  0.50400001928E-02 0. -1.
       -1   -1    0    0    0  501  0.00000000000E+00  0.00000000000E+00 -0.13321573559E+04  0.13321573559E+04  0.50400001928E-02 0.  1.
    10030    2    1    2    0    0  0.00000000000E+00  0.00000000000E+00  0.15172875400E+04  0.41816022517E+04  0.38966185229E+04 0.  0.
        2    1    3    3  502    0  0.29500512650E+03  0.70308089795E+03  0.26826898863E+04  0.27889381133E+04  0.25500000920E-02 0. -1.
       -2    1    3    3    0  502 -0.29500512650E+03 -0.70308089795E+03 -0.11654023463E+04  0.13926641384E+04  0.25500000920E-02 0.  1.
</event>
<event>
 5   0  0.2904500E-09  0.3899302E+04  0.7818609E-02  0.8025174E-01
       -1   -1    0    0    0  501  0.00000000000E+00  0.00000000000E+00  0.15142968903E+04  0.15142968903E+04  0.50400001928E-02 0. -1.
        1   -1    0    0  501    0  0.00000000000E+00  0.00000000000E+00 -0.25101672839E+04  0.25101672839E+04  0.50400001928E-02 0.  1.
    10030    2    1    2    0    0  0.00000000000E+00  0.00000000000E+00 -0.99587039356E+03  0.40244641743E+04  0.38993017387E+04 0.  0.
        3    1    3    3  502    0  0.89973575015E+03  0.80408320573E+03 -0.20784501101E+04  0.24033370742E+04  0.10100000352E+00 0.  1.
       -3    1    3    3    0  502 -0.89973575015E+03 -0.80408320573E+03  0.10825797165E+04  0.16211271001E+04  0.10100000352E+00 0. -1.
</event>
<event>
 5   0  0.9078515E-09  0.3902788E+04  0.7818609E-02  0.8024450E-01
        2   -1    0    0  501    0  0.00000000000E+00  0.00000000000E+00  0.12828229691E+04  0.12828229691E+04  0.25500000920E-02 0.  1.
       -2   -1    0    0    0  501  0.00000000000E+00  0.00000000000E+00 -0.29684055215E+04  0.29684055215E+04  0.25500000920E-02 0. -1.
    10030    2    1    2    0    0  0.00000000000E+00  0.00000000000E+00 -0.16855825524E+04  0.42512284906E+04  0.39027881237E+04 0.  0.
        3    1    3    3  502    0  0.13815642105E+04  0.10111565036E+04 -0.18627561004E+04  0.25300232098E+04  0.10100000352E+00 0. -1.
       -3    1    3    3    0  502 -0.13815642105E+04 -0.10111565036E+04  0.17717354803E+03  0.17212052808E+04  0.10100000352E+00 0.  1.
</event>
<event>
 5   0  0.9078515E-09  0.3901421E+04  0.7818609E-02  0.8024734E-01
        2   -1    0    0  501    0  0.00000000000E+00  0.00000000000E+00  0.18325911148E+04  0.18325911148E+04  0.25500000920E-02 0. -1.
       -2   -1    0    0    0  501  0.00000000000E+00  0.00000000000E+00 -0.20764429957E+04  0.20764429957E+04  0.25500000920E-02 0.  1.
    10030    2    1    2    0    0  0.00000000000E+00  0.00000000000E+00 -0.24385188085E+03  0.39090341105E+04  0.39014207588E+04 0.  0.
        3    1    3    3  502    0 -0.15371802713E+04 -0.57448103225E+03 -0.11786495537E+04  0.20204371863E+04  0.10100000352E+00 0.  1.
       -3    1    3    3    0  502  0.15371802713E+04  0.57448103225E+03  0.93479767283E+03  0.18885969243E+04  0.10100000352E+00 0. -1.
</event>
<event>
 5   0  0.2904500E-09  0.3902758E+04  0.7818609E-02  0.8024456E-01
        1   -1    0    0  501    0  0.00000000000E+00  0.00000000000E+00  0.26696851192E+04  0.26696851192E+04  0.50400001928E-02 0.  1.
       -1   -1    0    0    0  501  0.00000000000E+00  0.00000000000E+00 -0.14263408204E+04  0.14263408204E+04  0.50400001928E-02 0. -1.
    10030    2    1    2    0    0  0.00000000000E+00  0.00000000000E+00  0.12433442989E+04  0.40960259396E+04  0.39027584415E+04 0.  0.
        2    1    3    3  502    0  0.94227176793E+03 -0.27230437040E+03 -0.11488339165E+04  0.15105777446E+04  0.25500000920E-02 0. -1.
       -2    1    3    3    0  502 -0.94227176793E+03  0.27230437040E+03  0.23921782154E+04  0.25854481950E+04  0.25500000920E-02 0.  1.
</event>
<event>
 5   0  0.2929054E-09  0.3900026E+04  0.7818609E-02  0.8025024E-01
        1   -1    0    0  501    0  0.00000000000E+00  0.00000000000E+00  0.24272353717E+04  0.24272353717E+04  0.50400001928E-02 0. -1.
       -1   -1    0    0    0  501  0.00000000000E+00  0.00000000000E+00 -0.15666181004E+04  0.15666181004E+04  0.50400001928E-02 0.  1.
    10030    2    1    2    0    0  0.00000000000E+00  0.00000000000E+00  0.86061727135E+03  0.39938534721E+04  0.39000260857E+04 0.  0.
        1    1    3    3  502    0  0.15473311114E+03 -0.11921466783E+04 -0.11420107850E+04  0.16581147944E+04  0.50400001928E-02 0.  1.
       -1    1    3    3    0  502 -0.15473311114E+03  0.11921466783E+04  0.20026280564E+04  0.23357386777E+04  0.50400001928E-02 0. -1.
</event>
<event>
 5   0  0.9368546E-09  0.3898447E+04  0.7818609E-02  0.8025352E-01
        2   -1    0    0  501    0  0.00000000000E+00  0.00000000000E+00  0.19934983908E+04  0.19934983908E+04  0.25500000920E-02 0.  1.
       -2   -1    0    0    0  501  0.00000000000E+00  0.00000000000E+00 -0.19059318974E+04  0.19059318974E+04  0.25500000920E-02 0. -1.
    10030    2    1    2    0    0  0.00000000000E+00  0.00000000000E+00  0.87566493427E+02  0.38994302883E+04  0.38984469577E+04 0.  0.
        5    1    3    3  502    0  0.97541043276E+03 -0.15917345004E+04  0.60464372637E+03  0.19623099546E+04  0.46999998093E+01 0.  1.
       -5    1    3    3    0  502 -0.97541043276E+03  0.15917345004E+04 -0.51707723294E+03  0.19371203336E+04  0.46999998093E+01 0. -1.
</event>
<event>
 5   0  0.2904500E-09  0.3901774E+04  0.7818609E-02  0.8024660E-01
        1   -1    0    0  501    0  0.00000000000E+00  0.00000000000E+00  0.15996820458E+04  0.15996820458E+04  0.50400001928E-02 0.  1.
       -1   -1    0    0    0  501  0.00000000000E+00  0.00000000000E+00 -0.23791978201E+04  0.23791978201E+04  0.50400001928E-02 0. -1.
    10030    2    1    2    0    0  0.00000000000E+00  0.00000000000E+00 -0.77951577429E+03  0.39788798660E+04  0.39017739742E+04 0.  0.
        4    1    3    3  502    0  0.18843392618E+04 -0.42793868689E+03 -0.66356429796E+03  0.20430822704E+04  0.12699999809E+01 0. -1.
       -4    1    3    3    0  502 -0.18843392618E+04  0.42793868689E+03 -0.11595147633E+03  0.19357975956E+04  0.12699999809E+01 0.  1.
</event>
<event>
 5   0  0.2904500E-09  0.3899613E+04  0.7818609E-02  0.8025110E-01
        1   -1    0    0  501    0  0.00000000000E+00  0.00000000000E+00  0.26548855051E+04  0.26548855051E+04  0.50400001928E-02 0.  1.
       -1   -1    0    0    0  501  0.00000000000E+00  0.00000000000E+00 -0.14319809945E+04  0.14319809945E+04  0.50400001928E-02 0. -1.
    10030    2    1    2    0    0  0.00000000000E+00  0.00000000000E+00  0.12229045106E+04  0.40868664996E+04  0.38996131017E+04 0.  0.
        4    1    3    3  502    0  0.48942386785E+03 -0.15872446336E+04  0.16816955181E+04  0.23636799018E+04  0.12699999809E+01 0.  1.
       -4    1    3    3    0  502 -0.48942386785E+03  0.15872446336E+04 -0.45879100754E+03  0.17231865978E+04  0.12699999809E+01 0. -1.
</event>
<event>
 5   0  0.6335942E-09  0.3898004E+04  0.7818609E-02  0.8025444E-01
        2   -1    0    0  501    0  0.00000000000E+00  0.00000000000E+00  0.22886946321E+04  0.22886946321E+04  0.25500000920E-02 0.  1.
       -2   -1    0    0    0  501  0.00000000000E+00  0.00000000000E+00 -0.16597274479E+04  0.16597274479E+04  0.25500000920E-02 0. -1.
    10030    2    1    2    0    0  0.00000000000E+00  0.00000000000E+00  0.62896718423E+03  0.39484220800E+04  0.38980042590E+04 0.  0.
        2    1    3    3  502    0  0.18747044111E+04 -0.96444925227E+02  0.84546895915E+03  0.20587947964E+04  0.25500000920E-02 0. -1.
       -2    1    3    3    0  502 -0.18747044111E+04  0.96444925227E+02 -0.21650177492E+03  0.18896272837E+04  0.25500000920E-02 0.  1.
</event>
<event>
 5   0  0.2929054E-09  0.3906131E+04  0.7818609E-02  0.8023755E-01
       -1   -1    0    0    0  501  0.00000000000E+00  0.00000000000E+00  0.32290630085E+04  0.32290630085E+04  0.50400001928E-02 0. -1.
        1   -1    0    0  501    0  0.00000000000E+00  0.00000000000E+00 -0.11812916802E+04  0.11812916803E+04  0.50400001928E-02 0.  1.
    10030    2    1    2    0    0  0.00000000000E+00  0.00000000000E+00  0.20477713283E+04  0.44103546888E+04  0.39061312149E+04 0.  0.
        1    1    3    3  502    0  0.17102410119E+04  0.93093246339E+03  0.11947685005E+04  0.22845199364E+04  0.50400001928E-02 0. -1.
       -1    1    3    3    0  502 -0.17102410119E+04 -0.93093246339E+03  0.85300282777E+03  0.21258347524E+04  0.50400001928E-02 0.  1.
</event>
<event>
 5   0  0.2929054E-09  0.3899056E+04  0.7818609E-02  0.8025226E-01
       -1   -1    0    0    0  501  0.00000000000E+00  0.00000000000E+00  0.15245129878E+04  0.15245129878E+04  0.50400001928E-02 0.  1.
        1   -1    0    0  501    0  0.00000000000E+00  0.00000000000E+00 -0.24930315962E+04  0.24930315962E+04  0.50400001928E-02 0. -1.
    10030    2    1    2    0    0  0.00000000000E+00  0.00000000000E+00 -0.96851860843E+03  0.40175445840E+04  0.38990558074E+04 0.  0.
        1    1    3    3  502    0 -0.13784359099E+04 -0.13777804237E+04 -0.43490169016E+03  0.19968735397E+04  0.50400001928E-02 0. -1.
       -1    1    3    3    0  502  0.13784359099E+04  0.13777804237E+04 -0.53361691827E+03  0.20206710443E+04  0.50400001928E-02 0.  1.
</event>
<event>
 5   0  0.2929054E-09  0.3903422E+04  0.7818609E-02  0.8024318E-01
        1   -1    0    0  501    0  0.00000000000E+00  0.00000000000E+00  0.27386085283E+04  0.27386085283E+04  0.50400001928E-02 0.  1.
       -1   -1    0    0    0  501  0.00000000000E+00  0.00000000000E+00 -0.13909162624E+04  0.13909162624E+04  0.50400001928E-02 0. -1.
    10030    2    1    2    0    0  0.00000000000E+00  0.00000000000E+00  0.13476922659E+04  0.41295247907E+04  0.39034216469E+04 0.  0.
        1    1    3    3  502    0 -0.66296054508E+03 -0.50746053991E+03  0.25401584896E+04  0.26738433081E+04  0.50400001928E-02 0.  1.
       -1    1    3    3    0  502  0.66296054508E+03  0.50746053991E+03 -0.11924662238E+04  0.14556814826E+04  0.50400001928E-02 0. -1.
</event>
<event>
 5   0  0.2904500E-09  0.3900115E+04  0.7818609E-02  0.8025005E-01
       -1   -1    0    0    0  501  0.00000000000E+00  0.00000000000E+00  0.19880029898E+04  0.19880029898E+04  0.50400001928E-02 0. -1.
        1   -1    0    0  501    0  0.00000000000E+00  0.00000000000E+00 -0.19128361181E+04  0.19128361181E+04  0.50400001928E-02 0.  1.
    10030    2    1    2    0    0  0.00000000000E+00  0.00000000000E+00  0.75166871744E+02  0.39008391079E+04  0.39001148300E+04 0.  0.
        5    1    3    3  502    0  0.12826955071E+04 -0.12444690956E+04 -0.74274779825E+03  0.19353830307E+04  0.46999998093E+01 0.  1.
       -5    1    3    3    0  502 -0.12826955071E+04  0.12444690956E+04  0.81791466999E+03  0.19654560771E+04  0.46999998093E+01 0. -1.
</event>
<event>
 5   0  0.2904500E-09  0.3900125E+04  0.7818609E-02  0.8025003E-01
       -1   -1    0    0    0  501  0.00000000000E+00  0.00000000000E+00  0.19036704030E+04  0.19036704030E+04  0.50400001928E-02 0.  1.
        1   -1    0    0  501    0  0.00000000000E+00  0.00000000000E+00 -0.19975852793E+04  0.19975852793E+04  0.50400001928E-02 0. -1.
    10030    2    1    2    0    0  0.00000000000E+00  0.00000000000E+00 -0.93914876284E+02  0.39012556824E+04  0.39001251128E+04 0.  0.
        3    1    3    3  502    0  0.18483965708E+03 -0.17078148924E+03  0.18873590370E+04  0.19040630663E+04  0.10100000352E+00 0.  1.
       -3    1    3    3    0  502 -0.18483965708E+03  0.17078148924E+03 -0.19812739133E+04  0.19971926160E+04  0.10100000352E+00 0. -1.
</event>
<event>
 5   0  0.2904500E-09  0.3897556E+04  0.7818609E-02  0.8025538E-01
        4   -1    0    0  501    0  0.00000000000E+00  0.00000000000E+00  0.13836558872E+04  0.13836564700E+04  0.12699999809E+01 0. -1.
       -4   -1    0    0    0  501  0.00000000000E+00  0.00000000000E+00 -0.27447097216E+04  0.27447100154E+04  0.12699999809E+01 0.  1.
    10030    2    1    2    0    0  0.00000000000E+00  0.00000000000E+00 -0.13610538344E+04  0.41283664854E+04  0.38975559390E+04 0.  0.
        3    1    3    3  502    0 -0.15994370225E+04 -0.10879409000E+04 -0.93100792420E+03  0.21467626688E+04  0.10100000352E+00 0. -1.
       -3    1    3    3    0  502  0.15994370225E+04  0.10879409000E+04 -0.43004591022E+03  0.19816038166E+04  0.10100000352E+00 0.  1.
</event>
<event>
 5   0  0.2904500E-09  0.3899603E+04  0.7818609E-02  0.8025112E-01
        1   -1    0    0  501    0  0.00000000000E+00  0.00000000000E+00  0.27434090717E+04  0.27434090717E+04  0.50400001928E-02 0. -1.
       -1   -1    0    0    0  501  0.00000000000E+00  0.00000000000E+00 -0.13857672003E+04  0.13857672003E+04  0.50400001928E-02 0.  1.
    10030    2    1    2    0    0  0.00000000000E+00  0.00000000000E+00  0.13576418714E+04  0.41291762720E+04  0.38996032149E+04 0.  0.
        2    1    3    3  502    0 -0.10862638486E+04 -0.39503740492E+03 -0.98387697309E+03  0.15179056618E+04  0.25500000920E-02 0.  1.
       -2    1    3    3    0  502  0.10862638486E+04  0.39503740492E+03  0.23415188445E+04  0.26112706101E+04  0.25500000920E-02 0. -1.
</event>
<event>
 5   0  0.9368546E-09  0.3899150E+04  0.7818609E-02  0.8025206E-01
        2   -1    0    0  501    0  0.00000000000E+00  0.00000000000E+00  0.21673618922E+04  0.21673618922E+04  0.25500000920E-02 0.  1.
       -2   -1    0    0    0  501  0.00000000000E+00  0.00000000000E+00 -0.17536727888E+04  0.17536727888E+04  0.25500000920E-02 0. -1.
    10030    2    1    2    0    0  0.00000000000E+00  0.00000000000E+00  0.41368910339E+03  0.39210346810E+04  0.38991504582E+04 0.  0.
        5    1    3    3  502    0  0.15265678284E+04  0.65111682317E+00 -0.10125666167E+04  0.18318632597E+04  0.46999998093E+01 0. -1.
       -5    1    3    3    0  502 -0.15265678284E+04 -0.65111682317E+00  0.14262557201E+04  0.20891714214E+04  0.46999998093E+01 0.  1.
</event>
<event>
 5   0  0.9078515E-09  0.3901263E+04  0.7818609E-02  0.8024767E-01
        2   -1    0    0  501    0  0.00000000000E+00  0.00000000000E+00  0.19062792175E+04  0.19062792175E+04  0.25500000920E-02 0.  1.
       -2   -1    0    0    0  501  0.00000000000E+00  0.00000000000E+00 -0.19960154536E+04  0.19960154536E+04  0.25500000920E-02 0. -1.
    10030    2    1    2    0    0  0.00000000000E+00  0.00000000000E+00 -0.89736236078E+02  0.39022946711E+04  0.39012627582E+04 0.  0.
        3    1    3    3  502    0 -0.65049799051E+03 -0.12957453881E+04 -0.13501496881E+04  0.19811632787E+04  0.10100000352E+00 0. -1.
       -3    1    3    3    0  502  0.65049799051E+03  0.12957453881E+04  0.12604134520E+04  0.19211313924E+04  0.10100000352E+00 0.  1.
</event>
<event>
 5   0  0.2929054E-09  0.3899528E+04  0.7818609E-02  0.8025127E-01
       -1   -1    0    0    0  501  0.00000000000E+00  0.00000000000E+00  0.19067740330E+04  0.19067740330E+04  0.50400001928E-02 0.  1.
        1   -1    0    0  501    0  0.00000000000E+00  0.00000000000E+00 -0.19937231360E+04  0.19937231360E+04  0.50400001928E-02 0. -1.
    10030    2    1    2    0    0  0.00000000000E+00  0.00000000000E+00 -0.86949102995E+02  0.39004971690E+04  0.38995279225E+04 0.  0.
        1    1    3    3  502    0  0.17528087949E+04 -0.17607329234E+03 -0.87928922802E+03  0.19688803981E+04  0.50400001928E-02 0.  1.
       -1    1    3    3    0  502 -0.17528087949E+04  0.17607329234E+03  0.79234012503E+03  0.19316167708E+04  0.50400001928E-02 0. -1.
</event>
<event>
 5   0  0.2904500E-09  0.3898907E+04  0.7818609E-02  0.8025257E-01
        1   -1    0    0  501    0  0.00000000000E+00  0.00000000000E+00  0.17644667967E+04  0.17644667967E+04  0.50400001928E-02 0. -1.
       -1   -1    0    0    0  501  0.00000000000E+00  0.00000000000E+00 -0.21538341460E+04  0.21538341460E+04  0.50400001928E-02 0.  1.
    10030    2    1    2    0    0  0.00000000000E+00  0.00000000000E+00 -0.38936734932E+03  0.39183009427E+04  0.38989069423E+04 0.  0.
        5    1    3    3  502    0  0.13084354078E+04 -0.89723262382E+02  0.12548129239E+04  0.18151118544E+04  0.46999998093E+01 0. -1.
       -5    1    3    3    0  502 -0.13084354078E+04  0.89723262382E+02 -0.16441802732E+04  0.21031890883E+04  0.46999998093E+01 0.  1.
</event>
<event>
 5   0  0.9078515E-09  0.3899743E+04  0.7818609E-02  0.8025083E-01
        2   -1    0    0  501    0  0.00000000000E+00  0.00000000000E+00  0.24551056736E+04  0.24551056736E+04  0.25500000920E-02 0.  1.
       -2   -1    0    0    0  501  0.00000000000E+00  0.00000000000E+00 -0.15486087767E+04  0.15486087767E+04  0.25500000920E-02 0. -1.
    10030    2    1    2    0    0  0.00000000000E+00  0.00000000000E+00  0.90649689692E+03  0.40037144503E+04  0.38997426550E+04 0.  0.
        3    1    3    3  502    0  0.85525622318E+03 -0.42369364177E+03  0.21988800491E+04  0.23970926119E+04  0.10100000352E+00 0.  1.
       -3    1    3    3    0  502 -0.85525622318E+03  0.42369364177E+03 -0.12923831522E+04  0.16066218384E+04  0.10100000352E+00 0. -1.
</event>
<event>
 5   0  0.2904500E-09  0.3898513E+04  0.7818609E-02  0.8025338E-01
       -1   -1    0    0    0  501  0.00000000000E+00  0.00000000000E+00  0.19224232639E+04  0.19224232639E+04  0.50400001928E-02 0.  1.
        1   -1    0    0  501    0  0.00000000000E+00  0.00000000000E+00 -0.19764646548E+04  0.19764646548E+04  0.50400001928E-02 0. -1.
    10030    2    1    2    0    0  0.00000000000E+00  0.00000000000E+00 -0.54041390905E+02  0.38988879187E+04  0.38985133745E+04 0.  0.
        4    1    3    3  502    0 -0.66111577566E+03 -0.16775072299E+04  0.71365524021E+03  0.19391776581E+04  0.12699999809E+01 0.  1.
       -4    1    3    3    0  502  0.66111577566E+03  0.16775072299E+04 -0.76769663111E+03  0.19597102606E+04  0.12699999809E+01 0. -1.
</event>
<event>
 5   0  0.6335942E-09  0.3900034E+04  0.7818609E-02  0.8025022E-01
       -2   -1    0    0    0  501  0.00000000000E+00  0.00000000000E+00  0.14358141023E+04  0.14358141023E+04  0.25500000920E-02 0.  1.
        2   -1    0    0  501    0  0.00000000000E+00  0.00000000000E+00 -0.26483696477E+04  0.26483696477E+04  0.25500000920E-02 0. -1.
    10030    2    1    2    0    0  0.00000000000E+00  0.00000000000E+00 -0.12125555454E+04  0.40841837499E+04  0.39000340963E+04 0.  0.
        2    1    3    3  502    0  0.19379412766E+04  0.19256490409E+03 -0.50224498528E+03  0.20112055239E+04  0.25500000920E-02 0. -1.
       -2    1    3    3    0  502 -0.19379412766E+04 -0.19256490409E+03 -0.71031056011E+03  0.20729782261E+04  0.25500000920E-02 0.  1.
</event>
<event>
 5   0  0.9277261E-09  0.3900494E+04  0.7818609E-02  0.8024926E-01
        2   -1    0    0  501    0  0.00000000000E+00  0.00000000000E+00  0.25018927646E+04  0.25018927646E+04  0.25500000920E-02 0. -1.
       -2   -1    0    0    0  501  0.00000000000E+00  0.00000000000E+00 -0.15202342959E+04  0.15202342959E+04  0.25500000920E-02 0.  1.
    10030    2    1    2    0    0  0.00000000000E+00  0.00000000000E+00  0.98165846875E+03  0.40221270605E+04  0.39004939099E+04 0.  0.
        1    1    3    3  502    0 -0.16897357813E+04 -0.43164016254E+03  0.13909430091E+04  0.22307493573E+04  0.50400001928E-02 0. -1.
       -1    1    3    3    0  502  0.16897357813E+04  0.43164016254E+03 -0.40928454034E+03  0.17913777032E+04  0.50400001928E-02 0.  1.
</event>
<event>
 5   0  0.2904500E-09  0.3900311E+04  0.7818609E-02  0.8024965E-01
        1   -1    0    0  501    0  0.00000000000E+00  0.00000000000E+00  0.14796169411E+04  0.14796169411E+04  0.50400001928E-02 0.  1.
       -1   -1    0    0    0  501  0.00000000000E+00  0.00000000000E+00 -0.25703319389E+04  0.25703319389E+04  0.50400001928E-02 0. -1.
    10030    2    1    2    0    0  0.00000000000E+00  0.00000000000E+00 -0.10907149978E+04  0.40499488801E+04  0.39003111062E+04 0.  0.
        3    1    3    3  502    0  0.62226063429E+03 -0.14494464429E+04  0.64537368332E+03  0.17042917852E+04  0.10100000352E+00 0.  1.
       -3    1    3    3    0  502 -0.62226063429E+03  0.14494464429E+04 -0.17360886811E+04  0.23456570949E+04  0.10100000352E+00 0. -1.
</event>
<event>
 5   0  0.9078515E-09  0.3899028E+04  0.7818609E-02  0.8025231E-01
       -2   -1    0    0    0  501  0.00000000000E+00  0.00000000000E+00  0.24655297215E+04  0.24655297215E+04  0.25500000920E-02 0. -1.
        2   -1    0    0  501    0  0.00000000000E+00  0.00000000000E+00 -0.15414962796E+04  0.15414962796E+04  0.25500000920E-02 0.  1.
    10030    2    1    2    0    0  0.00000000000E+00  0.00000000000E+00  0.92403344186E+03  0.40070260011E+04  0.38990280291E+04 0.  0.
        3    1    3    3  502    0  0.60608859657E+03 -0.15985453061E+04  0.14249404514E+04  0.22255663959E+04  0.10100000352E+00 0. -1.
       -3    1    3    3    0  502 -0.60608859657E+03  0.15985453061E+04 -0.50090700954E+03  0.17814596052E+04  0.10100000352E+00 0.  1.
</event>
<event>
 5   0  0.2904500E-09  0.3899346E+04  0.7818609E-02  0.8025165E-01
        1   -1    0    0  501    0  0.00000000000E+00  0.00000000000E+00  0.14414202846E+04  0.14414202846E+04  0.50400001928E-02 0.  1.
       -1   -1    0    0    0  501  0.00000000000E+00  0.00000000000E+00 -0.26371389575E+04  0.26371389576E+04  0.50400001928E-02 0. -1.
    10030    2    1    2    0    0  0.00000000000E+00  0.00000000000E+00 -0.11957186729E+04  0.40785592422E+04  0.38993464000E+04 0.  0.
        4    1    3    3  502    0 -0.93081260862E+03 -0.13450806752E+04  0.51182940743E+03  0.17139501424E+04  0.12699999809E+01 0.  1.
       -4    1    3    3    0  502  0.93081260862E+03  0.13450806752E+04 -0.17075480804E+04  0.23646090998E+04  0.12699999809E+01 0. -1.
</event>
<event>
 5   0  0.6335942E-09  0.3899470E+04  0.7818609E-02  0.8025139E-01
       -2   -1    0    0    0  501  0.00000000000E+00  0.00000000000E+00  0.15985322870E+04  0.15985322870E+04  0.25500000920E-02 0. -1.
        2   -1    0    0  501    0  0.00000000000E+00  0.00000000000E+00 -0.23780984303E+04  0.23780984303E+04  0.25500000920E-02 0.  1.
    10030    2    1    2    0    0  0.00000000000E+00  0.00000000000E+00 -0.77956614330E+03  0.39766307174E+04  0.38994702833E+04 0.  0.
        2    1    3    3  502    0  0.12835449758E+03  0.91426011538E+03 -0.21410644130E+04  0.23316310292E+04  0.25500000920E-02 0.  1.
       -2    1    3    3    0  502 -0.12835449758E+03 -0.91426011538E+03  0.13614982697E+04  0.16449996882E+04  0.25500000920E-02 0. -1.
</event>
<event>
 5   0  0.2904500E-09  0.3900163E+04  0.7818609E-02  0.8024995E-01
       -1   -1    0    0    0  501  0.00000000000E+00  0.00000000000E+00  0.13541124106E+04  0.13541124107E+04  0.50400001928E-02 0.  1.
        1   -1    0    0  501    0  0.00000000000E+00  0.00000000000E+00 -0.28083475430E+04  0.28083475430E+04  0.50400001928E-02 0. -1.
    10030    2    1    2    0    0  0.00000000000E+00  0.00000000000E+00 -0.14542351323E+04  0.41624599536E+04  0.39001632075E+04 0.  0.
        4    1    3    3  502    0  0.16599778671E+04  0.44140449513E+03 -0.17124943037E+04  0.24254902187E+04  0.12699999809E+01 0. -1.
       -4    1    3    3    0  502 -0.16599778671E+04 -0.44140449513E+03  0.25825917136E+03  0.17369697350E+04  0.12699999809E+01 0.  1.
</event>
<event>
 5   0  0.2904500E-09  0.3899538E+04  0.7818609E-02  0.8025125E-01
        1   -1    0    0  501    0  0.00000000000E+00  0.00000000000E+00  0.22144035614E+04  0.22144035614E+04  0.50400001928E-02 0. -1.
       -1   -1    0    0    0  501  0.00000000000E+00  0.00000000000E+00 -0.17167600026E+04  0.17167600026E+04  0.50400001928E-02 0.  1.
    10030    2    1    2    0    0  0.00000000000E+00  0.00000000000E+00  0.49764355878E+03  0.39311635640E+04  0.38995381593E+04 0.  0.
        4    1    3    3  502    0  0.25188365075E+03 -0.70106394556E+03 -0.15676408457E+04  0.17356369043E+04  0.12699999809E+01 0.  1.
       -4    1    3    3    0  502 -0.25188365075E+03  0.70106394556E+03  0.20652844045E+04  0.21955266598E+04  0.12699999809E+01 0. -1.
</event>
<event>
 5   0  0.9368546E-09  0.3917343E+04  0.7818609E-02  0.8021432E-01
       -2   -1    0    0    0  501  0.00000000000E+00  0.00000000000E+00  0.14585271894E+04  0.14585271894E+04  0.25500000920E-02 0.  1.
        2   -1    0    0  501    0  0.00000000000E+00  0.00000000000E+00 -0.26303199399E+04  0.26303199399E+04  0.25500000920E-02 0. -1.
    10030    2    1    2    0    0  0.00000000000E+00  0.00000000000E+00 -0.11717927505E+04  0.40888471293E+04  0.39173425427E+04 0.  0.
        5    1    3    3  502    0 -0.26340961354E+03 -0.41326568822E+03  0.13934924615E+04  0.14771650158E+04  0.46999998093E+01 0.  1.
       -5    1    3    3    0  502  0.26340961354E+03  0.41326568822E+03 -0.25652852120E+04  0.26116821136E+04  0.46999998093E+01 0. -1.
</event>
<event>
 5   0  0.6335942E-09  0.3900775E+04  0.7818609E-02  0.8024868E-01
       -2   -1    0    0    0  501  0.00000000000E+00  0.00000000000E+00  0.23446636372E+04  0.23446636372E+04  0.25500000920E-02 0. -1.
        2   -1    0    0  501    0  0.00000000000E+00  0.00000000000E+00 -0.16224125082E+04  0.16224125082E+04  0.25500000920E-02 0.  1.
    10030    2    1    2    0    0  0.00000000000E+00  0.00000000000E+00  0.72225112901E+03  0.39670761455E+04  0.39007751090E+04 0.  0.
        2    1    3    3  502    0  0.65262588827E+03  0.15130733139E+04 -0.70001710217E+03  0.17903450356E+04  0.25500000920E-02 0.  1.
       -2    1    3    3    0  502 -0.65262588827E+03 -0.15130733139E+04  0.14222682312E+04  0.21767311099E+04  0.25500000920E-02 0. -1.
</event>
<event>
 5   0  0.9434114E-09  0.3901027E+04  0.7818609E-02  0.8024816E-01
       -2   -1    0    0    0  501  0.00000000000E+00  0.00000000000E+00  0.15877384022E+04  0.15877384022E+04  0.25500000920E-02 0. -1.
        2   -1    0    0  501    0  0.00000000000E+00  0.00000000000E+00 -0.23961768779E+04  0.23961768779E+04  0.25500000920E-02 0.  1.
    10030    2    1    2    0    0  0.00000000000E+00  0.00000000000E+00 -0.80843847568E+03  0.39839152801E+04  0.39010265559E+04 0.  0.
        4    1    3    3  502    0  0.12378265012E+04 -0.79417569336E+02 -0.19415209553E+04  0.23039155432E+04  0.12699999809E+01 0.  1.
       -4    1    3    3    0  502 -0.12378265012E+04  0.79417569336E+02  0.11330824796E+04  0.16799997369E+04  0.12699999809E+01 0. -1.
</event>
<event>
 5   0  0.9368546E-09  0.3900520E+04  0.7818609E-02  0.8024921E-01
       -2   -1    0    0    0  501  0.00000000000E+00  0.00000000000E+00  0.17651655118E+04  0.17651655118E+04  0.25500000920E-02 0.  1.
        2   -1    0    0  501    0  0.00000000000E+00  0.00000000000E+00 -0.21547638829E+04  0.21547638829E+04  0.25500000920E-02 0. -1.
    10030    2    1    2    0    0  0.00000000000E+00  0.00000000000E+00 -0.38959837118E+03  0.39199293947E+04  0.39005204228E+04 0.  0.
        5    1    3    3  502    0  0.18676406101E+04  0.55802037651E+03 -0.13104367096E+03  0.19536280922E+04  0.46999998093E+01 0. -1.
       -5    1    3    3    0  502 -0.18676406101E+04 -0.55802037651E+03 -0.25855470022E+03  0.19663013025E+04  0.46999998093E+01 0.  1.
</event>
<event>
 5   0  0.9434114E-09  0.3899559E+04  0.7818609E-02  0.8025121E-01
       -2   -1    0    0    0  501  0.00000000000E+00  0.00000000000E+00  0.18386119686E+04  0.18386119686E+04  0.25500000920E-02 0. -1.
        2   -1    0    0  501    0  0.00000000000E+00  0.00000000000E+00 -0.20676682729E+04  0.20676682729E+04  0.25500000920E-02 0.  1.
    10030    2    1    2    0    0  0.00000000000E+00  0.00000000000E+00 -0.22905630430E+03  0.39062802415E+04  0.38995587615E+04 0.  0.
        4    1    3    3  502    0  0.77195683743E+03 -0.46699363400E+03 -0.18459858546E+04  0.20546692681E+04  0.12699999809E+01 0.  1.
       -4    1    3    3    0  502 -0.77195683743E+03  0.46699363400E+03  0.16169295503E+04  0.18516109734E+04  0.12699999809E+01 0. -1.
</event>
<event>
 5   0  0.2929054E-09  0.3899904E+04  0.7818609E-02  0.8025049E-01
        1   -1    0    0  501    0  0.00000000000E+00  0.00000000000E+00  0.33228152135E+04  0.33228152135E+04  0.50400001928E-02 0. -1.
       -1   -1    0    0    0  501  0.00000000000E+00  0.00000000000E+00 -0.11443047960E+04  0.11443047960E+04  0.50400001928E-02 0.  1.
    10030    2    1    2    0    0  0.00000000000E+00  0.00000000000E+00  0.21785104176E+04  0.44671200095E+04  0.38999042988E+04 0.  0.
        1    1    3    3  502    0  0.35332069599E+03  0.17019344873E+04  0.77045469501E+02  0.17399288829E+04  0.50400001928E-02 0.  1.
       -1    1    3    3    0  502 -0.35332069599E+03 -0.17019344873E+04  0.21014649481E+04  0.27271911266E+04  0.50400001928E-02 0. -1.
</event>
<event>
 5   0  0.9368546E-09  0.3899796E+04  0.7818609E-02  0.8025072E-01
       -2   -1    0    0    0  501  0.00000000000E+00  0.00000000000E+00  0.18307733492E+04  0.18307733492E+04  0.25500000920E-02 0. -1.
        2   -1    0    0  501    0  0.00000000000E+00  0.00000000000E+00 -0.20767742902E+04  0.20767742902E+04  0.25500000920E-02 0.  1.
    10030    2    1    2    0    0  0.00000000000E+00  0.00000000000E+00 -0.24600094097E+03  0.39075476394E+04  0.38997964166E+04 0.  0.
        5    1    3    3  502    0  0.35593640283E+03  0.63315033208E+03  0.16901571667E+04  0.18396258870E+04  0.46999998093E+01 0. -1.
       -5    1    3    3    0  502 -0.35593640283E+03 -0.63315033208E+03 -0.19361581077E+04  0.20679217524E+04  0.46999998093E+01 0.  1.
</event>
<event>
 5   0  0.2904500E-09  0.3900457E+04  0.7818609E-02  0.8024934E-01
        3   -1    0    0  501    0  0.00000000000E+00  0.00000000000E+00  0.24041185154E+04  0.24041185176E+04  0.10100000352E+00 0. -1.
       -3   -1    0    0    0  501  0.00000000000E+00  0.00000000000E+00 -0.15820313322E+04  0.15820313354E+04  0.10100000352E+00 0.  1.
    10030    2    1    2    0    0  0.00000000000E+00  0.00000000000E+00  0.82208718326E+03  0.39861498530E+04  0.39004568083E+04 0.  0.
        2    1    3    3  502    0 -0.53781772754E+03  0.18067057284E+04 -0.99897801504E+02  0.18877004709E+04  0.25500000920E-02 0.  1.
       -2    1    3    3    0  502  0.53781772754E+03 -0.18067057284E+04  0.92198498476E+03  0.20984493821E+04  0.25500000920E-02 0. -1.
</event>
<event>
 5   0  0.6335942E-09  0.3900383E+04  0.7818609E-02  0.8024950E-01
       -2   -1    0    0    0  501  0.00000000000E+00  0.00000000000E+00  0.14911014871E+04  0.14911014871E+04  0.25500000920E-02 0. -1.
        2   -1    0    0  501    0  0.00000000000E+00  0.00000000000E+00 -0.25506289950E+04  0.25506289950E+04  0.25500000920E-02 0.  1.
    10030    2    1    2    0    0  0.00000000000E+00  0.00000000000E+00 -0.10595275080E+04  0.40417304821E+04  0.39003828978E+04 0.  0.
        2    1    3    3  502    0  0.76937068290E+03  0.13119557439E+04 -0.17946923234E+04  0.23524624667E+04  0.25500000920E-02 0.  1.
       -2    1    3    3    0  502 -0.76937068290E+03 -0.13119557439E+04  0.73516481545E+03  0.16892680153E+04  0.25500000920E-02 0. -1.
</event>
<event>
 5   0  0.6335942E-09  0.3897164E+04  0.7818609E-02  0.8025619E-01
       -2   -1    0    0    0  501  0.00000000000E+00  0.00000000000E+00  0.26984542667E+04  0.26984542667E+04  0.25500000920E-02 0. -1.
        2   -1    0    0  501    0  0.00000000000E+00  0.00000000000E+00 -0.14070917500E+04  0.14070917500E+04  0.25500000920E-02 0.  1.
    10030    2    1    2    0    0  0.00000000000E+00  0.00000000000E+00  0.12913625167E+04  0.41055460168E+04  0.38971644752E+04 0.  0.
        2    1    3    3  502    0 -0.28502065015E+03  0.92357591111E+02  0.26740436578E+04  0.26907761296E+04  0.25500000920E-02 0. -1.
       -2    1    3    3    0  502  0.28502065015E+03 -0.92357591111E+02 -0.13826811411E+04  0.14147698872E+04  0.25500000920E-02 0.  1.
</event>
<event>
 5   0  0.9368546E-09  0.3899274E+04  0.7818609E-02  0.8025180E-01
        2   -1    0    0  501    0  0.00000000000E+00  0.00000000000E+00  0.17982419078E+04  0.17982419078E+04  0.25500000920E-02 0. -1.
       -2   -1    0    0    0  501  0.00000000000E+00  0.00000000000E+00 -0.21137776400E+04  0.21137776400E+04  0.25500000920E-02 0.  1.
    10030    2    1    2    0    0  0.00000000000E+00  0.00000000000E+00 -0.31553573224E+03  0.39120195478E+04  0.38992735405E+04 0.  0.
        5    1    3    3  502    0  0.14050548166E+03  0.10408192403E+03  0.17903535238E+04  0.17988781692E+04  0.46999998093E+01 0. -1.
       -5    1    3    3    0  502 -0.14050548166E+03 -0.10408192403E+03 -0.21058892561E+04  0.21131413786E+04  0.46999998093E+01 0.  1.
</event>
<event>
 5   0  0.2929054E-09  0.3901078E+04  0.7818609E-02  0.8024805E-01
        1   -1    0    0  501    0  0.00000000000E+00  0.00000000000E+00  0.23098992249E+04  0.23098992249E+04  0.50400001928E-02 0.  1.
       -1   -1    0    0    0  501  0.00000000000E+00  0.00000000000E+00 -0.16470857392E+04  0.16470857392E+04  0.50400001928E-02 0. -1.
    10030    2    1    2    0    0  0.00000000000E+00  0.00000000000E+00  0.66281348573E+03  0.39569849641E+04  0.39010778368E+04 0.  0.
        1    1    3    3  502    0 -0.97514289753E+03  0.12655091440E+04  0.14664542369E+04  0.21686182452E+04  0.50400001928E-02 0.  1.
       -1    1    3    3    0  502  0.97514289753E+03 -0.12655091440E+04 -0.80364075120E+03  0.17883667189E+04  0.50400001928E-02 0. -1.
</event>
<event>
 5   0  0.2904500E-09  0.3901343E+04  0.7818609E-02  0.8024750E-01
       -1   -1    0    0    0  501  0.00000000000E+00  0.00000000000E+00  0.14926675136E+04  0.14926675136E+04  0.50400001928E-02 0. -1.
        1   -1    0    0  501    0  0.00000000000E+00  0.00000000000E+00 -0.25492074437E+04  0.25492074437E+04  0.50400001928E-02 0.  1.
    10030    2    1    2    0    0  0.00000000000E+00  0.00000000000E+00 -0.10565399301E+04  0.40418749573E+04  0.39013429158E+04 0.  0.
        5    1    3    3  502    0 -0.16440302018E+04  0.75646466822E+03  0.22598136588E+03  0.18237773347E+04  0.46999998093E+01 0. -1.
       -5    1    3    3    0  502  0.16440302018E+04 -0.75646466822E+03 -0.12825212960E+04  0.22180976226E+04  0.46999998093E+01 0.  1.
</event>
<event>
 5   0  0.6335942E-09  0.3901114E+04  0.7818609E-02  0.8024798E-01
        2   -1    0    0  501    0  0.00000000000E+00  0.00000000000E+00  0.16674913496E+04  0.16674913496E+04  0.25500000920E-02 0. -1.
       -2   -1    0    0    0  501  0.00000000000E+00  0.00000000000E+00 -0.22816748308E+04  0.22816748308E+04  0.25500000920E-02 0.  1.
    10030    2    1    2    0    0  0.00000000000E+00  0.00000000000E+00 -0.61418348116E+03  0.39491661804E+04  0.39011142219E+04 0.  0.
        2    1    3    3  502    0 -0.67073518459E+03  0.29306054655E+03  0.15231891742E+04  0.16899335585E+04  0.25500000920E-02 0. -1.
       -2    1    3    3    0  502  0.67073518459E+03 -0.29306054655E+03 -0.21373726554E+04  0.22592326219E+04  0.25500000920E-02 0.  1.
</event>
<event>
 5   0  0.9368546E-09  0.3900661E+04  0.7818609E-02  0.8024892E-01
       -2   -1    0    0    0  501  0.00000000000E+00  0.00000000000E+00  0.22870716161E+04  0.22870716161E+04  0.25500000920E-02 0.  1.
        2   -1    0    0  501    0  0.00000000000E+00  0.00000000000E+00 -0.16631697969E+04  0.16631697969E+04  0.25500000920E-02 0. -1.
    10030    2    1    2    0    0  0.00000000000E+00  0.00000000000E+00  0.62390181917E+03  0.39502414130E+04  0.39006606801E+04 0.  0.
        5    1    3    3  502    0  0.66147045936E+03  0.10196115679E+04  0.18566637866E+04  0.22190929283E+04  0.46999998093E+01 0.  1.
       -5    1    3    3    0  502 -0.66147045936E+03 -0.10196115679E+04 -0.12327619674E+04  0.17311484847E+04  0.46999998093E+01 0. -1.
</event>
<event>
 5   0  0.9277261E-09  0.3900382E+04  0.7818609E-02  0.8024950E-01
       -2   -1    0    0    0  501  0.00000000000E+00  0.00000000000E+00  0.16360664539E+04  0.16360664539E+04  0.25500000920E-02 0. -1.
        2   -1    0    0  501    0  0.00000000000E+00  0.00000000000E+00 -0.23246271684E+04  0.23246271684E+04  0.25500000920E-02 0.  1.
    10030    2    1    2    0    0  0.00000000000E+00  0.00000000000E+00 -0.68856071451E+03  0.39606936223E+04  0.39003817906E+04 0.  0.
        1    1    3    3  502    0  0.13819437350E+04 -0.22998331800E+03 -0.17219399367E+04  0.22198508867E+04  0.50400001928E-02 0. -1.
       -1    1    3    3    0  502 -0.13819437350E+04  0.22998331800E+03  0.10333792222E+04  0.17408427356E+04  0.50400001928E-02 0.  1.
</event>
<event>
 5   0  0.9434114E-09  0.3898074E+04  0.7818609E-02  0.8025430E-01
        2   -1    0    0  501    0  0.00000000000E+00  0.00000000000E+00  0.22231284776E+04  0.22231284776E+04  0.25500000920E-02 0.  1.
       -2   -1    0    0    0  501  0.00000000000E+00  0.00000000000E+00 -0.17087384117E+04  0.17087384117E+04  0.25500000920E-02 0. -1.
    10030    2    1    2    0    0  0.00000000000E+00  0.00000000000E+00  0.51439006595E+03  0.39318668893E+04  0.38980738955E+04 0.  0.
        4    1    3    3  502    0  0.18452750446E+04  0.40526403698E+03  0.74037227889E+03  0.20291455478E+04  0.12699999809E+01 0.  1.
       -4    1    3    3    0  502 -0.18452750446E+04 -0.40526403698E+03 -0.22598221293E+03  0.19027213415E+04  0.12699999809E+01 0. -1.
</event>
<event>
 5   0  0.2904500E-09  0.3899596E+04  0.7818609E-02  0.8025113E-01
       -1   -1    0    0    0  501  0.00000000000E+00  0.00000000000E+00  0.18222540898E+04  0.18222540898E+04  0.50400001928E-02 0.  1.
        1   -1    0    0  501    0  0.00000000000E+00  0.00000000000E+00 -0.20862692953E+04  0.20862692953E+04  0.50400001928E-02 0. -1.
    10030    2    1    2    0    0  0.00000000000E+00  0.00000000000E+00 -0.26401520555E+03  0.39085233851E+04  0.38995962642E+04 0.  0.
        5    1    3    3  502    0 -0.95792441301E+03  0.16965545102E+04 -0.20817023345E+03  0.19594063701E+04  0.46999998093E+01 0. -1.
       -5    1    3    3    0  502  0.95792441301E+03 -0.16965545102E+04 -0.55844972100E+02  0.19491170150E+04  0.46999998093E+01 0.  1.
</event>
<event>
 5   0  0.2904500E-09  0.3901347E+04  0.7818609E-02  0.8024749E-01
        1   -1    0    0  501    0  0.00000000000E+00  0.00000000000E+00  0.25453742300E+04  0.25453742300E+04  0.50400001928E-02 0. -1.
       -1   -1    0    0    0  501  0.00000000000E+00  0.00000000000E+00 -0.14949184579E+04  0.14949184579E+04  0.50400001928E-02 0.  1.
    10030    2    1    2    0    0  0.00000000000E+00  0.00000000000E+00  0.10504557720E+04  0.40402926879E+04  0.39013469052E+04 0.  0.
        5    1    3    3  502    0  0.49230261436E+03 -0.41899848155E+02  0.24794929793E+04  0.25282454363E+04  0.46999998093E+01 0. -1.
       -5    1    3    3    0  502 -0.49230261436E+03  0.41899848155E+02 -0.14290372073E+04  0.15120472516E+04  0.46999998093E+01 0.  1.
</event>
<event>
 5   0  0.9434114E-09  0.3912933E+04  0.7818609E-02  0.8022345E-01
       -2   -1    0    0    0  501  0.00000000000E+00  0.00000000000E+00  0.18105267527E+04  0.18105267527E+04  0.25500000920E-02 0.  1.
        2   -1    0    0  501    0  0.00000000000E+00  0.00000000000E+00 -0.21141698373E+04  0.21141698373E+04  0.25500000920E-02 0. -1.
    10030    2    1    2    0    0  0.00000000000E+00  0.00000000000E+00 -0.30364308459E+03  0.39246965899E+04  0.39129329409E+04 0.  0.
        4    1    3    3  502    0  0.13761042044E+04 -0.11357094773E+04 -0.95689309746E+03  0.20246344882E+04  0.12699999809E+01 0. -1.
       -4    1    3    3    0  502 -0.13761042044E+04  0.11357094773E+04  0.65325001287E+03  0.19000621017E+04  0.12699999809E+01 0.  1.
</event>
<event>
 5   0  0.2904500E-09  0.3896524E+04  0.7818609E-02  0.8025753E-01
       -1   -1    0    0    0  501  0.00000000000E+00  0.00000000000E+00  0.20375902247E+04  0.20375902247E+04  0.50400001928E-02 0.  1.
        1   -1    0    0  501    0  0.00000000000E+00  0.00000000000E+00 -0.18628497857E+04  0.18628497857E+04  0.50400001928E-02 0. -1.
    10030    2    1    2    0    0  0.00000000000E+00  0.00000000000E+00  0.17474043907E+03  0.39004400104E+04  0.38965238423E+04 0.  0.
        4    1    3    3  502    0  0.22709476055E+03 -0.11510884976E+04  0.16442938750E+04  0.20199704750E+04  0.12699999809E+01 0.  1.
       -4    1    3    3    0  502 -0.22709476055E+03  0.11510884976E+04 -0.14695534359E+04  0.18804695354E+04  0.12699999809E+01 0. -1.
</event>
<event>
 5   0  0.6335942E-09  0.3902681E+04  0.7818609E-02  0.8024472E-01
        2   -1    0    0  501    0  0.00000000000E+00  0.00000000000E+00  0.16486964154E+04  0.16486964154E+04  0.25500000920E-02 0.  1.
       -2   -1    0    0    0  501  0.00000000000E+00  0.00000000000E+00 -0.23095399294E+04  0.23095399294E+04  0.25500000920E-02 0. -1.
    10030    2    1    2    0    0  0.00000000000E+00  0.00000000000E+00 -0.66084351400E+03  0.39582363449E+04  0.39026812337E+04 0.  0.
        2    1    3    3  502    0  0.89843803188E+03 -0.38077288309E+03  0.13834709343E+04  0.16929768787E+04  0.25500000920E-02 0.  1.
       -2    1    3    3    0  502 -0.89843803188E+03  0.38077288309E+03 -0.20443144483E+04  0.22652594662E+04  0.25500000920E-02 0. -1.
</event>
<event>
 5   0  0.2904500E-09  0.3899933E+04  0.7818609E-02  0.8025043E-01
        1   -1    0    0  501    0  0.00000000000E+00  0.00000000000E+00  0.14105900089E+04  0.14105900089E+04  0.50400001928E-02 0. -1.
       -1   -1    0    0    0  501  0.00000000000E+00  0.00000000000E+00 -0.26955878376E+04  0.26955878376E+04  0.50400001928E-02 0.  1.
    10030    2    1    2    0    0  0.00000000000E+00  0.00000000000E+00 -0.12849978287E+04  0.41061778465E+04  0.38999329594E+04 0.  0.
        3    1    3    3  502    0  0.69658715453E+03 -0.18198754565E+04 -0.71834254858E+03  0.20768236247E+04  0.10100000352E+00 0. -1.
       -3    1    3    3    0  502 -0.69658715453E+03  0.18198754565E+04 -0.56665528008E+03  0.20293542218E+04  0.10100000352E+00 0.  1.
</event>
<event>
 5   0  0.2904500E-09  0.3899736E+04  0.7818609E-02  0.8025084E-01
        1   -1    0    0  501    0  0.00000000000E+00  0.00000000000E+00  0.28910860253E+04  0.28910860253E+04  0.50400001928E-02 0.  1.
       -1   -1    0    0    0  501  0.00000000000E+00  0.00000000000E+00 -0.13150719384E+04  0.13150719385E+04  0.50400001928E-02 0. -1.
    10030    2    1    2    0    0  0.00000000000E+00  0.00000000000E+00  0.15760140869E+04  0.42061579638E+04  0.38997364545E+04 0.  0.
        4    1    3    3  502    0  0.93692647129E+03 -0.12196959118E+04 -0.50470681349E+03  0.16187093347E+04  0.12699999809E+01 0. -1.
       -4    1    3    3    0  502 -0.93692647129E+03  0.12196959118E+04  0.20807209004E+04  0.25874486291E+04  0.12699999809E+01 0.  1.
</event>
<event>
 5   0  0.2904500E-09  0.3901120E+04  0.7818609E-02  0.8024796E-01
        1   -1    0    0  501    0  0.00000000000E+00  0.00000000000E+00  0.20153751460E+04  0.20153751460E+04  0.50400001928E-02 0. -1.
       -1   -1    0    0    0  501  0.00000000000E+00  0.00000000000E+00 -0.18878298100E+04  0.18878298100E+04  0.50400001928E-02 0.  1.
    10030    2    1    2    0    0  0.00000000000E+00  0.00000000000E+00  0.12754533602E+03  0.39032049560E+04  0.39011204949E+04 0.  0.
        2    1    3    3  502    0  0.56598510187E+02 -0.12913001870E+04 -0.13978383764E+04  0.19038412987E+04  0.25500000920E-02 0.  1.
       -2    1    3    3    0  502 -0.56598510187E+02  0.12913001870E+04  0.15253837124E+04  0.19993636573E+04  0.25500000920E-02 0. -1.
</event>
<event>
 5   0  0.9434114E-09  0.3900728E+04  0.7818609E-02  0.8024878E-01
        2   -1    0    0  501    0  0.00000000000E+00  0.00000000000E+00  0.20693543308E+04  0.20693543308E+04  0.25500000920E-02 0.  1.
       -2   -1    0    0    0  501  0.00000000000E+00  0.00000000000E+00 -0.18382155309E+04  0.18382155309E+04  0.25500000920E-02 0. -1.
    10030    2    1    2    0    0  0.00000000000E+00  0.00000000000E+00  0.23113879989E+03  0.39075698617E+04  0.39007277628E+04 0.  0.
        4    1    3    3  502    0  0.29724329327E+03 -0.10429072623E+04  0.17394953872E+04  0.20498426642E+04  0.12699999809E+01 0.  1.
       -4    1    3    3    0  502 -0.29724329327E+03  0.10429072623E+04 -0.15083565873E+04  0.18577271975E+04  0.12699999809E+01 0. -1.
</event>
<event>
 5   0  0.2929054E-09  0.3900991E+04  0.7818609E-02  0.8024823E-01
        1   -1    0    0  501    0  0.00000000000E+00  0.00000000000E+00  0.21187353423E+04  0.21187353423E+04  0.50400001928E-02 0. -1.
       -1   -1    0    0    0  501  0.00000000000E+00  0.00000000000E+00 -0.17956148787E+04  0.17956148787E+04  0.50400001928E-02 0.  1.
    10030    2    1    2    0    0  0.00000000000E+00  0.00000000000E+00  0.32312046359E+03  0.39143502209E+04  0.39009910046E+04 0.  0.
        1    1    3    3  502    0 -0.71010075646E+03  0.29305360018E+03  0.19605494360E+04  0.21056774654E+04  0.50400001928E-02 0. -1.
       -1    1    3    3    0  502  0.71010075646E+03 -0.29305360018E+03 -0.16374289725E+04  0.18086727556E+04  0.50400001928E-02 0.  1.
</event>
<event>
 5   0  0.9277261E-09  0.3898508E+04  0.7818609E-02  0.8025340E-01
       -2   -1    0    0    0  501  0.00000000000E+00  0.00000000000E+00  0.16089401802E+04  0.16089401802E+04  0.25500000920E-02 0. -1.
        2   -1    0    0  501    0  0.00000000000E+00  0.00000000000E+00 -0.23615489132E+04  0.23615489132E+04  0.25500000920E-02 0.  1.
    10030    2    1    2    0    0  0.00000000000E+00  0.00000000000E+00 -0.75260873309E+03  0.39704890934E+04  0.38985078858E+04 0.  0.
        1    1    3    3  502    0 -0.16504354775E+03  0.11893950845E+04 -0.19401325056E+04  0.22816691651E+04  0.50400001928E-02 0.  1.
       -1    1    3    3    0  502  0.16504354775E+03 -0.11893950845E+04  0.11875237725E+04  0.16888199283E+04  0.50400001928E-02 0. -1.
</event>
<event>
 5   0  0.6335942E-09  0.3890278E+04  0.7818609E-02  0.8027054E-01
       -2   -1    0    0    0  501  0.00000000000E+00  0.00000000000E+00  0.14141461411E+04  0.14141461411E+04  0.25500000920E-02 0. -1.
        2   -1    0    0  501    0  0.00000000000E+00  0.00000000000E+00 -0.26755128073E+04  0.26755128073E+04  0.25500000920E-02 0.  1.
    10030    2    1    2    0    0  0.00000000000E+00  0.00000000000E+00 -0.12613666662E+04  0.40896589484E+04  0.38902781967E+04 0.  0.
        2    1    3    3  502    0 -0.52764778878E+03 -0.12995668185E+03 -0.25940941514E+04  0.26504009875E+04  0.25500000920E-02 0.  1.
       -2    1    3    3    0  502  0.52764778878E+03  0.12995668185E+03  0.13327274852E+04  0.14392579609E+04  0.25500000920E-02 0. -1.
</event>
<event>
 5   0  0.6335942E-09  0.3893954E+04  0.7818609E-02  0.8026288E-01
        2   -1    0    0  501    0  0.00000000000E+00  0.00000000000E+00  0.22045374985E+04  0.22045374985E+04  0.25500000920E-02 0. -1.
       -2   -1    0    0    0  501  0.00000000000E+00  0.00000000000E+00 -0.17195081870E+04  0.17195081870E+04  0.25500000920E-02 0.  1.
    10030    2    1    2    0    0  0.00000000000E+00  0.00000000000E+00  0.48502931146E+03  0.39240456855E+04  0.38939544308E+04 0.  0.
        2    1    3    3  502    0 -0.89538661602E+02  0.65146118230E+03 -0.16042137420E+04  0.17337590877E+04  0.25500000920E-02 0.  1.
       -2    1    3    3    0  502  0.89538661602E+02 -0.65146118230E+03  0.20892430535E+04  0.21902865978E+04  0.25500000920E-02 0. -1.
</event>
<event>
 5   0  0.2904500E-09  0.3900722E+04  0.7818609E-02  0.8024879E-01
       -1   -1    0    0    0  501  0.00000000000E+00  0.00000000000E+00  0.20704330274E+04  0.20704330274E+04  0.50400001928E-02 0. -1.
        1   -1    0    0  501    0  0.00000000000E+00  0.00000000000E+00 -0.18372525641E+04  0.18372525641E+04  0.50400001928E-02 0.  1.
    10030    2    1    2    0    0  0.00000000000E+00  0.00000000000E+00  0.23318046330E+03  0.39076855914E+04  0.39007221835E+04 0.  0.
        2    1    3    3  502    0 -0.26354909362E+01 -0.19120593750E+04  0.50189403242E+03  0.19768347475E+04  0.25500000920E-02 0.  1.
       -2    1    3    3    0  502  0.26354909362E+01  0.19120593750E+04 -0.26871356912E+03  0.19308508439E+04  0.25500000920E-02 0. -1.
</event>
<event>
 5   0  0.2929054E-09  0.3906147E+04  0.7818609E-02  0.8023752E-01
       -1   -1    0    0    0  501  0.00000000000E+00  0.00000000000E+00  0.18277864512E+04  0.18277864512E+04  0.50400001928E-02 0.  1.
        1   -1    0    0  501    0  0.00000000000E+00  0.00000000000E+00 -0.20869484148E+04  0.20869484148E+04  0.50400001928E-02 0. -1.
    10030    2    1    2    0    0  0.00000000000E+00  0.00000000000E+00 -0.25916196367E+03  0.39147348660E+04  0.39061469695E+04 0.  0.
        1    1    3    3  502    0  0.36721141693E+02  0.13054595709E+04 -0.15849868641E+04  0.20537177247E+04  0.50400001928E-02 0. -1.
       -1    1    3    3    0  502 -0.36721141693E+02 -0.13054595709E+04  0.13258249004E+04  0.18610171413E+04  0.50400001928E-02 0.  1.
</event>
<event>
 5   0  0.6335942E-09  0.3898772E+04  0.7818609E-02  0.8025285E-01
        2   -1    0    0  501    0  0.00000000000E+00  0.00000000000E+00  0.20664685900E+04  0.20664685900E+04  0.25500000920E-02 0. -1.
       -2   -1    0    0    0  501  0.00000000000E+00  0.00000000000E+00 -0.18389375580E+04  0.18389375580E+04  0.25500000920E-02 0.  1.
    10030    2    1    2    0    0  0.00000000000E+00  0.00000000000E+00  0.22753103198E+03  0.39054061480E+04  0.38987724748E+04 0.  0.
        2    1    3    3  502    0  0.34900656247E+03 -0.17749295401E+04 -0.61405608804E+03  0.19102998016E+04  0.25500000920E-02 0.  1.
       -2    1    3    3    0  502 -0.34900656247E+03  0.17749295401E+04  0.84158712002E+03  0.19951063464E+04  0.25500000920E-02 0. -1.
</event>
<event>
 5   0  0.9078515E-09  0.3899001E+04  0.7818609E-02  0.8025237E-01
       -2   -1    0    0    0  501  0.00000000000E+00  0.00000000000E+00  0.15954087922E+04  0.15954087922E+04  0.25500000920E-02 0.  1.
        2   -1    0    0  501    0  0.00000000000E+00  0.00000000000E+00 -0.23821812098E+04  0.23821812098E+04  0.25500000920E-02 0. -1.
    10030    2    1    2    0    0  0.00000000000E+00  0.00000000000E+00 -0.78677241760E+03  0.39775900020E+04  0.38990013320E+04 0.  0.
        3    1    3    3  502    0  0.96287196473E+02 -0.17576228926E+04  0.46138248172E+03  0.18197206548E+04  0.10100000352E+00 0.  1.
       -3    1    3    3    0  502 -0.96287196473E+02  0.17576228926E+04 -0.12481548993E+04  0.21578693472E+04  0.10100000352E+00 0. -1.
</event>
<event>
 5   0  0.9368546E-09  0.3900019E+04  0.7818609E-02  0.8025025E-01
       -2   -1    0    0    0  501  0.00000000000E+00  0.00000000000E+00  0.15311313578E+04  0.15311313578E+04  0.25500000920E-02 0. -1.
        2   -1    0    0  501    0  0.00000000000E+00  0.00000000000E+00 -0.24834817824E+04  0.24834817824E+04  0.25500000920E-02 0.  1.
    10030    2    1    2    0    0  0.00000000000E+00  0.00000000000E+00 -0.95235042461E+03  0.40146131402E+04  0.39000188889E+04 0.  0.
        5    1    3    3  502    0 -0.10413700578E+04 -0.50792552526E+03  0.11383734832E+04  0.16243017619E+04  0.46999998093E+01 0. -1.
       -5    1    3    3    0  502  0.10413700578E+04  0.50792552526E+03 -0.20907239078E+04  0.23903113783E+04  0.46999998093E+01 0.  1.
</event>
<event>
 5   0  0.2904500E-09  0.3900999E+04  0.7818609E-02  0.8024822E-01
       -3   -1    0    0    0  501  0.00000000000E+00  0.00000000000E+00  0.22611643500E+04  0.22611643523E+04  0.10100000352E+00 0. -1.
        3   -1    0    0  501    0  0.00000000000E+00  0.00000000000E+00 -0.16825171345E+04  0.16825171376E+04  0.10100000352E+00 0.  1.
    10030    2    1    2    0    0  0.00000000000E+00  0.00000000000E+00  0.57864721548E+03  0.39436814898E+04  0.39009987302E+04 0.  0.
        3    1    3    3  502    0 -0.17444052110E+04  0.15921479370E+03 -0.57805528321E+03  0.18445722570E+04  0.10100000352E+00 0.  1.
       -3    1    3    3    0  502  0.17444052110E+04 -0.15921479370E+03  0.11567024987E+04  0.20991092328E+04  0.10100000352E+00 0. -1.
</event>
<event>
 5   0  0.2904500E-09  0.3899900E+04  0.7818609E-02  0.8025050E-01
       -1   -1    0    0    0  501  0.00000000000E+00  0.00000000000E+00  0.17854103211E+04  0.17854103212E+04  0.50400001928E-02 0.  1.
        1   -1    0    0  501    0  0.00000000000E+00  0.00000000000E+00 -0.21296532603E+04  0.21296532603E+04  0.50400001928E-02 0. -1.
    10030    2    1    2    0    0  0.00000000000E+00  0.00000000000E+00 -0.34424293917E+03  0.39150635815E+04  0.38998999533E+04 0.  0.
        3    1    3    3  502    0  0.13853593885E+04 -0.80987936448E+03 -0.12842101788E+04  0.20553153076E+04  0.10100000352E+00 0. -1.
       -3    1    3    3    0  502 -0.13853593885E+04  0.80987936448E+03  0.93996723964E+03  0.18597482738E+04  0.10100000352E+00 0.  1.
</event>
<event>
 5   0  0.6335942E-09  0.3900320E+04  0.7818609E-02  0.8024963E-01
       -2   -1    0    0    0  501  0.00000000000E+00  0.00000000000E+00  0.15311536590E+04  0.15311536590E+04  0.25500000920E-02 0. -1.
        2   -1    0    0  501    0  0.00000000000E+00  0.00000000000E+00 -0.24838292829E+04  0.24838292829E+04  0.25500000920E-02 0.  1.
    10030    2    1    2    0    0  0.00000000000E+00  0.00000000000E+00 -0.95267562395E+03  0.40149829419E+04  0.39003201380E+04 0.  0.
        2    1    3    3  502    0  0.10133376726E+04  0.18539463280E+03  0.12282102290E+04  0.16030361116E+04  0.25500000920E-02 0. -1.
       -2    1    3    3    0  502 -0.10133376726E+04 -0.18539463280E+03 -0.21808858529E+04  0.24119468303E+04  0.25500000920E-02 0.  1.
</event>
<event>
 5   0  0.6335942E-09  0.3899656E+04  0.7818609E-02  0.8025101E-01
       -2   -1    0    0    0  501  0.00000000000E+00  0.00000000000E+00  0.14804744483E+04  0.14804744483E+04  0.25500000920E-02 0.  1.
        2   -1    0    0  501    0  0.00000000000E+00  0.00000000000E+00 -0.25679799401E+04  0.25679799401E+04  0.25500000920E-02 0. -1.
    10030    2    1    2    0    0  0.00000000000E+00  0.00000000000E+00 -0.10875054918E+04  0.40484543884E+04  0.38996557208E+04 0.  0.
        2    1    3    3  502    0 -0.11125430649E+04  0.46220360429E+03  0.10478620895E+04  0.15966838139E+04  0.25500000920E-02 0.  1.
       -2    1    3    3    0  502  0.11125430649E+04 -0.46220360429E+03 -0.21353675812E+04  0.24517705745E+04  0.25500000920E-02 0. -1.
</event>
<event>
 5   0  0.2929054E-09  0.3899340E+04  0.7818609E-02  0.8025167E-01
        1   -1    0    0  501    0  0.00000000000E+00  0.00000000000E+00  0.24565397921E+04  0.24565397921E+04  0.50400001928E-02 0.  1.
       -1   -1    0    0    0  501  0.00000000000E+00  0.00000000000E+00 -0.15473850411E+04  0.15473850411E+04  0.50400001928E-02 0. -1.
    10030    2    1    2    0    0  0.00000000000E+00  0.00000000000E+00  0.90915475101E+03  0.40039248333E+04  0.38993399069E+04 0.  0.
        1    1    3    3  502    0  0.14202561141E+04  0.12234806068E+04  0.10048430825E+04  0.21269089885E+04  0.50400001928E-02 0.  1.
       -1    1    3    3    0  502 -0.14202561141E+04 -0.12234806068E+04 -0.95688331473E+02  0.18770158448E+04  0.50400001928E-02 0. -1.
</event>
<event>
 5   0  0.2929054E-09  0.3899722E+04  0.7818609E-02  0.8025087E-01
        1   -1    0    0  501    0  0.00000000000E+00  0.00000000000E+00  0.24395820315E+04  0.24395820315E+04  0.50400001928E-02 0.  1.
       -1   -1    0    0    0  501  0.00000000000E+00  0.00000000000E+00 -0.15584464456E+04  0.15584464456E+04  0.50400001928E-02 0. -1.
    10030    2    1    2    0    0  0.00000000000E+00  0.00000000000E+00  0.88113558592E+03  0.39980284771E+04  0.38997220135E+04 0.  0.
        1    1    3    3  502    0  0.11703048586E+04  0.14805452679E+04 -0.62025166829E+02  0.18882465077E+04  0.50400001928E-02 0. -1.
       -1    1    3    3    0  502 -0.11703048586E+04 -0.14805452679E+04  0.94316075275E+03  0.21097819693E+04  0.50400001928E-02 0.  1.
</event>
<event>
 5   0  0.9078515E-09  0.3900013E+04  0.7818609E-02  0.8025027E-01
       -2   -1    0    0    0  501  0.00000000000E+00  0.00000000000E+00  0.18889145124E+04  0.18889145124E+04  0.25500000920E-02 0. -1.
        2   -1    0    0  501    0  0.00000000000E+00  0.00000000000E+00 -0.20130738756E+04  0.20130738756E+04  0.25500000920E-02 0.  1.
    10030    2    1    2    0    0  0.00000000000E+00  0.00000000000E+00 -0.12415936314E+03  0.39019883880E+04  0.39000125426E+04 0.  0.
        3    1    3    3  502    0  0.11507506579E+04 -0.15088193579E+04 -0.51148596048E+03  0.19652940821E+04  0.10100000352E+00 0.  1.
       -3    1    3    3    0  502 -0.11507506579E+04  0.15088193579E+04  0.38732659734E+03  0.19366943059E+04  0.10100000352E+00 0. -1.
</event>
<event>
 5   0  0.2904500E-09  0.3916630E+04  0.7818609E-02  0.8021579E-01
       -1   -1    0    0    0  501  0.00000000000E+00  0.00000000000E+00  0.26443157731E+04  0.26443157731E+04  0.50400001928E-02 0.  1.
        1   -1    0    0  501    0  0.00000000000E+00  0.00000000000E+00 -0.14502799348E+04  0.14502799348E+04  0.50400001928E-02 0. -1.
    10030    2    1    2    0    0  0.00000000000E+00  0.00000000000E+00  0.11940358382E+04  0.40945957079E+04  0.39166302389E+04 0.  0.
        4    1    3    3  502    0  0.47892387817E+03 -0.87966579966E+03 -0.11622460483E+04  0.15342742551E+04  0.12699999809E+01 0. -1.
       -4    1    3    3    0  502 -0.47892387817E+03  0.87966579966E+03  0.23562818865E+04  0.25603214528E+04  0.12699999809E+01 0.  1.
</event>
<event>
 5   0  0.2929054E-09  0.3899542E+04  0.7818609E-02  0.8025124E-01
       -1   -1    0    0    0  501  0.00000000000E+00  0.00000000000E+00  0.13561226440E+04  0.13561226440E+04  0.50400001928E-02 0. -1.
        1   -1    0    0  501    0  0.00000000000E+00  0.00000000000E+00 -0.28032913661E+04  0.28032913661E+04  0.50400001928E-02 0.  1.
    10030    2    1    2    0    0  0.00000000000E+00  0.00000000000E+00 -0.14471687222E+04  0.41594140101E+04  0.38995419728E+04 0.  0.
        1    1    3    3  502    0 -0.60286389761E+03  0.82193287101E+03 -0.24964533408E+04  0.26965344066E+04  0.50400001928E-02 0.  1.
       -1    1    3    3    0  502  0.60286389761E+03 -0.82193287101E+03  0.10492846186E+04  0.14628796035E+04  0.50400001928E-02 0. -1.
</event>
<event>
 5   0  0.2904500E-09  0.3898085E+04  0.7818609E-02  0.8025428E-01
        3   -1    0    0  501    0  0.00000000000E+00  0.00000000000E+00  0.28000490348E+04  0.28000490366E+04  0.10100000352E+00 0.  1.
       -3   -1    0    0    0  501  0.00000000000E+00  0.00000000000E+00 -0.13566787873E+04  0.13566787910E+04  0.10100000352E+00 0. -1.
    10030    2    1    2    0    0  0.00000000000E+00  0.00000000000E+00  0.14433702475E+04  0.41567278276E+04  0.38980852430E+04 0.  0.
        5    1    3    3  502    0 -0.46398071722E+03 -0.27366685954E+03 -0.12757171494E+04  0.13847916779E+04  0.46999998093E+01 0. -1.
       -5    1    3    3    0  502  0.46398071722E+03  0.27366685954E+03  0.27190873969E+04  0.27719361497E+04  0.46999998093E+01 0.  1.
</event>
<event>
 5   0  0.2929054E-09  0.3901581E+04  0.7818609E-02  0.8024701E-01
       -1   -1    0    0    0  501  0.00000000000E+00  0.00000000000E+00  0.20157286030E+04  0.20157286030E+04  0.50400001928E-02 0. -1.
        1   -1    0    0  501    0  0.00000000000E+00  0.00000000000E+00 -0.18879440396E+04  0.18879440396E+04  0.50400001928E-02 0.  1.
    10030    2    1    2    0    0  0.00000000000E+00  0.00000000000E+00  0.12778456341E+03  0.39036726427E+04  0.39015806036E+04 0.  0.
        1    1    3    3  502    0 -0.99464968934E+03  0.11313581785E+03 -0.16113576494E+04  0.18969979420E+04  0.50400001928E-02 0.  1.
       -1    1    3    3    0  502  0.99464968934E+03 -0.11313581785E+03  0.17391422128E+04  0.20066747006E+04  0.50400001928E-02 0. -1.
</event>
<event>
 5   0  0.2904500E-09  0.3900875E+04  0.7818609E-02  0.8024847E-01
       -1   -1    0    0    0  501  0.00000000000E+00  0.00000000000E+00  0.16541539264E+04  0.16541539264E+04  0.50400001928E-02 0.  1.
        1   -1    0    0  501    0  0.00000000000E+00  0.00000000000E+00 -0.22997894617E+04  0.22997894617E+04  0.50400001928E-02 0. -1.
    10030    2    1    2    0    0  0.00000000000E+00  0.00000000000E+00 -0.64563553531E+03  0.39539433881E+04  0.39008746547E+04 0.  0.
        3    1    3    3  502    0  0.19061903459E+04 -0.38118577965E+03 -0.48417365639E+03  0.20033193387E+04  0.10100000352E+00 0. -1.
       -3    1    3    3    0  502 -0.19061903459E+04  0.38118577965E+03 -0.16146187893E+03  0.19506240493E+04  0.10100000352E+00 0.  1.
</event>
<event>
 5   0  0.9368546E-09  0.3902587E+04  0.7818609E-02  0.8024491E-01
       -2   -1    0    0    0  501  0.00000000000E+00  0.00000000000E+00  0.22051800811E+04  0.22051800811E+04  0.25500000920E-02 0. -1.
        2   -1    0    0  501    0  0.00000000000E+00  0.00000000000E+00 -0.17266374961E+04  0.17266374961E+04  0.25500000920E-02 0.  1.
    10030    2    1    2    0    0  0.00000000000E+00  0.00000000000E+00  0.47854258499E+03  0.39318175773E+04  0.39025871489E+04 0.  0.
        5    1    3    3  502    0  0.29906566122E+03 -0.16698323418E+04  0.12107258491E+04  0.20841447865E+04  0.46999998093E+01 0. -1.
       -5    1    3    3    0  502 -0.29906566122E+03  0.16698323418E+04 -0.73218326415E+03  0.18476727907E+04  0.46999998093E+01 0.  1.
</event>
<event>
 5   0  0.2904500E-09  0.3900912E+04  0.7818609E-02  0.8024840E-01
       -1   -1    0    0    0  501  0.00000000000E+00  0.00000000000E+00  0.16974997421E+04  0.16974997421E+04  0.50400001928E-02 0.  1.
        1   -1    0    0  501    0  0.00000000000E+00  0.00000000000E+00 -0.22411068441E+04  0.22411068441E+04  0.50400001928E-02 0. -1.
    10030    2    1    2    0    0  0.00000000000E+00  0.00000000000E+00 -0.54360710202E+03  0.39386065862E+04  0.39009118369E+04 0.  0.
        4    1    3    3  502    0  0.21865409876E+01  0.17545653942E+04 -0.11319583650E+04  0.20880219962E+04  0.12699999809E+01 0. -1.
       -4    1    3    3    0  502 -0.21865409876E+01 -0.17545653942E+04  0.58835126300E+03  0.18505845901E+04  0.12699999809E+01 0.  1.
</event>
<event>
 5   0  0.2929054E-09  0.3897262E+04  0.7818609E-02  0.8025599E-01
       -1   -1    0    0    0  501  0.00000000000E+00  0.00000000000E+00  0.14836518013E+04  0.14836518013E+04  0.50400001928E-02 0.  1.
        1   -1    0    0  501    0  0.00000000000E+00  0.00000000000E+00 -0.25593354256E+04  0.25593354256E+04  0.50400001928E-02 0. -1.
    10030    2    1    2    0    0  0.00000000000E+00  0.00000000000E+00 -0.10756836243E+04  0.40429872269E+04  0.38972619180E+04 0.  0.
        1    1    3    3  502    0  0.14431881661E+04  0.97342902458E+00 -0.18961396266E+04  0.23828844945E+04  0.50400001928E-02 0. -1.
       -1    1    3    3    0  502 -0.14431881661E+04 -0.97342902458E+00  0.82045600231E+03  0.16601027324E+04  0.50400001928E-02 0.  1.
</event>
<event>
 5   0  0.2929054E-09  0.3901122E+04  0.7818609E-02  0.8024796E-01
       -1   -1    0    0    0  501  0.00000000000E+00  0.00000000000E+00  0.28106749190E+04  0.28106749190E+04  0.50400001928E-02 0. -1.
        1   -1    0    0  501    0  0.00000000000E+00  0.00000000000E+00 -0.13536564315E+04  0.13536564315E+04  0.50400001928E-02 0.  1.
    10030    2    1    2    0    0  0.00000000000E+00  0.00000000000E+00  0.14570184875E+04  0.41643313506E+04  0.39011219827E+04 0.  0.
        1    1    3    3  502    0  0.78275930697E+03 -0.11322065592E+04 -0.74679646163E+03  0.15659849234E+04  0.50400001928E-02 0.  1.
       -1    1    3    3    0  502 -0.78275930697E+03  0.11322065592E+04  0.22038149491E+04  0.25983464271E+04  0.50400001928E-02 0. -1.
</event>
<event>
 5   0  0.9078515E-09  0.3899414E+04  0.7818609E-02  0.8025151E-01
       -2   -1    0    0    0  501  0.00000000000E+00  0.00000000000E+00  0.14868324810E+04  0.14868324810E+04  0.25500000920E-02 0. -1.
        2   -1    0    0  501    0  0.00000000000E+00  0.00000000000E+00 -0.25566815797E+04  0.25566815797E+04  0.25500000920E-02 0.  1.
    10030    2    1    2    0    0  0.00000000000E+00  0.00000000000E+00 -0.10698490987E+04  0.40435140607E+04  0.38994139130E+04 0.  0.
        3    1    3    3  502    0 -0.34373005552E+03 -0.54977241431E+03 -0.24416117616E+04  0.25262359477E+04  0.10100000352E+00 0. -1.
       -3    1    3    3    0  502  0.34373005552E+03  0.54977241431E+03  0.13717626629E+04  0.15172781130E+04  0.10100000352E+00 0.  1.
</event>
<event>
 5   0  0.9434114E-09  0.3901190E+04  0.7818609E-02  0.8024782E-01
       -2   -1    0    0    0  501  0.00000000000E+00  0.00000000000E+00  0.29806047395E+04  0.29806047395E+04  0.25500000920E-02 0.  1.
        2   -1    0    0  501    0  0.00000000000E+00  0.00000000000E+00 -0.12765264196E+04  0.12765264196E+04  0.25500000920E-02 0. -1.
    10030    2    1    2    0    0  0.00000000000E+00  0.00000000000E+00  0.17040783199E+04  0.42571311592E+04  0.39011899192E+04 0.  0.
        4    1    3    3  502    0  0.81230558702E+03  0.16782974567E+04  0.22679020648E+03  0.18782859555E+04  0.12699999809E+01 0. -1.
       -4    1    3    3    0  502 -0.81230558702E+03 -0.16782974567E+04  0.14772881134E+04  0.23788452037E+04  0.12699999809E+01 0.  1.
</event>
<event>
 5   0  0.2904500E-09  0.3885418E+04  0.7818609E-02  0.8028069E-01
        1   -1    0    0  501    0  0.00000000000E+00  0.00000000000E+00  0.15510455516E+04  0.15510455516E+04  0.50400001928E-02 0.  1.
       -1   -1    0    0    0  501  0.00000000000E+00  0.00000000000E+00 -0.24332740985E+04  0.24332740985E+04  0.50400001928E-02 0. -1.
    10030    2    1    2    0    0  0.00000000000E+00  0.00000000000E+00 -0.88222854687E+03  0.39843196501E+04  0.38854183643E+04 0.  0.
        5    1    3    3  502    0  0.70724863955E+02  0.15037991608E+04 -0.17002466670E+04  0.22709633949E+04  0.46999998093E+01 0. -1.
       -5    1    3    3    0  502 -0.70724863955E+02 -0.15037991608E+04  0.81801812017E+03  0.17133562552E+04  0.46999998093E+01 0.  1.
</event>
<event>
 5   0  0.9434114E-09  0.3900831E+04  0.7818609E-02  0.8024856E-01
        2   -1    0    0  501    0  0.00000000000E+00  0.00000000000E+00  0.11310529573E+04  0.11310529573E+04  0.25500000920E-02 0.  1.
       -2   -1    0    0    0  501  0.00000000000E+00  0.00000000000E+00 -0.33633447956E+04  0.33633447956E+04  0.25500000920E-02 0. -1.
    10030    2    1    2    0    0  0.00000000000E+00  0.00000000000E+00 -0.22322918384E+04  0.44943977529E+04  0.39008312332E+04 0.  0.
        4    1    3    3  502    0  0.17585041659E+04  0.82027486585E+03 -0.13434807962E+04  0.23601122897E+04  0.12699999809E+01 0.  1.
       -4    1    3    3    0  502 -0.17585041659E+04 -0.82027486585E+03 -0.88881104210E+03  0.21342854632E+04  0.12699999809E+01 0. -1.
</event>
<event>
 5   0  0.2904500E-09  0.3902403E+04  0.7818609E-02  0.8024530E-01
       -1   -1    0    0    0  501  0.00000000000E+00  0.00000000000E+00  0.15257903701E+04  0.15257903702E+04  0.50400001928E-02 0. -1.
        1   -1    0    0  501    0  0.00000000000E+00  0.00000000000E+00 -0.24952231977E+04  0.24952231977E+04  0.50400001928E-02 0.  1.
    10030    2    1    2    0    0  0.00000000000E+00  0.00000000000E+00 -0.96943282751E+03  0.40210135678E+04  0.39024031193E+04 0.  0.
        3    1    3    3  502    0 -0.49724988592E+03  0.90173963900E+03  0.12230032810E+04  0.15987898115E+04  0.10100000352E+00 0. -1.
       -3    1    3    3    0  502  0.49724988592E+03 -0.90173963900E+03 -0.21924361086E+04  0.24222237564E+04  0.10100000352E+00 0.  1.
</event>
<event>
 5   0  0.6335942E-09  0.3900591E+04  0.7818609E-02  0.8024906E-01
       -2   -1    0    0    0  501  0.00000000000E+00  0.00000000000E+00  0.20349787557E+04  0.20349787557E+04  0.25500000920E-02 0.  1.
        2   -1    0    0  501    0  0.00000000000E+00  0.00000000000E+00 -0.18691364399E+04  0.18691364399E+04  0.25500000920E-02 0. -1.
    10030    2    1    2    0    0  0.00000000000E+00  0.00000000000E+00  0.16584231578E+03  0.39041151955E+04  0.39005912098E+04 0.  0.
        2    1    3    3  502    0  0.46090774199E+03  0.83752979665E+03 -0.16185442993E+04  0.18797813053E+04  0.25500000920E-02 0. -1.
       -2    1    3    3    0  502 -0.46090774199E+03 -0.83752979665E+03  0.17843866151E+04  0.20243338902E+04  0.25500000920E-02 0.  1.
</event>
<event>
 5   0  0.9434114E-09  0.3896743E+04  0.7818609E-02  0.8025707E-01
        2   -1    0    0  501    0  0.00000000000E+00  0.00000000000E+00  0.18115921728E+04  0.18115921728E+04  0.25500000920E-02 0.  1.
       -2   -1    0    0    0  501  0.00000000000E+00  0.00000000000E+00 -0.20954783716E+04  0.20954783716E+04  0.25500000920E-02 0. -1.
    10030    2    1    2    0    0  0.00000000000E+00  0.00000000000E+00 -0.28388619875E+03  0.39070705444E+04  0.38967433665E+04 0.  0.
        4    1    3    3  502    0 -0.17421235993E+04 -0.63249675060E+03  0.46056861399E+03  0.19097570096E+04  0.12699999809E+01 0.  1.
       -4    1    3    3    0  502  0.17421235993E+04  0.63249675060E+03 -0.74445481275E+03  0.19973135347E+04  0.12699999809E+01 0. -1.
</event>
<event>
 5   0  0.2904500E-09  0.3894687E+04  0.7818609E-02  0.8026135E-01
        1   -1    0    0  501    0  0.00000000000E+00  0.00000000000E+00  0.25529633377E+04  0.25529633377E+04  0.50400001928E-02 0. -1.
       -1   -1    0    0    0  501  0.00000000000E+00  0.00000000000E+00 -0.14853902609E+04  0.14853902609E+04  0.50400001928E-02 0.  1.
    10030    2    1    2    0    0  0.00000000000E+00  0.00000000000E+00  0.10675730768E+04  0.40383535986E+04  0.38946870880E+04 0.  0.
        2    1    3    3  502    0 -0.59682004829E+03  0.18457304195E+04  0.71106684505E+03  0.20660423542E+04  0.25500000920E-02 0.  1.
       -2    1    3    3    0  502  0.59682004829E+03 -0.18457304195E+04  0.35650623176E+03  0.19723112444E+04  0.25500000920E-02 0. -1.
</event>
<event>
 5   0  0.9434114E-09  0.3900119E+04  0.7818609E-02  0.8025004E-01
       -2   -1    0    0    0  501  0.00000000000E+00  0.00000000000E+00  0.12928707553E+04  0.12928707553E+04  0.25500000920E-02 0.  1.
        2   -1    0    0  501    0  0.00000000000E+00  0.00000000000E+00 -0.29413092622E+04  0.29413092622E+04  0.25500000920E-02 0. -1.
    10030    2    1    2    0    0  0.00000000000E+00  0.00000000000E+00 -0.16484385068E+04  0.42341800175E+04  0.39001193456E+04 0.  0.
        4    1    3    3  502    0 -0.48731588826E+03 -0.16870559973E+04  0.96410441882E+02  0.17586731644E+04  0.12699999809E+01 0.  1.
       -4    1    3    3    0  502  0.48731588826E+03  0.16870559973E+04 -0.17448489487E+04  0.24755068531E+04  0.12699999809E+01 0. -1.
</event>
<event>
 5   0  0.9368546E-09  0.3900489E+04  0.7818609E-02  0.8024928E-01
       -2   -1    0    0    0  501  0.00000000000E+00  0.00000000000E+00  0.20108484460E+04  0.20108484460E+04  0.25500000920E-02 0.  1.
        2   -1    0    0  501    0  0.00000000000E+00  0.00000000000E+00 -0.18914670455E+04  0.18914670455E+04  0.25500000920E-02 0. -1.
    10030    2    1    2    0    0  0.00000000000E+00  0.00000000000E+00  0.11938140052E+03  0.39023154915E+04  0.39004889792E+04 0.  0.
        5    1    3    3  502    0 -0.79206053661E+03  0.88806388523E+03  0.16055401725E+04  0.19984490720E+04  0.46999998093E+01 0.  1.
       -5    1    3    3    0  502  0.79206053661E+03 -0.88806388523E+03 -0.14861587720E+04  0.19038664195E+04  0.46999998093E+01 0. -1.
</event>
<event>
 5   0  0.6335942E-09  0.3898080E+04  0.7818609E-02  0.8025429E-01
       -2   -1    0    0    0  501  0.00000000000E+00  0.00000000000E+00  0.16481475196E+04  0.16481475196E+04  0.25500000920E-02 0.  1.
        2   -1    0    0  501    0  0.00000000000E+00  0.00000000000E+00 -0.23048645934E+04  0.23048645934E+04  0.25500000920E-02 0. -1.
    10030    2    1    2    0    0  0.00000000000E+00  0.00000000000E+00 -0.65671707375E+03  0.39530121130E+04  0.38980799697E+04 0.  0.
        2    1    3    3  502    0 -0.45266447489E+03  0.13675928266E+04 -0.16596964055E+04  0.21976822847E+04  0.25500000920E-02 0. -1.
       -2    1    3    3    0  502  0.45266447489E+03 -0.13675928266E+04  0.10029793317E+04  0.17553298283E+04  0.25500000920E-02 0.  1.
</event>
<event>
 5   0  0.9078515E-09  0.3901869E+04  0.7818609E-02  0.8024641E-01
        2   -1    0    0  501    0  0.00000000000E+00  0.00000000000E+00  0.28247581132E+04  0.28247581132E+04  0.25500000920E-02 0.  1.
       -2   -1    0    0    0  501  0.00000000000E+00  0.00000000000E+00 -0.13474236268E+04  0.13474236268E+04  0.25500000920E-02 0. -1.
    10030    2    1    2    0    0  0.00000000000E+00  0.00000000000E+00  0.14773344864E+04  0.41721817399E+04  0.39018692041E+04 0.  0.
        3    1    3    3  502    0 -0.96865428975E+03 -0.10226209127E+04 -0.70469968998E+03  0.15750067706E+04  0.10100000352E+00 0. -1.
       -3    1    3    3    0  502  0.96865428975E+03  0.10226209127E+04  0.21820341764E+04  0.25971749693E+04  0.10100000352E+00 0.  1.
</event>
<event>
 5   0  0.2904500E-09  0.3911010E+04  0.7818609E-02  0.8022743E-01
       -1   -1    0    0    0  501  0.00000000000E+00  0.00000000000E+00  0.18140254282E+04  0.18140254282E+04  0.50400001928E-02 0.  1.
        1   -1    0    0  501    0  0.00000000000E+00  0.00000000000E+00 -0.21080193274E+04  0.21080193274E+04  0.50400001928E-02 0. -1.
    10030    2    1    2    0    0  0.00000000000E+00  0.00000000000E+00 -0.29399389917E+03  0.39220447556E+04  0.39110104387E+04 0.  0.
        2    1    3    3  502    0  0.46345685986E+03 -0.27055712990E+02 -0.20519553850E+04  0.21038168111E+04  0.25500000920E-02 0. -1.
       -2    1    3    3    0  502 -0.46345685986E+03  0.27055712990E+02  0.17579614858E+04  0.18182279445E+04  0.25500000920E-02 0.  1.
</event>
<event>
 5   0  0.2904500E-09  0.3891776E+04  0.7818609E-02  0.8026742E-01
        1   -1    0    0  501    0  0.00000000000E+00  0.00000000000E+00  0.14974827791E+04  0.14974827791E+04  0.50400001928E-02 0. -1.
       -1   -1    0    0    0  501  0.00000000000E+00  0.00000000000E+00 -0.25285638638E+04  0.25285638638E+04  0.50400001928E-02 0.  1.
    10030    2    1    2    0    0  0.00000000000E+00  0.00000000000E+00 -0.10310810847E+04  0.40260466430E+04  0.38917763770E+04 0.  0.
        4    1    3    3  502    0 -0.81024186738E+03  0.30999643711E+03 -0.23174410507E+04  0.24744947587E+04  0.12699999809E+01 0.  1.
       -4    1    3    3    0  502  0.81024186738E+03 -0.30999643711E+03  0.12863599660E+04  0.15515518843E+04  0.12699999809E+01 0. -1.
</event>
<event>
 5   0  0.2904500E-09  0.3899090E+04  0.7818609E-02  0.8025218E-01
       -1   -1    0    0    0  501  0.00000000000E+00  0.00000000000E+00  0.14588234419E+04  0.14588234419E+04  0.50400001928E-02 0.  1.
        1   -1    0    0  501    0  0.00000000000E+00  0.00000000000E+00 -0.26053363956E+04  0.26053363956E+04  0.50400001928E-02 0. -1.
    10030    2    1    2    0    0  0.00000000000E+00  0.00000000000E+00 -0.11465129537E+04  0.40641598375E+04  0.38990900518E+04 0.  0.
        3    1    3    3  502    0 -0.12196588509E+04  0.15195306885E+04 -0.64068335050E+03  0.20511012632E+04  0.10100000352E+00 0.  1.
       -3    1    3    3    0  502  0.12196588509E+04 -0.15195306885E+04 -0.50582960317E+03  0.20130585743E+04  0.10100000352E+00 0. -1.
</event>
<event>
 5   0  0.2904500E-09  0.3903417E+04  0.7818609E-02  0.8024319E-01
        1   -1    0    0  501    0  0.00000000000E+00  0.00000000000E+00  0.14987082296E+04  0.14987082296E+04  0.50400001928E-02 0. -1.
       -1   -1    0    0    0  501  0.00000000000E+00  0.00000000000E+00 -0.25416333611E+04  0.25416333611E+04  0.50400001928E-02 0.  1.
    10030    2    1    2    0    0  0.00000000000E+00  0.00000000000E+00 -0.10429251315E+04  0.40403415907E+04  0.39034173924E+04 0.  0.
        3    1    3    3  502    0 -0.11565075707E+03  0.18808879657E+04  0.43450399797E+01  0.18844451508E+04  0.10100000352E+00 0.  1.
       -3    1    3    3    0  502  0.11565075707E+03 -0.18808879657E+04 -0.10472701714E+04  0.21558964398E+04  0.10100000352E+00 0. -1.
</event>
<event>
 5   0  0.9277261E-09  0.3900744E+04  0.7818609E-02  0.8024874E-01
       -2   -1    0    0    0  501  0.00000000000E+00  0.00000000000E+00  0.20237545847E+04  0.20237545847E+04  0.25500000920E-02 0.  1.
        2   -1    0    0  501    0  0.00000000000E+00  0.00000000000E+00 -0.18796505485E+04  0.18796505485E+04  0.25500000920E-02 0. -1.
    10030    2    1    2    0    0  0.00000000000E+00  0.00000000000E+00  0.14410403618E+03  0.39034051333E+04  0.39007442445E+04 0.  0.
        1    1    3    3  502    0  0.57052236603E+03  0.58721186823E+03 -0.16993639525E+04  0.18863062825E+04  0.50400001928E-02 0. -1.
       -1    1    3    3    0  502 -0.57052236603E+03 -0.58721186823E+03  0.18434679887E+04  0.20170988508E+04  0.50400001928E-02 0.  1.
</event>
<event>
 5   0  0.9078515E-09  0.3899897E+04  0.7818609E-02  0.8025051E-01
        2   -1    0    0  501    0  0.00000000000E+00  0.00000000000E+00  0.29535047346E+04  0.29535047346E+04  0.25500000920E-02 0. -1.
       -2   -1    0    0    0  501  0.00000000000E+00  0.00000000000E+00 -0.12873854040E+04  0.12873854040E+04  0.25500000920E-02 0.  1.
    10030    2    1    2    0    0  0.00000000000E+00  0.00000000000E+00  0.16661193306E+04  0.42408901386E+04  0.38998968632E+04 0.  0.
        3    1    3    3  502    0 -0.12863470944E+04 -0.69698888166E+03  0.22348899471E+04  0.26711824037E+04  0.10100000352E+00 0. -1.
       -3    1    3    3    0  502  0.12863470944E+04  0.69698888166E+03 -0.56877061645E+03  0.15697077348E+04  0.10100000352E+00 0.  1.
</event>
<event>
 5   0  0.6335942E-09  0.3899685E+04  0.7818609E-02  0.8025095E-01
       -2   -1    0    0    0  501  0.00000000000E+00  0.00000000000E+00  0.17080642114E+04  0.17080642114E+04  0.25500000920E-02 0.  1.
        2   -1    0    0  501    0  0.00000000000E+00  0.00000000000E+00 -0.22258447462E+04  0.22258447462E+04  0.25500000920E-02 0. -1.
    10030    2    1    2    0    0  0.00000000000E+00  0.00000000000E+00 -0.51778053477E+03  0.39339089576E+04  0.38996849878E+04 0.  0.
        2    1    3    3  502    0 -0.16772679330E+04  0.72617230909E+03 -0.94406522033E+03  0.20571371082E+04  0.25500000920E-02 0.  1.
       -2    1    3    3    0  502  0.16772679330E+04 -0.72617230909E+03  0.42628468556E+03  0.18767718494E+04  0.25500000920E-02 0. -1.
</event>
<event>
 5   0  0.2929054E-09  0.3900560E+04  0.7818609E-02  0.8024913E-01
       -1   -1    0    0    0  501  0.00000000000E+00  0.00000000000E+00  0.12884576386E+04  0.12884576386E+04  0.50400001928E-02 0.  1.
        1   -1    0    0  501    0  0.00000000000E+00  0.00000000000E+00 -0.29520498187E+04  0.29520498187E+04  0.50400001928E-02 0. -1.
    10030    2    1    2    0    0  0.00000000000E+00  0.00000000000E+00 -0.16635921801E+04  0.42405074573E+04  0.39005595181E+04 0.  0.
        1    1    3    3  502    0 -0.17264030665E+04  0.67753297335E+03 -0.14877675672E+04  0.23775976977E+04  0.50400001928E-02 0. -1.
       -1    1    3    3    0  502  0.17264030665E+04 -0.67753297335E+03 -0.17582461284E+03  0.18629097596E+04  0.50400001928E-02 0.  1.
</event>
<event>
 5   0  0.6335942E-09  0.3899212E+04  0.7818609E-02  0.8025193E-01
        2   -1    0    0  501    0  0.00000000000E+00  0.00000000000E+00  0.25552696966E+04  0.25552696966E+04  0.25500000920E-02 0. -1.
       -2   -1    0    0    0  501  0.00000000000E+00  0.00000000000E+00 -0.14874999286E+04  0.14874999286E+04  0.25500000920E-02 0.  1.
    10030    2    1    2    0    0  0.00000000000E+00  0.00000000000E+00  0.10677697679E+04  0.40427696252E+04  0.38992119672E+04 0.  0.
        2    1    3    3  502    0 -0.19323022644E+04  0.11334240235E+03  0.29222652806E+03  0.19575583989E+04  0.25500000920E-02 0.  1.
       -2    1    3    3    0  502  0.19323022644E+04 -0.11334240235E+03  0.77554323988E+03  0.20852112263E+04  0.25500000920E-02 0. -1.
</event>
<event>
 5   0  0.2929054E-09  0.3893212E+04  0.7818609E-02  0.8026442E-01
        1   -1    0    0  501    0  0.00000000000E+00  0.00000000000E+00  0.33039462457E+04  0.33039462457E+04  0.50400001928E-02 0.  1.
       -1   -1    0    0    0  501  0.00000000000E+00  0.00000000000E+00 -0.11468935508E+04  0.11468935508E+04  0.50400001928E-02 0. -1.
    10030    2    1    2    0    0  0.00000000000E+00  0.00000000000E+00  0.21570526949E+04  0.44508397965E+04  0.38932118572E+04 0.  0.
        1    1    3    3  502    0  0.19282389994E+04  0.24301084417E+03  0.95269442396E+03  0.21644367800E+04  0.50400001928E-02 0. -1.
       -1    1    3    3    0  502 -0.19282389994E+04 -0.24301084417E+03  0.12043582710E+04  0.22864030165E+04  0.50400001928E-02 0.  1.
</event>
<event>
 5   0  0.2904500E-09  0.3900467E+04  0.7818609E-02  0.8024932E-01
        1   -1    0    0  501    0  0.00000000000E+00  0.00000000000E+00  0.13001058154E+04  0.13001058154E+04  0.50400001928E-02 0. -1.
       -1   -1    0    0    0  501  0.00000000000E+00  0.00000000000E+00 -0.29254621361E+04  0.29254621361E+04  0.50400001928E-02 0.  1.
    10030    2    1    2    0    0  0.00000000000E+00  0.00000000000E+00 -0.16253563207E+04  0.42255679515E+04  0.39004668110E+04 0.  0.
        5    1    3    3  502    0  0.52538122167E+02 -0.19479291146E+04 -0.72737407765E+03  0.20799719298E+04  0.46999998093E+01 0. -1.
       -5    1    3    3    0  502 -0.52538122167E+02  0.19479291146E+04 -0.89798224310E+03  0.21455960218E+04  0.46999998093E+01 0.  1.
</event>
<event>
 5   0  0.6335942E-09  0.3899201E+04  0.7818609E-02  0.8025195E-01
        2   -1    0    0  501    0  0.00000000000E+00  0.00000000000E+00  0.22568460655E+04  0.22568460655E+04  0.25500000920E-02 0.  1.
       -2   -1    0    0    0  501  0.00000000000E+00  0.00000000000E+00 -0.16841827672E+04  0.16841827672E+04  0.25500000920E-02 0. -1.
    10030    2    1    2    0    0  0.00000000000E+00  0.00000000000E+00  0.57266329834E+03  0.39410288327E+04  0.38992005600E+04 0.  0.
        2    1    3    3  502    0 -0.82572046939E+03 -0.85260195420E+03  0.18495962603E+04  0.21976693818E+04  0.25500000920E-02 0.  1.
       -2    1    3    3    0  502  0.82572046939E+03  0.85260195420E+03 -0.12769329619E+04  0.17433594509E+04  0.25500000920E-02 0. -1.
</event>
<event>
 5   0  0.2929054E-09  0.3899706E+04  0.7818609E-02  0.8025090E-01
        1   -1    0    0  501    0  0.00000000000E+00  0.00000000000E+00  0.16852650336E+04  0.16852650336E+04  0.50400001928E-02 0.  1.
       -1   -1    0    0    0  501  0.00000000000E+00  0.00000000000E+00 -0.22559816763E+04  0.22559816763E+04  0.50400001928E-02 0. -1.
    10030    2    1    2    0    0  0.00000000000E+00  0.00000000000E+00 -0.57071664276E+03  0.39412467099E+04  0.38997061610E+04 0.  0.
        1    1    3    3  502    0  0.77260775586E+03  0.24738386696E+03  0.15066068821E+04  0.17111358272E+04  0.50400001928E-02 0.  1.
       -1    1    3    3    0  502 -0.77260775586E+03 -0.24738386696E+03 -0.20773235249E+04  0.22301108827E+04  0.50400001928E-02 0. -1.
</event>
<event>
 5   0  0.2904500E-09  0.3899897E+04  0.7818609E-02  0.8025051E-01
        1   -1    0    0  501    0  0.00000000000E+00  0.00000000000E+00  0.20176619249E+04  0.20176619250E+04  0.50400001928E-02 0.  1.
       -1   -1    0    0    0  501  0.00000000000E+00  0.00000000000E+00 -0.18845073807E+04  0.18845073807E+04  0.50400001928E-02 0. -1.
    10030    2    1    2    0    0  0.00000000000E+00  0.00000000000E+00  0.13315454425E+03  0.39021693057E+04  0.38998968137E+04 0.  0.
        5    1    3    3  502    0  0.38227766106E+03 -0.17859670583E+04 -0.61680105250E+03  0.19277655905E+04  0.46999998093E+01 0. -1.
       -5    1    3    3    0  502 -0.38227766106E+03  0.17859670583E+04  0.74995559675E+03  0.19744037152E+04  0.46999998093E+01 0.  1.
</event>
<event>
 5   0  0.2929054E-09  0.3899669E+04  0.7818609E-02  0.8025098E-01
       -1   -1    0    0    0  501  0.00000000000E+00  0.00000000000E+00  0.15995560473E+04  0.15995560473E+04  0.50400001928E-02 0.  1.
        1   -1    0    0  501    0  0.00000000000E+00  0.00000000000E+00 -0.23768186050E+04  0.23768186050E+04  0.50400001928E-02 0. -1.
    10030    2    1    2    0    0  0.00000000000E+00  0.00000000000E+00 -0.77726255772E+03  0.39763746523E+04  0.38996689978E+04 0.  0.
        1    1    3    3  502    0 -0.17515519083E+04 -0.19255809258E+03  0.46255902632E+03  0.18218050278E+04  0.50400001928E-02 0.  1.
       -1    1    3    3    0  502  0.17515519083E+04  0.19255809258E+03 -0.12398215840E+04  0.21545696245E+04  0.50400001928E-02 0. -1.
</event>
<event>
 5   0  0.2904500E-09  0.3900118E+04  0.7818609E-02  0.8025005E-01
       -1   -1    0    0    0  501  0.00000000000E+00  0.00000000000E+00  0.17462581426E+04  0.17462581426E+04  0.50400001928E-02 0.  1.
        1   -1    0    0  501    0  0.00000000000E+00  0.00000000000E+00 -0.21776446590E+04  0.21776446590E+04  0.50400001928E-02 0. -1.
    10030    2    1    2    0    0  0.00000000000E+00  0.00000000000E+00 -0.43138651643E+03  0.39239028016E+04  0.39001178021E+04 0.  0.
        2    1    3    3  502    0 -0.44834619351E+03  0.51849687133E+03 -0.20524435616E+04  0.21638802851E+04  0.25500000920E-02 0. -1.
       -2    1    3    3    0  502  0.44834619351E+03 -0.51849687133E+03  0.16210570452E+04  0.17600225165E+04  0.25500000920E-02 0.  1.
</event>
<event>
 5   0  0.2904500E-09  0.3899595E+04  0.7818609E-02  0.8025113E-01
        1   -1    0    0  501    0  0.00000000000E+00  0.00000000000E+00  0.11955180347E+04  0.11955180347E+04  0.50400001928E-02 0. -1.
       -1   -1    0    0    0  501  0.00000000000E+00  0.00000000000E+00 -0.31799687387E+04  0.31799687387E+04  0.50400001928E-02 0.  1.
    10030    2    1    2    0    0  0.00000000000E+00  0.00000000000E+00 -0.19844507039E+04  0.43754867734E+04  0.38995948389E+04 0.  0.
        2    1    3    3  502    0  0.47034861204E+03 -0.29434037732E+03  0.11050659783E+04  0.12365415039E+04  0.25500000920E-02 0. -1.
       -2    1    3    3    0  502 -0.47034861204E+03  0.29434037732E+03 -0.30895166823E+04  0.31389452694E+04  0.25500000920E-02 0.  1.
</event>
<event>
 5   0  0.2904500E-09  0.3901734E+04  0.7818609E-02  0.8024669E-01
        1   -1    0    0  501    0  0.00000000000E+00  0.00000000000E+00  0.23150066464E+04  0.23150066464E+04  0.50400001928E-02 0.  1.
       -1   -1    0    0    0  501  0.00000000000E+00  0.00000000000E+00 -0.16440048125E+04  0.16440048125E+04  0.50400001928E-02 0. -1.
    10030    2    1    2    0    0  0.00000000000E+00  0.00000000000E+00  0.67100183390E+03  0.39590114589E+04  0.39017340082E+04 0.  0.
        5    1    3    3  502    0  0.17450951323E+04 -0.49188634569E+01 -0.54935517385E+03  0.18295339333E+04  0.46999998093E+01 0. -1.
       -5    1    3    3    0  502 -0.17450951323E+04  0.49188634569E+01  0.12203570077E+04  0.21294775257E+04  0.46999998093E+01 0.  1.
</event>
<event>
 5   0  0.9277261E-09  0.3901232E+04  0.7818609E-02  0.8024773E-01
        2   -1    0    0  501    0  0.00000000000E+00  0.00000000000E+00  0.14404591310E+04  0.14404591310E+04  0.25500000920E-02 0.  1.
       -2   -1    0    0    0  501  0.00000000000E+00  0.00000000000E+00 -0.26414508227E+04  0.26414508227E+04  0.25500000920E-02 0. -1.
    10030    2    1    2    0    0  0.00000000000E+00  0.00000000000E+00 -0.12009916917E+04  0.40819099537E+04  0.39012315781E+04 0.  0.
        1    1    3    3  502    0 -0.14590417667E+02  0.18961431533E+04 -0.10792115254E+04  0.21818041284E+04  0.50400001928E-02 0. -1.
       -1    1    3    3    0  502  0.14590417667E+02 -0.18961431533E+04 -0.12178016629E+03  0.19001058252E+04  0.50400001928E-02 0.  1.
</event>
<event>
 5   0  0.9368546E-09  0.3900459E+04  0.7818609E-02  0.8024934E-01
       -2   -1    0    0    0  501  0.00000000000E+00  0.00000000000E+00  0.18172027783E+04  0.18172027783E+04  0.25500000920E-02 0.  1.
        2   -1    0    0  501    0  0.00000000000E+00  0.00000000000E+00 -0.20929942080E+04  0.20929942080E+04  0.25500000920E-02 0. -1.
    10030    2    1    2    0    0  0.00000000000E+00  0.00000000000E+00 -0.27579142971E+03  0.39101969862E+04  0.39004588908E+04 0.  0.
        5    1    3    3  502    0 -0.12837296522E+03 -0.15320133196E+04 -0.13408200063E+04  0.20399423543E+04  0.46999998093E+01 0. -1.
       -5    1    3    3    0  502  0.12837296522E+03  0.15320133196E+04  0.10650285766E+04  0.18702546320E+04  0.46999998093E+01 0.  1.
</event>
<event>
 5   0  0.9277261E-09  0.3906193E+04  0.7818609E-02  0.8023742E-01
        2   -1    0    0  501    0  0.00000000000E+00  0.00000000000E+00  0.22013667715E+04  0.22013667715E+04  0.25500000920E-02 0.  1.
       -2   -1    0    0    0  501  0.00000000000E+00  0.00000000000E+00 -0.17328261670E+04  0.17328261670E+04  0.25500000920E-02 0. -1.
    10030    2    1    2    0    0  0.00000000000E+00  0.00000000000E+00  0.46854060449E+03  0.39341929384E+04  0.39061930033E+04 0.  0.
        1    1    3    3  502    0 -0.16673181073E+04 -0.50861513163E+03 -0.65292240646E+03  0.18614367279E+04  0.50400001928E-02 0. -1.
       -1    1    3    3    0  502  0.16673181073E+04  0.50861513163E+03  0.11214630109E+04  0.20727562105E+04  0.50400001928E-02 0.  1.
</event>
<event>
 5   0  0.2904500E-09  0.3900309E+04  0.7818609E-02  0.8024965E-01
        1   -1    0    0  501    0  0.00000000000E+00  0.00000000000E+00  0.12723429259E+04  0.12723429259E+04  0.50400001928E-02 0.  1.
       -1   -1    0    0    0  501  0.00000000000E+00  0.00000000000E+00 -0.29890543279E+04  0.29890543279E+04  0.50400001928E-02 0. -1.
    10030    2    1    2    0    0  0.00000000000E+00  0.00000000000E+00 -0.17167114020E+04  0.42613972539E+04  0.39003087721E+04 0.  0.
        4    1    3    3  502    0 -0.15329139731E+04  0.10568459822E+04 -0.14920064233E+04  0.23859659384E+04  0.12699999809E+01 0. -1.
       -4    1    3    3    0  502  0.15329139731E+04 -0.10568459822E+04 -0.22470497863E+03  0.18754313155E+04  0.12699999809E+01 0.  1.
</event>
<event>
 5   0  0.9277261E-09  0.3895635E+04  0.7818609E-02  0.8025938E-01
        2   -1    0    0  501    0  0.00000000000E+00  0.00000000000E+00  0.13396833875E+04  0.13396833875E+04  0.25500000920E-02 0.  1.
       -2   -1    0    0    0  501  0.00000000000E+00  0.00000000000E+00 -0.28320074451E+04  0.28320074451E+04  0.25500000920E-02 0. -1.
    10030    2    1    2    0    0  0.00000000000E+00  0.00000000000E+00 -0.14923240576E+04  0.41716908327E+04  0.38956351614E+04 0.  0.
        1    1    3    3  502    0  0.52908542050E+03  0.11840361588E+04  0.81013742623E+03  0.15291159724E+04  0.50400001928E-02 0.  1.
       -1    1    3    3    0  502 -0.52908542050E+03 -0.11840361588E+04 -0.23024614838E+04  0.26425748603E+04  0.50400001928E-02 0. -1.
</event>
<event>
 5   0  0.2929054E-09  0.3895456E+04  0.7818609E-02  0.8025975E-01
        1   -1    0    0  501    0  0.00000000000E+00  0.00000000000E+00  0.18281709206E+04  0.18281709206E+04  0.50400001928E-02 0. -1.
       -1   -1    0    0    0  501  0.00000000000E+00  0.00000000000E+00 -0.20751037819E+04  0.20751037819E+04  0.50400001928E-02 0.  1.
    10030    2    1    2    0    0  0.00000000000E+00  0.00000000000E+00 -0.24693286132E+03  0.39032747026E+04  0.38954560151E+04 0.  0.
        1    1    3    3  502    0 -0.13738400747E+04 -0.33705120705E+03 -0.14650354846E+04  0.20365090322E+04  0.50400001928E-02 0.  1.
       -1    1    3    3    0  502  0.13738400747E+04  0.33705120705E+03  0.12181026233E+04  0.18667656704E+04  0.50400001928E-02 0. -1.
</event>
<event>
 5   0  0.9434114E-09  0.3900773E+04  0.7818609E-02  0.8024868E-01
       -2   -1    0    0    0  501  0.00000000000E+00  0.00000000000E+00  0.14588589673E+04  0.14588589673E+04  0.25500000920E-02 0.  1.
        2   -1    0    0  501    0  0.00000000000E+00  0.00000000000E+00 -0.26075221698E+04  0.26075221698E+04  0.25500000920E-02 0. -1.
    10030    2    1    2    0    0  0.00000000000E+00  0.00000000000E+00 -0.11486632025E+04  0.40663811372E+04  0.39007727952E+04 0.  0.
        4    1    3    3  502    0  0.19468372437E+04 -0.13819339501E+02 -0.45258612779E+03  0.19988001510E+04  0.12699999809E+01 0.  1.
       -4    1    3    3    0  502 -0.19468372437E+04  0.13819339501E+02 -0.69607707469E+03  0.20675809862E+04  0.12699999809E+01 0. -1.
</event>
<event>
 5   0  0.2904500E-09  0.3899630E+04  0.7818609E-02  0.8025106E-01
       -3   -1    0    0    0  501  0.00000000000E+00  0.00000000000E+00  0.20562747091E+04  0.20562747116E+04  0.10100000352E+00 0.  1.
        3   -1    0    0  501    0  0.00000000000E+00  0.00000000000E+00 -0.18488665863E+04  0.18488665890E+04  0.10100000352E+00 0. -1.
    10030    2    1    2    0    0  0.00000000000E+00  0.00000000000E+00  0.20740812281E+03  0.39051413006E+04  0.38996295271E+04 0.  0.
        1    1    3    3  502    0 -0.61258114572E+03 -0.85919052630E+03 -0.15382211312E+04  0.18653654519E+04  0.50400001928E-02 0. -1.
       -1    1    3    3    0  502  0.61258114572E+03  0.85919052630E+03  0.17456292540E+04  0.20397758487E+04  0.50400001928E-02 0.  1.
</event>
<event>
 5   0  0.6335942E-09  0.3886287E+04  0.7818609E-02  0.8027887E-01
       -2   -1    0    0    0  501  0.00000000000E+00  0.00000000000E+00  0.20595350681E+04  0.20595350681E+04  0.25500000920E-02 0. -1.
        2   -1    0    0  501    0  0.00000000000E+00  0.00000000000E+00 -0.18333293875E+04  0.18333293875E+04  0.25500000920E-02 0.  1.
    10030    2    1    2    0    0  0.00000000000E+00  0.00000000000E+00  0.22620568058E+03  0.38928644556E+04  0.38862867444E+04 0.  0.
        2    1    3    3  502    0  0.16201565459E+04 -0.10530060726E+04  0.31857716504E+03  0.19583718831E+04  0.25500000920E-02 0. -1.
       -2    1    3    3    0  502 -0.16201565459E+04  0.10530060726E+04 -0.92371484460E+02  0.19344925726E+04  0.25500000920E-02 0.  1.
</event>
<event>
 5   0  0.9368546E-09  0.3899907E+04  0.7818609E-02  0.8025048E-01
        2   -1    0    0  501    0  0.00000000000E+00  0.00000000000E+00  0.17023565378E+04  0.17023565378E+04  0.25500000920E-02 0.  1.
       -2   -1    0    0    0  501  0.00000000000E+00  0.00000000000E+00 -0.22335622589E+04  0.22335622589E+04  0.25500000920E-02 0. -1.
    10030    2    1    2    0    0  0.00000000000E+00  0.00000000000E+00 -0.53120572109E+03  0.39359187966E+04  0.38999073394E+04 0.  0.
        5    1    3    3  502    0 -0.17609612678E+04 -0.37069936216E+03 -0.10234660564E+04  0.20702433341E+04  0.46999998093E+01 0. -1.
       -5    1    3    3    0  502  0.17609612678E+04  0.37069936216E+03  0.49226033536E+03  0.18656754625E+04  0.46999998093E+01 0.  1.
</event>
<event>
 5   0  0.6335942E-09  0.3899392E+04  0.7818609E-02  0.8025156E-01
       -2   -1    0    0    0  501  0.00000000000E+00  0.00000000000E+00  0.14027961667E+04  0.14027961667E+04  0.25500000920E-02 0. -1.
        2   -1    0    0  501    0  0.00000000000E+00  0.00000000000E+00 -0.27098128703E+04  0.27098128703E+04  0.25500000920E-02 0.  1.
    10030    2    1    2    0    0  0.00000000000E+00  0.00000000000E+00 -0.13070167036E+04  0.41126090370E+04  0.38993923151E+04 0.  0.
        2    1    3    3  502    0 -0.12047721884E+04 -0.12464602590E+04  0.28756832190E+03  0.17572235893E+04  0.25500000920E-02 0. -1.
       -2    1    3    3    0  502  0.12047721884E+04  0.12464602590E+04 -0.15945850255E+04  0.23553854476E+04  0.25500000920E-02 0.  1.
</event>
<event>
 5   0  0.9078515E-09  0.3897173E+04  0.7818609E-02  0.8025617E-01
       -2   -1    0    0    0  501  0.00000000000E+00  0.00000000000E+00  0.18408973770E+04  0.18408973770E+04  0.25500000920E-02 0.  1.
        2   -1    0    0  501    0  0.00000000000E+00  0.00000000000E+00 -0.20625751961E+04  0.20625751961E+04  0.25500000920E-02 0. -1.
    10030    2    1    2    0    0  0.00000000000E+00  0.00000000000E+00 -0.22167781910E+03  0.39034725730E+04  0.38971729591E+04 0.  0.
        3    1    3    3  502    0  0.95374995354E+03  0.14155871956E+04  0.83060766110E+03  0.18982716294E+04  0.10100000352E+00 0.  1.
       -3    1    3    3    0  502 -0.95374995354E+03 -0.14155871956E+04 -0.10522854802E+04  0.20052009436E+04  0.10100000352E+00 0. -1.
</event>
<event>
 5   0  0.9078515E-09  0.3900336E+04  0.7818609E-02  0.8024959E-01
       -2   -1    0    0    0  501  0.00000000000E+00  0.00000000000E+00  0.19781113659E+04  0.19781113659E+04  0.25500000920E-02 0. -1.
        2   -1    0    0  501    0  0.00000000000E+00  0.00000000000E+00 -0.19226190024E+04  0.19226190024E+04  0.25500000920E-02 0.  1.
    10030    2    1    2    0    0  0.00000000000E+00  0.00000000000E+00  0.55492363540E+02  0.39007303683E+04  0.39003356271E+04 0.  0.
        3    1    3    3  502    0  0.12433597684E+04  0.14329193650E+04  0.47940352483E+03  0.19567905279E+04  0.10100000352E+00 0.  1.
       -3    1    3    3    0  502 -0.12433597684E+04 -0.14329193650E+04 -0.42391116129E+03  0.19439398404E+04  0.10100000352E+00 0. -1.
</event>
<event>
 5   0  0.6335942E-09  0.3899829E+04  0.7818609E-02  0.8025065E-01
       -2   -1    0    0    0  501  0.00000000000E+00  0.00000000000E+00  0.14057539680E+04  0.14057539680E+04  0.25500000920E-02 0.  1.
        2   -1    0    0  501    0  0.00000000000E+00  0.00000000000E+00 -0.27047167647E+04  0.27047167647E+04  0.25500000920E-02 0. -1.
    10030    2    1    2    0    0  0.00000000000E+00  0.00000000000E+00 -0.12989627966E+04  0.41104707327E+04  0.38998288805E+04 0.  0.
        2    1    3    3  502    0 -0.47677012328E+03 -0.83937736381E+03  0.11362240439E+04  0.14909289679E+04  0.25500000920E-02 0.  1.
       -2    1    3    3    0  502  0.47677012328E+03  0.83937736381E+03 -0.24351868405E+04  0.26195417648E+04  0.25500000920E-02 0. -1.
</event>
<event>
 5   0  0.2904500E-09  0.3896668E+04  0.7818609E-02  0.8025722E-01
       -1   -1    0    0    0  501  0.00000000000E+00  0.00000000000E+00  0.12847812419E+04  0.12847812419E+04  0.50400001928E-02 0.  1.
        1   -1    0    0  501    0  0.00000000000E+00  0.00000000000E+00 -0.29545932206E+04  0.29545932206E+04  0.50400001928E-02 0. -1.
    10030    2    1    2    0    0  0.00000000000E+00  0.00000000000E+00 -0.16698119787E+04  0.42393744624E+04  0.38966682934E+04 0.  0.
        5    1    3    3  502    0 -0.16565005156E+04  0.10126974502E+04 -0.10117897332E+04  0.21893584992E+04  0.46999998093E+01 0.  1.
       -5    1    3    3    0  502  0.16565005156E+04 -0.10126974502E+04 -0.65802224555E+03  0.20500159632E+04  0.46999998093E+01 0. -1.
</event>
<event>
 5   0  0.9368546E-09  0.3898729E+04  0.7818609E-02  0.8025294E-01
       -2   -1    0    0    0  501  0.00000000000E+00  0.00000000000E+00  0.21853092589E+04  0.21853092589E+04  0.25500000920E-02 0. -1.
        2   -1    0    0  501    0  0.00000000000E+00  0.00000000000E+00 -0.17388947474E+04  0.17388947474E+04  0.25500000920E-02 0.  1.
    10030    2    1    2    0    0  0.00000000000E+00  0.00000000000E+00  0.44641451155E+03  0.39242040063E+04  0.38987294299E+04 0.  0.
        5    1    3    3  502    0 -0.71377704666E+03  0.15140571003E+04 -0.78239741928E+03  0.18477051678E+04  0.46999998093E+01 0.  1.
       -5    1    3    3    0  502  0.71377704666E+03 -0.15140571003E+04  0.12288119308E+04  0.20764988386E+04  0.46999998093E+01 0. -1.
</event>
<event>
 5   0  0.9078515E-09  0.3901091E+04  0.7818609E-02  0.8024802E-01
       -2   -1    0    0    0  501  0.00000000000E+00  0.00000000000E+00  0.21155500103E+04  0.21155500103E+04  0.25500000920E-02 0. -1.
        2   -1    0    0  501    0  0.00000000000E+00  0.00000000000E+00 -0.17984107757E+04  0.17984107757E+04  0.25500000920E-02 0.  1.
    10030    2    1    2    0    0  0.00000000000E+00  0.00000000000E+00  0.31713923465E+03  0.39139607860E+04  0.39010910962E+04 0.  0.
        3    1    3    3  502    0  0.16467323179E+04 -0.23919622152E+03  0.11796134396E+04  0.20397132240E+04  0.10100000352E+00 0. -1.
       -3    1    3    3    0  502 -0.16467323179E+04  0.23919622152E+03 -0.86247420492E+03  0.18742475620E+04  0.10100000352E+00 0.  1.
</event>
<event>
 5   0  0.2904500E-09  0.3898533E+04  0.7818609E-02  0.8025334E-01
       -1   -1    0    0    0  501  0.00000000000E+00  0.00000000000E+00  0.26220267498E+04  0.26220267498E+04  0.50400001928E-02 0.  1.
        1   -1    0    0  501    0  0.00000000000E+00  0.00000000000E+00 -0.14491234123E+04  0.14491234124E+04  0.50400001928E-02 0. -1.
    10030    2    1    2    0    0  0.00000000000E+00  0.00000000000E+00  0.11729033375E+04  0.40711501622E+04  0.38985332375E+04 0.  0.
        4    1    3    3  502    0 -0.13589713861E+03 -0.93489573141E+03  0.23669800643E+04  0.25485474880E+04  0.12699999809E+01 0.  1.
       -4    1    3    3    0  502  0.13589713861E+03  0.93489573141E+03 -0.11940767268E+04  0.15226026742E+04  0.12699999809E+01 0. -1.
</event>
<event>
 5   0  0.9277261E-09  0.3899513E+04  0.7818609E-02  0.8025131E-01
       -2   -1    0    0    0  501  0.00000000000E+00  0.00000000000E+00  0.14770932058E+04  0.14770932058E+04  0.25500000920E-02 0. -1.
        2   -1    0    0  501    0  0.00000000000E+00  0.00000000000E+00 -0.25736697613E+04  0.25736697613E+04  0.25500000920E-02 0.  1.
    10030    2    1    2    0    0  0.00000000000E+00  0.00000000000E+00 -0.10965765555E+04  0.40507629672E+04  0.38995128508E+04 0.  0.
        1    1    3    3  502    0  0.71672331253E+03  0.16801890818E+04  0.15993472445E+03  0.18336593940E+04  0.50400001928E-02 0. -1.
       -1    1    3    3    0  502 -0.71672331253E+03 -0.16801890818E+04 -0.12565112800E+04  0.22171035731E+04  0.50400001928E-02 0.  1.
</event>
<event>
 5   0  0.6335942E-09  0.3899080E+04  0.7818609E-02  0.8025220E-01
        2   -1    0    0  501    0  0.00000000000E+00  0.00000000000E+00  0.25709097840E+04  0.25709097840E+04  0.25500000920E-02 0. -1.
       -2   -1    0    0    0  501  0.00000000000E+00  0.00000000000E+00 -0.14783509771E+04  0.14783509771E+04  0.25500000920E-02 0.  1.
    10030    2    1    2    0    0  0.00000000000E+00  0.00000000000E+00  0.10925588069E+04  0.40492607611E+04  0.38990803999E+04 0.  0.
        2    1    3    3  502    0  0.22494627193E+03 -0.19192953668E+04  0.27864923276E+03  0.19524192494E+04  0.25500000920E-02 0.  1.
       -2    1    3    3    0  502 -0.22494627193E+03  0.19192953668E+04  0.81390957418E+03  0.20968415117E+04  0.25500000920E-02 0. -1.
</event>
<event>
 5   0  0.2904500E-09  0.3900658E+04  0.7818609E-02  0.8024892E-01
       -1   -1    0    0    0  501  0.00000000000E+00  0.00000000000E+00  0.21606031579E+04  0.21606031579E+04  0.50400001928E-02 0. -1.
        1   -1    0    0  501    0  0.00000000000E+00  0.00000000000E+00 -0.17605194351E+04  0.17605194351E+04  0.50400001928E-02 0.  1.
    10030    2    1    2    0    0  0.00000000000E+00  0.00000000000E+00  0.40008372279E+03  0.39211225930E+04  0.39006583296E+04 0.  0.
        2    1    3    3  502    0  0.18393557184E+04 -0.56756698688E+03 -0.11532702170E+03  0.19283832776E+04  0.25500000920E-02 0.  1.
       -2    1    3    3    0  502 -0.18393557184E+04  0.56756698688E+03  0.51541074450E+03  0.19927393154E+04  0.25500000920E-02 0. -1.
</event>
<event>
 5   0  0.9368546E-09  0.3898925E+04  0.7818609E-02  0.8025253E-01
       -2   -1    0    0    0  501  0.00000000000E+00  0.00000000000E+00  0.17192601087E+04  0.17192601087E+04  0.25500000920E-02 0.  1.
        2   -1    0    0  501    0  0.00000000000E+00  0.00000000000E+00 -0.22104881255E+04  0.22104881255E+04  0.25500000920E-02 0. -1.
    10030    2    1    2    0    0  0.00000000000E+00  0.00000000000E+00 -0.49122801679E+03  0.39297482343E+04  0.38989250083E+04 0.  0.
        5    1    3    3  502    0  0.14778185113E+04  0.71534417690E+03  0.81375042459E+03  0.18324510054E+04  0.46999998093E+01 0.  1.
       -5    1    3    3    0  502 -0.14778185113E+04 -0.71534417690E+03 -0.13049784414E+04  0.20972972289E+04  0.46999998093E+01 0. -1.
</event>
<event>
 5   0  0.2904500E-09  0.3898819E+04  0.7818609E-02  0.8025275E-01
       -1   -1    0    0    0  501  0.00000000000E+00  0.00000000000E+00  0.21499644501E+04  0.21499644501E+04  0.50400001928E-02 0.  1.
        1   -1    0    0  501    0  0.00000000000E+00  0.00000000000E+00 -0.17675631940E+04  0.17675631940E+04  0.50400001928E-02 0. -1.
    10030    2    1    2    0    0  0.00000000000E+00  0.00000000000E+00  0.38240125614E+03  0.39175276441E+04  0.38988193240E+04 0.  0.
        3    1    3    3  502    0  0.12125519677E+04  0.19157145345E+03 -0.13304027129E+04  0.18102356987E+04  0.10100000352E+00 0. -1.
       -3    1    3    3    0  502 -0.12125519677E+04 -0.19157145345E+03  0.17128039691E+04  0.21072919453E+04  0.10100000352E+00 0.  1.
</event>
<event>
 5   0  0.2904500E-09  0.3900605E+04  0.7818609E-02  0.8024903E-01
        1   -1    0    0  501    0  0.00000000000E+00  0.00000000000E+00  0.18598380881E+04  0.18598380881E+04  0.50400001928E-02 0.  1.
       -1   -1    0    0    0  501  0.00000000000E+00  0.00000000000E+00 -0.20451675573E+04  0.20451675573E+04  0.50400001928E-02 0. -1.
    10030    2    1    2    0    0  0.00000000000E+00  0.00000000000E+00 -0.18532946919E+03  0.39050056454E+04  0.39006053477E+04 0.  0.
        3    1    3    3  502    0  0.15642619093E+04 -0.70471033795E+03  0.83582344560E+03  0.19084372727E+04  0.10100000352E+00 0.  1.
       -3    1    3    3    0  502 -0.15642619093E+04  0.70471033795E+03 -0.10211529148E+04  0.19965683727E+04  0.10100000352E+00 0. -1.
</event>
<event>
 5   0  0.2904500E-09  0.3898495E+04  0.7818609E-02  0.8025342E-01
       -1   -1    0    0    0  501  0.00000000000E+00  0.00000000000E+00  0.22945825602E+04  0.22945825602E+04  0.50400001928E-02 0. -1.
        1   -1    0    0  501    0  0.00000000000E+00  0.00000000000E+00 -0.16558858061E+04  0.16558858061E+04  0.50400001928E-02 0.  1.
    10030    2    1    2    0    0  0.00000000000E+00  0.00000000000E+00  0.63869675411E+03  0.39504683664E+04  0.38984954495E+04 0.  0.
        2    1    3    3  502    0 -0.12960153970E+04 -0.23310484114E+03 -0.11370219512E+04  0.17397737478E+04  0.25500000920E-02 0.  1.
       -2    1    3    3    0  502  0.12960153970E+04  0.23310484114E+03  0.17757187053E+04  0.22106946185E+04  0.25500000920E-02 0. -1.
</event>
<event>
 5   0  0.6335942E-09  0.3898702E+04  0.7818609E-02  0.8025299E-01
        2   -1    0    0  501    0  0.00000000000E+00  0.00000000000E+00  0.15210145639E+04  0.15210145639E+04  0.25500000920E-02 0.  1.
       -2   -1    0    0    0  501  0.00000000000E+00  0.00000000000E+00 -0.24983125637E+04  0.24983125637E+04  0.25500000920E-02 0. -1.
    10030    2    1    2    0    0  0.00000000000E+00  0.00000000000E+00 -0.97729799979E+03  0.40193271277E+04  0.38987022429E+04 0.  0.
        2    1    3    3  502    0 -0.90768694440E+03 -0.16815016098E+04 -0.88609805863E+03  0.21063031649E+04  0.25500000920E-02 0. -1.
       -2    1    3    3    0  502  0.90768694440E+03  0.16815016098E+04 -0.91199941155E+02  0.19130239628E+04  0.25500000920E-02 0.  1.
</event>
<event>
 5   0  0.6335942E-09  0.3901494E+04  0.7818609E-02  0.8024719E-01
        2   -1    0    0  501    0  0.00000000000E+00  0.00000000000E+00  0.17911718813E+04  0.17911718813E+04  0.25500000920E-02 0.  1.
       -2   -1    0    0    0  501  0.00000000000E+00  0.00000000000E+00 -0.21245386159E+04  0.21245386159E+04  0.25500000920E-02 0. -1.
    10030    2    1    2    0    0  0.00000000000E+00  0.00000000000E+00 -0.33336673459E+03  0.39157104973E+04  0.39014939855E+04 0.  0.
        2    1    3    3  502    0  0.10626858292E+04 -0.12573883176E+04  0.88359398387E+03  0.18684391564E+04  0.25500000920E-02 0.  1.
       -2    1    3    3    0  502 -0.10626858292E+04  0.12573883176E+04 -0.12169607185E+04  0.20472713409E+04  0.25500000920E-02 0. -1.
</event>
<event>
 5   0  0.6335942E-09  0.3897101E+04  0.7818609E-02  0.8025632E-01
       -2   -1    0    0    0  501  0.00000000000E+00  0.00000000000E+00  0.17172160868E+04  0.17172160868E+04  0.25500000920E-02 0. -1.
        2   -1    0    0  501    0  0.00000000000E+00  0.00000000000E+00 -0.22110488029E+04  0.22110488029E+04  0.25500000920E-02 0.  1.
    10030    2    1    2    0    0  0.00000000000E+00  0.00000000000E+00 -0.49383271612E+03  0.39282648897E+04  0.38971007547E+04 0.  0.
        2    1    3    3  502    0  0.81669752749E+03 -0.13955071917E+04 -0.13430002681E+04  0.21019240932E+04  0.25500000920E-02 0.  1.
       -2    1    3    3    0  502 -0.81669752749E+03  0.13955071917E+04  0.84916755202E+03  0.18263407965E+04  0.25500000920E-02 0. -1.
</event>
<event>
 5   0  0.9277261E-09  0.3900867E+04  0.7818609E-02  0.8024849E-01
       -2   -1    0    0    0  501  0.00000000000E+00  0.00000000000E+00  0.15225527443E+04  0.15225527443E+04  0.25500000920E-02 0. -1.
        2   -1    0    0  501    0  0.00000000000E+00  0.00000000000E+00 -0.24985609685E+04  0.24985609685E+04  0.25500000920E-02 0.  1.
    10030    2    1    2    0    0  0.00000000000E+00  0.00000000000E+00 -0.97600822418E+03  0.40211137128E+04  0.39008670110E+04 0.  0.
        1    1    3    3  502    0  0.38050222686E+03  0.13529936394E+04 -0.18820284311E+04  0.23489156538E+04  0.50400001928E-02 0.  1.
       -1    1    3    3    0  502 -0.38050222686E+03 -0.13529936394E+04  0.90602020695E+03  0.16721980590E+04  0.50400001928E-02 0. -1.
</event>
<event>
 5   0  0.9078515E-09  0.3902100E+04  0.7818609E-02  0.8024593E-01
        2   -1    0    0  501    0  0.00000000000E+00  0.00000000000E+00  0.15029212875E+04  0.15029212876E+04  0.25500000920E-02 0. -1.
       -2   -1    0    0    0  501  0.00000000000E+00  0.00000000000E+00 -0.25327984341E+04  0.25327984341E+04  0.25500000920E-02 0.  1.
    10030    2    1    2    0    0  0.00000000000E+00  0.00000000000E+00 -0.10298771466E+04  0.40357197217E+04  0.39021002979E+04 0.  0.
        3    1    3    3  502    0 -0.69510532669E+03 -0.17925225597E+04 -0.17147003809E+03  0.19302099695E+04  0.10100000352E+00 0. -1.
       -3    1    3    3    0  502  0.69510532669E+03  0.17925225597E+04 -0.85840710849E+03  0.21055097522E+04  0.10100000352E+00 0.  1.
</event>
<event>
 5   0  0.2929054E-09  0.3899559E+04  0.7818609E-02  0.8025121E-01
        1   -1    0    0  501    0  0.00000000000E+00  0.00000000000E+00  0.12386198469E+04  0.12386198469E+04  0.50400001928E-02 0. -1.
       -1   -1    0    0    0  501  0.00000000000E+00  0.00000000000E+00 -0.30692543928E+04  0.30692543928E+04  0.50400001928E-02 0.  1.
    10030    2    1    2    0    0  0.00000000000E+00  0.00000000000E+00 -0.18306345459E+04  0.43078742398E+04  0.38995586449E+04 0.  0.
        1    1    3    3  502    0  0.54022379582E+03  0.81057532296E+02 -0.29829896256E+04  0.30325961121E+04  0.50400001928E-02 0.  1.
       -1    1    3    3    0  502 -0.54022379582E+03 -0.81057532296E+02  0.11523550797E+04  0.12752781276E+04  0.50400001928E-02 0. -1.
</event>
<event>
 5   0  0.6335942E-09  0.3899621E+04  0.7818609E-02  0.8025108E-01
       -2   -1    0    0    0  501  0.00000000000E+00  0.00000000000E+00  0.23478073466E+04  0.23478073466E+04  0.25500000920E-02 0.  1.
        2   -1    0    0  501    0  0.00000000000E+00  0.00000000000E+00 -0.16192813290E+04  0.16192813290E+04  0.25500000920E-02 0. -1.
    10030    2    1    2    0    0  0.00000000000E+00  0.00000000000E+00  0.72852601766E+03  0.39670886756E+04  0.38996208023E+04 0.  0.
        2    1    3    3  502    0  0.68414327520E+03  0.11952044888E+04  0.17684315038E+04  0.22414093278E+04  0.25500000920E-02 0.  1.
       -2    1    3    3    0  502 -0.68414327520E+03 -0.11952044888E+04 -0.10399054862E+04  0.17256793478E+04  0.25500000920E-02 0. -1.
</event>
<event>
 5   0  0.2904500E-09  0.3900166E+04  0.7818609E-02  0.8024995E-01
       -1   -1    0    0    0  501  0.00000000000E+00  0.00000000000E+00  0.18717262825E+04  0.18717262825E+04  0.50400001928E-02 0.  1.
        1   -1    0    0  501    0  0.00000000000E+00  0.00000000000E+00 -0.20317195374E+04  0.20317195374E+04  0.50400001928E-02 0. -1.
    10030    2    1    2    0    0  0.00000000000E+00  0.00000000000E+00 -0.15999325485E+03  0.39034458199E+04  0.39001655641E+04 0.  0.
        2    1    3    3  502    0 -0.84130044371E+03  0.87716672844E+02  0.16785646146E+04  0.18796435345E+04  0.25500000920E-02 0.  1.
       -2    1    3    3    0  502  0.84130044371E+03 -0.87716672844E+02 -0.18385578695E+04  0.20238022855E+04  0.25500000920E-02 0. -1.
</event>
<event>
 5   0  0.6335942E-09  0.3900859E+04  0.7818609E-02  0.8024851E-01
        2   -1    0    0  501    0  0.00000000000E+00  0.00000000000E+00  0.25312227388E+04  0.25312227388E+04  0.25500000920E-02 0.  1.
       -2   -1    0    0    0  501  0.00000000000E+00  0.00000000000E+00 -0.15029001710E+04  0.15029001710E+04  0.25500000920E-02 0. -1.
    10030    2    1    2    0    0  0.00000000000E+00  0.00000000000E+00  0.10283225678E+04  0.40341229098E+04  0.39008589244E+04 0.  0.
        2    1    3    3  502    0 -0.20565191558E+03 -0.26988858224E+03  0.25004652638E+04  0.25233824706E+04  0.25500000920E-02 0.  1.
       -2    1    3    3    0  502  0.20565191558E+03  0.26988858224E+03 -0.14721426960E+04  0.15107404392E+04  0.25500000920E-02 0. -1.
</event>
<event>
 5   0  0.9434114E-09  0.3900037E+04  0.7818609E-02  0.8025022E-01
       -2   -1    0    0    0  501  0.00000000000E+00  0.00000000000E+00  0.17528650005E+04  0.17528650005E+04  0.25500000920E-02 0.  1.
        2   -1    0    0  501    0  0.00000000000E+00  0.00000000000E+00 -0.21693467326E+04  0.21693467326E+04  0.25500000920E-02 0. -1.
    10030    2    1    2    0    0  0.00000000000E+00  0.00000000000E+00 -0.41648173211E+03  0.39222117331E+04  0.39000369032E+04 0.  0.
        4    1    3    3  502    0 -0.24748416482E+02 -0.14700011614E+04  0.10800793260E+04  0.18243050354E+04  0.12699999809E+01 0.  1.
       -4    1    3    3    0  502  0.24748416482E+02  0.14700011614E+04 -0.14965610581E+04  0.20979066977E+04  0.12699999809E+01 0. -1.
</event>
<event>
 5   0  0.2904500E-09  0.3900258E+04  0.7818609E-02  0.8024975E-01
       -1   -1    0    0    0  501  0.00000000000E+00  0.00000000000E+00  0.23634916828E+04  0.23634916828E+04  0.50400001928E-02 0. -1.
        1   -1    0    0  501    0  0.00000000000E+00  0.00000000000E+00 -0.16090617114E+04  0.16090617114E+04  0.50400001928E-02 0.  1.
    10030    2    1    2    0    0  0.00000000000E+00  0.00000000000E+00  0.75442997137E+03  0.39725533942E+04  0.39002584386E+04 0.  0.
        4    1    3    3  502    0 -0.62204639582E+03 -0.11678901015E+04  0.18362809093E+04  0.22633687721E+04  0.12699999809E+01 0.  1.
       -4    1    3    3    0  502  0.62204639582E+03  0.11678901015E+04 -0.10818509379E+04  0.17091846221E+04  0.12699999809E+01 0. -1.
</event>
<event>
 5   0  0.2904500E-09  0.3899895E+04  0.7818609E-02  0.8025051E-01
        1   -1    0    0  501    0  0.00000000000E+00  0.00000000000E+00  0.19944615223E+04  0.19944615223E+04  0.50400001928E-02 0. -1.
       -1   -1    0    0    0  501  0.00000000000E+00  0.00000000000E+00 -0.19064266922E+04  0.19064266922E+04  0.50400001928E-02 0.  1.
    10030    2    1    2    0    0  0.00000000000E+00  0.00000000000E+00  0.88034830151E+02  0.39008882145E+04  0.38998947077E+04 0.  0.
        3    1    3    3  502    0 -0.14657797219E+04  0.86723804926E+03  0.99382903590E+03  0.19718793548E+04  0.10100000352E+00 0. -1.
       -3    1    3    3    0  502  0.14657797219E+04 -0.86723804926E+03 -0.90579420575E+03  0.19290088597E+04  0.10100000352E+00 0.  1.
</event>
<event>
 5   0  0.9078515E-09  0.3903650E+04  0.7818609E-02  0.8024271E-01
        2   -1    0    0  501    0  0.00000000000E+00  0.00000000000E+00  0.19475729093E+04  0.19475729093E+04  0.25500000920E-02 0. -1.
       -2   -1    0    0    0  501  0.00000000000E+00  0.00000000000E+00 -0.19560858850E+04  0.19560858850E+04  0.25500000920E-02 0.  1.
    10030    2    1    2    0    0  0.00000000000E+00  0.00000000000E+00 -0.85129757408E+01  0.39036587943E+04  0.39036495118E+04 0.  0.
        3    1    3    3  502    0  0.47973340669E+03 -0.12334108368E+04 -0.14388934531E+04  0.19549580081E+04  0.10100000352E+00 0.  1.
       -3    1    3    3    0  502 -0.47973340669E+03  0.12334108368E+04  0.14303804774E+04  0.19487007862E+04  0.10100000352E+00 0. -1.
</event>
<event>
 5   0  0.2904500E-09  0.3898867E+04  0.7818609E-02  0.8025265E-01
        1   -1    0    0  501    0  0.00000000000E+00  0.00000000000E+00  0.28155038409E+04  0.28155038409E+04  0.50400001928E-02 0. -1.
       -1   -1    0    0    0  501  0.00000000000E+00  0.00000000000E+00 -0.13497731533E+04  0.13497731533E+04  0.50400001928E-02 0.  1.
    10030    2    1    2    0    0  0.00000000000E+00  0.00000000000E+00  0.14657306876E+04  0.41652769942E+04  0.38988672701E+04 0.  0.
        5    1    3    3  502    0 -0.29530950500E+03 -0.94837602663E+02 -0.13232377428E+04  0.13591107713E+04  0.46999998093E+01 0.  1.
       -5    1    3    3    0  502  0.29530950500E+03  0.94837602663E+02  0.27889684305E+04  0.28061662229E+04  0.46999998093E+01 0. -1.
</event>
<event>
 5   0  0.2904500E-09  0.3902970E+04  0.7818609E-02  0.8024412E-01
       -1   -1    0    0    0  501  0.00000000000E+00  0.00000000000E+00  0.18482734413E+04  0.18482734413E+04  0.50400001928E-02 0.  1.
        1   -1    0    0  501    0  0.00000000000E+00  0.00000000000E+00 -0.20604605836E+04  0.20604605836E+04  0.50400001928E-02 0. -1.
    10030    2    1    2    0    0  0.00000000000E+00  0.00000000000E+00 -0.21218714228E+03  0.39087340249E+04  0.39029704449E+04 0.  0.
        4    1    3    3  502    0  0.18391459370E+04  0.51093252741E+03  0.30044077031E+03  0.19322981381E+04  0.12699999809E+01 0. -1.
       -4    1    3    3    0  502 -0.18391459370E+04 -0.51093252741E+03 -0.51262791258E+03  0.19764358868E+04  0.12699999809E+01 0.  1.
</event>
<event>
 5   0  0.9434114E-09  0.3903216E+04  0.7818609E-02  0.8024361E-01
       -2   -1    0    0    0  501  0.00000000000E+00  0.00000000000E+00  0.12745970188E+04  0.12745970188E+04  0.25500000920E-02 0. -1.
        2   -1    0    0  501    0  0.00000000000E+00  0.00000000000E+00 -0.29882182173E+04  0.29882182173E+04  0.25500000920E-02 0.  1.
    10030    2    1    2    0    0  0.00000000000E+00  0.00000000000E+00 -0.17136211985E+04  0.42628152361E+04  0.39032161259E+04 0.  0.
        4    1    3    3  502    0  0.91031246060E+03  0.10463651753E+04  0.64272002497E+03  0.15286070454E+04  0.12699999809E+01 0. -1.
       -4    1    3    3    0  502 -0.91031246060E+03 -0.10463651753E+04 -0.23563412234E+04  0.27342081907E+04  0.12699999809E+01 0.  1.
</event>
<event>
 5   0  0.9277261E-09  0.3899519E+04  0.7818609E-02  0.8025129E-01
       -2   -1    0    0    0  501  0.00000000000E+00  0.00000000000E+00  0.28673437926E+04  0.28673437926E+04  0.25500000920E-02 0.  1.
        2   -1    0    0  501    0  0.00000000000E+00  0.00000000000E+00 -0.13258130433E+04  0.13258130433E+04  0.25500000920E-02 0. -1.
    10030    2    1    2    0    0  0.00000000000E+00  0.00000000000E+00  0.15415307493E+04  0.41931568358E+04  0.38995188419E+04 0.  0.
        1    1    3    3  502    0 -0.13556219363E+03  0.18289972068E+04  0.59151697196E+02  0.18349677965E+04  0.50400001928E-02 0.  1.
       -1    1    3    3    0  502  0.13556219363E+03 -0.18289972068E+04  0.14823790521E+04  0.23581890393E+04  0.50400001928E-02 0. -1.
</event>
<event>
 5   0  0.2904500E-09  0.3899180E+04  0.7818609E-02  0.8025200E-01
        1   -1    0    0  501    0  0.00000000000E+00  0.00000000000E+00  0.29571480501E+04  0.29571480501E+04  0.50400001928E-02 0.  1.
       -1   -1    0    0    0  501  0.00000000000E+00  0.00000000000E+00 -0.12853264143E+04  0.12853264143E+04  0.50400001928E-02 0. -1.
    10030    2    1    2    0    0  0.00000000000E+00  0.00000000000E+00  0.16718216358E+04  0.42424744644E+04  0.38991796572E+04 0.  0.
        2    1    3    3  502    0  0.95541158970E+03 -0.12826401790E+04  0.20489313920E+04  0.25992493116E+04  0.25500000920E-02 0.  1.
       -2    1    3    3    0  502 -0.95541158970E+03  0.12826401790E+04 -0.37710975625E+03  0.16432251528E+04  0.25500000920E-02 0. -1.
</event>
<event>
 5   0  0.6335942E-09  0.3899505E+04  0.7818609E-02  0.8025132E-01
        2   -1    0    0  501    0  0.00000000000E+00  0.00000000000E+00  0.11748839883E+04  0.11748839883E+04  0.25500000920E-02 0. -1.
       -2   -1    0    0    0  501  0.00000000000E+00  0.00000000000E+00 -0.32356681493E+04  0.32356681493E+04  0.25500000920E-02 0.  1.
    10030    2    1    2    0    0  0.00000000000E+00  0.00000000000E+00 -0.20607841610E+04  0.44105521377E+04  0.38995049430E+04 0.  0.
        2    1    3    3  502    0 -0.22646239753E+02 -0.18068464787E+04 -0.18587129030E+04  0.25923002730E+04  0.25500000920E-02 0.  1.
       -2    1    3    3    0  502  0.22646239753E+02  0.18068464787E+04 -0.20207125802E+03  0.18182518646E+04  0.25500000920E-02 0. -1.
</event>
<event>
 5   0  0.9434114E-09  0.3900487E+04  0.7818609E-02  0.8024928E-01
       -2   -1    0    0    0  501  0.00000000000E+00  0.00000000000E+00  0.24134997031E+04  0.24134997031E+04  0.25500000920E-02 0.  1.
        2   -1    0    0  501    0  0.00000000000E+00  0.00000000000E+00 -0.15759060431E+04  0.15759060431E+04  0.25500000920E-02 0. -1.
    10030    2    1    2    0    0  0.00000000000E+00  0.00000000000E+00  0.83759365999E+03  0.39894057461E+04  0.39004865168E+04 0.  0.
        4    1    3    3  502    0  0.96322384867E+03 -0.28444524817E+03 -0.12910608681E+04  0.16357105673E+04  0.12699999809E+01 0. -1.
       -4    1    3    3    0  502 -0.96322384867E+03  0.28444524817E+03  0.21286545281E+04  0.23536951788E+04  0.12699999809E+01 0.  1.
</event>
<event>
 5   0  0.9078515E-09  0.3899810E+04  0.7818609E-02  0.8025069E-01
       -2   -1    0    0    0  501  0.00000000000E+00  0.00000000000E+00  0.15478666391E+04  0.15478666391E+04  0.25500000920E-02 0.  1.
        2   -1    0    0  501    0  0.00000000000E+00  0.00000000000E+00 -0.24563671801E+04  0.24563671801E+04  0.25500000920E-02 0. -1.
    10030    2    1    2    0    0  0.00000000000E+00  0.00000000000E+00 -0.90850054093E+03  0.40042338192E+04  0.38998096423E+04 0.  0.
        3    1    3    3  502    0 -0.87039621185E+03 -0.59478221652E+03  0.12300308457E+04  0.16199788092E+04  0.10100000352E+00 0.  1.
       -3    1    3    3    0  502  0.87039621185E+03  0.59478221652E+03 -0.21385313867E+04  0.23842550100E+04  0.10100000352E+00 0. -1.
</event>
<event>
 5   0  0.6335942E-09  0.3899358E+04  0.7818609E-02  0.8025163E-01
       -2   -1    0    0    0  501  0.00000000000E+00  0.00000000000E+00  0.23232963320E+04  0.23232963320E+04  0.25500000920E-02 0. -1.
        2   -1    0    0  501    0  0.00000000000E+00  0.00000000000E+00 -0.16361443696E+04  0.16361443696E+04  0.25500000920E-02 0.  1.
    10030    2    1    2    0    0  0.00000000000E+00  0.00000000000E+00  0.68715196237E+03  0.39594407016E+04  0.38993580049E+04 0.  0.
        2    1    3    3  502    0 -0.54081470232E+03  0.14010512019E+03  0.22402811181E+04  0.23088892297E+04  0.25500000920E-02 0. -1.
       -2    1    3    3    0  502  0.54081470232E+03 -0.14010512019E+03 -0.15531291557E+04  0.16505514719E+04  0.25500000920E-02 0.  1.
</event>
<event>
 5   0  0.2904500E-09  0.3899999E+04  0.7818609E-02  0.8025029E-01
        1   -1    0    0  501    0  0.00000000000E+00  0.00000000000E+00  0.33422911384E+04  0.33422911384E+04  0.50400001928E-02 0. -1.
       -1   -1    0    0    0  501  0.00000000000E+00  0.00000000000E+00 -0.11376920089E+04  0.11376920089E+04  0.50400001928E-02 0.  1.
    10030    2    1    2    0    0  0.00000000000E+00  0.00000000000E+00  0.22045991295E+04  0.44799831474E+04  0.38999989332E+04 0.  0.
        5    1    3    3  502    0  0.83336141583E+03 -0.17441192216E+04  0.80711646501E+03  0.20947320083E+04  0.46999998093E+01 0.  1.
       -5    1    3    3    0  502 -0.83336141583E+03  0.17441192216E+04  0.13974826645E+04  0.23852511390E+04  0.46999998093E+01 0. -1.
</event>
<event>
 5   0  0.6335942E-09  0.3899852E+04  0.7818609E-02  0.8025060E-01
       -2   -1    0    0    0  501  0.00000000000E+00  0.00000000000E+00  0.15324662131E+04  0.15324662131E+04  0.25500000920E-02 0. -1.
        2   -1    0    0  501    0  0.00000000000E+00  0.00000000000E+00 -0.24811061118E+04  0.24811061118E+04  0.25500000920E-02 0.  1.
    10030    2    1    2    0    0  0.00000000000E+00  0.00000000000E+00 -0.94863989874E+03  0.40135723249E+04  0.38998519394E+04 0.  0.
        2    1    3    3  502    0  0.14890319346E+04  0.11740791849E+04 -0.66085372687E+01  0.18962388318E+04  0.25500000920E-02 0. -1.
       -2    1    3    3    0  502 -0.14890319346E+04 -0.11740791849E+04 -0.94203136148E+03  0.21173334930E+04  0.25500000920E-02 0.  1.
</event>
<event>
 5   0  0.2904500E-09  0.3898844E+04  0.7818609E-02  0.8025270E-01
       -1   -1    0    0    0  501  0.00000000000E+00  0.00000000000E+00  0.17256012818E+04  0.17256012818E+04  0.50400001928E-02 0. -1.
        1   -1    0    0  501    0  0.00000000000E+00  0.00000000000E+00 -0.22022733898E+04  0.22022733898E+04  0.50400001928E-02 0.  1.
    10030    2    1    2    0    0  0.00000000000E+00  0.00000000000E+00 -0.47667210795E+03  0.39278746716E+04  0.38988438206E+04 0.  0.
        3    1    3    3  502    0  0.13913492276E+04  0.16636197297E+03 -0.16036825562E+04  0.21296306559E+04  0.10100000352E+00 0.  1.
       -3    1    3    3    0  502 -0.13913492276E+04 -0.16636197297E+03  0.11270104483E+04  0.17982440157E+04  0.10100000352E+00 0. -1.
</event>
<event>
 5   0  0.2929054E-09  0.3898584E+04  0.7818609E-02  0.8025324E-01
        1   -1    0    0  501    0  0.00000000000E+00  0.00000000000E+00  0.21455812800E+04  0.21455812800E+04  0.50400001928E-02 0. -1.
       -1   -1    0    0    0  501  0.00000000000E+00  0.00000000000E+00 -0.17709604899E+04  0.17709604899E+04  0.50400001928E-02 0.  1.
    10030    2    1    2    0    0  0.00000000000E+00  0.00000000000E+00  0.37462079010E+03  0.39165417698E+04  0.38985841915E+04 0.  0.
        1    1    3    3  502    0  0.21677213017E+03 -0.11967724509E+04 -0.13430201559E+04  0.18118933729E+04  0.50400001928E-02 0.  1.
       -1    1    3    3    0  502 -0.21677213017E+03  0.11967724509E+04  0.17176409460E+04  0.21046483970E+04  0.50400001928E-02 0. -1.
</event>
<event>
 5   0  0.9078515E-09  0.3899895E+04  0.7818609E-02  0.8025051E-01
        2   -1    0    0  501    0  0.00000000000E+00  0.00000000000E+00  0.20418804072E+04  0.20418804072E+04  0.25500000920E-02 0. -1.
       -2   -1    0    0    0  501  0.00000000000E+00  0.00000000000E+00 -0.18621537792E+04  0.18621537792E+04  0.25500000920E-02 0.  1.
    10030    2    1    2    0    0  0.00000000000E+00  0.00000000000E+00  0.17972662798E+03  0.39040341865E+04  0.38998950330E+04 0.  0.
        3    1    3    3  502    0 -0.71692684524E+03  0.15304436611E+04  0.10635484062E+04  0.19968417874E+04  0.10100000352E+00 0. -1.
       -3    1    3    3    0  502  0.71692684524E+03 -0.15304436611E+04 -0.88382177823E+03  0.19071923991E+04  0.10100000352E+00 0.  1.
</event>
<event>
 5   0  0.2904500E-09  0.3898922E+04  0.7818609E-02  0.8025254E-01
        1   -1    0    0  501    0  0.00000000000E+00  0.00000000000E+00  0.13906026522E+04  0.13906026522E+04  0.50400001928E-02 0. -1.
       -1   -1    0    0    0  501  0.00000000000E+00  0.00000000000E+00 -0.27329140409E+04  0.27329140409E+04  0.50400001928E-02 0.  1.
    10030    2    1    2    0    0  0.00000000000E+00  0.00000000000E+00 -0.13423113887E+04  0.41235166931E+04  0.38989216527E+04 0.  0.
        5    1    3    3  502    0 -0.50912999179E+03  0.33733128222E+03  0.12868038947E+04  0.14243918337E+04  0.46999998093E+01 0. -1.
       -5    1    3    3    0  502  0.50912999179E+03 -0.33733128222E+03 -0.26291152835E+04  0.26991248593E+04  0.46999998093E+01 0.  1.
</event>
<event>
 5   0  0.2904500E-09  0.3899769E+04  0.7818609E-02  0.8025077E-01
       -1   -1    0    0    0  501  0.00000000000E+00  0.00000000000E+00  0.19290619185E+04  0.19290619185E+04  0.50400001928E-02 0.  1.
        1   -1    0    0  501    0  0.00000000000E+00  0.00000000000E+00 -0.19709321602E+04  0.19709321603E+04  0.50400001928E-02 0. -1.
    10030    2    1    2    0    0  0.00000000000E+00  0.00000000000E+00 -0.41870241706E+02  0.38999940788E+04  0.38997693134E+04 0.  0.
        3    1    3    3  502    0  0.13046337563E+04 -0.55503795968E+03 -0.13596361148E+04  0.19643693008E+04  0.10100000352E+00 0. -1.
       -3    1    3    3    0  502 -0.13046337563E+04  0.55503795968E+03  0.13177658731E+04  0.19356247780E+04  0.10100000352E+00 0.  1.
</event>
<event>
 5   0  0.2904500E-09  0.3899296E+04  0.7818609E-02  0.8025176E-01
       -1   -1    0    0    0  501  0.00000000000E+00  0.00000000000E+00  0.24594413055E+04  0.24594413055E+04  0.50400001928E-02 0.  1.
        1   -1    0    0  501    0  0.00000000000E+00  0.00000000000E+00 -0.15455243711E+04  0.15455243711E+04  0.50400001928E-02 0. -1.
    10030    2    1    2    0    0  0.00000000000E+00  0.00000000000E+00  0.91391693437E+03  0.40049656766E+04  0.38992955656E+04 0.  0.
        4    1    3    3  502    0 -0.12529597485E+04  0.56255225904E+03  0.18782032163E+04  0.23268051294E+04  0.12699999809E+01 0.  1.
       -4    1    3    3    0  502  0.12529597485E+04 -0.56255225904E+03 -0.96428628196E+03  0.16781605472E+04  0.12699999809E+01 0. -1.
</event>
<event>
 5   0  0.2904500E-09  0.3900297E+04  0.7818609E-02  0.8024967E-01
        1   -1    0    0  501    0  0.00000000000E+00  0.00000000000E+00  0.17056829098E+04  0.17056829098E+04  0.50400001928E-02 0. -1.
       -1   -1    0    0    0  501  0.00000000000E+00  0.00000000000E+00 -0.22296519190E+04  0.22296519190E+04  0.50400001928E-02 0.  1.
    10030    2    1    2    0    0  0.00000000000E+00  0.00000000000E+00 -0.52396900918E+03  0.39353348288E+04  0.39002970006E+04 0.  0.
        5    1    3    3  502    0  0.13201270048E+04 -0.10579293571E+04 -0.12408061613E+04  0.20979923387E+04  0.46999998093E+01 0.  1.
       -5    1    3    3    0  502 -0.13201270048E+04  0.10579293571E+04  0.71683715209E+03  0.18373424901E+04  0.46999998093E+01 0. -1.
</event>
<event>
 5   0  0.2904500E-09  0.3899616E+04  0.7818609E-02  0.8025109E-01
        1   -1    0    0  501    0  0.00000000000E+00  0.00000000000E+00  0.21499314499E+04  0.21499314499E+04  0.50400001928E-02 0. -1.
       -1   -1    0    0    0  501  0.00000000000E+00  0.00000000000E+00 -0.17683124865E+04  0.17683124866E+04  0.50400001928E-02 0.  1.
    10030    2    1    2    0    0  0.00000000000E+00  0.00000000000E+00  0.38161896332E+03  0.39182439364E+04  0.38996156878E+04 0.  0.
        4    1    3    3  502    0 -0.87485232172E+03  0.15211164548E+04 -0.66330243610E+03  0.18759353903E+04  0.12699999809E+01 0.  1.
       -4    1    3    3    0  502  0.87485232172E+03 -0.15211164548E+04  0.10449213994E+04  0.20423085462E+04  0.12699999809E+01 0. -1.
</event>
<event>
 5   0  0.9277261E-09  0.3899249E+04  0.7818609E-02  0.8025185E-01
        2   -1    0    0  501    0  0.00000000000E+00  0.00000000000E+00  0.18550635876E+04  0.18550635876E+04  0.25500000920E-02 0.  1.
       -2   -1    0    0    0  501  0.00000000000E+00  0.00000000000E+00 -0.20490059264E+04  0.20490059264E+04  0.25500000920E-02 0. -1.
    10030    2    1    2    0    0  0.00000000000E+00  0.00000000000E+00 -0.19394233873E+03  0.39040695140E+04  0.38992493046E+04 0.  0.
        1    1    3    3  502    0 -0.17288409099E+04 -0.85973145215E+03  0.17356133575E+03  0.19385955222E+04  0.50400001928E-02 0.  1.
       -1    1    3    3    0  502  0.17288409099E+04  0.85973145215E+03 -0.36750367448E+03  0.19654739918E+04  0.50400001928E-02 0. -1.
</event>
<event>
 5   0  0.2904500E-09  0.3897839E+04  0.7818609E-02  0.8025479E-01
       -1   -1    0    0    0  501  0.00000000000E+00  0.00000000000E+00  0.15016818017E+04  0.15016818018E+04  0.50400001928E-02 0. -1.
        1   -1    0    0  501    0  0.00000000000E+00  0.00000000000E+00 -0.25293558298E+04  0.25293558298E+04  0.50400001928E-02 0.  1.
    10030    2    1    2    0    0  0.00000000000E+00  0.00000000000E+00 -0.10276740280E+04  0.40310376315E+04  0.38978392064E+04 0.  0.
        4    1    3    3  502    0 -0.14649901414E+03 -0.16950944409E+04 -0.14968334332E+04  0.22661242385E+04  0.12699999809E+01 0.  1.
       -4    1    3    3    0  502  0.14649901414E+03  0.16950944409E+04  0.46915940516E+03  0.17649133930E+04  0.12699999809E+01 0. -1.
</event>
<event>
 5   0  0.9078515E-09  0.3900374E+04  0.7818609E-02  0.8024951E-01
       -2   -1    0    0    0  501  0.00000000000E+00  0.00000000000E+00  0.16150748676E+04  0.16150748676E+04  0.25500000920E-02 0.  1.
        2   -1    0    0  501    0  0.00000000000E+00  0.00000000000E+00 -0.23548314101E+04  0.23548314101E+04  0.25500000920E-02 0. -1.
    10030    2    1    2    0    0  0.00000000000E+00  0.00000000000E+00 -0.73975654254E+03  0.39699062777E+04  0.39003738426E+04 0.  0.
        3    1    3    3  502    0 -0.43851517485E+03 -0.28161169347E+03  0.15428862764E+04  0.16285265662E+04  0.10100000352E+00 0.  1.
       -3    1    3    3    0  502  0.43851517485E+03  0.28161169347E+03 -0.22826428190E+04  0.23413797116E+04  0.10100000352E+00 0. -1.
</event>
<event>
 5   0  0.6335942E-09  0.3900978E+04  0.7818609E-02  0.8024826E-01
       -2   -1    0    0    0  501  0.00000000000E+00  0.00000000000E+00  0.18288916875E+04  0.18288916875E+04  0.25500000920E-02 0. -1.
        2   -1    0    0  501    0  0.00000000000E+00  0.00000000000E+00 -0.20801709472E+04  0.20801709472E+04  0.25500000920E-02 0.  1.
    10030    2    1    2    0    0  0.00000000000E+00  0.00000000000E+00 -0.25127925964E+03  0.39090626347E+04  0.39009780076E+04 0.  0.
        2    1    3    3  502    0  0.87539886997E+03  0.82840278828E+03  0.14111073439E+04  0.18557473689E+04  0.25500000920E-02 0. -1.
       -2    1    3    3    0  502 -0.87539886997E+03 -0.82840278828E+03 -0.16623866035E+04  0.20533152658E+04  0.25500000920E-02 0.  1.
</event>
<event>
 5   0  0.2904500E-09  0.3899616E+04  0.7818609E-02  0.8025109E-01
       -1   -1    0    0    0  501  0.00000000000E+00  0.00000000000E+00  0.27343127749E+04  0.27343127749E+04  0.50400001928E-02 0.  1.
        1   -1    0    0  501    0  0.00000000000E+00  0.00000000000E+00 -0.13903864296E+04  0.13903864297E+04  0.50400001928E-02 0. -1.
    10030    2    1    2    0    0  0.00000000000E+00  0.00000000000E+00  0.13439263453E+04  0.41246992046E+04  0.38996160717E+04 0.  0.
        4    1    3    3  502    0 -0.11907765581E+04  0.12291668804E+04 -0.31628279154E+03  0.17403552650E+04  0.12699999809E+01 0. -1.
       -4    1    3    3    0  502  0.11907765581E+04 -0.12291668804E+04  0.16602091368E+04  0.23843439396E+04  0.12699999809E+01 0.  1.
</event>
<event>
 5   0  0.2929054E-09  0.3895674E+04  0.7818609E-02  0.8025930E-01
        1   -1    0    0  501    0  0.00000000000E+00  0.00000000000E+00  0.19698768269E+04  0.19698768269E+04  0.50400001928E-02 0. -1.
       -1   -1    0    0    0  501  0.00000000000E+00  0.00000000000E+00 -0.19260436577E+04  0.19260436577E+04  0.50400001928E-02 0.  1.
    10030    2    1    2    0    0  0.00000000000E+00  0.00000000000E+00  0.43833169201E+02  0.38959204846E+04  0.38956738924E+04 0.  0.
        1    1    3    3  502    0 -0.95617838891E+02  0.11977167333E+04  0.15551152638E+04  0.19652103267E+04  0.50400001928E-02 0. -1.
       -1    1    3    3    0  502  0.95617838891E+02 -0.11977167333E+04 -0.15112820946E+04  0.19307101579E+04  0.50400001928E-02 0.  1.
</event>
<event>
 5   0  0.6335942E-09  0.3892876E+04  0.7818609E-02  0.8026512E-01
       -2   -1    0    0    0  501  0.00000000000E+00  0.00000000000E+00  0.18770776656E+04  0.18770776656E+04  0.25500000920E-02 0.  1.
        2   -1    0    0  501    0  0.00000000000E+00  0.00000000000E+00 -0.20183614998E+04  0.20183614998E+04  0.25500000920E-02 0. -1.
    10030    2    1    2    0    0  0.00000000000E+00  0.00000000000E+00 -0.14128383420E+03  0.38954391654E+04  0.38928762078E+04 0.  0.
        2    1    3    3  502    0 -0.16522799327E+04  0.88922273826E+03  0.44726548475E+03  0.19289355790E+04  0.25500000920E-02 0. -1.
       -2    1    3    3    0  502  0.16522799327E+04 -0.88922273826E+03 -0.58854931895E+03  0.19665035863E+04  0.25500000920E-02 0.  1.
</event>
<event>
 5   0  0.9078515E-09  0.3901580E+04  0.7818609E-02  0.8024701E-01
        2   -1    0    0  501    0  0.00000000000E+00  0.00000000000E+00  0.23282564973E+04  0.23282564973E+04  0.25500000920E-02 0.  1.
       -2   -1    0    0    0  501  0.00000000000E+00  0.00000000000E+00 -0.16345202728E+04  0.16345202728E+04  0.25500000920E-02 0. -1.
    10030    2    1    2    0    0  0.00000000000E+00  0.00000000000E+00  0.69373622455E+03  0.39627767701E+04  0.39015804208E+04 0.  0.
        3    1    3    3  502    0 -0.63195752781E+02 -0.13528040593E+04  0.17729961801E+04  0.22310508714E+04  0.10100000352E+00 0.  1.
       -3    1    3    3    0  502  0.63195752781E+02  0.13528040593E+04 -0.10792599555E+04  0.17317258986E+04  0.10100000352E+00 0. -1.
</event>
<event>
 5   0  0.2904500E-09  0.3894805E+04  0.7818609E-02  0.8026111E-01
        1   -1    0    0  501    0  0.00000000000E+00  0.00000000000E+00  0.15192513627E+04  0.15192513627E+04  0.50400001928E-02 0.  1.
       -1   -1    0    0    0  501  0.00000000000E+00  0.00000000000E+00 -0.24962134688E+04  0.24962134688E+04  0.50400001928E-02 0. -1.
    10030    2    1    2    0    0  0.00000000000E+00  0.00000000000E+00 -0.97696210615E+03  0.40154648315E+04  0.38948045980E+04 0.  0.
        4    1    3    3  502    0 -0.14782446659E+04 -0.12440729826E+04 -0.23710538158E+03  0.19465727454E+04  0.12699999809E+01 0. -1.
       -4    1    3    3    0  502  0.14782446659E+04  0.12440729826E+04 -0.73985672457E+03  0.20688920861E+04  0.12699999809E+01 0.  1.
</event>
<event>
 5   0  0.2904500E-09  0.3900198E+04  0.7818609E-02  0.8024988E-01
        1   -1    0    0  501    0  0.00000000000E+00  0.00000000000E+00  0.18259042838E+04  0.18259042838E+04  0.50400001928E-02 0. -1.
       -1   -1    0    0    0  501  0.00000000000E+00  0.00000000000E+00 -0.20827411920E+04  0.20827411920E+04  0.50400001928E-02 0.  1.
    10030    2    1    2    0    0  0.00000000000E+00  0.00000000000E+00 -0.25683690817E+03  0.39086454758E+04  0.39001979768E+04 0.  0.
        2    1    3    3  502    0  0.10138962851E+04 -0.14722436426E+04  0.65262766726E+03  0.19030002345E+04  0.25500000920E-02 0.  1.
       -2    1    3    3    0  502 -0.10138962851E+04  0.14722436426E+04 -0.90946457542E+03  0.20056452414E+04  0.25500000920E-02 0. -1.
</event>
<event>
 5   0  0.2929054E-09  0.3899605E+04  0.7818609E-02  0.8025111E-01
       -1   -1    0    0    0  501  0.00000000000E+00  0.00000000000E+00  0.18979526367E+04  0.18979526368E+04  0.50400001928E-02 0.  1.
        1   -1    0    0  501    0  0.00000000000E+00  0.00000000000E+00 -0.20030684258E+04  0.20030684258E+04  0.50400001928E-02 0. -1.
    10030    2    1    2    0    0  0.00000000000E+00  0.00000000000E+00 -0.10511578906E+03  0.39010210626E+04  0.38996045955E+04 0.  0.
        1    1    3    3  502    0  0.31661390483E+01 -0.18804186105E+04 -0.56824958059E+03  0.19644062108E+04  0.50400001928E-02 0. -1.
       -1    1    3    3    0  502 -0.31661390483E+01  0.18804186105E+04  0.46313379152E+03  0.19366148518E+04  0.50400001928E-02 0.  1.
</event>
<event>
 5   0  0.6335942E-09  0.3900139E+04  0.7818609E-02  0.8025000E-01
       -2   -1    0    0    0  501  0.00000000000E+00  0.00000000000E+00  0.13322149364E+04  0.13322149364E+04  0.25500000920E-02 0.  1.
        2   -1    0    0  501    0  0.00000000000E+00  0.00000000000E+00 -0.28544724580E+04  0.28544724580E+04  0.25500000920E-02 0. -1.
    10030    2    1    2    0    0  0.00000000000E+00  0.00000000000E+00 -0.15222575216E+04  0.41866873944E+04  0.39001388919E+04 0.  0.
        2    1    3    3  502    0 -0.11485276718E+04 -0.32270759934E+02 -0.24525237087E+04  0.27083260063E+04  0.25500000920E-02 0. -1.
       -2    1    3    3    0  502  0.11485276718E+04  0.32270759934E+02  0.93026618709E+03  0.14783613880E+04  0.25500000920E-02 0.  1.
</event>
<event>
 5   0  0.2904500E-09  0.3900719E+04  0.7818609E-02  0.8024880E-01
       -1   -1    0    0    0  501  0.00000000000E+00  0.00000000000E+00  0.29563857532E+04  0.29563857532E+04  0.50400001928E-02 0.  1.
        1   -1    0    0  501    0  0.00000000000E+00  0.00000000000E+00 -0.12866728859E+04  0.12866728859E+04  0.50400001928E-02 0. -1.
    10030    2    1    2    0    0  0.00000000000E+00  0.00000000000E+00  0.16697128673E+04  0.42430586391E+04  0.39007185947E+04 0.  0.
        3    1    3    3  502    0  0.10686444783E+04  0.93822995123E+03 -0.61706311293E+03  0.15501752668E+04  0.10100000352E+00 0. -1.
       -3    1    3    3    0  502 -0.10686444783E+04 -0.93822995123E+03  0.22867759803E+04  0.26928833722E+04  0.10100000352E+00 0.  1.
</event>
<event>
 5   0  0.2929054E-09  0.3897337E+04  0.7818609E-02  0.8025583E-01
       -1   -1    0    0    0  501  0.00000000000E+00  0.00000000000E+00  0.14390245792E+04  0.14390245792E+04  0.50400001928E-02 0. -1.
        1   -1    0    0  501    0  0.00000000000E+00  0.00000000000E+00 -0.26388071460E+04  0.26388071460E+04  0.50400001928E-02 0.  1.
    10030    2    1    2    0    0  0.00000000000E+00  0.00000000000E+00 -0.11997825668E+04  0.40778317253E+04  0.38973367024E+04 0.  0.
        1    1    3    3  502    0 -0.16645646826E+04 -0.11965576428E+03 -0.16525747763E+04  0.23486371528E+04  0.50400001928E-02 0.  1.
       -1    1    3    3    0  502  0.16645646826E+04  0.11965576428E+03  0.45279220944E+03  0.17291945724E+04  0.50400001928E-02 0. -1.
</event>
<event>
 5   0  0.9277261E-09  0.3899776E+04  0.7818609E-02  0.8025076E-01
       -2   -1    0    0    0  501  0.00000000000E+00  0.00000000000E+00  0.29620551054E+04  0.29620551054E+04  0.25500000920E-02 0. -1.
        2   -1    0    0  501    0  0.00000000000E+00  0.00000000000E+00 -0.12835894981E+04  0.12835894981E+04  0.25500000920E-02 0.  1.
    10030    2    1    2    0    0  0.00000000000E+00  0.00000000000E+00  0.16784656073E+04  0.42456446036E+04  0.38997758019E+04 0.  0.
        1    1    3    3  502    0 -0.13718676093E+03  0.19401838775E+04  0.98901818892E+03  0.21820381903E+04  0.50400001928E-02 0.  1.
       -1    1    3    3    0  502  0.13718676093E+03 -0.19401838775E+04  0.68944741842E+03  0.20636064132E+04  0.50400001928E-02 0. -1.
</event>
<event>
 5   0  0.9078515E-09  0.3904453E+04  0.7818609E-02  0.8024104E-01
        2   -1    0    0  501    0  0.00000000000E+00  0.00000000000E+00  0.17621716322E+04  0.17621716322E+04  0.25500000920E-02 0.  1.
       -2   -1    0    0    0  501  0.00000000000E+00  0.00000000000E+00 -0.21627795937E+04  0.21627795937E+04  0.25500000920E-02 0. -1.
    10030    2    1    2    0    0  0.00000000000E+00  0.00000000000E+00 -0.40060796159E+03  0.39249512259E+04  0.39044532763E+04 0.  0.
        3    1    3    3  502    0  0.27830686595E+03  0.16750157735E+04 -0.11687182766E+04  0.20613187462E+04  0.10100000352E+00 0. -1.
       -3    1    3    3    0  502 -0.27830686595E+03 -0.16750157735E+04  0.76811031502E+03  0.18636324797E+04  0.10100000352E+00 0.  1.
</event>
<event>
 5   0  0.2904500E-09  0.3898335E+04  0.7818609E-02  0.8025376E-01
       -1   -1    0    0    0  501  0.00000000000E+00  0.00000000000E+00  0.19221050700E+04  0.19221050700E+04  0.50400001928E-02 0. -1.
        1   -1    0    0  501    0  0.00000000000E+00  0.00000000000E+00 -0.19766113044E+04  0.19766113044E+04  0.50400001928E-02 0.  1.
    10030    2    1    2    0    0  0.00000000000E+00  0.00000000000E+00 -0.54506234370E+02  0.38987163745E+04  0.38983353420E+04 0.  0.
        4    1    3    3  502    0 -0.10359065886E+04  0.15854134269E+04  0.43389367869E+03  0.19429110972E+04  0.12699999809E+01 0. -1.
       -4    1    3    3    0  502  0.10359065886E+04 -0.15854134269E+04 -0.48839991306E+03  0.19558052772E+04  0.12699999809E+01 0.  1.
</event>
<event>
 5   0  0.9434114E-09  0.3900895E+04  0.7818609E-02  0.8024843E-01
       -2   -1    0    0    0  501  0.00000000000E+00  0.00000000000E+00  0.25973273768E+04  0.25973273768E+04  0.25500000920E-02 0.  1.
        2   -1    0    0  501    0  0.00000000000E+00  0.00000000000E+00 -0.14646768161E+04  0.14646768161E+04  0.25500000920E-02 0. -1.
    10030    2    1    2    0    0  0.00000000000E+00  0.00000000000E+00  0.11326505606E+04  0.40620041929E+04  0.39008948679E+04 0.  0.
        4    1    3    3  502    0 -0.94565089576E+03  0.13461165911E+04 -0.52478589080E+03  0.17267563052E+04  0.12699999809E+01 0. -1.
       -4    1    3    3    0  502  0.94565089576E+03 -0.13461165911E+04  0.16574364514E+04  0.23352478877E+04  0.12699999809E+01 0.  1.
</event>
<event>
 5   0  0.2904500E-09  0.3908865E+04  0.7818609E-02  0.8023188E-01
        1   -1    0    0  501    0  0.00000000000E+00  0.00000000000E+00  0.25865378910E+04  0.25865378910E+04  0.50400001928E-02 0. -1.
       -1   -1    0    0    0  501  0.00000000000E+00  0.00000000000E+00 -0.14768024981E+04  0.14768024981E+04  0.50400001928E-02 0.  1.
    10030    2    1    2    0    0  0.00000000000E+00  0.00000000000E+00  0.11097353929E+04  0.40633403891E+04  0.39088646018E+04 0.  0.
        2    1    3    3  502    0 -0.95056733420E+03  0.14393712989E+04  0.15101161994E+04  0.22925572902E+04  0.25500000920E-02 0. -1.
       -2    1    3    3    0  502  0.95056733420E+03 -0.14393712989E+04 -0.40038080651E+03  0.17707830989E+04  0.25500000920E-02 0.  1.
</event>
<event>
 5   0  0.2929054E-09  0.3898018E+04  0.7818609E-02  0.8025441E-01
       -1   -1    0    0    0  501  0.00000000000E+00  0.00000000000E+00  0.26892876999E+04  0.26892876999E+04  0.50400001928E-02 0.  1.
        1   -1    0    0  501    0  0.00000000000E+00  0.00000000000E+00 -0.14125067421E+04  0.14125067421E+04  0.50400001928E-02 0. -1.
    10030    2    1    2    0    0  0.00000000000E+00  0.00000000000E+00  0.12767809578E+04  0.41017944420E+04  0.38980184748E+04 0.  0.
        1    1    3    3  502    0  0.12167149720E+04  0.18770576912E+03  0.22283414692E+04  0.25458072359E+04  0.50400001928E-02 0.  1.
       -1    1    3    3    0  502 -0.12167149720E+04 -0.18770576912E+03 -0.95156051138E+03  0.15559872061E+04  0.50400001928E-02 0. -1.
</event>
<event>
 5   0  0.9368546E-09  0.3898343E+04  0.7818609E-02  0.8025374E-01
        2   -1    0    0  501    0  0.00000000000E+00  0.00000000000E+00  0.19055760651E+04  0.19055760651E+04  0.25500000920E-02 0. -1.
       -2   -1    0    0    0  501  0.00000000000E+00  0.00000000000E+00 -0.19937640832E+04  0.19937640832E+04  0.25500000920E-02 0.  1.
    10030    2    1    2    0    0  0.00000000000E+00  0.00000000000E+00 -0.88188018095E+02  0.38993401483E+04  0.38983427845E+04 0.  0.
        5    1    3    3  502    0  0.16051645672E+04  0.10239687477E+04 -0.46155164768E+03  0.19591113540E+04  0.46999998093E+01 0. -1.
       -5    1    3    3    0  502 -0.16051645672E+04 -0.10239687477E+04  0.37336362959E+03  0.19402287942E+04  0.46999998093E+01 0.  1.
</event>
<event>
 5   0  0.9277261E-09  0.3899520E+04  0.7818609E-02  0.8025129E-01
        2   -1    0    0  501    0  0.00000000000E+00  0.00000000000E+00  0.16614767242E+04  0.16614767242E+04  0.25500000920E-02 0.  1.
       -2   -1    0    0    0  501  0.00000000000E+00  0.00000000000E+00 -0.22880636757E+04  0.22880636757E+04  0.25500000920E-02 0. -1.
    10030    2    1    2    0    0  0.00000000000E+00  0.00000000000E+00 -0.62658695150E+03  0.39495403999E+04  0.38995202477E+04 0.  0.
        1    1    3    3  502    0  0.12016130913E+04  0.38747504414E+03  0.11915488935E+04  0.17360298663E+04  0.50400001928E-02 0.  1.
       -1    1    3    3    0  502 -0.12016130913E+04 -0.38747504414E+03 -0.18181358450E+04  0.22135105335E+04  0.50400001928E-02 0. -1.
</event>
<event>
 5   0  0.2904500E-09  0.3902322E+04  0.7818609E-02  0.8024547E-01
        1   -1    0    0  501    0  0.00000000000E+00  0.00000000000E+00  0.20652850737E+04  0.20652850737E+04  0.50400001928E-02 0. -1.
       -1   -1    0    0    0  501  0.00000000000E+00  0.00000000000E+00 -0.18433429599E+04  0.18433429599E+04  0.50400001928E-02 0.  1.
    10030    2    1    2    0    0  0.00000000000E+00  0.00000000000E+00  0.22194211386E+03  0.39086280336E+04  0.39023217196E+04 0.  0.
        2    1    3    3  502    0  0.23620039043E+03 -0.26285360291E+03  0.20329639492E+04  0.20634497958E+04  0.25500000920E-02 0. -1.
       -2    1    3    3    0  502 -0.23620039043E+03  0.26285360291E+03 -0.18110218354E+04  0.18451782378E+04  0.25500000920E-02 0.  1.
</event>
<event>
 5   0  0.2904500E-09  0.3900012E+04  0.7818609E-02  0.8025027E-01
        1   -1    0    0  501    0  0.00000000000E+00  0.00000000000E+00  0.13533941383E+04  0.13533941383E+04  0.50400001928E-02 0. -1.
       -1   -1    0    0    0  501  0.00000000000E+00  0.00000000000E+00 -0.28096203490E+04  0.28096203490E+04  0.50400001928E-02 0.  1.
    10030    2    1    2    0    0  0.00000000000E+00  0.00000000000E+00 -0.14562262107E+04  0.41630144873E+04  0.39000121596E+04 0.  0.
        2    1    3    3  502    0  0.13367168756E+04 -0.79316331353E+03  0.52883727249E+03  0.16418248713E+04  0.25500000920E-02 0. -1.
       -2    1    3    3    0  502 -0.13367168756E+04  0.79316331353E+03 -0.19850634832E+04  0.25211896160E+04  0.25500000920E-02 0.  1.
</event>
<event>
 5   0  0.6335942E-09  0.3899009E+04  0.7818609E-02  0.8025235E-01
       -2   -1    0    0    0  501  0.00000000000E+00  0.00000000000E+00  0.14210629861E+04  0.14210629861E+04  0.25500000920E-02 0. -1.
        2   -1    0    0  501    0  0.00000000000E+00  0.00000000000E+00 -0.26744539421E+04  0.26744539421E+04  0.25500000920E-02 0.  1.
    10030    2    1    2    0    0  0.00000000000E+00  0.00000000000E+00 -0.12533909560E+04  0.40955169281E+04  0.38990088510E+04 0.  0.
        2    1    3    3  502    0 -0.16630668790E+04 -0.82627001760E+03 -0.12499408983E+04  0.22384963335E+04  0.25500000920E-02 0. -1.
       -2    1    3    3    0  502  0.16630668790E+04  0.82627001760E+03 -0.34500577332E+01  0.18570205946E+04  0.25500000920E-02 0.  1.
</event>
<event>
 5   0  0.2904500E-09  0.3899961E+04  0.7818609E-02  0.8025037E-01
        3   -1    0    0  501    0  0.00000000000E+00  0.00000000000E+00  0.22407067487E+04  0.22407067510E+04  0.10100000352E+00 0.  1.
       -3   -1    0    0    0  501  0.00000000000E+00  0.00000000000E+00 -0.16969756919E+04  0.16969756949E+04  0.10100000352E+00 0. -1.
    10030    2    1    2    0    0  0.00000000000E+00  0.00000000000E+00  0.54373105679E+03  0.39376824459E+04  0.38999614847E+04 0.  0.
        3    1    3    3  502    0 -0.12805327399E+04 -0.11334410260E+04  0.12179300598E+04  0.20994776251E+04  0.10100000352E+00 0.  1.
       -3    1    3    3    0  502  0.12805327399E+04  0.11334410260E+04 -0.67419900303E+03  0.18382048208E+04  0.10100000352E+00 0. -1.
</event>
<event>
 5   0  0.2904500E-09  0.3906819E+04  0.7818609E-02  0.8023613E-01
       -1   -1    0    0    0  501  0.00000000000E+00  0.00000000000E+00  0.13746868141E+04  0.13746868141E+04  0.50400001928E-02 0.  1.
        1   -1    0    0  501    0  0.00000000000E+00  0.00000000000E+00 -0.27757654522E+04  0.27757654522E+04  0.50400001928E-02 0. -1.
    10030    2    1    2    0    0  0.00000000000E+00  0.00000000000E+00 -0.14010786382E+04  0.41504522663E+04  0.39068187397E+04 0.  0.
        3    1    3    3  502    0  0.80923541023E+03 -0.17777953765E+04 -0.67956458171E+03  0.20681456382E+04  0.10100000352E+00 0.  1.
       -3    1    3    3    0  502 -0.80923541023E+03  0.17777953765E+04 -0.72151405644E+03  0.20823066281E+04  0.10100000352E+00 0. -1.
</event>
<event>
 5   0  0.9078515E-09  0.3899561E+04  0.7818609E-02  0.8025121E-01
        2   -1    0    0  501    0  0.00000000000E+00  0.00000000000E+00  0.11696801312E+04  0.11696801312E+04  0.25500000920E-02 0.  1.
       -2   -1    0    0    0  501  0.00000000000E+00  0.00000000000E+00 -0.32501565864E+04  0.32501565864E+04  0.25500000920E-02 0. -1.
    10030    2    1    2    0    0  0.00000000000E+00  0.00000000000E+00 -0.20804764552E+04  0.44198367176E+04  0.38995607867E+04 0.  0.
        3    1    3    3  502    0  0.10335963101E+04 -0.15766061884E+04 -0.16042610667E+04  0.24754114781E+04  0.10100000352E+00 0. -1.
       -3    1    3    3    0  502 -0.10335963101E+04  0.15766061884E+04 -0.47621538847E+03  0.19444252395E+04  0.10100000352E+00 0.  1.
</event>
<event>
 5   0  0.2904500E-09  0.3900863E+04  0.7818609E-02  0.8024850E-01
        1   -1    0    0  501    0  0.00000000000E+00  0.00000000000E+00  0.17685789998E+04  0.17685789998E+04  0.50400001928E-02 0. -1.
       -1   -1    0    0    0  501  0.00000000000E+00  0.00000000000E+00 -0.21509831732E+04  0.21509831732E+04  0.50400001928E-02 0.  1.
    10030    2    1    2    0    0  0.00000000000E+00  0.00000000000E+00 -0.38240417340E+03  0.39195621730E+04  0.39008633245E+04 0.  0.
        3    1    3    3  502    0 -0.18137647609E+04  0.69974239572E+03 -0.32961843777E+02  0.19443426966E+04  0.10100000352E+00 0.  1.
       -3    1    3    3    0  502  0.18137647609E+04 -0.69974239572E+03 -0.34944232962E+03  0.19752194765E+04  0.10100000352E+00 0. -1.
</event>
<event>
 5   0  0.6335942E-09  0.3901321E+04  0.7818609E-02  0.8024755E-01
        2   -1    0    0  501    0  0.00000000000E+00  0.00000000000E+00  0.26858816638E+04  0.26858816638E+04  0.25500000920E-02 0.  1.
       -2   -1    0    0    0  501  0.00000000000E+00  0.00000000000E+00 -0.14166953828E+04  0.14166953828E+04  0.25500000920E-02 0. -1.
    10030    2    1    2    0    0  0.00000000000E+00  0.00000000000E+00  0.12691862810E+04  0.41025770465E+04  0.39013208798E+04 0.  0.
        2    1    3    3  502    0  0.66762445212E+03  0.17272812391E+04 -0.10101762541E+02  0.18518436580E+04  0.25500000920E-02 0. -1.
       -2    1    3    3    0  502 -0.66762445212E+03 -0.17272812391E+04  0.12792880435E+04  0.22507333886E+04  0.25500000920E-02 0.  1.
</event>
<event>
 5   0  0.6335942E-09  0.3900292E+04  0.7818609E-02  0.8024968E-01
        2   -1    0    0  501    0  0.00000000000E+00  0.00000000000E+00  0.31754915118E+04  0.31754915118E+04  0.25500000920E-02 0. -1.
       -2   -1    0    0    0  501  0.00000000000E+00  0.00000000000E+00 -0.11976318679E+04  0.11976318679E+04  0.25500000920E-02 0.  1.
    10030    2    1    2    0    0  0.00000000000E+00  0.00000000000E+00  0.19778596439E+04  0.43731233797E+04  0.39002922099E+04 0.  0.
        2    1    3    3  502    0 -0.46015135539E+03 -0.86349347558E+03 -0.90249843376E+03  0.13311136973E+04  0.25500000920E-02 0.  1.
       -2    1    3    3    0  502  0.46015135539E+03  0.86349347558E+03  0.28803580776E+04  0.30420096823E+04  0.25500000920E-02 0. -1.
</event>
<event>
 5   0  0.2929054E-09  0.3900736E+04  0.7818609E-02  0.8024876E-01
       -1   -1    0    0    0  501  0.00000000000E+00  0.00000000000E+00  0.14685822954E+04  0.14685822954E+04  0.50400001928E-02 0. -1.
        1   -1    0    0  501    0  0.00000000000E+00  0.00000000000E+00 -0.25902092331E+04  0.25902092331E+04  0.50400001928E-02 0.  1.
    10030    2    1    2    0    0  0.00000000000E+00  0.00000000000E+00 -0.11216269377E+04  0.40587915285E+04  0.39007360439E+04 0.  0.
        1    1    3    3  502    0  0.33265622660E+03 -0.15727481411E+04 -0.17099815513E+04  0.23469626726E+04  0.50400001928E-02 0.  1.
       -1    1    3    3    0  502 -0.33265622660E+03  0.15727481411E+04  0.58835461364E+03  0.17118288559E+04  0.50400001928E-02 0. -1.
</event>
<event>
 5   0  0.9078515E-09  0.3899903E+04  0.7818609E-02  0.8025049E-01
       -2   -1    0    0    0  501  0.00000000000E+00  0.00000000000E+00  0.17236788460E+04  0.17236788460E+04  0.25500000920E-02 0. -1.
        2   -1    0    0  501    0  0.00000000000E+00  0.00000000000E+00 -0.22059281177E+04  0.22059281177E+04  0.25500000920E-02 0.  1.
    10030    2    1    2    0    0  0.00000000000E+00  0.00000000000E+00 -0.48224927176E+03  0.39296069637E+04  0.38999033999E+04 0.  0.
        3    1    3    3  502    0 -0.16477460976E+04  0.10008754209E+04 -0.53574317087E+03  0.20009596611E+04  0.10100000352E+00 0.  1.
       -3    1    3    3    0  502  0.16477460976E+04 -0.10008754209E+04  0.53493899112E+02  0.19286473025E+04  0.10100000352E+00 0. -1.
</event>
<event>
 5   0  0.6335942E-09  0.3901699E+04  0.7818609E-02  0.8024676E-01
        2   -1    0    0  501    0  0.00000000000E+00  0.00000000000E+00  0.13476252351E+04  0.13476252351E+04  0.25500000920E-02 0.  1.
       -2   -1    0    0    0  501  0.00000000000E+00  0.00000000000E+00 -0.28240884169E+04  0.28240884169E+04  0.25500000920E-02 0. -1.
    10030    2    1    2    0    0  0.00000000000E+00  0.00000000000E+00 -0.14764631818E+04  0.41717136519E+04  0.39016985104E+04 0.  0.
        2    1    3    3  502    0  0.12446158482E+04  0.14019396953E+04 -0.16114902270E+03  0.18816143405E+04  0.25500000920E-02 0.  1.
       -2    1    3    3    0  502 -0.12446158482E+04 -0.14019396953E+04 -0.13153141591E+04  0.22900993114E+04  0.25500000920E-02 0. -1.
</event>
<event>
 5   0  0.2904500E-09  0.3898664E+04  0.7818609E-02  0.8025307E-01
       -1   -1    0    0    0  501  0.00000000000E+00  0.00000000000E+00  0.20570737717E+04  0.20570737717E+04  0.50400001928E-02 0. -1.
        1   -1    0    0  501    0  0.00000000000E+00  0.00000000000E+00 -0.18472333555E+04  0.18472333555E+04  0.50400001928E-02 0.  1.
    10030    2    1    2    0    0  0.00000000000E+00  0.00000000000E+00  0.20984041618E+03  0.39043071273E+04  0.38986640204E+04 0.  0.
        3    1    3    3  502    0 -0.77404737093E+03 -0.10298282054E+04  0.15699799145E+04  0.20308944845E+04  0.10100000352E+00 0. -1.
       -3    1    3    3    0  502  0.77404737093E+03  0.10298282054E+04 -0.13601394983E+04  0.18734126428E+04  0.10100000352E+00 0.  1.
</event>
<event>
 5   0  0.2904500E-09  0.3893768E+04  0.7818609E-02  0.8026327E-01
        1   -1    0    0  501    0  0.00000000000E+00  0.00000000000E+00  0.17849441361E+04  0.17849441361E+04  0.50400001928E-02 0. -1.
       -1   -1    0    0    0  501  0.00000000000E+00  0.00000000000E+00 -0.21235159120E+04  0.21235159120E+04  0.50400001928E-02 0.  1.
    10030    2    1    2    0    0  0.00000000000E+00  0.00000000000E+00 -0.33857177592E+03  0.39084600482E+04  0.38937679824E+04 0.  0.
        3    1    3    3  502    0 -0.15803060415E+04  0.34058836774E+03 -0.12582709642E+04  0.20485637531E+04  0.10100000352E+00 0.  1.
       -3    1    3    3    0  502  0.15803060415E+04 -0.34058836774E+03  0.91969918825E+03  0.18598962950E+04  0.10100000352E+00 0. -1.
</event>
<event>
 5   0  0.2904500E-09  0.3899633E+04  0.7818609E-02  0.8025105E-01
        1   -1    0    0  501    0  0.00000000000E+00  0.00000000000E+00  0.30488734278E+04  0.30488734278E+04  0.50400001928E-02 0.  1.
       -1   -1    0    0    0  501  0.00000000000E+00  0.00000000000E+00 -0.12469475553E+04  0.12469475553E+04  0.50400001928E-02 0. -1.
    10030    2    1    2    0    0  0.00000000000E+00  0.00000000000E+00  0.18019258725E+04  0.42958209831E+04  0.38996334532E+04 0.  0.
        4    1    3    3  502    0  0.17834916352E+04  0.13963092757E+03  0.17552820971E+04  0.25062633665E+04  0.12699999809E+01 0.  1.
       -4    1    3    3    0  502 -0.17834916352E+04 -0.13963092757E+03  0.46643775320E+02  0.17895576167E+04  0.12699999809E+01 0. -1.
</event>
<event>
 5   0  0.9078515E-09  0.3896275E+04  0.7818609E-02  0.8025804E-01
        2   -1    0    0  501    0  0.00000000000E+00  0.00000000000E+00  0.17502645352E+04  0.17502645352E+04  0.25500000920E-02 0. -1.
       -2   -1    0    0    0  501  0.00000000000E+00  0.00000000000E+00 -0.21683807751E+04  0.21683807751E+04  0.25500000920E-02 0.  1.
    10030    2    1    2    0    0  0.00000000000E+00  0.00000000000E+00 -0.41811623995E+03  0.39186453103E+04  0.38962751286E+04 0.  0.
        3    1    3    3  502    0 -0.10151344183E+04  0.16625281947E+04 -0.23645555436E+03  0.19622459389E+04  0.10100000352E+00 0. -1.
       -3    1    3    3    0  502  0.10151344183E+04 -0.16625281947E+04 -0.18166068560E+03  0.19563993714E+04  0.10100000352E+00 0.  1.
</event>
<event>
 5   0  0.6335942E-09  0.3900259E+04  0.7818609E-02  0.8024975E-01
        2   -1    0    0  501    0  0.00000000000E+00  0.00000000000E+00  0.17422354163E+04  0.17422354163E+04  0.25500000920E-02 0.  1.
       -2   -1    0    0    0  501  0.00000000000E+00  0.00000000000E+00 -0.21828312226E+04  0.21828312226E+04  0.25500000920E-02 0. -1.
    10030    2    1    2    0    0  0.00000000000E+00  0.00000000000E+00 -0.44059580629E+03  0.39250666390E+04  0.39002594088E+04 0.  0.
        2    1    3    3  502    0  0.48712244089E+03  0.64734951713E+02  0.16789062901E+04  0.17493442249E+04  0.25500000920E-02 0.  1.
       -2    1    3    3    0  502 -0.48712244089E+03 -0.64734951713E+02 -0.21195020964E+04  0.21757224140E+04  0.25500000920E-02 0. -1.
</event>
<event>
 5   0  0.6335942E-09  0.3898838E+04  0.7818609E-02  0.8025271E-01
       -2   -1    0    0    0  501  0.00000000000E+00  0.00000000000E+00  0.25908959337E+04  0.25908959337E+04  0.25500000920E-02 0. -1.
        2   -1    0    0  501    0  0.00000000000E+00  0.00000000000E+00 -0.14667644693E+04  0.14667644693E+04  0.25500000920E-02 0.  1.
    10030    2    1    2    0    0  0.00000000000E+00  0.00000000000E+00  0.11241314644E+04  0.40576604031E+04  0.38988378265E+04 0.  0.
        2    1    3    3  502    0  0.10188791212E+04 -0.34231727984E+03 -0.11305107413E+04  0.15599199723E+04  0.25500000920E-02 0.  1.
       -2    1    3    3    0  502 -0.10188791212E+04  0.34231727984E+03  0.22546422057E+04  0.24977404308E+04  0.25500000920E-02 0. -1.
</event>
<event>
 5   0  0.2904500E-09  0.3899183E+04  0.7818609E-02  0.8025199E-01
        1   -1    0    0  501    0  0.00000000000E+00  0.00000000000E+00  0.28433223804E+04  0.28433223804E+04  0.50400001928E-02 0. -1.
       -1   -1    0    0    0  501  0.00000000000E+00  0.00000000000E+00 -0.13367838477E+04  0.13367838477E+04  0.50400001928E-02 0.  1.
    10030    2    1    2    0    0  0.00000000000E+00  0.00000000000E+00  0.15065385328E+04  0.41801062281E+04  0.38991832129E+04 0.  0.
        2    1    3    3  502    0 -0.35383634038E+03 -0.18542474244E+04  0.23084722060E+03  0.19017686783E+04  0.25500000920E-02 0. -1.
       -2    1    3    3    0  502  0.35383634038E+03  0.18542474244E+04  0.12756913122E+04  0.22783375498E+04  0.25500000920E-02 0.  1.
</event>
<event>
 5   0  0.2904500E-09  0.3898846E+04  0.7818609E-02  0.8025269E-01
       -1   -1    0    0    0  501  0.00000000000E+00  0.00000000000E+00  0.17783437465E+04  0.17783437465E+04  0.50400001928E-02 0. -1.
        1   -1    0    0  501    0  0.00000000000E+00  0.00000000000E+00 -0.21369598318E+04  0.21369598318E+04  0.50400001928E-02 0.  1.
    10030    2    1    2    0    0  0.00000000000E+00  0.00000000000E+00 -0.35861608525E+03  0.39153035783E+04  0.38988455489E+04 0.  0.
        5    1    3    3  502    0 -0.18061906940E+04  0.72208292333E+03 -0.50319380301E+02  0.19458372751E+04  0.46999998093E+01 0.  1.
       -5    1    3    3    0  502  0.18061906940E+04 -0.72208292333E+03 -0.30829670495E+03  0.19694663032E+04  0.46999998093E+01 0. -1.
</event>
<event>
 5   0  0.9277261E-09  0.3899608E+04  0.7818609E-02  0.8025111E-01
        2   -1    0    0  501    0  0.00000000000E+00  0.00000000000E+00  0.24690921505E+04  0.24690921505E+04  0.25500000920E-02 0.  1.
       -2   -1    0    0    0  501  0.00000000000E+00  0.00000000000E+00 -0.15397301209E+04  0.15397301209E+04  0.25500000920E-02 0. -1.
    10030    2    1    2    0    0  0.00000000000E+00  0.00000000000E+00  0.92936202960E+03  0.40088222714E+04  0.38996079575E+04 0.  0.
        1    1    3    3  502    0  0.17732158096E+04 -0.45174836389E+03  0.11568620374E+04  0.21648789032E+04  0.50400001928E-02 0. -1.
       -1    1    3    3    0  502 -0.17732158096E+04  0.45174836389E+03 -0.22750000777E+03  0.18439433683E+04  0.50400001928E-02 0.  1.
</event>
<event>
 5   0  0.6335942E-09  0.3899622E+04  0.7818609E-02  0.8025108E-01
       -2   -1    0    0    0  501  0.00000000000E+00  0.00000000000E+00  0.24947780735E+04  0.24947780735E+04  0.25500000920E-02 0.  1.
        2   -1    0    0  501    0  0.00000000000E+00  0.00000000000E+00 -0.15238881124E+04  0.15238881124E+04  0.25500000920E-02 0. -1.
    10030    2    1    2    0    0  0.00000000000E+00  0.00000000000E+00  0.97088996110E+03  0.40186661859E+04  0.38996218531E+04 0.  0.
        2    1    3    3  502    0 -0.11176733645E+03 -0.15184849070E+04  0.17406060209E+04  0.23125738194E+04  0.25500000920E-02 0.  1.
       -2    1    3    3    0  502  0.11176733645E+03  0.15184849070E+04 -0.76971605975E+03  0.17060923665E+04  0.25500000920E-02 0. -1.
</event>
<event>
 5   0  0.2929054E-09  0.3917548E+04  0.7818609E-02  0.8021389E-01
       -1   -1    0    0    0  501  0.00000000000E+00  0.00000000000E+00  0.13224006883E+04  0.13224006883E+04  0.50400001928E-02 0. -1.
        1   -1    0    0  501    0  0.00000000000E+00  0.00000000000E+00 -0.29013867900E+04  0.29013867900E+04  0.50400001928E-02 0.  1.
    10030    2    1    2    0    0  0.00000000000E+00  0.00000000000E+00 -0.15789861017E+04  0.42237874783E+04  0.39175481558E+04 0.  0.
        1    1    3    3  502    0 -0.11159054253E+04  0.75749320408E+03 -0.23210104408E+04  0.26844236512E+04  0.50400001928E-02 0.  1.
       -1    1    3    3    0  502  0.11159054253E+04 -0.75749320408E+03  0.74202433916E+03  0.15393638272E+04  0.50400001928E-02 0. -1.
</event>
<event>
 5   0  0.2904500E-09  0.3901121E+04  0.7818609E-02  0.8024796E-01
       -1   -1    0    0    0  501  0.00000000000E+00  0.00000000000E+00  0.14998357588E+04  0.14998357588E+04  0.50400001928E-02 0.  1.
        1   -1    0    0  501    0  0.00000000000E+00  0.00000000000E+00 -0.25367357912E+04  0.25367357912E+04  0.50400001928E-02 0. -1.
    10030    2    1    2    0    0  0.00000000000E+00  0.00000000000E+00 -0.10369000324E+04  0.40365715500E+04  0.39011214031E+04 0.  0.
        3    1    3    3  502    0 -0.34894277389E+03  0.17132510645E+04 -0.14131675362E+04  0.22481176048E+04  0.10100000352E+00 0. -1.
       -3    1    3    3    0  502  0.34894277389E+03 -0.17132510645E+04  0.37626750380E+03  0.17884539452E+04  0.10100000352E+00 0.  1.
</event>
<event>
 5   0  0.2904500E-09  0.3899642E+04  0.7818609E-02  0.8025104E-01
       -1   -1    0    0    0  501  0.00000000000E+00  0.00000000000E+00  0.21154008645E+04  0.21154008645E+04  0.50400001928E-02 0. -1.
        1   -1    0    0  501    0  0.00000000000E+00  0.00000000000E+00 -0.17972013199E+04  0.17972013199E+04  0.50400001928E-02 0.  1.
    10030    2    1    2    0    0  0.00000000000E+00  0.00000000000E+00  0.31819954457E+03  0.39126021844E+04  0.38996416378E+04 0.  0.
        2    1    3    3  502    0  0.51150401623E+03  0.34137838110E+03  0.20155535095E+04  0.21072805953E+04  0.25500000920E-02 0. -1.
       -2    1    3    3    0  502 -0.51150401623E+03 -0.34137838110E+03 -0.16973539649E+04  0.18053215891E+04  0.25500000920E-02 0.  1.
</event>
<event>
 5   0  0.2904500E-09  0.3897926E+04  0.7818609E-02  0.8025461E-01
        3   -1    0    0  501    0  0.00000000000E+00  0.00000000000E+00  0.28991836502E+04  0.28991836520E+04  0.10100000352E+00 0.  1.
       -3   -1    0    0    0  501  0.00000000000E+00  0.00000000000E+00 -0.13101817502E+04  0.13101817541E+04  0.10100000352E+00 0. -1.
    10030    2    1    2    0    0  0.00000000000E+00  0.00000000000E+00  0.15890019000E+04  0.42093654061E+04  0.38979263825E+04 0.  0.
        3    1    3    3  502    0  0.10180934835E+04 -0.21419750478E+03  0.25742258739E+04  0.27765146807E+04  0.10100000352E+00 0.  1.
       -3    1    3    3    0  502 -0.10180934835E+04  0.21419750478E+03 -0.98522397392E+03  0.14328507253E+04  0.10100000352E+00 0. -1.
</event>
<event>
 5   0  0.2929054E-09  0.3899494E+04  0.7818609E-02  0.8025134E-01
       -1   -1    0    0    0  501  0.00000000000E+00  0.00000000000E+00  0.19363233884E+04  0.19363233884E+04  0.50400001928E-02 0. -1.
        1   -1    0    0  501    0  0.00000000000E+00  0.00000000000E+00 -0.19632635562E+04  0.19632635562E+04  0.50400001928E-02 0.  1.
    10030    2    1    2    0    0  0.00000000000E+00  0.00000000000E+00 -0.26940167744E+02  0.38995869446E+04  0.38994938858E+04 0.  0.
        1    1    3    3  502    0 -0.18437594772E+04 -0.14681673236E+03 -0.63033890319E+03  0.19540550902E+04  0.50400001928E-02 0.  1.
       -1    1    3    3    0  502  0.18437594772E+04  0.14681673236E+03  0.60339873545E+03  0.19455318544E+04  0.50400001928E-02 0. -1.
</event>
<event>
 5   0  0.9078515E-09  0.3899933E+04  0.7818609E-02  0.8025043E-01
        2   -1    0    0  501    0  0.00000000000E+00  0.00000000000E+00  0.15876833663E+04  0.15876833663E+04  0.25500000920E-02 0. -1.
       -2   -1    0    0    0  501  0.00000000000E+00  0.00000000000E+00 -0.23949164084E+04  0.23949164084E+04  0.25500000920E-02 0.  1.
    10030    2    1    2    0    0  0.00000000000E+00  0.00000000000E+00 -0.80723304215E+03  0.39825997747E+04  0.38999327919E+04 0.  0.
        3    1    3    3  502    0  0.10335052150E+04  0.13461554239E+04 -0.13842323553E+04  0.21900608847E+04  0.10100000352E+00 0.  1.
       -3    1    3    3    0  502 -0.10335052150E+04 -0.13461554239E+04  0.57699931318E+03  0.17925388901E+04  0.10100000352E+00 0. -1.
</event>
<event>
 5   0  0.2904500E-09  0.3899888E+04  0.7818609E-02  0.8025052E-01
        1   -1    0    0  501    0  0.00000000000E+00  0.00000000000E+00  0.35366835374E+04  0.35366835374E+04  0.50400001928E-02 0. -1.
       -1   -1    0    0    0  501  0.00000000000E+00  0.00000000000E+00 -0.10750981248E+04  0.10750981248E+04  0.50400001928E-02 0.  1.
    10030    2    1    2    0    0  0.00000000000E+00  0.00000000000E+00  0.24615854126E+04  0.46117816622E+04  0.38998881209E+04 0.  0.
        2    1    3    3  502    0  0.71791754860E+03  0.13768639458E+04 -0.16396633314E+03  0.15614239944E+04  0.25500000920E-02 0.  1.
       -2    1    3    3    0  502 -0.71791754860E+03 -0.13768639458E+04  0.26255517458E+04  0.30503576678E+04  0.25500000920E-02 0. -1.
</event>
<event>
 5   0  0.9277261E-09  0.3899646E+04  0.7818609E-02  0.8025103E-01
       -2   -1    0    0    0  501  0.00000000000E+00  0.00000000000E+00  0.14271529167E+04  0.14271529167E+04  0.25500000920E-02 0. -1.
        2   -1    0    0  501    0  0.00000000000E+00  0.00000000000E+00 -0.26639120446E+04  0.26639120446E+04  0.25500000920E-02 0.  1.
    10030    2    1    2    0    0  0.00000000000E+00  0.00000000000E+00 -0.12367591280E+04  0.40910649613E+04  0.38996460579E+04 0.  0.
        1    1    3    3  502    0  0.14739527516E+04 -0.82414822276E+03  0.40417163934E+03  0.17364077059E+04  0.50400001928E-02 0. -1.
       -1    1    3    3    0  502 -0.14739527516E+04  0.82414822276E+03 -0.16409307673E+04  0.23546572554E+04  0.50400001928E-02 0.  1.
</event>
<event>
 5   0  0.2904500E-09  0.3899394E+04  0.7818609E-02  0.8025155E-01
        1   -1    0    0  501    0  0.00000000000E+00  0.00000000000E+00  0.28247000554E+04  0.28247000554E+04  0.50400001928E-02 0.  1.
       -1   -1    0    0    0  501  0.00000000000E+00  0.00000000000E+00 -0.13457424376E+04  0.13457424377E+04  0.50400001928E-02 0. -1.
    10030    2    1    2    0    0  0.00000000000E+00  0.00000000000E+00  0.14789576178E+04  0.41704424931E+04  0.38993941777E+04 0.  0.
        2    1    3    3  502    0 -0.55503207338E+03  0.17269647486E+04  0.15038988711E+04  0.23563063595E+04  0.25500000920E-02 0.  1.
       -2    1    3    3    0  502  0.55503207338E+03 -0.17269647486E+04 -0.24941253273E+02  0.18141361336E+04  0.25500000920E-02 0. -1.
</event>
<event>
 5   0  0.2904500E-09  0.3899432E+04  0.7818609E-02  0.8025147E-01
        1   -1    0    0  501    0  0.00000000000E+00  0.00000000000E+00  0.16720249904E+04  0.16720249904E+04  0.50400001928E-02 0. -1.
       -1   -1    0    0    0  501  0.00000000000E+00  0.00000000000E+00 -0.22735264618E+04  0.22735264618E+04  0.50400001928E-02 0.  1.
    10030    2    1    2    0    0  0.00000000000E+00  0.00000000000E+00 -0.60150147140E+03  0.39455514521E+04  0.38994322973E+04 0.  0.
        3    1    3    3  502    0  0.50265783085E+03  0.12170849668E+04 -0.17556133347E+04  0.21945703230E+04  0.10100000352E+00 0.  1.
       -3    1    3    3    0  502 -0.50265783085E+03 -0.12170849668E+04  0.11541118633E+04  0.17509811291E+04  0.10100000352E+00 0. -1.
</event>
<event>
 5   0  0.9434114E-09  0.3900150E+04  0.7818609E-02  0.8024998E-01
       -2   -1    0    0    0  501  0.00000000000E+00  0.00000000000E+00  0.12702471181E+04  0.12702471181E+04  0.25500000920E-02 0. -1.
        2   -1    0    0  501    0  0.00000000000E+00  0.00000000000E+00 -0.29937418338E+04  0.29937418338E+04  0.25500000920E-02 0.  1.
    10030    2    1    2    0    0  0.00000000000E+00  0.00000000000E+00 -0.17234947157E+04  0.42639889519E+04  0.39001497083E+04 0.  0.
        4    1    3    3  502    0  0.15987358106E+04  0.49815159799E+03  0.23081888324E+03  0.16903816659E+04  0.12699999809E+01 0. -1.
       -4    1    3    3    0  502 -0.15987358106E+04 -0.49815159799E+03 -0.19543135989E+04  0.25736072860E+04  0.12699999809E+01 0.  1.
</event>
<event>
 5   0  0.2904500E-09  0.3899499E+04  0.7818609E-02  0.8025133E-01
        1   -1    0    0  501    0  0.00000000000E+00  0.00000000000E+00  0.14393353643E+04  0.14393353643E+04  0.50400001928E-02 0. -1.
       -1   -1    0    0    0  501  0.00000000000E+00  0.00000000000E+00 -0.26411662480E+04  0.26411662480E+04  0.50400001928E-02 0.  1.
    10030    2    1    2    0    0  0.00000000000E+00  0.00000000000E+00 -0.12018308837E+04  0.40805016123E+04  0.38994994467E+04 0.  0.
        4    1    3    3  502    0 -0.10289138808E+04 -0.16400440137E+04 -0.84207814104E+03  0.21112804999E+04  0.12699999809E+01 0. -1.
       -4    1    3    3    0  502  0.10289138808E+04  0.16400440137E+04 -0.35975274270E+03  0.19692211124E+04  0.12699999809E+01 0.  1.
</event>
<event>
 5   0  0.6335942E-09  0.3899910E+04  0.7818609E-02  0.8025048E-01
       -2   -1    0    0    0  501  0.00000000000E+00  0.00000000000E+00  0.27434890436E+04  0.27434890436E+04  0.25500000920E-02 0. -1.
        2   -1    0    0  501    0  0.00000000000E+00  0.00000000000E+00 -0.13859449605E+04  0.13859449605E+04  0.25500000920E-02 0.  1.
    10030    2    1    2    0    0  0.00000000000E+00  0.00000000000E+00  0.13575440831E+04  0.41294340041E+04  0.38999101601E+04 0.  0.
        2    1    3    3  502    0 -0.19493630441E+04 -0.48045257556E+02  0.67923326954E+03  0.20648686300E+04  0.25500000920E-02 0. -1.
       -2    1    3    3    0  502  0.19493630441E+04  0.48045257556E+02  0.67831081356E+03  0.20645653742E+04  0.25500000920E-02 0.  1.
</event>
<event>
 5   0  0.2904500E-09  0.3900078E+04  0.7818609E-02  0.8025013E-01
       -1   -1    0    0    0  501  0.00000000000E+00  0.00000000000E+00  0.22564761416E+04  0.22564761417E+04  0.50400001928E-02 0.  1.
        1   -1    0    0  501    0  0.00000000000E+00  0.00000000000E+00 -0.16852172545E+04  0.16852172545E+04  0.50400001928E-02 0. -1.
    10030    2    1    2    0    0  0.00000000000E+00  0.00000000000E+00  0.57125888713E+03  0.39416933962E+04  0.39000782189E+04 0.  0.
        3    1    3    3  502    0  0.16376496135E+04 -0.57736449083E+02  0.13539910680E+04  0.21256814382E+04  0.10100000352E+00 0.  1.
       -3    1    3    3    0  502 -0.16376496135E+04  0.57736449083E+02 -0.78273218088E+03  0.18160119580E+04  0.10100000352E+00 0. -1.
</event>
<event>
 5   0  0.9078515E-09  0.3900496E+04  0.7818609E-02  0.8024926E-01
        2   -1    0    0  501    0  0.00000000000E+00  0.00000000000E+00  0.28318700345E+04  0.28318700345E+04  0.25500000920E-02 0.  1.
       -2   -1    0    0    0  501  0.00000000000E+00  0.00000000000E+00 -0.13430938265E+04  0.13430938265E+04  0.25500000920E-02 0. -1.
    10030    2    1    2    0    0  0.00000000000E+00  0.00000000000E+00  0.14887762079E+04  0.41749638610E+04  0.39004959484E+04 0.  0.
        3    1    3    3  502    0 -0.15849970215E+04 -0.49917783500E+02  0.19595072980E+04  0.25207888060E+04  0.10100000352E+00 0.  1.
       -3    1    3    3    0  502  0.15849970215E+04  0.49917783500E+02 -0.47073109012E+03  0.16541750550E+04  0.10100000352E+00 0. -1.
</event>
<event>
 5   0  0.2904500E-09  0.3900077E+04  0.7818609E-02  0.8025013E-01
        1   -1    0    0  501    0  0.00000000000E+00  0.00000000000E+00  0.15545568194E+04  0.15545568194E+04  0.50400001928E-02 0. -1.
       -1   -1    0    0    0  501  0.00000000000E+00  0.00000000000E+00 -0.24461307141E+04  0.24461307141E+04  0.50400001928E-02 0.  1.
    10030    2    1    2    0    0  0.00000000000E+00  0.00000000000E+00 -0.89157389470E+03  0.40006875335E+04  0.39000765032E+04 0.  0.
        2    1    3    3  502    0 -0.41916316643E+03 -0.18188307724E+04 -0.10249819151E+04  0.21294203589E+04  0.25500000920E-02 0. -1.
       -2    1    3    3    0  502  0.41916316643E+03  0.18188307724E+04  0.13340802041E+03  0.18712671746E+04  0.25500000920E-02 0.  1.
</event>
<event>
 5   0  0.6335942E-09  0.3896492E+04  0.7818609E-02  0.8025759E-01
        2   -1    0    0  501    0  0.00000000000E+00  0.00000000000E+00  0.26320691847E+04  0.26320691847E+04  0.25500000920E-02 0. -1.
       -2   -1    0    0    0  501  0.00000000000E+00  0.00000000000E+00 -0.14420832922E+04  0.14420832922E+04  0.25500000920E-02 0.  1.
    10030    2    1    2    0    0  0.00000000000E+00  0.00000000000E+00  0.11899858925E+04  0.40741524769E+04  0.38964922662E+04 0.  0.
        2    1    3    3  502    0  0.78470485909E+03 -0.10109812790E+04  0.21309210223E+04  0.24856929146E+04  0.25500000920E-02 0. -1.
       -2    1    3    3    0  502 -0.78470485909E+03  0.10109812790E+04 -0.94093512986E+03  0.15884595623E+04  0.25500000920E-02 0.  1.
</event>
<event>
 5   0  0.9277261E-09  0.3900673E+04  0.7818609E-02  0.8024889E-01
       -2   -1    0    0    0  501  0.00000000000E+00  0.00000000000E+00  0.13272092241E+04  0.13272092241E+04  0.25500000920E-02 0. -1.
        2   -1    0    0  501    0  0.00000000000E+00  0.00000000000E+00 -0.28660225278E+04  0.28660225278E+04  0.25500000920E-02 0.  1.
    10030    2    1    2    0    0  0.00000000000E+00  0.00000000000E+00 -0.15388133037E+04  0.41932317519E+04  0.39006725243E+04 0.  0.
        1    1    3    3  502    0 -0.72636886544E+03  0.93333026018E+03  0.89774628160E+03  0.14848116006E+04  0.50400001928E-02 0. -1.
       -1    1    3    3    0  502  0.72636886544E+03 -0.93333026018E+03 -0.24365595853E+04  0.27084201513E+04  0.50400001928E-02 0.  1.
</event>
<event>
 5   0  0.2929054E-09  0.3900388E+04  0.7818609E-02  0.8024948E-01
        1   -1    0    0  501    0  0.00000000000E+00  0.00000000000E+00  0.22661775123E+04  0.22661775123E+04  0.50400001928E-02 0.  1.
       -1   -1    0    0    0  501  0.00000000000E+00  0.00000000000E+00 -0.16782698063E+04  0.16782698063E+04  0.50400001928E-02 0. -1.
    10030    2    1    2    0    0  0.00000000000E+00  0.00000000000E+00  0.58790770605E+03  0.39444473186E+04  0.39003883369E+04 0.  0.
        1    1    3    3  502    0  0.32835649127E+02 -0.93889114516E+03  0.20222533384E+04  0.22298213666E+04  0.50400001928E-02 0.  1.
       -1    1    3    3    0  502 -0.32835649127E+02  0.93889114516E+03 -0.14343456323E+04  0.17146259520E+04  0.50400001928E-02 0. -1.
</event>
<event>
 5   0  0.2904500E-09  0.3899943E+04  0.7818609E-02  0.8025041E-01
        1   -1    0    0  501    0  0.00000000000E+00  0.00000000000E+00  0.24013844622E+04  0.24013844622E+04  0.50400001928E-02 0. -1.
       -1   -1    0    0    0  501  0.00000000000E+00  0.00000000000E+00 -0.15834154217E+04  0.15834154217E+04  0.50400001928E-02 0.  1.
    10030    2    1    2    0    0  0.00000000000E+00  0.00000000000E+00  0.81796904051E+03  0.39847998840E+04  0.38999431745E+04 0.  0.
        2    1    3    3  502    0 -0.12829318002E+04  0.24433258047E+03 -0.10705473888E+04  0.16886930229E+04  0.25500000920E-02 0.  1.
       -2    1    3    3    0  502  0.12829318002E+04 -0.24433258047E+03  0.18885164293E+04  0.22961068611E+04  0.25500000920E-02 0. -1.
</event>
<event>
 5   0  0.6335942E-09  0.3899710E+04  0.7818609E-02  0.8025090E-01
        2   -1    0    0  501    0  0.00000000000E+00  0.00000000000E+00  0.12186254557E+04  0.12186254557E+04  0.25500000920E-02 0. -1.
       -2   -1    0    0    0  501  0.00000000000E+00  0.00000000000E+00 -0.31198544809E+04  0.31198544809E+04  0.25500000920E-02 0.  1.
    10030    2    1    2    0    0  0.00000000000E+00  0.00000000000E+00 -0.19012290251E+04  0.43384799366E+04  0.38997097782E+04 0.  0.
        2    1    3    3  502    0  0.80772012677E+03  0.45673787185E+03 -0.28584739729E+04  0.30053110888E+04  0.25500000920E-02 0.  1.
       -2    1    3    3    0  502 -0.80772012677E+03 -0.45673787185E+03  0.95724494774E+03  0.13331688478E+04  0.25500000920E-02 0. -1.
</event>
<event>
 5   0  0.9434114E-09  0.3899011E+04  0.7818609E-02  0.8025235E-01
       -2   -1    0    0    0  501  0.00000000000E+00  0.00000000000E+00  0.16687050145E+04  0.16687050145E+04  0.25500000920E-02 0.  1.
        2   -1    0    0  501    0  0.00000000000E+00  0.00000000000E+00 -0.22775571620E+04  0.22775571620E+04  0.25500000920E-02 0. -1.
    10030    2    1    2    0    0  0.00000000000E+00  0.00000000000E+00 -0.60885214751E+03  0.39462621766E+04  0.38990106731E+04 0.  0.
        4    1    3    3  502    0  0.28510760718E+03 -0.15013249117E+04 -0.15295944115E+04  0.21621571439E+04  0.12699999809E+01 0. -1.
       -4    1    3    3    0  502 -0.28510760718E+03  0.15013249117E+04  0.92074226403E+03  0.17841050327E+04  0.12699999809E+01 0.  1.
</event>
<event>
 5   0  0.9078515E-09  0.3886639E+04  0.7818609E-02  0.8027814E-01
       -2   -1    0    0    0  501  0.00000000000E+00  0.00000000000E+00  0.17145228821E+04  0.17145228821E+04  0.25500000920E-02 0. -1.
        2   -1    0    0  501    0  0.00000000000E+00  0.00000000000E+00 -0.22026476801E+04  0.22026476801E+04  0.25500000920E-02 0.  1.
    10030    2    1    2    0    0  0.00000000000E+00  0.00000000000E+00 -0.48812479803E+03  0.39171705622E+04  0.38866385727E+04 0.  0.
        3    1    3    3  502    0 -0.19033434072E+03  0.17721815735E+04 -0.10245066148E+04  0.20558376650E+04  0.10100000352E+00 0.  1.
       -3    1    3    3    0  502  0.19033434072E+03 -0.17721815735E+04  0.53638181675E+03  0.18613328972E+04  0.10100000352E+00 0. -1.
</event>
<event>
 5   0  0.9078515E-09  0.3898139E+04  0.7818609E-02  0.8025416E-01
       -2   -1    0    0    0  501  0.00000000000E+00  0.00000000000E+00  0.11826838867E+04  0.11826838867E+04  0.25500000920E-02 0.  1.
        2   -1    0    0  501    0  0.00000000000E+00  0.00000000000E+00 -0.32120771121E+04  0.32120771121E+04  0.25500000920E-02 0. -1.
    10030    2    1    2    0    0  0.00000000000E+00  0.00000000000E+00 -0.20293932255E+04  0.43947609988E+04  0.38981389628E+04 0.  0.
        3    1    3    3  502    0  0.16617059336E+03 -0.19225829448E+04 -0.70608137449E+03  0.20548695247E+04  0.10100000352E+00 0.  1.
       -3    1    3    3    0  502 -0.16617059336E+03  0.19225829448E+04 -0.13233118510E+04  0.23398914742E+04  0.10100000352E+00 0. -1.
</event>
<event>
 5   0  0.2904500E-09  0.3893337E+04  0.7818609E-02  0.8026416E-01
        1   -1    0    0  501    0  0.00000000000E+00  0.00000000000E+00  0.24773642237E+04  0.24773642237E+04  0.50400001928E-02 0.  1.
       -1   -1    0    0    0  501  0.00000000000E+00  0.00000000000E+00 -0.15296574549E+04  0.15296574549E+04  0.50400001928E-02 0. -1.
    10030    2    1    2    0    0  0.00000000000E+00  0.00000000000E+00  0.94770676886E+03  0.40070216786E+04  0.38933372077E+04 0.  0.
        4    1    3    3  502    0 -0.87635601450E+03 -0.29376073157E+02 -0.13148988068E+04  0.15804503481E+04  0.12699999809E+01 0. -1.
       -4    1    3    3    0  502  0.87635601450E+03  0.29376073157E+02  0.22626055757E+04  0.24265713305E+04  0.12699999809E+01 0.  1.
</event>
<event>
 5   0  0.2904500E-09  0.3901600E+04  0.7818609E-02  0.8024697E-01
       -1   -1    0    0    0  501  0.00000000000E+00  0.00000000000E+00  0.22655115939E+04  0.22655115939E+04  0.50400001928E-02 0. -1.
        1   -1    0    0  501    0  0.00000000000E+00  0.00000000000E+00 -0.16798060072E+04  0.16798060072E+04  0.50400001928E-02 0.  1.
    10030    2    1    2    0    0  0.00000000000E+00  0.00000000000E+00  0.58570558669E+03  0.39453176012E+04  0.39015996642E+04 0.  0.
        3    1    3    3  502    0  0.83502219688E+03  0.16641313538E+03  0.20677020459E+04  0.22361456039E+04  0.10100000352E+00 0. -1.
       -3    1    3    3    0  502 -0.83502219688E+03 -0.16641313538E+03 -0.14819964592E+04  0.17091719973E+04  0.10100000352E+00 0.  1.
</event>
<event>
 5   0  0.2904500E-09  0.3900387E+04  0.7818609E-02  0.8024949E-01
       -1   -1    0    0    0  501  0.00000000000E+00  0.00000000000E+00  0.20347932127E+04  0.20347932127E+04  0.50400001928E-02 0.  1.
        1   -1    0    0  501    0  0.00000000000E+00  0.00000000000E+00 -0.18691110186E+04  0.18691110186E+04  0.50400001928E-02 0. -1.
    10030    2    1    2    0    0  0.00000000000E+00  0.00000000000E+00  0.16568219406E+03  0.39039042313E+04  0.39003868600E+04 0.  0.
        4    1    3    3  502    0 -0.14113506713E+04  0.24648121650E+01 -0.12642314363E+04  0.18947821853E+04  0.12699999809E+01 0. -1.
       -4    1    3    3    0  502  0.14113506713E+04 -0.24648121650E+01  0.14299136303E+04  0.20091220460E+04  0.12699999809E+01 0.  1.
</event>
<event>
 5   0  0.6335942E-09  0.3900266E+04  0.7818609E-02  0.8024974E-01
       -2   -1    0    0    0  501  0.00000000000E+00  0.00000000000E+00  0.25761026946E+04  0.25761026946E+04  0.25500000920E-02 0. -1.
        2   -1    0    0  501    0  0.00000000000E+00  0.00000000000E+00 -0.14762685041E+04  0.14762685041E+04  0.25500000920E-02 0.  1.
    10030    2    1    2    0    0  0.00000000000E+00  0.00000000000E+00  0.10998341905E+04  0.40523711987E+04  0.39002662839E+04 0.  0.
        2    1    3    3  502    0 -0.11885596191E+04 -0.26755572058E+03  0.21320493701E+04  0.24555843598E+04  0.25500000920E-02 0. -1.
       -2    1    3    3    0  502  0.11885596191E+04  0.26755572058E+03 -0.10322151796E+04  0.15967868389E+04  0.25500000920E-02 0.  1.
</event>
<event>
 5   0  0.9434114E-09  0.3899714E+04  0.7818609E-02  0.8025089E-01
       -2   -1    0    0    0  501  0.00000000000E+00  0.00000000000E+00  0.19278033322E+04  0.19278033322E+04  0.25500000920E-02 0. -1.
        2   -1    0    0  501    0  0.00000000000E+00  0.00000000000E+00 -0.19721629587E+04  0.19721629587E+04  0.25500000920E-02 0.  1.
    10030    2    1    2    0    0  0.00000000000E+00  0.00000000000E+00 -0.44359626533E+02  0.38999662909E+04  0.38997140015E+04 0.  0.
        4    1    3    3  502    0 -0.13619080802E+04  0.11978145578E+04 -0.73803851162E+03  0.19581255811E+04  0.12699999809E+01 0.  1.
       -4    1    3    3    0  502  0.13619080802E+04 -0.11978145578E+04  0.69367888508E+03  0.19418407098E+04  0.12699999809E+01 0. -1.
</event>
<event>
 5   0  0.2904500E-09  0.3897271E+04  0.7818609E-02  0.8025597E-01
        1   -1    0    0  501    0  0.00000000000E+00  0.00000000000E+00  0.19942113884E+04  0.19942113884E+04  0.50400001928E-02 0.  1.
       -1   -1    0    0    0  501  0.00000000000E+00  0.00000000000E+00 -0.19041008106E+04  0.19041008106E+04  0.50400001928E-02 0. -1.
    10030    2    1    2    0    0  0.00000000000E+00  0.00000000000E+00  0.90110577865E+02  0.38983121990E+04  0.38972705942E+04 0.  0.
        5    1    3    3  502    0  0.47979171937E+03 -0.12397271013E+04  0.14702287209E+04  0.19820993824E+04  0.46999998093E+01 0.  1.
       -5    1    3    3    0  502 -0.47979171937E+03  0.12397271013E+04 -0.13801181431E+04  0.19162128166E+04  0.46999998093E+01 0. -1.
</event>
<event>
 5   0  0.6335942E-09  0.3905590E+04  0.7818609E-02  0.8023868E-01
       -2   -1    0    0    0  501  0.00000000000E+00  0.00000000000E+00  0.20086455657E+04  0.20086455657E+04  0.25500000920E-02 0.  1.
        2   -1    0    0  501    0  0.00000000000E+00  0.00000000000E+00 -0.18984977463E+04  0.18984977463E+04  0.25500000920E-02 0. -1.
    10030    2    1    2    0    0  0.00000000000E+00  0.00000000000E+00  0.11014781940E+03  0.39071433120E+04  0.39055903930E+04 0.  0.
        2    1    3    3  502    0 -0.12970095558E+04  0.14328493366E+04 -0.22453332258E+03  0.19456891381E+04  0.25500000920E-02 0.  1.
       -2    1    3    3    0  502  0.12970095558E+04 -0.14328493366E+04  0.33468114198E+03  0.19614541738E+04  0.25500000920E-02 0. -1.
</event>
<event>
 5   0  0.2904500E-09  0.3897606E+04  0.7818609E-02  0.8025527E-01
       -1   -1    0    0    0  501  0.00000000000E+00  0.00000000000E+00  0.33338361964E+04  0.33338361964E+04  0.50400001928E-02 0. -1.
        1   -1    0    0  501    0  0.00000000000E+00  0.00000000000E+00 -0.11391779726E+04  0.11391779726E+04  0.50400001928E-02 0.  1.
    10030    2    1    2    0    0  0.00000000000E+00  0.00000000000E+00  0.21946582238E+04  0.44730141690E+04  0.38976058083E+04 0.  0.
        2    1    3    3  502    0  0.16518163867E+04  0.92314996185E+03  0.56256554902E+03  0.19741284721E+04  0.25500000920E-02 0.  1.
       -2    1    3    3    0  502 -0.16518163867E+04 -0.92314996185E+03  0.16320926748E+04  0.24988856969E+04  0.25500000920E-02 0. -1.
</event>
<event>
 5   0  0.2904500E-09  0.3901198E+04  0.7818609E-02  0.8024780E-01
        1   -1    0    0  501    0  0.00000000000E+00  0.00000000000E+00  0.25966429511E+04  0.25966429512E+04  0.50400001928E-02 0.  1.
       -1   -1    0    0    0  501  0.00000000000E+00  0.00000000000E+00 -0.14652906270E+04  0.14652906270E+04  0.50400001928E-02 0. -1.
    10030    2    1    2    0    0  0.00000000000E+00  0.00000000000E+00  0.11313523241E+04  0.40619335782E+04  0.39011980611E+04 0.  0.
        3    1    3    3  502    0 -0.61921659992E+03 -0.10735076554E+04 -0.10027027082E+04  0.15941331861E+04  0.10100000352E+00 0. -1.
       -3    1    3    3    0  502  0.61921659992E+03  0.10735076554E+04  0.21340550324E+04  0.24678003921E+04  0.10100000352E+00 0.  1.
</event>
<event>
 5   0  0.9078515E-09  0.3899540E+04  0.7818609E-02  0.8025125E-01
       -2   -1    0    0    0  501  0.00000000000E+00  0.00000000000E+00  0.15861057392E+04  0.15861057392E+04  0.25500000920E-02 0. -1.
        2   -1    0    0  501    0  0.00000000000E+00  0.00000000000E+00 -0.23968157357E+04  0.23968157357E+04  0.25500000920E-02 0.  1.
    10030    2    1    2    0    0  0.00000000000E+00  0.00000000000E+00 -0.81070999650E+03  0.39829214749E+04  0.38995400724E+04 0.  0.
        3    1    3    3  502    0  0.90306490944E+03  0.67456389678E+03 -0.20302971478E+04  0.23222121351E+04  0.10100000352E+00 0.  1.
       -3    1    3    3    0  502 -0.90306490944E+03 -0.67456389678E+03  0.12195871513E+04  0.16607093398E+04  0.10100000352E+00 0. -1.
</event>
<event>
 5   0  0.9277261E-09  0.3901104E+04  0.7818609E-02  0.8024800E-01
       -2   -1    0    0    0  501  0.00000000000E+00  0.00000000000E+00  0.16215432233E+04  0.16215432233E+04  0.25500000920E-02 0.  1.
        2   -1    0    0  501    0  0.00000000000E+00  0.00000000000E+00 -0.23463159047E+04  0.23463159047E+04  0.25500000920E-02 0. -1.
    10030    2    1    2    0    0  0.00000000000E+00  0.00000000000E+00 -0.72477268141E+03  0.39678591280E+04  0.39011037695E+04 0.  0.
        1    1    3    3  502    0 -0.12219044848E+04  0.14311640562E+04  0.15959280823E+03  0.18885843879E+04  0.50400001928E-02 0.  1.
       -1    1    3    3    0  502  0.12219044848E+04 -0.14311640562E+04 -0.88436548964E+03  0.20792747401E+04  0.50400001928E-02 0. -1.
</event>
<event>
 5   0  0.2904500E-09  0.3900616E+04  0.7818609E-02  0.8024901E-01
        1   -1    0    0  501    0  0.00000000000E+00  0.00000000000E+00  0.21900776952E+04  0.21900776952E+04  0.50400001928E-02 0. -1.
       -1   -1    0    0    0  501  0.00000000000E+00  0.00000000000E+00 -0.17367884985E+04  0.17367884986E+04  0.50400001928E-02 0.  1.
    10030    2    1    2    0    0  0.00000000000E+00  0.00000000000E+00  0.45328919664E+03  0.39268661937E+04  0.39006162344E+04 0.  0.
        4    1    3    3  502    0 -0.28542470159E+03  0.17461176052E+04 -0.59942983648E+03  0.18680770041E+04  0.12699999809E+01 0.  1.
       -4    1    3    3    0  502  0.28542470159E+03 -0.17461176052E+04  0.10527190331E+04  0.20587891896E+04  0.12699999809E+01 0. -1.
</event>
<event>
 5   0  0.2904500E-09  0.3902336E+04  0.7818609E-02  0.8024544E-01
       -1   -1    0    0    0  501  0.00000000000E+00  0.00000000000E+00  0.17201614248E+04  0.17201614248E+04  0.50400001928E-02 0.  1.
        1   -1    0    0  501    0  0.00000000000E+00  0.00000000000E+00 -0.22131974432E+04  0.22131974432E+04  0.50400001928E-02 0. -1.
    10030    2    1    2    0    0  0.00000000000E+00  0.00000000000E+00 -0.49303601840E+03  0.39333588680E+04  0.39023361553E+04 0.  0.
        2    1    3    3  502    0  0.47361026318E+03  0.80529327103E+03  0.14800658156E+04  0.17502567675E+04  0.25500000920E-02 0.  1.
       -2    1    3    3    0  502 -0.47361026318E+03 -0.80529327103E+03 -0.19731018340E+04  0.21831021005E+04  0.25500000920E-02 0. -1.
</event>
<event>
 5   0  0.2904500E-09  0.3901437E+04  0.7818609E-02  0.8024730E-01
       -1   -1    0    0    0  501  0.00000000000E+00  0.00000000000E+00  0.13776384376E+04  0.13776384376E+04  0.50400001928E-02 0.  1.
        1   -1    0    0  501    0  0.00000000000E+00  0.00000000000E+00 -0.27621921009E+04  0.27621921009E+04  0.50400001928E-02 0. -1.
    10030    2    1    2    0    0  0.00000000000E+00  0.00000000000E+00 -0.13845536633E+04  0.41398305386E+04  0.39014366638E+04 0.  0.
        3    1    3    3  502    0 -0.49760453687E+03  0.18814384149E+04 -0.83416837934E+03  0.21173704635E+04  0.10100000352E+00 0. -1.
       -3    1    3    3    0  502  0.49760453687E+03 -0.18814384149E+04 -0.55038528394E+03  0.20224600751E+04  0.10100000352E+00 0.  1.
</event>
<event>
 5   0  0.6335942E-09  0.3900539E+04  0.7818609E-02  0.8024917E-01
        2   -1    0    0  501    0  0.00000000000E+00  0.00000000000E+00  0.21360129563E+04  0.21360129563E+04  0.25500000920E-02 0.  1.
       -2   -1    0    0    0  501  0.00000000000E+00  0.00000000000E+00 -0.17806779076E+04  0.17806779076E+04  0.25500000920E-02 0. -1.
    10030    2    1    2    0    0  0.00000000000E+00  0.00000000000E+00  0.35533504870E+03  0.39166908640E+04  0.39005389790E+04 0.  0.
        2    1    3    3  502    0 -0.32349522745E+03 -0.11155735318E+04  0.17508066509E+04  0.21010657762E+04  0.25500000920E-02 0.  1.
       -2    1    3    3    0  502  0.32349522745E+03  0.11155735318E+04 -0.13954716022E+04  0.18156250878E+04  0.25500000920E-02 0. -1.
</event>
<event>
 5   0  0.2904500E-09  0.3900494E+04  0.7818609E-02  0.8024926E-01
       -1   -1    0    0    0  501  0.00000000000E+00  0.00000000000E+00  0.18685035618E+04  0.18685035619E+04  0.50400001928E-02 0.  1.
        1   -1    0    0  501    0  0.00000000000E+00  0.00000000000E+00 -0.20355668574E+04  0.20355668574E+04  0.50400001928E-02 0. -1.
    10030    2    1    2    0    0  0.00000000000E+00  0.00000000000E+00 -0.16706329552E+03  0.39040704192E+04  0.39004942884E+04 0.  0.
        5    1    3    3  502    0  0.16394838686E+04  0.81390094529E+03 -0.75727562762E+03  0.19808661162E+04  0.46999998093E+01 0. -1.
       -5    1    3    3    0  502 -0.16394838686E+04 -0.81390094529E+03  0.59021233209E+03  0.19232043030E+04  0.46999998093E+01 0.  1.
</event>
<event>
 5   0  0.9277261E-09  0.3901283E+04  0.7818609E-02  0.8024762E-01
       -2   -1    0    0    0  501  0.00000000000E+00  0.00000000000E+00  0.19325856440E+04  0.19325856440E+04  0.25500000920E-02 0. -1.
        2   -1    0    0  501    0  0.00000000000E+00  0.00000000000E+00 -0.19688662248E+04  0.19688662248E+04  0.25500000920E-02 0.  1.
    10030    2    1    2    0    0  0.00000000000E+00  0.00000000000E+00 -0.36280580795E+02  0.39014518688E+04  0.39012831741E+04 0.  0.
        1    1    3    3  502    0  0.61356972045E+03  0.14767016765E+04  0.10989966213E+04  0.19403373977E+04  0.50400001928E-02 0. -1.
       -1    1    3    3    0  502 -0.61356972045E+03 -0.14767016765E+04 -0.11352772021E+04  0.19611144711E+04  0.50400001928E-02 0.  1.
</event>
<event>
 5   0  0.9078515E-09  0.3873751E+04  0.7818609E-02  0.8030511E-01
        2   -1    0    0  501    0  0.00000000000E+00  0.00000000000E+00  0.25247270182E+04  0.25247270182E+04  0.25500000920E-02 0. -1.
       -2   -1    0    0    0  501  0.00000000000E+00  0.00000000000E+00 -0.14858983271E+04  0.14858983271E+04  0.25500000920E-02 0.  1.
    10030    2    1    2    0    0  0.00000000000E+00  0.00000000000E+00  0.10388286912E+04  0.40106253453E+04  0.38737514905E+04 0.  0.
        3    1    3    3  502    0  0.42584520934E+03 -0.18851792841E+04  0.65136382098E+03  0.20394901111E+04  0.10100000352E+00 0.  1.
       -3    1    3    3    0  502 -0.42584520934E+03  0.18851792841E+04  0.38746487017E+03  0.19711352342E+04  0.10100000352E+00 0. -1.
</event>
<event>
 5   0  0.2904500E-09  0.3899956E+04  0.7818609E-02  0.8025038E-01
        1   -1    0    0  501    0  0.00000000000E+00  0.00000000000E+00  0.14684016492E+04  0.14684016492E+04  0.50400001928E-02 0.  1.
       -1   -1    0    0    0  501  0.00000000000E+00  0.00000000000E+00 -0.25894921150E+04  0.25894921150E+04  0.50400001928E-02 0. -1.
    10030    2    1    2    0    0  0.00000000000E+00  0.00000000000E+00 -0.11210904658E+04  0.40578937643E+04  0.38999561497E+04 0.  0.
        5    1    3    3  502    0 -0.72204217184E+03 -0.10615966304E+04 -0.20876536014E+04  0.24508471909E+04  0.46999998093E+01 0. -1.
       -5    1    3    3    0  502  0.72204217184E+03  0.10615966304E+04  0.96656313565E+03  0.16070465733E+04  0.46999998093E+01 0.  1.
</event>
<event>
 5   0  0.2904500E-09  0.3902039E+04  0.7818609E-02  0.8024605E-01
       -1   -1    0    0    0  501  0.00000000000E+00  0.00000000000E+00  0.14264722263E+04  0.14264722263E+04  0.50400001928E-02 0. -1.
        1   -1    0    0  501    0  0.00000000000E+00  0.00000000000E+00 -0.26684551181E+04  0.26684551181E+04  0.50400001928E-02 0.  1.
    10030    2    1    2    0    0  0.00000000000E+00  0.00000000000E+00 -0.12419828918E+04  0.40949273445E+04  0.39020390122E+04 0.  0.
        5    1    3    3  502    0 -0.96725778329E+03 -0.16717568573E+04 -0.91048352761E+03  0.21352660146E+04  0.46999998093E+01 0.  1.
       -5    1    3    3    0  502  0.96725778329E+03  0.16717568573E+04 -0.33149936419E+03  0.19596613298E+04  0.46999998093E+01 0. -1.
</event>
<event>
 5   0  0.9078515E-09  0.3900735E+04  0.7818609E-02  0.8024876E-01
        2   -1    0    0  501    0  0.00000000000E+00  0.00000000000E+00  0.19299921817E+04  0.19299921817E+04  0.25500000920E-02 0. -1.
       -2   -1    0    0    0  501  0.00000000000E+00  0.00000000000E+00 -0.19709584117E+04  0.19709584117E+04  0.25500000920E-02 0.  1.
    10030    2    1    2    0    0  0.00000000000E+00  0.00000000000E+00 -0.40966230067E+02  0.39009505934E+04  0.39007354819E+04 0.  0.
        3    1    3    3  502    0 -0.79083258971E+03 -0.16982579781E+04 -0.56313442570E+03  0.19561740047E+04  0.10100000352E+00 0.  1.
       -3    1    3    3    0  502  0.79083258971E+03  0.16982579781E+04  0.52216819564E+03  0.19447765887E+04  0.10100000352E+00 0. -1.
</event>
<event>
 5   0  0.2904500E-09  0.3904092E+04  0.7818609E-02  0.8024179E-01
       -3   -1    0    0    0  501  0.00000000000E+00  0.00000000000E+00  0.17700750063E+04  0.17700750092E+04  0.10100000352E+00 0. -1.
        3   -1    0    0  501    0  0.00000000000E+00  0.00000000000E+00 -0.21527245592E+04  0.21527245616E+04  0.10100000352E+00 0.  1.
    10030    2    1    2    0    0  0.00000000000E+00  0.00000000000E+00 -0.38264955292E+03  0.39227995708E+04  0.39040921854E+04 0.  0.
        2    1    3    3  502    0  0.15367247131E+04  0.55740184789E+03 -0.12633317481E+04  0.20659687242E+04  0.25500000920E-02 0.  1.
       -2    1    3    3    0  502 -0.15367247131E+04 -0.55740184789E+03  0.88068219518E+03  0.18568308465E+04  0.25500000920E-02 0. -1.
</event>
<event>
 5   0  0.6335942E-09  0.3900084E+04  0.7818609E-02  0.8025012E-01
        2   -1    0    0  501    0  0.00000000000E+00  0.00000000000E+00  0.27075511252E+04  0.27075511252E+04  0.25500000920E-02 0.  1.
       -2   -1    0    0    0  501  0.00000000000E+00  0.00000000000E+00 -0.14044662345E+04  0.14044662346E+04  0.25500000920E-02 0. -1.
    10030    2    1    2    0    0  0.00000000000E+00  0.00000000000E+00  0.13030848907E+04  0.41120173598E+04  0.39000841702E+04 0.  0.
        2    1    3    3  502    0  0.14945403120E+04 -0.10554574436E+04  0.13627520647E+04  0.22813886888E+04  0.25500000920E-02 0.  1.
       -2    1    3    3    0  502 -0.14945403120E+04  0.10554574436E+04 -0.59667173971E+02  0.18306286710E+04  0.25500000920E-02 0. -1.
</event>
<event>
 5   0  0.9277261E-09  0.3899970E+04  0.7818609E-02  0.8025035E-01
        2   -1    0    0  501    0  0.00000000000E+00  0.00000000000E+00  0.30385930754E+04  0.30385930754E+04  0.25500000920E-02 0.  1.
       -2   -1    0    0    0  501  0.00000000000E+00  0.00000000000E+00 -0.12513825260E+04  0.12513825260E+04  0.25500000920E-02 0. -1.
    10030    2    1    2    0    0  0.00000000000E+00  0.00000000000E+00  0.17872105494E+04  0.42899756014E+04  0.38999703990E+04 0.  0.
        1    1    3    3  502    0  0.80583584622E+03  0.24895547466E+03 -0.10403635979E+04  0.13392933417E+04  0.50400001928E-02 0. -1.
       -1    1    3    3    0  502 -0.80583584622E+03 -0.24895547466E+03  0.28275741473E+04  0.29506822597E+04  0.50400001928E-02 0.  1.
</event>
<event>
 5   0  0.2929054E-09  0.3871669E+04  0.7818609E-02  0.8030947E-01
       -1   -1    0    0    0  501  0.00000000000E+00  0.00000000000E+00  0.23553271176E+04  0.23553271176E+04  0.50400001928E-02 0.  1.
        1   -1    0    0  501    0  0.00000000000E+00  0.00000000000E+00 -0.15910551319E+04  0.15910551319E+04  0.50400001928E-02 0. -1.
    10030    2    1    2    0    0  0.00000000000E+00  0.00000000000E+00  0.76427198566E+03  0.39463822495E+04  0.38716690446E+04 0.  0.
        1    1    3    3  502    0  0.72816121345E+03  0.57801434267E+03  0.21128825831E+04  0.23083743507E+04  0.50400001928E-02 0.  1.
       -1    1    3    3    0  502 -0.72816121345E+03 -0.57801434267E+03 -0.13486105974E+04  0.16380078988E+04  0.50400001928E-02 0. -1.
</event>
<event>
 5   0  0.6335942E-09  0.3901451E+04  0.7818609E-02  0.8024727E-01
       -2   -1    0    0    0  501  0.00000000000E+00  0.00000000000E+00  0.19628112417E+04  0.19628112417E+04  0.25500000920E-02 0.  1.
        2   -1    0    0  501    0  0.00000000000E+00  0.00000000000E+00 -0.19387146426E+04  0.19387146426E+04  0.25500000920E-02 0. -1.
    10030    2    1    2    0    0  0.00000000000E+00  0.00000000000E+00  0.24096599096E+02  0.39015258843E+04  0.39014514709E+04 0.  0.
        2    1    3    3  502    0  0.26499317472E+03  0.14933457392E+04  0.12388675314E+04  0.19583400215E+04  0.25500000920E-02 0.  1.
       -2    1    3    3    0  502 -0.26499317472E+03 -0.14933457392E+04 -0.12147709323E+04  0.19431858628E+04  0.25500000920E-02 0. -1.
</event>
<event>
 5   0  0.9434114E-09  0.3900030E+04  0.7818609E-02  0.8025023E-01
       -2   -1    0    0    0  501  0.00000000000E+00  0.00000000000E+00  0.17174458553E+04  0.17174458553E+04  0.25500000920E-02 0. -1.
        2   -1    0    0  501    0  0.00000000000E+00  0.00000000000E+00 -0.22140779524E+04  0.22140779525E+04  0.25500000920E-02 0.  1.
    10030    2    1    2    0    0  0.00000000000E+00  0.00000000000E+00 -0.49663209716E+03  0.39315238077E+04  0.39000302577E+04 0.  0.
        4    1    3    3  502    0  0.17348858887E+03 -0.29286354616E+03 -0.21838965856E+04  0.22102654268E+04  0.12699999809E+01 0.  1.
       -4    1    3    3    0  502 -0.17348858887E+03  0.29286354616E+03  0.16872644885E+04  0.17212583810E+04  0.12699999809E+01 0. -1.
</event>
<event>
 5   0  0.9078515E-09  0.3899571E+04  0.7818609E-02  0.8025118E-01
        2   -1    0    0  501    0  0.00000000000E+00  0.00000000000E+00  0.21892900388E+04  0.21892900388E+04  0.25500000920E-02 0. -1.
       -2   -1    0    0    0  501  0.00000000000E+00  0.00000000000E+00 -0.17364822467E+04  0.17364822467E+04  0.25500000920E-02 0.  1.
    10030    2    1    2    0    0  0.00000000000E+00  0.00000000000E+00  0.45280779210E+03  0.39257722855E+04  0.38995708919E+04 0.  0.
        3    1    3    3  502    0 -0.16849153122E+04  0.92158466048E+03  0.56542373438E+03  0.20019894868E+04  0.10100000352E+00 0.  1.
       -3    1    3    3    0  502  0.16849153122E+04 -0.92158466048E+03 -0.11261594228E+03  0.19237827987E+04  0.10100000352E+00 0. -1.
</event>
<event>
 5   0  0.2904500E-09  0.3901473E+04  0.7818609E-02  0.8024723E-01
        1   -1    0    0  501    0  0.00000000000E+00  0.00000000000E+00  0.28980892523E+04  0.28980892523E+04  0.50400001928E-02 0.  1.
       -1   -1    0    0    0  501  0.00000000000E+00  0.00000000000E+00 -0.13130626934E+04  0.13130626935E+04  0.50400001928E-02 0. -1.
    10030    2    1    2    0    0  0.00000000000E+00  0.00000000000E+00  0.15850265588E+04  0.42111519457E+04  0.39014729933E+04 0.  0.
        4    1    3    3  502    0 -0.54130686592E+03  0.81471287480E+03  0.26142605341E+04  0.27912595624E+04  0.12699999809E+01 0.  1.
       -4    1    3    3    0  502  0.54130686592E+03 -0.81471287480E+03 -0.10292339753E+04  0.14198923833E+04  0.12699999809E+01 0. -1.
</event>
<event>
 5   0  0.9368546E-09  0.3900581E+04  0.7818609E-02  0.8024908E-01
        2   -1    0    0  501    0  0.00000000000E+00  0.00000000000E+00  0.31213120019E+04  0.31213120019E+04  0.25500000920E-02 0. -1.
       -2   -1    0    0    0  501  0.00000000000E+00  0.00000000000E+00 -0.12186007452E+04  0.12186007452E+04  0.25500000920E-02 0.  1.
    10030    2    1    2    0    0  0.00000000000E+00  0.00000000000E+00  0.19027112567E+04  0.43399127471E+04  0.39005810498E+04 0.  0.
        5    1    3    3  502    0 -0.76542436848E+03 -0.10690866774E+04  0.25540060102E+04  0.28725928319E+04  0.46999998093E+01 0. -1.
       -5    1    3    3    0  502  0.76542436848E+03  0.10690866774E+04 -0.65129475347E+03  0.14673199152E+04  0.46999998093E+01 0.  1.
</event>
<event>
 5   0  0.9277261E-09  0.3900513E+04  0.7818609E-02  0.8024922E-01
        2   -1    0    0  501    0  0.00000000000E+00  0.00000000000E+00  0.19609562258E+04  0.19609562258E+04  0.25500000920E-02 0.  1.
       -2   -1    0    0    0  501  0.00000000000E+00  0.00000000000E+00 -0.19396153167E+04  0.19396153167E+04  0.25500000920E-02 0. -1.
    10030    2    1    2    0    0  0.00000000000E+00  0.00000000000E+00  0.21340909112E+02  0.39005715424E+04  0.39005131615E+04 0.  0.
        1    1    3    3  502    0 -0.94898506448E+03 -0.10232647875E+04  0.13729893630E+04  0.19577393261E+04  0.50400001928E-02 0.  1.
       -1    1    3    3    0  502  0.94898506448E+03  0.10232647875E+04 -0.13516484539E+04  0.19428322164E+04  0.50400001928E-02 0. -1.
</event>
<event>
 5   0  0.9434114E-09  0.3892143E+04  0.7818609E-02  0.8026665E-01
        2   -1    0    0  501    0  0.00000000000E+00  0.00000000000E+00  0.13036635133E+04  0.13036635133E+04  0.25500000920E-02 0.  1.
       -2   -1    0    0    0  501  0.00000000000E+00  0.00000000000E+00 -0.29050391004E+04  0.29050391004E+04  0.25500000920E-02 0. -1.
    10030    2    1    2    0    0  0.00000000000E+00  0.00000000000E+00 -0.16013755871E+04  0.42087026138E+04  0.38921425873E+04 0.  0.
        4    1    3    3  502    0 -0.10094596738E+04 -0.16081292518E+04 -0.33924437338E+03  0.19287760060E+04  0.12699999809E+01 0.  1.
       -4    1    3    3    0  502  0.10094596738E+04  0.16081292518E+04 -0.12621312137E+04  0.22799266078E+04  0.12699999809E+01 0. -1.
</event>
<event>
 5   0  0.9434114E-09  0.3900220E+04  0.7818609E-02  0.8024983E-01
       -2   -1    0    0    0  501  0.00000000000E+00  0.00000000000E+00  0.12341225495E+04  0.12341225495E+04  0.25500000920E-02 0.  1.
        2   -1    0    0  501    0  0.00000000000E+00  0.00000000000E+00 -0.30814845859E+04  0.30814845859E+04  0.25500000920E-02 0. -1.
    10030    2    1    2    0    0  0.00000000000E+00  0.00000000000E+00 -0.18473620364E+04  0.43156071354E+04  0.39002203083E+04 0.  0.
        4    1    3    3  502    0 -0.85398542494E+03  0.44362549662E+03  0.95308491989E+03  0.13544250310E+04  0.12699999809E+01 0.  1.
       -4    1    3    3    0  502  0.85398542494E+03 -0.44362549662E+03 -0.28004469563E+04  0.29611821044E+04  0.12699999809E+01 0. -1.
</event>
<event>
 5   0  0.2904500E-09  0.3895354E+04  0.7818609E-02  0.8025996E-01
       -1   -1    0    0    0  501  0.00000000000E+00  0.00000000000E+00  0.18217932678E+04  0.18217932678E+04  0.50400001928E-02 0.  1.
        1   -1    0    0  501    0  0.00000000000E+00  0.00000000000E+00 -0.20822594699E+04  0.20822594699E+04  0.50400001928E-02 0. -1.
    10030    2    1    2    0    0  0.00000000000E+00  0.00000000000E+00 -0.26046620211E+03  0.39040527377E+04  0.38953543018E+04 0.  0.
        3    1    3    3  502    0  0.16691309621E+04 -0.54519612246E+03  0.71438792013E+03  0.18956758930E+04  0.10100000352E+00 0.  1.
       -3    1    3    3    0  502 -0.16691309621E+04  0.54519612246E+03 -0.97485412224E+03  0.20083768447E+04  0.10100000352E+00 0. -1.
</event>
<event>
 5   0  0.2929054E-09  0.3900109E+04  0.7818609E-02  0.8025007E-01
        1   -1    0    0  501    0  0.00000000000E+00  0.00000000000E+00  0.14982806236E+04  0.14982806237E+04  0.50400001928E-02 0. -1.
       -1   -1    0    0    0  501  0.00000000000E+00  0.00000000000E+00 -0.25380507816E+04  0.25380507816E+04  0.50400001928E-02 0.  1.
    10030    2    1    2    0    0  0.00000000000E+00  0.00000000000E+00 -0.10397701579E+04  0.40363314053E+04  0.39001088743E+04 0.  0.
        1    1    3    3  502    0 -0.13355465267E+04  0.12023684920E+04 -0.13035228688E+04  0.22200329694E+04  0.50400001928E-02 0.  1.
       -1    1    3    3    0  502  0.13355465267E+04 -0.12023684920E+04  0.26375271084E+03  0.18162984359E+04  0.50400001928E-02 0. -1.
</event>
<event>
 5   0  0.2904500E-09  0.3903148E+04  0.7818609E-02  0.8024375E-01
       -1   -1    0    0    0  501  0.00000000000E+00  0.00000000000E+00  0.34213352585E+04  0.34213352585E+04  0.50400001928E-02 0.  1.
        1   -1    0    0  501    0  0.00000000000E+00  0.00000000000E+00 -0.11132031340E+04  0.11132031341E+04  0.50400001928E-02 0. -1.
    10030    2    1    2    0    0  0.00000000000E+00  0.00000000000E+00  0.23081321245E+04  0.45345383926E+04  0.39031480282E+04 0.  0.
        2    1    3    3  502    0 -0.36472892240E+03 -0.91437840225E+03  0.31117428531E+04  0.32637491683E+04  0.25500000920E-02 0.  1.
       -2    1    3    3    0  502  0.36472892240E+03  0.91437840225E+03 -0.80361072867E+03  0.12707892243E+04  0.25500000920E-02 0. -1.
</event>
<event>
 5   0  0.9434114E-09  0.3898639E+04  0.7818609E-02  0.8025312E-01
        2   -1    0    0  501    0  0.00000000000E+00  0.00000000000E+00  0.19147549758E+04  0.19147549758E+04  0.25500000920E-02 0.  1.
       -2   -1    0    0    0  501  0.00000000000E+00  0.00000000000E+00 -0.19845083086E+04  0.19845083086E+04  0.25500000920E-02 0. -1.
    10030    2    1    2    0    0  0.00000000000E+00  0.00000000000E+00 -0.69753332768E+02  0.38992632843E+04  0.38986393310E+04 0.  0.
        4    1    3    3  502    0  0.18644046630E+04 -0.53787157699E+03 -0.22074226249E+03  0.19529565638E+04  0.12699999809E+01 0. -1.
       -4    1    3    3    0  502 -0.18644046630E+04  0.53787157699E+03  0.15098892972E+03  0.19463067206E+04  0.12699999809E+01 0.  1.
</event>
<event>
 5   0  0.9434114E-09  0.3901274E+04  0.7818609E-02  0.8024764E-01
        2   -1    0    0  501    0  0.00000000000E+00  0.00000000000E+00  0.30864493606E+04  0.30864493606E+04  0.25500000920E-02 0.  1.
       -2   -1    0    0    0  501  0.00000000000E+00  0.00000000000E+00 -0.12328031072E+04  0.12328031072E+04  0.25500000920E-02 0. -1.
    10030    2    1    2    0    0  0.00000000000E+00  0.00000000000E+00  0.18536462534E+04  0.43192524678E+04  0.39012738238E+04 0.  0.
        4    1    3    3  502    0 -0.94853024044E+03  0.34027249504E+03 -0.92229385245E+03  0.13660609617E+04  0.12699999809E+01 0. -1.
       -4    1    3    3    0  502  0.94853024044E+03 -0.34027249504E+03  0.27759401058E+04  0.29531915061E+04  0.12699999809E+01 0.  1.
</event>
<event>
 5   0  0.2904500E-09  0.3890161E+04  0.7818609E-02  0.8027079E-01
        1   -1    0    0  501    0  0.00000000000E+00  0.00000000000E+00  0.12197640717E+04  0.12197640717E+04  0.50400001928E-02 0.  1.
       -1   -1    0    0    0  501  0.00000000000E+00  0.00000000000E+00 -0.31016972873E+04  0.31016972874E+04  0.50400001928E-02 0. -1.
    10030    2    1    2    0    0  0.00000000000E+00  0.00000000000E+00 -0.18819332156E+04  0.43214613591E+04  0.38901613913E+04 0.  0.
        5    1    3    3  502    0 -0.32264708010E+03  0.17522555495E+04 -0.74192149231E+02  0.17832630804E+04  0.46999998093E+01 0.  1.
       -5    1    3    3    0  502  0.32264708010E+03 -0.17522555495E+04 -0.18077410664E+04  0.25381982787E+04  0.46999998093E+01 0. -1.
</event>
<event>
 5   0  0.9434114E-09  0.3898796E+04  0.7818609E-02  0.8025280E-01
        2   -1    0    0  501    0  0.00000000000E+00  0.00000000000E+00  0.20657509056E+04  0.20657509056E+04  0.25500000920E-02 0.  1.
       -2   -1    0    0    0  501  0.00000000000E+00  0.00000000000E+00 -0.18395985228E+04  0.18395985228E+04  0.25500000920E-02 0. -1.
    10030    2    1    2    0    0  0.00000000000E+00  0.00000000000E+00  0.22615238283E+03  0.39053494285E+04  0.38987958729E+04 0.  0.
        4    1    3    3  502    0  0.18717772479E+04 -0.53604223937E+03  0.20946347361E+03  0.19582563437E+04  0.12699999809E+01 0.  1.
       -4    1    3    3    0  502 -0.18717772479E+04  0.53604223937E+03  0.16688909215E+02  0.19470930847E+04  0.12699999809E+01 0. -1.
</event>
<event>
 5   0  0.2929054E-09  0.3900536E+04  0.7818609E-02  0.8024918E-01
       -1   -1    0    0    0  501  0.00000000000E+00  0.00000000000E+00  0.12340795693E+04  0.12340795693E+04  0.50400001928E-02 0.  1.
        1   -1    0    0  501    0  0.00000000000E+00  0.00000000000E+00 -0.30820904677E+04  0.30820904677E+04  0.50400001928E-02 0. -1.
    10030    2    1    2    0    0  0.00000000000E+00  0.00000000000E+00 -0.18480108984E+04  0.43161700370E+04  0.39005357975E+04 0.  0.
        1    1    3    3  502    0 -0.11038974026E+04 -0.89275829266E+03  0.55561562654E+03  0.15245706180E+04  0.50400001928E-02 0.  1.
       -1    1    3    3    0  502  0.11038974026E+04  0.89275829266E+03 -0.24036265250E+04  0.27915994190E+04  0.50400001928E-02 0. -1.
</event>
<event>
 5   0  0.2904500E-09  0.3899500E+04  0.7818609E-02  0.8025133E-01
        1   -1    0    0  501    0  0.00000000000E+00  0.00000000000E+00  0.25260272925E+04  0.25260272925E+04  0.50400001928E-02 0. -1.
       -1   -1    0    0    0  501  0.00000000000E+00  0.00000000000E+00 -0.15049425499E+04  0.15049425499E+04  0.50400001928E-02 0.  1.
    10030    2    1    2    0    0  0.00000000000E+00  0.00000000000E+00  0.10210847426E+04  0.40309698424E+04  0.38995004576E+04 0.  0.
        5    1    3    3  502    0  0.19289715046E+04  0.24431625368E+02  0.21820783402E+03  0.19414336761E+04  0.46999998093E+01 0.  1.
       -5    1    3    3    0  502 -0.19289715046E+04 -0.24431625368E+02  0.80287690858E+03  0.20895361663E+04  0.46999998093E+01 0. -1.
</event>
<event>
 5   0  0.2904500E-09  0.3901808E+04  0.7818609E-02  0.8024653E-01
       -1   -1    0    0    0  501  0.00000000000E+00  0.00000000000E+00  0.14372597946E+04  0.14372597946E+04  0.50400001928E-02 0.  1.
        1   -1    0    0  501    0  0.00000000000E+00  0.00000000000E+00 -0.26481131426E+04  0.26481131426E+04  0.50400001928E-02 0. -1.
    10030    2    1    2    0    0  0.00000000000E+00  0.00000000000E+00 -0.12108533480E+04  0.40853729371E+04  0.39018080687E+04 0.  0.
        5    1    3    3  502    0  0.12297752523E+04 -0.14248230554E+04 -0.67917063002E+02  0.18833753550E+04  0.46999998093E+01 0.  1.
       -5    1    3    3    0  502 -0.12297752523E+04  0.14248230554E+04 -0.11429362850E+04  0.22019975822E+04  0.46999998093E+01 0. -1.
</event>
<event>
 5   0  0.9368546E-09  0.3900406E+04  0.7818609E-02  0.8024945E-01
        2   -1    0    0  501    0  0.00000000000E+00  0.00000000000E+00  0.13527031583E+04  0.13527031583E+04  0.25500000920E-02 0.  1.
       -2   -1    0    0    0  501  0.00000000000E+00  0.00000000000E+00 -0.28116238957E+04  0.28116238957E+04  0.25500000920E-02 0. -1.
    10030    2    1    2    0    0  0.00000000000E+00  0.00000000000E+00 -0.14589207374E+04  0.41643270540E+04  0.39004064012E+04 0.  0.
        5    1    3    3  502    0 -0.17411185699E+04  0.83271617558E+03 -0.10283309016E+04  0.21868691403E+04  0.46999998093E+01 0.  1.
       -5    1    3    3    0  502  0.17411185699E+04 -0.83271617558E+03 -0.43058983578E+03  0.19774579137E+04  0.46999998093E+01 0. -1.
</event>
<event>
 5   0  0.9368546E-09  0.3891268E+04  0.7818609E-02  0.8026848E-01
        2   -1    0    0  501    0  0.00000000000E+00  0.00000000000E+00  0.21046225731E+04  0.21046225731E+04  0.25500000920E-02 0.  1.
       -2   -1    0    0    0  501  0.00000000000E+00  0.00000000000E+00 -0.17986560150E+04  0.17986560150E+04  0.25500000920E-02 0. -1.
    10030    2    1    2    0    0  0.00000000000E+00  0.00000000000E+00  0.30596655811E+03  0.39032785881E+04  0.38912681996E+04 0.  0.
        5    1    3    3  502    0  0.44880555254E+03  0.16714395640E+04  0.10447341257E+04  0.20215410269E+04  0.46999998093E+01 0.  1.
       -5    1    3    3    0  502 -0.44880555254E+03 -0.16714395640E+04 -0.73876756761E+03  0.18817375612E+04  0.46999998093E+01 0. -1.
</event>
<event>
 5   0  0.6335942E-09  0.3900994E+04  0.7818609E-02  0.8024823E-01
        2   -1    0    0  501    0  0.00000000000E+00  0.00000000000E+00  0.19801386393E+04  0.19801386393E+04  0.25500000920E-02 0.  1.
       -2   -1    0    0    0  501  0.00000000000E+00  0.00000000000E+00 -0.19212989192E+04  0.19212989192E+04  0.25500000920E-02 0. -1.
    10030    2    1    2    0    0  0.00000000000E+00  0.00000000000E+00  0.58839720069E+02  0.39014375585E+04  0.39009938362E+04 0.  0.
        2    1    3    3  502    0  0.87133663988E+03  0.72364598002E+03  0.16175385103E+04  0.19746700678E+04  0.25500000920E-02 0.  1.
       -2    1    3    3    0  502 -0.87133663988E+03 -0.72364598002E+03 -0.15586987902E+04  0.19267674907E+04  0.25500000920E-02 0. -1.
</event>
<event>
 5   0  0.2929054E-09  0.3898154E+04  0.7818609E-02  0.8025413E-01
        1   -1    0    0  501    0  0.00000000000E+00  0.00000000000E+00  0.18518562463E+04  0.18518562463E+04  0.50400001928E-02 0.  1.
       -1   -1    0    0    0  501  0.00000000000E+00  0.00000000000E+00 -0.20514015100E+04  0.20514015100E+04  0.50400001928E-02 0. -1.
    10030    2    1    2    0    0  0.00000000000E+00  0.00000000000E+00 -0.19954526372E+03  0.39032577563E+04  0.38981537681E+04 0.  0.
        1    1    3    3  502    0 -0.14514478119E+04  0.12870653602E+04  0.89320355954E+02  0.19419619249E+04  0.50400001928E-02 0.  1.
       -1    1    3    3    0  502  0.14514478119E+04 -0.12870653602E+04 -0.28886561968E+03  0.19612958314E+04  0.50400001928E-02 0. -1.
</event>
<event>
 5   0  0.9368546E-09  0.3900245E+04  0.7818609E-02  0.8024978E-01
       -2   -1    0    0    0  501  0.00000000000E+00  0.00000000000E+00  0.27980753720E+04  0.27980753720E+04  0.25500000920E-02 0. -1.
        2   -1    0    0  501    0  0.00000000000E+00  0.00000000000E+00 -0.13591402414E+04  0.13591402414E+04  0.25500000920E-02 0.  1.
    10030    2    1    2    0    0  0.00000000000E+00  0.00000000000E+00  0.14389351306E+04  0.41572156134E+04  0.39002445239E+04 0.  0.
        5    1    3    3  502    0  0.10232211261E+04 -0.16569146242E+04  0.82924450752E+03  0.21166048493E+04  0.46999998093E+01 0. -1.
       -5    1    3    3    0  502 -0.10232211261E+04  0.16569146242E+04  0.60969062311E+03  0.20406107641E+04  0.46999998093E+01 0.  1.
</event>
<event>
 5   0  0.2904500E-09  0.3899045E+04  0.7818609E-02  0.8025228E-01
        1   -1    0    0  501    0  0.00000000000E+00  0.00000000000E+00  0.23734610789E+04  0.23734610789E+04  0.50400001928E-02 0.  1.
       -1   -1    0    0    0  501  0.00000000000E+00  0.00000000000E+00 -0.16013061823E+04  0.16013061823E+04  0.50400001928E-02 0. -1.
    10030    2    1    2    0    0  0.00000000000E+00  0.00000000000E+00  0.77215489659E+03  0.39747672612E+04  0.38990449596E+04 0.  0.
        3    1    3    3  502    0  0.13177740756E+04  0.13653621996E+04  0.84185706954E+03  0.20759252843E+04  0.10100000352E+00 0.  1.
       -3    1    3    3    0  502 -0.13177740756E+04 -0.13653621996E+04 -0.69702172950E+02  0.18988419769E+04  0.10100000352E+00 0. -1.
</event>
<event>
 5   0  0.9078515E-09  0.3902495E+04  0.7818609E-02  0.8024510E-01
       -2   -1    0    0    0  501  0.00000000000E+00  0.00000000000E+00  0.16185116326E+04  0.16185116326E+04  0.25500000920E-02 0.  1.
        2   -1    0    0  501    0  0.00000000000E+00  0.00000000000E+00 -0.23523880870E+04  0.23523880870E+04  0.25500000920E-02 0. -1.
    10030    2    1    2    0    0  0.00000000000E+00  0.00000000000E+00 -0.73387645442E+03  0.39708997196E+04  0.39024953469E+04 0.  0.
        3    1    3    3  502    0  0.10464114538E+04 -0.10517609125E+04  0.92263176995E+03  0.17471197271E+04  0.10100000352E+00 0.  1.
       -3    1    3    3    0  502 -0.10464114538E+04  0.10517609125E+04 -0.16565082244E+04  0.22237799925E+04  0.10100000352E+00 0. -1.
</event>
<event>
 5   0  0.9078515E-09  0.3898894E+04  0.7818609E-02  0.8025259E-01
        2   -1    0    0  501    0  0.00000000000E+00  0.00000000000E+00  0.24217526429E+04  0.24217526429E+04  0.25500000920E-02 0.  1.
       -2   -1    0    0    0  501  0.00000000000E+00  0.00000000000E+00 -0.15692535103E+04  0.15692535103E+04  0.25500000920E-02 0. -1.
    10030    2    1    2    0    0  0.00000000000E+00  0.00000000000E+00  0.85249913266E+03  0.39910061532E+04  0.38988941180E+04 0.  0.
        3    1    3    3  502    0 -0.14248569543E+04  0.10447329134E+04 -0.41702104022E+03  0.18153762030E+04  0.10100000352E+00 0. -1.
       -3    1    3    3    0  502  0.14248569543E+04 -0.10447329134E+04  0.12695201729E+04  0.21756299501E+04  0.10100000352E+00 0.  1.
</event>
<event>
 5   0  0.2904500E-09  0.3899499E+04  0.7818609E-02  0.8025133E-01
        1   -1    0    0  501    0  0.00000000000E+00  0.00000000000E+00  0.24607854116E+04  0.24607854116E+04  0.50400001928E-02 0.  1.
       -1   -1    0    0    0  501  0.00000000000E+00  0.00000000000E+00 -0.15448417447E+04  0.15448417447E+04  0.50400001928E-02 0. -1.
    10030    2    1    2    0    0  0.00000000000E+00  0.00000000000E+00  0.91594366688E+03  0.40056271563E+04  0.38994994697E+04 0.  0.
        4    1    3    3  502    0 -0.43852399018E+03 -0.17006482504E+04 -0.41184072342E+03  0.18039185558E+04  0.12699999809E+01 0. -1.
       -4    1    3    3    0  502  0.43852399018E+03  0.17006482504E+04  0.13277843903E+04  0.22017086005E+04  0.12699999809E+01 0.  1.
</event>
<event>
 5   0  0.9078515E-09  0.3897967E+04  0.7818609E-02  0.8025452E-01
        2   -1    0    0  501    0  0.00000000000E+00  0.00000000000E+00  0.17935623168E+04  0.17935623168E+04  0.25500000920E-02 0.  1.
       -2   -1    0    0    0  501  0.00000000000E+00  0.00000000000E+00 -0.21178727031E+04  0.21178727031E+04  0.25500000920E-02 0. -1.
    10030    2    1    2    0    0  0.00000000000E+00  0.00000000000E+00 -0.32431038631E+03  0.39114350199E+04  0.38979669942E+04 0.  0.
        3    1    3    3  502    0 -0.71343949292E+03  0.16150901129E+04 -0.99024871538E+03  0.20243775615E+04  0.10100000352E+00 0. -1.
       -3    1    3    3    0  502  0.71343949292E+03 -0.16150901129E+04  0.66593832907E+03  0.18870574584E+04  0.10100000352E+00 0.  1.
</event>
<event>
 5   0  0.6335942E-09  0.3915776E+04  0.7818609E-02  0.8021756E-01
        2   -1    0    0  501    0  0.00000000000E+00  0.00000000000E+00  0.14273265585E+04  0.14273265586E+04  0.25500000920E-02 0.  1.
       -2   -1    0    0    0  501  0.00000000000E+00  0.00000000000E+00 -0.26856675789E+04  0.26856675789E+04  0.25500000920E-02 0. -1.
    10030    2    1    2    0    0  0.00000000000E+00  0.00000000000E+00 -0.12583410203E+04  0.41129941374E+04  0.39157756130E+04 0.  0.
        2    1    3    3  502    0  0.44096208007E+03  0.11605550869E+04 -0.22193515003E+04  0.25430015233E+04  0.25500000920E-02 0. -1.
       -2    1    3    3    0  502 -0.44096208007E+03 -0.11605550869E+04  0.96101047995E+03  0.15699926141E+04  0.25500000920E-02 0.  1.
</event>
<event>
 5   0  0.9434114E-09  0.3902945E+04  0.7818609E-02  0.8024417E-01
       -2   -1    0    0    0  501  0.00000000000E+00  0.00000000000E+00  0.11966609511E+04  0.11966609511E+04  0.25500000920E-02 0. -1.
        2   -1    0    0  501    0  0.00000000000E+00  0.00000000000E+00 -0.31823932820E+04  0.31823932820E+04  0.25500000920E-02 0.  1.
    10030    2    1    2    0    0  0.00000000000E+00  0.00000000000E+00 -0.19857323310E+04  0.43790542331E+04  0.39029454373E+04 0.  0.
        4    1    3    3  502    0 -0.10610588054E+04  0.15686453475E+04 -0.15212138387E+04  0.24291124244E+04  0.12699999809E+01 0. -1.
       -4    1    3    3    0  502  0.10610588054E+04 -0.15686453475E+04 -0.46451849225E+03  0.19499418087E+04  0.12699999809E+01 0.  1.
</event>
<event>
 5   0  0.9078515E-09  0.3900603E+04  0.7818609E-02  0.8024904E-01
        2   -1    0    0  501    0  0.00000000000E+00  0.00000000000E+00  0.20046790068E+04  0.20046790068E+04  0.25500000920E-02 0. -1.
       -2   -1    0    0    0  501  0.00000000000E+00  0.00000000000E+00 -0.18973985210E+04  0.18973985210E+04  0.25500000920E-02 0.  1.
    10030    2    1    2    0    0  0.00000000000E+00  0.00000000000E+00  0.10728048573E+03  0.39020775278E+04  0.39006025086E+04 0.  0.
        3    1    3    3  502    0  0.17793493912E+04  0.79721892255E+03  0.98742832180E+02  0.19522787771E+04  0.10100000352E+00 0.  1.
       -3    1    3    3    0  502 -0.17793493912E+04 -0.79721892255E+03  0.85376535497E+01  0.19497987507E+04  0.10100000352E+00 0. -1.
</event>
<event>
 5   0  0.9277261E-09  0.3895803E+04  0.7818609E-02  0.8025903E-01
        2   -1    0    0  501    0  0.00000000000E+00  0.00000000000E+00  0.22301244502E+04  0.22301244502E+04  0.25500000920E-02 0.  1.
       -2   -1    0    0    0  501  0.00000000000E+00  0.00000000000E+00 -0.17013936859E+04  0.17013936859E+04  0.25500000920E-02 0. -1.
    10030    2    1    2    0    0  0.00000000000E+00  0.00000000000E+00  0.52873076434E+03  0.39315181360E+04  0.38958026943E+04 0.  0.
        1    1    3    3  502    0 -0.16440098832E+04  0.43180708749E+03 -0.69572059181E+03  0.18366417720E+04  0.50400001928E-02 0. -1.
       -1    1    3    3    0  502  0.16440098832E+04 -0.43180708749E+03  0.12244513562E+04  0.20948763640E+04  0.50400001928E-02 0.  1.
</event>
<event>
 5   0  0.9434114E-09  0.3899121E+04  0.7818609E-02  0.8025212E-01
       -2   -1    0    0    0  501  0.00000000000E+00  0.00000000000E+00  0.20406964064E+04  0.20406964064E+04  0.25500000920E-02 0. -1.
        2   -1    0    0  501    0  0.00000000000E+00  0.00000000000E+00 -0.18624947454E+04  0.18624947454E+04  0.25500000920E-02 0.  1.
    10030    2    1    2    0    0  0.00000000000E+00  0.00000000000E+00  0.17820166102E+03  0.39031911517E+04  0.38991210978E+04 0.  0.
        4    1    3    3  502    0  0.77626108005E+03  0.82250263130E+03  0.16787423333E+04  0.20241712570E+04  0.12699999809E+01 0. -1.
       -4    1    3    3    0  502 -0.77626108005E+03 -0.82250263130E+03 -0.15005406723E+04  0.18790198948E+04  0.12699999809E+01 0.  1.
</event>
<event>
 5   0  0.2929054E-09  0.3898405E+04  0.7818609E-02  0.8025361E-01
       -1   -1    0    0    0  501  0.00000000000E+00  0.00000000000E+00  0.22771147481E+04  0.22771147481E+04  0.50400001928E-02 0. -1.
        1   -1    0    0  501    0  0.00000000000E+00  0.00000000000E+00 -0.16685107590E+04  0.16685107591E+04  0.50400001928E-02 0.  1.
    10030    2    1    2    0    0  0.00000000000E+00  0.00000000000E+00  0.60860398903E+03  0.39456255071E+04  0.38984050363E+04 0.  0.
        1    1    3    3  502    0  0.14992032859E+04 -0.10905984886E+04 -0.30496542920E+03  0.18788346039E+04  0.50400001928E-02 0.  1.
       -1    1    3    3    0  502 -0.14992032859E+04  0.10905984886E+04  0.91356941823E+03  0.20667909032E+04  0.50400001928E-02 0. -1.
</event>
<event>
 5   0  0.9368546E-09  0.3901313E+04  0.7818609E-02  0.8024756E-01
       -2   -1    0    0    0  501  0.00000000000E+00  0.00000000000E+00  0.17317842657E+04  0.17317842657E+04  0.25500000920E-02 0.  1.
        2   -1    0    0  501    0  0.00000000000E+00  0.00000000000E+00 -0.21971910749E+04  0.21971910749E+04  0.25500000920E-02 0. -1.
    10030    2    1    2    0    0  0.00000000000E+00  0.00000000000E+00 -0.46540680926E+03  0.39289753406E+04  0.39013130775E+04 0.  0.
        5    1    3    3  502    0  0.48315333397E+03  0.16518385286E+04 -0.11573809611E+04  0.20740203586E+04  0.46999998093E+01 0. -1.
       -5    1    3    3    0  502 -0.48315333397E+03 -0.16518385286E+04  0.69197415186E+03  0.18549549820E+04  0.46999998093E+01 0.  1.
</event>
<event>
 5   0  0.9434114E-09  0.3899368E+04  0.7818609E-02  0.8025161E-01
        2   -1    0    0  501    0  0.00000000000E+00  0.00000000000E+00  0.17104948488E+04  0.17104948488E+04  0.25500000920E-02 0. -1.
       -2   -1    0    0    0  501  0.00000000000E+00  0.00000000000E+00 -0.22223203517E+04  0.22223203517E+04  0.25500000920E-02 0.  1.
    10030    2    1    2    0    0  0.00000000000E+00  0.00000000000E+00 -0.51182550285E+03  0.39328152005E+04  0.38993679047E+04 0.  0.
        4    1    3    3  502    0 -0.45368898645E+03 -0.57267055098E+03 -0.20790352009E+04  0.22036728967E+04  0.12699999809E+01 0.  1.
       -4    1    3    3    0  502  0.45368898645E+03  0.57267055098E+03  0.15672096980E+04  0.17291423038E+04  0.12699999809E+01 0. -1.
</event>
<event>
 5   0  0.2904500E-09  0.3913648E+04  0.7818609E-02  0.8022197E-01
        1   -1    0    0  501    0  0.00000000000E+00  0.00000000000E+00  0.18193342988E+04  0.18193342988E+04  0.50400001928E-02 0.  1.
       -1   -1    0    0    0  501  0.00000000000E+00  0.00000000000E+00 -0.21047042416E+04  0.21047042416E+04  0.50400001928E-02 0. -1.
    10030    2    1    2    0    0  0.00000000000E+00  0.00000000000E+00 -0.28536994286E+03  0.39240385404E+04  0.39136482292E+04 0.  0.
        3    1    3    3  502    0  0.15931515620E+04  0.10706867498E+03 -0.12768667188E+04  0.20445009729E+04  0.10100000352E+00 0. -1.
       -3    1    3    3    0  502 -0.15931515620E+04 -0.10706867498E+03  0.99149677595E+03  0.18795375675E+04  0.10100000352E+00 0.  1.
</event>
<event>
 5   0  0.9078515E-09  0.3898944E+04  0.7818609E-02  0.8025249E-01
        2   -1    0    0  501    0  0.00000000000E+00  0.00000000000E+00  0.26087583464E+04  0.26087583464E+04  0.25500000920E-02 0. -1.
       -2   -1    0    0    0  501  0.00000000000E+00  0.00000000000E+00 -0.14568004173E+04  0.14568004173E+04  0.25500000920E-02 0.  1.
    10030    2    1    2    0    0  0.00000000000E+00  0.00000000000E+00  0.11519579291E+04  0.40655587637E+04  0.38989435737E+04 0.  0.
        3    1    3    3  502    0  0.95822960645E+03  0.14187609998E+04 -0.39625657456E+03  0.17573007814E+04  0.10100000352E+00 0. -1.
       -3    1    3    3    0  502 -0.95822960645E+03 -0.14187609998E+04  0.15482145037E+04  0.23082579823E+04  0.10100000352E+00 0.  1.
</event>
<event>
 5   0  0.2904500E-09  0.3900662E+04  0.7818609E-02  0.8024891E-01
        1   -1    0    0  501    0  0.00000000000E+00  0.00000000000E+00  0.22155486101E+04  0.22155486101E+04  0.50400001928E-02 0.  1.
       -1   -1    0    0    0  501  0.00000000000E+00  0.00000000000E+00 -0.17168620855E+04  0.17168620856E+04  0.50400001928E-02 0. -1.
    10030    2    1    2    0    0  0.00000000000E+00  0.00000000000E+00  0.49868652456E+03  0.39324106957E+04  0.39006622040E+04 0.  0.
        3    1    3    3  502    0 -0.67292365656E+03  0.62613193293E+03  0.19834963287E+04  0.21861210262E+04  0.10100000352E+00 0.  1.
       -3    1    3    3    0  502  0.67292365656E+03 -0.62613193293E+03 -0.14848098041E+04  0.17462896695E+04  0.10100000352E+00 0. -1.
</event>
<event>
 5   0  0.6335942E-09  0.3899622E+04  0.7818609E-02  0.8025108E-01
        2   -1    0    0  501    0  0.00000000000E+00  0.00000000000E+00  0.12252011915E+04  0.12252011915E+04  0.25500000920E-02 0.  1.
       -2   -1    0    0    0  501  0.00000000000E+00  0.00000000000E+00 -0.31029707757E+04  0.31029707757E+04  0.25500000920E-02 0. -1.
    10030    2    1    2    0    0  0.00000000000E+00  0.00000000000E+00 -0.18777695842E+04  0.43281719671E+04  0.38996222850E+04 0.  0.
        2    1    3    3  502    0 -0.17674203583E+04  0.32317584589E+03 -0.98329773693E+02  0.17994127083E+04  0.25500000920E-02 0.  1.
       -2    1    3    3    0  502  0.17674203583E+04 -0.32317584589E+03 -0.17794398105E+04  0.25287592589E+04  0.25500000920E-02 0. -1.
</event>
<event>
 5   0  0.2904500E-09  0.3900149E+04  0.7818609E-02  0.8024998E-01
        1   -1    0    0  501    0  0.00000000000E+00  0.00000000000E+00  0.18023736580E+04  0.18023736580E+04  0.50400001928E-02 0.  1.
       -1   -1    0    0    0  501  0.00000000000E+00  0.00000000000E+00 -0.21098793360E+04  0.21098793360E+04  0.50400001928E-02 0. -1.
    10030    2    1    2    0    0  0.00000000000E+00  0.00000000000E+00 -0.30750567793E+03  0.39122529940E+04  0.39001491955E+04 0.  0.
        2    1    3    3  502    0 -0.72574372238E+03 -0.46815450208E+01 -0.19693603487E+04  0.20988344504E+04  0.25500000920E-02 0. -1.
       -2    1    3    3    0  502  0.72574372238E+03  0.46815450208E+01  0.16618546707E+04  0.18134185436E+04  0.25500000920E-02 0.  1.
</event>
<event>
 5   0  0.2904500E-09  0.3898917E+04  0.7818609E-02  0.8025254E-01
       -1   -1    0    0    0  501  0.00000000000E+00  0.00000000000E+00  0.12569074454E+04  0.12569074454E+04  0.50400001928E-02 0.  1.
        1   -1    0    0  501    0  0.00000000000E+00  0.00000000000E+00 -0.30236027022E+04  0.30236027022E+04  0.50400001928E-02 0. -1.
    10030    2    1    2    0    0  0.00000000000E+00  0.00000000000E+00 -0.17666952568E+04  0.42805101476E+04  0.38989171565E+04 0.  0.
        5    1    3    3  502    0  0.47256087847E+03  0.31462736183E+03 -0.29308302028E+04  0.29853127019E+04  0.46999998093E+01 0. -1.
       -5    1    3    3    0  502 -0.47256087847E+03 -0.31462736183E+03  0.11641349460E+04  0.12951974456E+04  0.46999998093E+01 0.  1.
</event>
<event>
 5   0  0.2929054E-09  0.3897926E+04  0.7818609E-02  0.8025461E-01
       -1   -1    0    0    0  501  0.00000000000E+00  0.00000000000E+00  0.19095255898E+04  0.19095255898E+04  0.50400001928E-02 0. -1.
        1   -1    0    0  501    0  0.00000000000E+00  0.00000000000E+00 -0.19892151549E+04  0.19892151549E+04  0.50400001928E-02 0.  1.
    10030    2    1    2    0    0  0.00000000000E+00  0.00000000000E+00 -0.79689565133E+02  0.38987407448E+04  0.38979262394E+04 0.  0.
        1    1    3    3  502    0  0.10173009836E+03  0.72174333003E+03 -0.18477608078E+04  0.19863238533E+04  0.50400001928E-02 0.  1.
       -1    1    3    3    0  502 -0.10173009836E+03 -0.72174333003E+03  0.17680712427E+04  0.19124168914E+04  0.50400001928E-02 0. -1.
</event>
<event>
 5   0  0.2904500E-09  0.3901068E+04  0.7818609E-02  0.8024807E-01
       -1   -1    0    0    0  501  0.00000000000E+00  0.00000000000E+00  0.32876707216E+04  0.32876707216E+04  0.50400001928E-02 0. -1.
        1   -1    0    0  501    0  0.00000000000E+00  0.00000000000E+00 -0.11572272235E+04  0.11572272236E+04  0.50400001928E-02 0.  1.
    10030    2    1    2    0    0  0.00000000000E+00  0.00000000000E+00  0.21304434981E+04  0.44448979452E+04  0.39010675775E+04 0.  0.
        2    1    3    3  502    0 -0.17503033882E+04  0.85954854893E+03  0.10118226063E+04  0.21968547164E+04  0.25500000920E-02 0.  1.
       -2    1    3    3    0  502  0.17503033882E+04 -0.85954854893E+03  0.11186208918E+04  0.22480432287E+04  0.25500000920E-02 0. -1.
</event>
<event>
 5   0  0.9277261E-09  0.3900052E+04  0.7818609E-02  0.8025018E-01
       -2   -1    0    0    0  501  0.00000000000E+00  0.00000000000E+00  0.12237120518E+04  0.12237120518E+04  0.25500000920E-02 0.  1.
        2   -1    0    0  501    0  0.00000000000E+00  0.00000000000E+00 -0.31074310551E+04  0.31074310551E+04  0.25500000920E-02 0. -1.
    10030    2    1    2    0    0  0.00000000000E+00  0.00000000000E+00 -0.18837190032E+04  0.43311431069E+04  0.39000517085E+04 0.  0.
        1    1    3    3  502    0 -0.15399588550E+04 -0.61611651911E+03 -0.20806467295E+04  0.26608576913E+04  0.50400001928E-02 0. -1.
       -1    1    3    3    0  502  0.15399588550E+04  0.61611651911E+03  0.19692772629E+03  0.16702854156E+04  0.50400001928E-02 0.  1.
</event>
<event>
 5   0  0.9434114E-09  0.3901308E+04  0.7818609E-02  0.8024757E-01
       -2   -1    0    0    0  501  0.00000000000E+00  0.00000000000E+00  0.16039590942E+04  0.16039590942E+04  0.25500000920E-02 0.  1.
        2   -1    0    0  501    0  0.00000000000E+00  0.00000000000E+00 -0.23722874264E+04  0.23722874264E+04  0.25500000920E-02 0. -1.
    10030    2    1    2    0    0  0.00000000000E+00  0.00000000000E+00 -0.76832833219E+03  0.39762465206E+04  0.39013084942E+04 0.  0.
        4    1    3    3  502    0  0.11296938170E+03  0.15601609306E+04  0.80363402740E+03  0.17586055480E+04  0.12699999809E+01 0.  1.
       -4    1    3    3    0  502 -0.11296938170E+03 -0.15601609306E+04 -0.15719623596E+04  0.22176409726E+04  0.12699999809E+01 0. -1.
</event>
<event>
 5   0  0.9368546E-09  0.3893367E+04  0.7818609E-02  0.8026410E-01
       -2   -1    0    0    0  501  0.00000000000E+00  0.00000000000E+00  0.29376955860E+04  0.29376955860E+04  0.25500000920E-02 0.  1.
        2   -1    0    0  501    0  0.00000000000E+00  0.00000000000E+00 -0.12899829977E+04  0.12899829977E+04  0.25500000920E-02 0. -1.
    10030    2    1    2    0    0  0.00000000000E+00  0.00000000000E+00  0.16477125883E+04  0.42276785838E+04  0.38933673644E+04 0.  0.
        5    1    3    3  502    0  0.43066030312E+03 -0.13775681985E+04 -0.59460041771E+03  0.15610042232E+04  0.46999998093E+01 0. -1.
       -5    1    3    3    0  502 -0.43066030312E+03  0.13775681985E+04  0.22423130060E+04  0.26666743605E+04  0.46999998093E+01 0.  1.
</event>
<event>
 5   0  0.2904500E-09  0.3899775E+04  0.7818609E-02  0.8025076E-01
       -1   -1    0    0    0  501  0.00000000000E+00  0.00000000000E+00  0.27134468844E+04  0.27134468844E+04  0.50400001928E-02 0.  1.
        1   -1    0    0  501    0  0.00000000000E+00  0.00000000000E+00 -0.14011921150E+04  0.14011921150E+04  0.50400001928E-02 0. -1.
    10030    2    1    2    0    0  0.00000000000E+00  0.00000000000E+00  0.13122547694E+04  0.41146389994E+04  0.38997745467E+04 0.  0.
        2    1    3    3  502    0  0.16456209447E+04 -0.93595966823E+03  0.16352991284E+03  0.19002186260E+04  0.25500000920E-02 0.  1.
       -2    1    3    3    0  502 -0.16456209447E+04  0.93595966823E+03  0.11487248566E+04  0.22144203734E+04  0.25500000920E-02 0. -1.
</event>
<event>
 5   0  0.2904500E-09  0.3895238E+04  0.7818609E-02  0.8026020E-01
        1   -1    0    0  501    0  0.00000000000E+00  0.00000000000E+00  0.26119343547E+04  0.26119343547E+04  0.50400001928E-02 0.  1.
       -1   -1    0    0    0  501  0.00000000000E+00  0.00000000000E+00 -0.14522642826E+04  0.14522642826E+04  0.50400001928E-02 0. -1.
    10030    2    1    2    0    0  0.00000000000E+00  0.00000000000E+00  0.11596700721E+04  0.40641986373E+04  0.38952375906E+04 0.  0.
        3    1    3    3  502    0  0.13168639513E+04  0.83390114738E+03 -0.63859316715E+03  0.16844355236E+04  0.10100000352E+00 0. -1.
       -3    1    3    3    0  502 -0.13168639513E+04 -0.83390114738E+03  0.17982632392E+04  0.23797631137E+04  0.10100000352E+00 0.  1.
</event>
<event>
 5   0  0.2904500E-09  0.3902510E+04  0.7818609E-02  0.8024507E-01
        1   -1    0    0  501    0  0.00000000000E+00  0.00000000000E+00  0.12999894369E+04  0.12999894369E+04  0.50400001928E-02 0. -1.
       -1   -1    0    0    0  501  0.00000000000E+00  0.00000000000E+00 -0.29287898488E+04  0.29287898488E+04  0.50400001928E-02 0.  1.
    10030    2    1    2    0    0  0.00000000000E+00  0.00000000000E+00 -0.16288004119E+04  0.42287792858E+04  0.39025098931E+04 0.  0.
        4    1    3    3  502    0 -0.11227653330E+03  0.19113172524E+04 -0.12222369378E+04  0.22714762610E+04  0.12699999809E+01 0.  1.
       -4    1    3    3    0  502  0.11227653330E+03 -0.19113172524E+04 -0.40656347405E+03  0.19573030247E+04  0.12699999809E+01 0. -1.
</event>
<event>
 5   0  0.6335942E-09  0.3899985E+04  0.7818609E-02  0.8025032E-01
        2   -1    0    0  501    0  0.00000000000E+00  0.00000000000E+00  0.30315134582E+04  0.30315134582E+04  0.25500000920E-02 0.  1.
       -2   -1    0    0    0  501  0.00000000000E+00  0.00000000000E+00 -0.12543146305E+04  0.12543146305E+04  0.25500000920E-02 0. -1.
    10030    2    1    2    0    0  0.00000000000E+00  0.00000000000E+00  0.17771988278E+04  0.42858280887E+04  0.38999854785E+04 0.  0.
        2    1    3    3  502    0  0.10986414895E+03  0.14616138134E+04  0.23019531790E+04  0.27289876345E+04  0.25500000920E-02 0.  1.
       -2    1    3    3    0  502 -0.10986414895E+03 -0.14616138134E+04 -0.52475435128E+03  0.15568404542E+04  0.25500000920E-02 0. -1.
</event>
<event>
 5   0  0.9277261E-09  0.3893839E+04  0.7818609E-02  0.8026312E-01
       -2   -1    0    0    0  501  0.00000000000E+00  0.00000000000E+00  0.18397034317E+04  0.18397034317E+04  0.25500000920E-02 0. -1.
        2   -1    0    0  501    0  0.00000000000E+00  0.00000000000E+00 -0.20603835761E+04  0.20603835761E+04  0.25500000920E-02 0.  1.
    10030    2    1    2    0    0  0.00000000000E+00  0.00000000000E+00 -0.22068014436E+03  0.39000870078E+04  0.38938385871E+04 0.  0.
        1    1    3    3  502    0 -0.11665981015E+04 -0.14887708878E+04  0.35203351482E+03  0.19238808389E+04  0.50400001928E-02 0.  1.
       -1    1    3    3    0  502  0.11665981015E+04  0.14887708878E+04 -0.57271365918E+03  0.19762061689E+04  0.50400001928E-02 0. -1.
</event>
<event>
 5   0  0.2904500E-09  0.3899512E+04  0.7818609E-02  0.8025131E-01
        3   -1    0    0  501    0  0.00000000000E+00  0.00000000000E+00  0.17451737300E+04  0.17451737329E+04  0.10100000352E+00 0.  1.
       -3   -1    0    0    0  501  0.00000000000E+00  0.00000000000E+00 -0.21783208822E+04  0.21783208846E+04  0.10100000352E+00 0. -1.
    10030    2    1    2    0    0  0.00000000000E+00  0.00000000000E+00 -0.43314715225E+03  0.39234946174E+04  0.38995119640E+04 0.  0.
        5    1    3    3  502    0  0.16145751811E+04  0.10070832062E+04  0.21084098082E+03  0.19145614665E+04  0.46999998093E+01 0. -1.
       -5    1    3    3    0  502 -0.16145751811E+04 -0.10070832062E+04 -0.64398813308E+03  0.20089331510E+04  0.46999998093E+01 0.  1.
</event>
<event>
 5   0  0.2929054E-09  0.3899869E+04  0.7818609E-02  0.8025057E-01
        1   -1    0    0  501    0  0.00000000000E+00  0.00000000000E+00  0.11542714856E+04  0.11542714856E+04  0.50400001928E-02 0.  1.
       -1   -1    0    0    0  501  0.00000000000E+00  0.00000000000E+00 -0.32940637792E+04  0.32940637792E+04  0.50400001928E-02 0. -1.
    10030    2    1    2    0    0  0.00000000000E+00  0.00000000000E+00 -0.21397922937E+04  0.44483352648E+04  0.38998686604E+04 0.  0.
        1    1    3    3  502    0 -0.10552358779E+04  0.53532983274E+03 -0.28377524813E+04  0.30745633728E+04  0.50400001928E-02 0. -1.
       -1    1    3    3    0  502  0.10552358779E+04 -0.53532983274E+03  0.69796018766E+03  0.13737718921E+04  0.50400001928E-02 0.  1.
</event>
<event>
 5   0  0.6335942E-09  0.3902001E+04  0.7818609E-02  0.8024613E-01
       -2   -1    0    0    0  501  0.00000000000E+00  0.00000000000E+00  0.21176133111E+04  0.21176133111E+04  0.25500000920E-02 0. -1.
        2   -1    0    0  501    0  0.00000000000E+00  0.00000000000E+00 -0.17974967789E+04  0.17974967789E+04  0.25500000920E-02 0.  1.
    10030    2    1    2    0    0  0.00000000000E+00  0.00000000000E+00  0.32011653224E+03  0.39151100900E+04  0.39020010793E+04 0.  0.
        2    1    3    3  502    0  0.17052119662E+04  0.31806552451E+03 -0.73596461795E+03  0.18842922933E+04  0.25500000920E-02 0.  1.
       -2    1    3    3    0  502 -0.17052119662E+04 -0.31806552451E+03  0.10560811502E+04  0.20308177967E+04  0.25500000920E-02 0. -1.
</event>
<event>
 5   0  0.2929054E-09  0.3899680E+04  0.7818609E-02  0.8025096E-01
       -1   -1    0    0    0  501  0.00000000000E+00  0.00000000000E+00  0.19691457482E+04  0.19691457482E+04  0.50400001928E-02 0.  1.
        1   -1    0    0  501    0  0.00000000000E+00  0.00000000000E+00 -0.19307237902E+04  0.19307237902E+04  0.50400001928E-02 0. -1.
    10030    2    1    2    0    0  0.00000000000E+00  0.00000000000E+00  0.38421958010E+02  0.38998695384E+04  0.38996802650E+04 0.  0.
        1    1    3    3  502    0  0.68279175400E+03 -0.55123497441E+03  0.17605054041E+04  0.19670901998E+04  0.50400001928E-02 0.  1.
       -1    1    3    3    0  502 -0.68279175400E+03  0.55123497441E+03 -0.17220834461E+04  0.19327793386E+04  0.50400001928E-02 0. -1.
</event>
<event>
 5   0  0.9277261E-09  0.3898249E+04  0.7818609E-02  0.8025393E-01
       -2   -1    0    0    0  501  0.00000000000E+00  0.00000000000E+00  0.27105363930E+04  0.27105363930E+04  0.25500000920E-02 0.  1.
        2   -1    0    0  501    0  0.00000000000E+00  0.00000000000E+00 -0.14015998048E+04  0.14015998048E+04  0.25500000920E-02 0. -1.
    10030    2    1    2    0    0  0.00000000000E+00  0.00000000000E+00  0.13089365882E+04  0.41121361978E+04  0.38982494940E+04 0.  0.
        1    1    3    3  502    0 -0.50528068977E+02 -0.31315710629E+03 -0.13741891677E+04  0.14103249015E+04  0.50400001928E-02 0. -1.
       -1    1    3    3    0  502  0.50528068977E+02  0.31315710629E+03  0.26831257559E+04  0.27018112964E+04  0.50400001928E-02 0.  1.
</event>
<event>
 5   0  0.2904500E-09  0.3901532E+04  0.7818609E-02  0.8024711E-01
       -1   -1    0    0    0  501  0.00000000000E+00  0.00000000000E+00  0.28306850166E+04  0.28306850166E+04  0.50400001928E-02 0.  1.
        1   -1    0    0  501    0  0.00000000000E+00  0.00000000000E+00 -0.13443699921E+04  0.13443699921E+04  0.50400001928E-02 0. -1.
    10030    2    1    2    0    0  0.00000000000E+00  0.00000000000E+00  0.14863150244E+04  0.41750550087E+04  0.39015320034E+04 0.  0.
        3    1    3    3  502    0 -0.66116712540E+03  0.20432611237E+03 -0.12086056398E+04  0.13927019533E+04  0.10100000352E+00 0. -1.
       -3    1    3    3    0  502  0.66116712540E+03 -0.20432611237E+03  0.26949206643E+04  0.27823530554E+04  0.10100000352E+00 0.  1.
</event>
<event>
 5   0  0.9368546E-09  0.3886221E+04  0.7818609E-02  0.8027901E-01
       -2   -1    0    0    0  501  0.00000000000E+00  0.00000000000E+00  0.23286431947E+04  0.23286431947E+04  0.25500000920E-02 0. -1.
        2   -1    0    0  501    0  0.00000000000E+00  0.00000000000E+00 -0.16214066659E+04  0.16214066659E+04  0.25500000920E-02 0.  1.
    10030    2    1    2    0    0  0.00000000000E+00  0.00000000000E+00  0.70723652879E+03  0.39500498605E+04  0.38862205796E+04 0.  0.
        5    1    3    3  502    0 -0.97738834469E+03 -0.49768031462E+03  0.19839206744E+04  0.22669223640E+04  0.46999998093E+01 0. -1.
       -5    1    3    3    0  502  0.97738834469E+03  0.49768031462E+03 -0.12766841456E+04  0.16831274965E+04  0.46999998093E+01 0.  1.
</event>
<event>
 5   0  0.9277261E-09  0.3901280E+04  0.7818609E-02  0.8024763E-01
        2   -1    0    0  501    0  0.00000000000E+00  0.00000000000E+00  0.15273424955E+04  0.15273424955E+04  0.25500000920E-02 0. -1.
       -2   -1    0    0    0  501  0.00000000000E+00  0.00000000000E+00 -0.24912530726E+04  0.24912530726E+04  0.25500000920E-02 0.  1.
    10030    2    1    2    0    0  0.00000000000E+00  0.00000000000E+00 -0.96391057708E+03  0.40185955681E+04  0.39012801411E+04 0.  0.
        1    1    3    3  502    0  0.38600058510E+03 -0.16758149366E+04  0.46640649808E+03  0.17818213084E+04  0.50400001928E-02 0. -1.
       -1    1    3    3    0  502 -0.38600058510E+03  0.16758149366E+04 -0.14303170752E+04  0.22367742597E+04  0.50400001928E-02 0.  1.
</event>
<event>
 5   0  0.2904500E-09  0.3900842E+04  0.7818609E-02  0.8024854E-01
        1   -1    0    0  501    0  0.00000000000E+00  0.00000000000E+00  0.13402942715E+04  0.13402942715E+04  0.50400001928E-02 0. -1.
       -1   -1    0    0    0  501  0.00000000000E+00  0.00000000000E+00 -0.28382889148E+04  0.28382889148E+04  0.50400001928E-02 0.  1.
    10030    2    1    2    0    0  0.00000000000E+00  0.00000000000E+00 -0.14979946434E+04  0.41785831863E+04  0.39008421518E+04 0.  0.
        2    1    3    3  502    0 -0.13231956674E+04 -0.25052391082E+03 -0.22603137624E+04  0.26310886166E+04  0.25500000920E-02 0.  1.
       -2    1    3    3    0  502  0.13231956674E+04  0.25052391082E+03  0.76231911902E+03  0.15474945697E+04  0.25500000920E-02 0. -1.
</event>
<event>
 5   0  0.6335942E-09  0.3884256E+04  0.7818609E-02  0.8028312E-01
        2   -1    0    0  501    0  0.00000000000E+00  0.00000000000E+00  0.20823613619E+04  0.20823613619E+04  0.25500000920E-02 0. -1.
       -2   -1    0    0    0  501  0.00000000000E+00  0.00000000000E+00 -0.18113388145E+04  0.18113388145E+04  0.25500000920E-02 0.  1.
    10030    2    1    2    0    0  0.00000000000E+00  0.00000000000E+00  0.27102254738E+03  0.38937001764E+04  0.38842564079E+04 0.  0.
        2    1    3    3  502    0  0.13149544371E+04 -0.13559517784E+04 -0.31741860533E+03  0.19153237241E+04  0.25500000920E-02 0.  1.
       -2    1    3    3    0  502 -0.13149544371E+04  0.13559517784E+04  0.58844115271E+03  0.19783764523E+04  0.25500000920E-02 0. -1.
</event>
<event>
 5   0  0.9434114E-09  0.3901773E+04  0.7818609E-02  0.8024661E-01
       -2   -1    0    0    0  501  0.00000000000E+00  0.00000000000E+00  0.22907106558E+04  0.22907106558E+04  0.25500000920E-02 0. -1.
        2   -1    0    0  501    0  0.00000000000E+00  0.00000000000E+00 -0.16614746176E+04  0.16614746176E+04  0.25500000920E-02 0.  1.
    10030    2    1    2    0    0  0.00000000000E+00  0.00000000000E+00  0.62923603818E+03  0.39521852734E+04  0.39017727309E+04 0.  0.
        4    1    3    3  502    0  0.43522359744E+03  0.13429670510E+04 -0.10492468540E+04  0.17589487353E+04  0.12699999809E+01 0.  1.
       -4    1    3    3    0  502 -0.43522359744E+03 -0.13429670510E+04  0.16784828921E+04  0.21932365381E+04  0.12699999809E+01 0. -1.
</event>
<event>
 5   0  0.2904500E-09  0.3898477E+04  0.7818609E-02  0.8025346E-01
        1   -1    0    0  501    0  0.00000000000E+00  0.00000000000E+00  0.16660147532E+04  0.16660147532E+04  0.50400001928E-02 0.  1.
       -1   -1    0    0    0  501  0.00000000000E+00  0.00000000000E+00 -0.22806100045E+04  0.22806100045E+04  0.50400001928E-02 0. -1.
    10030    2    1    2    0    0  0.00000000000E+00  0.00000000000E+00 -0.61459525134E+03  0.39466247577E+04  0.38984765813E+04 0.  0.
        2    1    3    3  502    0 -0.10487773104E+04  0.11124170783E+04  0.91681972972E+03  0.17826844981E+04  0.25500000920E-02 0.  1.
       -2    1    3    3    0  502  0.10487773104E+04 -0.11124170783E+04 -0.15314149811E+04  0.21639402596E+04  0.25500000920E-02 0. -1.
</event>
<event>
 5   0  0.2904500E-09  0.3898609E+04  0.7818609E-02  0.8025319E-01
       -1   -1    0    0    0  501  0.00000000000E+00  0.00000000000E+00  0.14468972306E+04  0.14468972306E+04  0.50400001928E-02 0.  1.
        1   -1    0    0  501    0  0.00000000000E+00  0.00000000000E+00 -0.26261628604E+04  0.26261628604E+04  0.50400001928E-02 0. -1.
    10030    2    1    2    0    0  0.00000000000E+00  0.00000000000E+00 -0.11792656298E+04  0.40730600910E+04  0.38986088646E+04 0.  0.
        4    1    3    3  502    0  0.10758451056E+04  0.18001604461E+03 -0.22774531730E+04  0.25252015832E+04  0.12699999809E+01 0. -1.
       -4    1    3    3    0  502 -0.10758451056E+04 -0.18001604461E+03  0.10981875432E+04  0.15478585079E+04  0.12699999809E+01 0.  1.
</event>
<event>
 5   0  0.9368546E-09  0.3900700E+04  0.7818609E-02  0.8024884E-01
       -2   -1    0    0    0  501  0.00000000000E+00  0.00000000000E+00  0.20646424349E+04  0.20646424349E+04  0.25500000920E-02 0.  1.
        2   -1    0    0  501    0  0.00000000000E+00  0.00000000000E+00 -0.18423844673E+04  0.18423844673E+04  0.25500000920E-02 0. -1.
    10030    2    1    2    0    0  0.00000000000E+00  0.00000000000E+00  0.22225796762E+03  0.39070269022E+04  0.39007000155E+04 0.  0.
        5    1    3    3  502    0 -0.10782936211E+04  0.47138879758E+03  0.16689389228E+04  0.20421321578E+04  0.46999998093E+01 0.  1.
       -5    1    3    3    0  502  0.10782936211E+04 -0.47138879758E+03 -0.14466809552E+04  0.18648947445E+04  0.46999998093E+01 0. -1.
</event>
<event>
 5   0  0.2904500E-09  0.3899065E+04  0.7818609E-02  0.8025224E-01
        1   -1    0    0  501    0  0.00000000000E+00  0.00000000000E+00  0.22354451850E+04  0.22354451850E+04  0.50400001928E-02 0. -1.
       -1   -1    0    0    0  501  0.00000000000E+00  0.00000000000E+00 -0.17001875225E+04  0.17001875225E+04  0.50400001928E-02 0.  1.
    10030    2    1    2    0    0  0.00000000000E+00  0.00000000000E+00  0.53525766252E+03  0.39356327075E+04  0.38990645087E+04 0.  0.
        3    1    3    3  502    0  0.97459852313E+03  0.14345635924E+04  0.11664073287E+04  0.20900528817E+04  0.10100000352E+00 0. -1.
       -3    1    3    3    0  502 -0.97459852313E+03 -0.14345635924E+04 -0.63114966616E+03  0.18455798257E+04  0.10100000352E+00 0.  1.
</event>
<event>
 5   0  0.2929054E-09  0.3899115E+04  0.7818609E-02  0.8025213E-01
        1   -1    0    0  501    0  0.00000000000E+00  0.00000000000E+00  0.20029175790E+04  0.20029175791E+04  0.50400001928E-02 0.  1.
       -1   -1    0    0    0  501  0.00000000000E+00  0.00000000000E+00 -0.18976190992E+04  0.18976190992E+04  0.50400001928E-02 0. -1.
    10030    2    1    2    0    0  0.00000000000E+00  0.00000000000E+00  0.10529847986E+03  0.39005366782E+04  0.38991151058E+04 0.  0.
        1    1    3    3  502    0 -0.17631211916E+04 -0.64509330353E+03  0.57822916650E+03  0.19644568398E+04  0.50400001928E-02 0.  1.
       -1    1    3    3    0  502  0.17631211916E+04  0.64509330353E+03 -0.47293068664E+03  0.19360798384E+04  0.50400001928E-02 0. -1.
</event>
<event>
 5   0  0.9078515E-09  0.3900920E+04  0.7818609E-02  0.8024838E-01
       -2   -1    0    0    0  501  0.00000000000E+00  0.00000000000E+00  0.19157282778E+04  0.19157282778E+04  0.25500000920E-02 0.  1.
        2   -1    0    0  501    0  0.00000000000E+00  0.00000000000E+00 -0.19858215551E+04  0.19858215551E+04  0.25500000920E-02 0. -1.
    10030    2    1    2    0    0  0.00000000000E+00  0.00000000000E+00 -0.70093277285E+02  0.39015498329E+04  0.39009201519E+04 0.  0.
        3    1    3    3  502    0 -0.73440840307E+02 -0.15510835693E+04  0.11454153317E+04  0.19295673319E+04  0.10100000352E+00 0.  1.
       -3    1    3    3    0  502  0.73440840307E+02  0.15510835693E+04 -0.12155086090E+04  0.19719825011E+04  0.10100000352E+00 0. -1.
</event>
<event>
 5   0  0.9368546E-09  0.3890921E+04  0.7818609E-02  0.8026920E-01
       -2   -1    0    0    0  501  0.00000000000E+00  0.00000000000E+00  0.14099446107E+04  0.14099446107E+04  0.25500000920E-02 0. -1.
        2   -1    0    0  501    0  0.00000000000E+00  0.00000000000E+00 -0.26843727889E+04  0.26843727889E+04  0.25500000920E-02 0.  1.
    10030    2    1    2    0    0  0.00000000000E+00  0.00000000000E+00 -0.12744281783E+04  0.40943173996E+04  0.38909212003E+04 0.  0.
        5    1    3    3  502    0 -0.10509091262E+04  0.12516628218E+03 -0.23549433789E+04  0.25818321010E+04  0.46999998093E+01 0.  1.
       -5    1    3    3    0  502  0.10509091262E+04 -0.12516628218E+03  0.10805152006E+04  0.15124852986E+04  0.46999998093E+01 0. -1.
</event>
<event>
 5   0  0.2904500E-09  0.3876387E+04  0.7818609E-02  0.8029958E-01
        1   -1    0    0  501    0  0.00000000000E+00  0.00000000000E+00  0.16010310480E+04  0.16010310480E+04  0.50400001928E-02 0. -1.
       -1   -1    0    0    0  501  0.00000000000E+00  0.00000000000E+00 -0.23463593376E+04  0.23463593376E+04  0.50400001928E-02 0.  1.
    10030    2    1    2    0    0  0.00000000000E+00  0.00000000000E+00 -0.74532828961E+03  0.39473903856E+04  0.38763870546E+04 0.  0.
        5    1    3    3  502    0 -0.45612671136E+03 -0.58894918896E+03  0.14494287074E+04  0.16296559121E+04  0.46999998093E+01 0. -1.
       -5    1    3    3    0  502  0.45612671136E+03  0.58894918896E+03 -0.21947569970E+04  0.23177344735E+04  0.46999998093E+01 0.  1.
</event>
<event>
 5   0  0.2904500E-09  0.3902720E+04  0.7818609E-02  0.8024464E-01
        1   -1    0    0  501    0  0.00000000000E+00  0.00000000000E+00  0.20497734512E+04  0.20497734512E+04  0.50400001928E-02 0. -1.
       -1   -1    0    0    0  501  0.00000000000E+00  0.00000000000E+00 -0.18576714575E+04  0.18576714575E+04  0.50400001928E-02 0.  1.
    10030    2    1    2    0    0  0.00000000000E+00  0.00000000000E+00  0.19210199373E+03  0.39074449087E+04  0.39027198898E+04 0.  0.
        2    1    3    3  502    0  0.15684949988E+04  0.56815483005E+03  0.11096150963E+04  0.20035523787E+04  0.25500000920E-02 0. -1.
       -2    1    3    3    0  502 -0.15684949988E+04 -0.56815483005E+03 -0.91751310254E+03  0.19038925300E+04  0.25500000920E-02 0.  1.
</event>
<event>
 5   0  0.9434114E-09  0.3899124E+04  0.7818609E-02  0.8025211E-01
       -2   -1    0    0    0  501  0.00000000000E+00  0.00000000000E+00  0.23874582379E+04  0.23874582379E+04  0.25500000920E-02 0.  1.
        2   -1    0    0  501    0  0.00000000000E+00  0.00000000000E+00 -0.15919825017E+04  0.15919825017E+04  0.25500000920E-02 0. -1.
    10030    2    1    2    0    0  0.00000000000E+00  0.00000000000E+00  0.79547573621E+03  0.39794407396E+04  0.38991238699E+04 0.  0.
        4    1    3    3  502    0 -0.76250907128E+03  0.10123615543E+04 -0.11141591853E+04  0.16874976454E+04  0.12699999809E+01 0. -1.
       -4    1    3    3    0  502  0.76250907128E+03 -0.10123615543E+04  0.19096349215E+04  0.22919430941E+04  0.12699999809E+01 0.  1.
</event>
<event>
 5   0  0.9368546E-09  0.3898270E+04  0.7818609E-02  0.8025389E-01
       -2   -1    0    0    0  501  0.00000000000E+00  0.00000000000E+00  0.17876794003E+04  0.17876794003E+04  0.25500000920E-02 0. -1.
        2   -1    0    0  501    0  0.00000000000E+00  0.00000000000E+00 -0.21251729532E+04  0.21251729532E+04  0.25500000920E-02 0.  1.
    10030    2    1    2    0    0  0.00000000000E+00  0.00000000000E+00 -0.33749355285E+03  0.39128523535E+04  0.38982703398E+04 0.  0.
        5    1    3    3  502    0  0.14743469134E+04 -0.10239349873E+04  0.59367609901E+03  0.18906652479E+04  0.46999998093E+01 0. -1.
       -5    1    3    3    0  502 -0.14743469134E+04  0.10239349873E+04 -0.93116965186E+03  0.20221871055E+04  0.46999998093E+01 0.  1.
</event>
<event>
 5   0  0.2904500E-09  0.3911277E+04  0.7818609E-02  0.8022688E-01
        1   -1    0    0  501    0  0.00000000000E+00  0.00000000000E+00  0.18736779752E+04  0.18736779752E+04  0.50400001928E-02 0.  1.
       -1   -1    0    0    0  501  0.00000000000E+00  0.00000000000E+00 -0.20411841243E+04  0.20411841243E+04  0.50400001928E-02 0. -1.
    10030    2    1    2    0    0  0.00000000000E+00  0.00000000000E+00 -0.16750614911E+03  0.39148620995E+04  0.39112768948E+04 0.  0.
        4    1    3    3  502    0  0.16106361936E+04 -0.29199123013E+02  0.10260999132E+04  0.19099435022E+04  0.12699999809E+01 0.  1.
       -4    1    3    3    0  502 -0.16106361936E+04  0.29199123013E+02 -0.11936060623E+04  0.20049185973E+04  0.12699999809E+01 0. -1.
</event>
<event>
 5   0  0.6335942E-09  0.3902164E+04  0.7818609E-02  0.8024579E-01
        2   -1    0    0  501    0  0.00000000000E+00  0.00000000000E+00  0.22990897841E+04  0.22990897841E+04  0.25500000920E-02 0. -1.
       -2   -1    0    0    0  501  0.00000000000E+00  0.00000000000E+00 -0.16557510290E+04  0.16557510291E+04  0.25500000920E-02 0.  1.
    10030    2    1    2    0    0  0.00000000000E+00  0.00000000000E+00  0.64333875507E+03  0.39548408132E+04  0.39021636439E+04 0.  0.
        2    1    3    3  502    0  0.11120817745E+02 -0.19238189888E+04  0.65088842625E+03  0.20309748688E+04  0.25500000920E-02 0.  1.
       -2    1    3    3    0  502 -0.11120817745E+02  0.19238189888E+04 -0.75496711794E+01  0.19238659444E+04  0.25500000920E-02 0. -1.
</event>
<event>
 5   0  0.2904500E-09  0.3902464E+04  0.7818609E-02  0.8024517E-01
       -1   -1    0    0    0  501  0.00000000000E+00  0.00000000000E+00  0.26361159423E+04  0.26361159423E+04  0.50400001928E-02 0.  1.
        1   -1    0    0  501    0  0.00000000000E+00  0.00000000000E+00 -0.14442860247E+04  0.14442860247E+04  0.50400001928E-02 0. -1.
    10030    2    1    2    0    0  0.00000000000E+00  0.00000000000E+00  0.11918299176E+04  0.40804019670E+04  0.39024635373E+04 0.  0.
        2    1    3    3  502    0  0.71887057137E+03  0.41101299084E+02  0.24921210899E+04  0.25940570043E+04  0.25500000920E-02 0.  1.
       -2    1    3    3    0  502 -0.71887057137E+03 -0.41101299084E+02 -0.13002911723E+04  0.14863449626E+04  0.25500000920E-02 0. -1.
</event>
<event>
 5   0  0.9434114E-09  0.3900469E+04  0.7818609E-02  0.8024932E-01
        2   -1    0    0  501    0  0.00000000000E+00  0.00000000000E+00  0.18264557543E+04  0.18264557543E+04  0.25500000920E-02 0.  1.
       -2   -1    0    0    0  501  0.00000000000E+00  0.00000000000E+00 -0.20824012076E+04  0.20824012076E+04  0.25500000920E-02 0. -1.
    10030    2    1    2    0    0  0.00000000000E+00  0.00000000000E+00 -0.25594545336E+03  0.39088569619E+04  0.39004685198E+04 0.  0.
        4    1    3    3  502    0  0.75031591348E+03  0.32690511487E+03  0.16460238609E+04  0.18382701346E+04  0.12699999809E+01 0.  1.
       -4    1    3    3    0  502 -0.75031591348E+03 -0.32690511487E+03 -0.19019693143E+04  0.20705868273E+04  0.12699999809E+01 0. -1.
</event>
<event>
 5   0  0.2929054E-09  0.3874273E+04  0.7818609E-02  0.8030401E-01
       -1   -1    0    0    0  501  0.00000000000E+00  0.00000000000E+00  0.14659151908E+04  0.14659151908E+04  0.50400001928E-02 0.  1.
        1   -1    0    0  501    0  0.00000000000E+00  0.00000000000E+00 -0.25598331534E+04  0.25598331534E+04  0.50400001928E-02 0. -1.
    10030    2    1    2    0    0  0.00000000000E+00  0.00000000000E+00 -0.10939179627E+04  0.40257483442E+04  0.38742732508E+04 0.  0.
        1    1    3    3  502    0 -0.93222895709E+03 -0.15418984980E+03 -0.23041321369E+04  0.24903514295E+04  0.50400001928E-02 0. -1.
       -1    1    3    3    0  502  0.93222895709E+03  0.15418984980E+03  0.12102141742E+04  0.15353969147E+04  0.50400001928E-02 0.  1.
</event>
<event>
 5   0  0.2904500E-09  0.3900159E+04  0.7818609E-02  0.8024996E-01
        1   -1    0    0  501    0  0.00000000000E+00  0.00000000000E+00  0.15386989725E+04  0.15386989726E+04  0.50400001928E-02 0. -1.
       -1   -1    0    0    0  501  0.00000000000E+00  0.00000000000E+00 -0.24714453378E+04  0.24714453378E+04  0.50400001928E-02 0.  1.
    10030    2    1    2    0    0  0.00000000000E+00  0.00000000000E+00 -0.93274636529E+03  0.40101443104E+04  0.39001591773E+04 0.  0.
        3    1    3    3  502    0  0.11043371200E+04  0.82284151410E+03  0.95320666037E+03  0.16748825569E+04  0.10100000352E+00 0. -1.
       -3    1    3    3    0  502 -0.11043371200E+04 -0.82284151410E+03 -0.18859530257E+04  0.23352617535E+04  0.10100000352E+00 0.  1.
</event>
<event>
 5   0  0.6335942E-09  0.3899924E+04  0.7818609E-02  0.8025045E-01
       -2   -1    0    0    0  501  0.00000000000E+00  0.00000000000E+00  0.19297703825E+04  0.19297703825E+04  0.25500000920E-02 0. -1.
        2   -1    0    0  501    0  0.00000000000E+00  0.00000000000E+00 -0.19703645268E+04  0.19703645268E+04  0.25500000920E-02 0.  1.
    10030    2    1    2    0    0  0.00000000000E+00  0.00000000000E+00 -0.40594144213E+02  0.39001349093E+04  0.38999236436E+04 0.  0.
        2    1    3    3  502    0  0.44698209251E+03 -0.18297194805E+04 -0.52498740536E+03  0.19553204709E+04  0.25500000920E-02 0.  1.
       -2    1    3    3    0  502 -0.44698209251E+03  0.18297194805E+04  0.48439326115E+03  0.19448144384E+04  0.25500000920E-02 0. -1.
</event>
<event>
 5   0  0.9277261E-09  0.3899442E+04  0.7818609E-02  0.8025145E-01
        2   -1    0    0  501    0  0.00000000000E+00  0.00000000000E+00  0.31081062865E+04  0.31081062865E+04  0.25500000920E-02 0.  1.
       -2   -1    0    0    0  501  0.00000000000E+00  0.00000000000E+00 -0.12230635414E+04  0.12230635414E+04  0.25500000920E-02 0. -1.
    10030    2    1    2    0    0  0.00000000000E+00  0.00000000000E+00  0.18850427451E+04  0.43311698279E+04  0.38994417456E+04 0.  0.
        1    1    3    3  502    0 -0.96136936191E+03  0.16842400824E+04  0.11660920597E+04  0.22628889493E+04  0.50400001928E-02 0.  1.
       -1    1    3    3    0  502  0.96136936191E+03 -0.16842400824E+04  0.71895068540E+03  0.20682808787E+04  0.50400001928E-02 0. -1.
</event>
<event>
 5   0  0.9368546E-09  0.3891386E+04  0.7818609E-02  0.8026823E-01
       -2   -1    0    0    0  501  0.00000000000E+00  0.00000000000E+00  0.19984381606E+04  0.19984381606E+04  0.25500000920E-02 0.  1.
        2   -1    0    0  501    0  0.00000000000E+00  0.00000000000E+00 -0.18943403210E+04  0.18943403210E+04  0.25500000920E-02 0. -1.
    10030    2    1    2    0    0  0.00000000000E+00  0.00000000000E+00  0.10409783960E+03  0.38927784816E+04  0.38913863785E+04 0.  0.
        5    1    3    3  502    0 -0.13797898034E+04  0.17077459525E+03  0.14136809735E+04  0.19828010109E+04  0.46999998093E+01 0.  1.
       -5    1    3    3    0  502  0.13797898034E+04 -0.17077459525E+03 -0.13095831339E+04  0.19099774707E+04  0.46999998093E+01 0. -1.
</event>
<event>
 5   0  0.2904500E-09  0.3904437E+04  0.7818609E-02  0.8024107E-01
        1   -1    0    0  501    0  0.00000000000E+00  0.00000000000E+00  0.17065805713E+04  0.17065805713E+04  0.50400001928E-02 0.  1.
       -1   -1    0    0    0  501  0.00000000000E+00  0.00000000000E+00 -0.22332128153E+04  0.22332128153E+04  0.50400001928E-02 0. -1.
    10030    2    1    2    0    0  0.00000000000E+00  0.00000000000E+00 -0.52663224402E+03  0.39397933866E+04  0.39044372717E+04 0.  0.
        4    1    3    3  502    0  0.49742219675E+03 -0.17279076608E+04 -0.10305050144E+04  0.20724468446E+04  0.12699999809E+01 0. -1.
       -4    1    3    3    0  502 -0.49742219675E+03  0.17279076608E+04  0.50387277043E+03  0.18673465420E+04  0.12699999809E+01 0.  1.
</event>
<event>
 5   0  0.2904500E-09  0.3901169E+04  0.7818609E-02  0.8024786E-01
       -1   -1    0    0    0  501  0.00000000000E+00  0.00000000000E+00  0.18246315434E+04  0.18246315434E+04  0.50400001928E-02 0. -1.
        1   -1    0    0  501    0  0.00000000000E+00  0.00000000000E+00 -0.20852319399E+04  0.20852319399E+04  0.50400001928E-02 0.  1.
    10030    2    1    2    0    0  0.00000000000E+00  0.00000000000E+00 -0.26060039650E+03  0.39098634833E+04  0.39011690416E+04 0.  0.
        5    1    3    3  502    0 -0.13202832665E+04  0.13655773317E+04  0.31431958602E+03  0.19252969238E+04  0.46999998093E+01 0. -1.
       -5    1    3    3    0  502  0.13202832665E+04 -0.13655773317E+04 -0.57491998253E+03  0.19845665595E+04  0.46999998093E+01 0.  1.
</event>
<event>
 5   0  0.6335942E-09  0.3900045E+04  0.7818609E-02  0.8025020E-01
        2   -1    0    0  501    0  0.00000000000E+00  0.00000000000E+00  0.14613307571E+04  0.14613307571E+04  0.25500000920E-02 0. -1.
       -2   -1    0    0    0  501  0.00000000000E+00  0.00000000000E+00 -0.26021409196E+04  0.26021409196E+04  0.25500000920E-02 0.  1.
    10030    2    1    2    0    0  0.00000000000E+00  0.00000000000E+00 -0.11408101625E+04  0.40634716767E+04  0.39000454152E+04 0.  0.
        2    1    3    3  502    0  0.54120549113E+03  0.99885474700E+02 -0.25195470915E+04  0.25789528956E+04  0.25500000920E-02 0.  1.
       -2    1    3    3    0  502 -0.54120549113E+03 -0.99885474700E+02  0.13787369290E+04  0.14845187810E+04  0.25500000920E-02 0. -1.
</event>
<event>
 5   0  0.2904500E-09  0.3900989E+04  0.7818609E-02  0.8024824E-01
        1   -1    0    0  501    0  0.00000000000E+00  0.00000000000E+00  0.16413006555E+04  0.16413006555E+04  0.50400001928E-02 0.  1.
       -1   -1    0    0    0  501  0.00000000000E+00  0.00000000000E+00 -0.23179355868E+04  0.23179355868E+04  0.50400001928E-02 0. -1.
    10030    2    1    2    0    0  0.00000000000E+00  0.00000000000E+00 -0.67663493127E+03  0.39592362422E+04  0.39009892068E+04 0.  0.
        4    1    3    3  502    0  0.34541457798E+03 -0.10442503778E+04 -0.19731628553E+04  0.22590138000E+04  0.12699999809E+01 0. -1.
       -4    1    3    3    0  502 -0.34541457798E+03  0.10442503778E+04  0.12965279240E+04  0.17002224422E+04  0.12699999809E+01 0.  1.
</event>
<event>
 5   0  0.9368546E-09  0.3899835E+04  0.7818609E-02  0.8025064E-01
        2   -1    0    0  501    0  0.00000000000E+00  0.00000000000E+00  0.21108386872E+04  0.21108386872E+04  0.25500000920E-02 0. -1.
       -2   -1    0    0    0  501  0.00000000000E+00  0.00000000000E+00 -0.18012640707E+04  0.18012640707E+04  0.25500000920E-02 0.  1.
    10030    2    1    2    0    0  0.00000000000E+00  0.00000000000E+00  0.30957461646E+03  0.39121027579E+04  0.38998348100E+04 0.  0.
        5    1    3    3  502    0  0.10070749133E+04 -0.12211039632E+04  0.12971677568E+04  0.20464508421E+04  0.46999998093E+01 0. -1.
       -5    1    3    3    0  502 -0.10070749133E+04  0.12211039632E+04 -0.98759314030E+03  0.18656519158E+04  0.46999998093E+01 0.  1.
</event>
<event>
 5   0  0.2904500E-09  0.3897172E+04  0.7818609E-02  0.8025618E-01
       -1   -1    0    0    0  501  0.00000000000E+00  0.00000000000E+00  0.12792133488E+04  0.12792133489E+04  0.50400001928E-02 0. -1.
        1   -1    0    0  501    0  0.00000000000E+00  0.00000000000E+00 -0.29682207913E+04  0.29682207913E+04  0.50400001928E-02 0.  1.
    10030    2    1    2    0    0  0.00000000000E+00  0.00000000000E+00 -0.16890074425E+04  0.42474341402E+04  0.38971721330E+04 0.  0.
        5    1    3    3  502    0 -0.11642607849E+04 -0.10361625520E+04  0.43015246318E+03  0.16168454598E+04  0.46999998093E+01 0. -1.
       -5    1    3    3    0  502  0.11642607849E+04  0.10361625520E+04 -0.21191599057E+04  0.26305886804E+04  0.46999998093E+01 0.  1.
</event>
<event>
 5   0  0.2904500E-09  0.3897244E+04  0.7818609E-02  0.8025603E-01
        1   -1    0    0  501    0  0.00000000000E+00  0.00000000000E+00  0.21529870073E+04  0.21529870073E+04  0.50400001928E-02 0.  1.
       -1   -1    0    0    0  501  0.00000000000E+00  0.00000000000E+00 -0.17636555120E+04  0.17636555120E+04  0.50400001928E-02 0. -1.
    10030    2    1    2    0    0  0.00000000000E+00  0.00000000000E+00  0.38933149527E+03  0.39166425193E+04  0.38972438480E+04 0.  0.
        4    1    3    3  502    0 -0.72576711896E+03  0.16702671043E+04  0.89136650900E+03  0.20275763800E+04  0.12699999809E+01 0.  1.
       -4    1    3    3    0  502  0.72576711896E+03 -0.16702671043E+04 -0.50203501373E+03  0.18890661392E+04  0.12699999809E+01 0. -1.
</event>
<event>
 5   0  0.6335942E-09  0.3908899E+04  0.7818609E-02  0.8023181E-01
        2   -1    0    0  501    0  0.00000000000E+00  0.00000000000E+00  0.20734055644E+04  0.20734055644E+04  0.25500000920E-02 0.  1.
       -2   -1    0    0    0  501  0.00000000000E+00  0.00000000000E+00 -0.18423186449E+04  0.18423186449E+04  0.25500000920E-02 0. -1.
    10030    2    1    2    0    0  0.00000000000E+00  0.00000000000E+00  0.23108691953E+03  0.39157242093E+04  0.39088994511E+04 0.  0.
        2    1    3    3  502    0 -0.11425179455E+04 -0.13798192029E+04 -0.66724613533E+03  0.19116656857E+04  0.25500000920E-02 0. -1.
       -2    1    3    3    0  502  0.11425179455E+04  0.13798192029E+04  0.89833305486E+03  0.20040585236E+04  0.25500000920E-02 0.  1.
</event>
<event>
 5   0  0.2904500E-09  0.3900130E+04  0.7818609E-02  0.8025002E-01
       -1   -1    0    0    0  501  0.00000000000E+00  0.00000000000E+00  0.21669920191E+04  0.21669920191E+04  0.50400001928E-02 0.  1.
        1   -1    0    0  501    0  0.00000000000E+00  0.00000000000E+00 -0.17548537746E+04  0.17548537746E+04  0.50400001928E-02 0. -1.
    10030    2    1    2    0    0  0.00000000000E+00  0.00000000000E+00  0.41213824454E+03  0.39218457937E+04  0.39001303179E+04 0.  0.
        5    1    3    3  502    0 -0.71930733868E+03 -0.34666231073E+03  0.19950629122E+04  0.21489243632E+04  0.46999998093E+01 0.  1.
       -5    1    3    3    0  502  0.71930733868E+03  0.34666231073E+03 -0.15829246677E+04  0.17729214305E+04  0.46999998093E+01 0. -1.
</event>
<event>
 5   0  0.9434114E-09  0.3900113E+04  0.7818609E-02  0.8025006E-01
       -2   -1    0    0    0  501  0.00000000000E+00  0.00000000000E+00  0.15256929815E+04  0.15256929815E+04  0.25500000920E-02 0. -1.
        2   -1    0    0  501    0  0.00000000000E+00  0.00000000000E+00 -0.24924550188E+04  0.24924550188E+04  0.25500000920E-02 0.  1.
    10030    2    1    2    0    0  0.00000000000E+00  0.00000000000E+00 -0.96676203734E+03  0.40181480003E+04  0.39001133978E+04 0.  0.
        4    1    3    3  502    0  0.41091899800E+03  0.69639501177E+03 -0.23115993767E+04  0.24489413481E+04  0.12699999809E+01 0.  1.
       -4    1    3    3    0  502 -0.41091899800E+03 -0.69639501177E+03  0.13448373393E+04  0.15692066523E+04  0.12699999809E+01 0. -1.
</event>
<event>
 5   0  0.2904500E-09  0.3900716E+04  0.7818609E-02  0.8024880E-01
       -1   -1    0    0    0  501  0.00000000000E+00  0.00000000000E+00  0.16941752255E+04  0.16941752255E+04  0.50400001928E-02 0. -1.
        1   -1    0    0  501    0  0.00000000000E+00  0.00000000000E+00 -0.22452790426E+04  0.22452790426E+04  0.50400001928E-02 0.  1.
    10030    2    1    2    0    0  0.00000000000E+00  0.00000000000E+00 -0.55110381709E+03  0.39394542682E+04  0.39007158976E+04 0.  0.
        4    1    3    3  502    0  0.19393683895E+03  0.32954448147E+03  0.16559484884E+04  0.16995228954E+04  0.12699999809E+01 0. -1.
       -4    1    3    3    0  502 -0.19393683895E+03 -0.32954448147E+03 -0.22070523055E+04  0.22399313728E+04  0.12699999809E+01 0.  1.
</event>
<event>
 5   0  0.2904500E-09  0.3900665E+04  0.7818609E-02  0.8024891E-01
        1   -1    0    0  501    0  0.00000000000E+00  0.00000000000E+00  0.28104592034E+04  0.28104592034E+04  0.50400001928E-02 0.  1.
       -1   -1    0    0    0  501  0.00000000000E+00  0.00000000000E+00 -0.13534428915E+04  0.13534428915E+04  0.50400001928E-02 0. -1.
    10030    2    1    2    0    0  0.00000000000E+00  0.00000000000E+00  0.14570163119E+04  0.41639020949E+04  0.39006645745E+04 0.  0.
        2    1    3    3  502    0  0.27805813913E+03 -0.17202330097E+04  0.16635656236E+04  0.24091426941E+04  0.25500000920E-02 0. -1.
       -2    1    3    3    0  502 -0.27805813913E+03  0.17202330097E+04 -0.20654931172E+03  0.17547594008E+04  0.25500000920E-02 0.  1.
</event>
<event>
 5   0  0.9434114E-09  0.3902299E+04  0.7818609E-02  0.8024551E-01
       -2   -1    0    0    0  501  0.00000000000E+00  0.00000000000E+00  0.15987289044E+04  0.15987289044E+04  0.25500000920E-02 0. -1.
        2   -1    0    0  501    0  0.00000000000E+00  0.00000000000E+00 -0.23812574861E+04  0.23812574861E+04  0.25500000920E-02 0.  1.
    10030    2    1    2    0    0  0.00000000000E+00  0.00000000000E+00 -0.78252858177E+03  0.39799863905E+04  0.39022994103E+04 0.  0.
        4    1    3    3  502    0 -0.64881004826E+03 -0.47862573013E+03  0.14208876525E+04  0.16336953211E+04  0.12699999809E+01 0. -1.
       -4    1    3    3    0  502  0.64881004826E+03  0.47862573013E+03 -0.22034162342E+04  0.23462910694E+04  0.12699999809E+01 0.  1.
</event>
<event>
 5   0  0.6335942E-09  0.3900391E+04  0.7818609E-02  0.8024948E-01
       -2   -1    0    0    0  501  0.00000000000E+00  0.00000000000E+00  0.14379872586E+04  0.14379872586E+04  0.25500000920E-02 0.  1.
        2   -1    0    0  501    0  0.00000000000E+00  0.00000000000E+00 -0.26448512502E+04  0.26448512502E+04  0.25500000920E-02 0. -1.
    10030    2    1    2    0    0  0.00000000000E+00  0.00000000000E+00 -0.12068639916E+04  0.40828385089E+04  0.39003909542E+04 0.  0.
        2    1    3    3  502    0  0.15953338737E+04  0.84834903671E+03 -0.13715665371E+04  0.22684754842E+04  0.25500000920E-02 0. -1.
       -2    1    3    3    0  502 -0.15953338737E+04 -0.84834903671E+03  0.16470254553E+03  0.18143630247E+04  0.25500000920E-02 0.  1.
</event>
<event>
 5   0  0.9434114E-09  0.3897268E+04  0.7818609E-02  0.8025598E-01
       -2   -1    0    0    0  501  0.00000000000E+00  0.00000000000E+00  0.16774212376E+04  0.16774212376E+04  0.25500000920E-02 0.  1.
        2   -1    0    0  501    0  0.00000000000E+00  0.00000000000E+00 -0.22636981609E+04  0.22636981609E+04  0.25500000920E-02 0. -1.
    10030    2    1    2    0    0  0.00000000000E+00  0.00000000000E+00 -0.58627692329E+03  0.39411193985E+04  0.38972684643E+04 0.  0.
        4    1    3    3  502    0  0.94405074215E+03 -0.11148024999E+04 -0.15972836320E+04  0.21645630117E+04  0.12699999809E+01 0.  1.
       -4    1    3    3    0  502 -0.94405074215E+03  0.11148024999E+04  0.10110067087E+04  0.17765563868E+04  0.12699999809E+01 0. -1.
</event>
<event>
 5   0  0.9368546E-09  0.3899051E+04  0.7818609E-02  0.8025227E-01
        2   -1    0    0  501    0  0.00000000000E+00  0.00000000000E+00  0.30165605600E+04  0.30165605600E+04  0.25500000920E-02 0. -1.
       -2   -1    0    0    0  501  0.00000000000E+00  0.00000000000E+00 -0.12599284092E+04  0.12599284092E+04  0.25500000920E-02 0.  1.
    10030    2    1    2    0    0  0.00000000000E+00  0.00000000000E+00  0.17566321508E+04  0.42764889692E+04  0.38990513450E+04 0.  0.
        5    1    3    3  502    0 -0.92228360243E+03  0.68399288653E+03  0.26063194875E+04  0.28480478706E+04  0.46999998093E+01 0. -1.
       -5    1    3    3    0  502  0.92228360243E+03 -0.68399288653E+03 -0.84968733673E+03  0.14284410987E+04  0.46999998093E+01 0.  1.
</event>
<event>
 5   0  0.9434114E-09  0.3899256E+04  0.7818609E-02  0.8025184E-01
        2   -1    0    0  501    0  0.00000000000E+00  0.00000000000E+00  0.22350761179E+04  0.22350761179E+04  0.25500000920E-02 0. -1.
       -2   -1    0    0    0  501  0.00000000000E+00  0.00000000000E+00 -0.17006354710E+04  0.17006354710E+04  0.25500000920E-02 0.  1.
    10030    2    1    2    0    0  0.00000000000E+00  0.00000000000E+00  0.53444064697E+03  0.39357115889E+04  0.38992561991E+04 0.  0.
        4    1    3    3  502    0 -0.14817797412E+04 -0.94832992697E+03 -0.58090177812E+03  0.18526870595E+04  0.12699999809E+01 0.  1.
       -4    1    3    3    0  502  0.14817797412E+04  0.94832992697E+03  0.11153424251E+04  0.20830245294E+04  0.12699999809E+01 0. -1.
</event>
<event>
 5   0  0.2904500E-09  0.3900573E+04  0.7818609E-02  0.8024910E-01
        1   -1    0    0  501    0  0.00000000000E+00  0.00000000000E+00  0.28040467305E+04  0.28040467306E+04  0.50400001928E-02 0. -1.
       -1   -1    0    0    0  501  0.00000000000E+00  0.00000000000E+00 -0.13564742658E+04  0.13564742658E+04  0.50400001928E-02 0.  1.
    10030    2    1    2    0    0  0.00000000000E+00  0.00000000000E+00  0.14475724648E+04  0.41605209963E+04  0.39005728964E+04 0.  0.
        4    1    3    3  502    0 -0.42828904495E+03 -0.40187667258E+03  0.27074792453E+04  0.27704479498E+04  0.12699999809E+01 0. -1.
       -4    1    3    3    0  502  0.42828904495E+03  0.40187667258E+03 -0.12599067806E+04  0.13900730465E+04  0.12699999809E+01 0.  1.
</event>
<event>
 5   0  0.2904500E-09  0.3899390E+04  0.7818609E-02  0.8025156E-01
       -1   -1    0    0    0  501  0.00000000000E+00  0.00000000000E+00  0.13799711850E+04  0.13799711850E+04  0.50400001928E-02 0.  1.
        1   -1    0    0  501    0  0.00000000000E+00  0.00000000000E+00 -0.27546300954E+04  0.27546300954E+04  0.50400001928E-02 0. -1.
    10030    2    1    2    0    0  0.00000000000E+00  0.00000000000E+00 -0.13746589104E+04  0.41346012803E+04  0.38993897763E+04 0.  0.
        2    1    3    3  502    0 -0.29045411844E+03 -0.10027058416E+03 -0.27287946239E+04  0.27460404011E+04  0.25500000920E-02 0. -1.
       -2    1    3    3    0  502  0.29045411844E+03  0.10027058416E+03  0.13541357135E+04  0.13885608793E+04  0.25500000920E-02 0.  1.
</event>
<event>
 5   0  0.2904500E-09  0.3899317E+04  0.7818609E-02  0.8025171E-01
        1   -1    0    0  501    0  0.00000000000E+00  0.00000000000E+00  0.13726644039E+04  0.13726644039E+04  0.50400001928E-02 0.  1.
       -1   -1    0    0    0  501  0.00000000000E+00  0.00000000000E+00 -0.27691891644E+04  0.27691891644E+04  0.50400001928E-02 0. -1.
    10030    2    1    2    0    0  0.00000000000E+00  0.00000000000E+00 -0.13965247605E+04  0.41418535683E+04  0.38993165523E+04 0.  0.
        4    1    3    3  502    0  0.10716403503E+04 -0.55621001280E+03 -0.23242899315E+04  0.26191807722E+04  0.12699999809E+01 0. -1.
       -4    1    3    3    0  502 -0.10716403503E+04  0.55621001280E+03  0.92776517103E+03  0.15226727962E+04  0.12699999809E+01 0.  1.
</event>
<event>
 5   0  0.9434114E-09  0.3893502E+04  0.7818609E-02  0.8026382E-01
       -2   -1    0    0    0  501  0.00000000000E+00  0.00000000000E+00  0.19384028884E+04  0.19384028884E+04  0.25500000920E-02 0.  1.
        2   -1    0    0  501    0  0.00000000000E+00  0.00000000000E+00 -0.19551354948E+04  0.19551354948E+04  0.25500000920E-02 0. -1.
    10030    2    1    2    0    0  0.00000000000E+00  0.00000000000E+00 -0.16732606340E+02  0.38935383832E+04  0.38935024286E+04 0.  0.
        4    1    3    3  502    0  0.57097140494E+03 -0.34089587548E+03  0.18213009239E+04  0.19389061379E+04  0.12699999809E+01 0.  1.
       -4    1    3    3    0  502 -0.57097140494E+03  0.34089587548E+03 -0.18380335303E+04  0.19546322453E+04  0.12699999809E+01 0. -1.
</event>
<event>
 5   0  0.2929054E-09  0.3899565E+04  0.7818609E-02  0.8025120E-01
       -1   -1    0    0    0  501  0.00000000000E+00  0.00000000000E+00  0.12309599069E+04  0.12309599069E+04  0.50400001928E-02 0.  1.
        1   -1    0    0  501    0  0.00000000000E+00  0.00000000000E+00 -0.30883632818E+04  0.30883632818E+04  0.50400001928E-02 0. -1.
    10030    2    1    2    0    0  0.00000000000E+00  0.00000000000E+00 -0.18574033749E+04  0.43193231888E+04  0.38995647849E+04 0.  0.
        1    1    3    3  502    0 -0.81696919097E+03 -0.11941903935E+04  0.51893308741E+03  0.15371470015E+04  0.50400001928E-02 0.  1.
       -1    1    3    3    0  502  0.81696919097E+03  0.11941903935E+04 -0.23763364623E+04  0.27821761873E+04  0.50400001928E-02 0. -1.
</event>
<event>
 5   0  0.2904500E-09  0.3899451E+04  0.7818609E-02  0.8025143E-01
        1   -1    0    0  501    0  0.00000000000E+00  0.00000000000E+00  0.22781429508E+04  0.22781429508E+04  0.50400001928E-02 0.  1.
       -1   -1    0    0    0  501  0.00000000000E+00  0.00000000000E+00 -0.16686525682E+04  0.16686525682E+04  0.50400001928E-02 0. -1.
    10030    2    1    2    0    0  0.00000000000E+00  0.00000000000E+00  0.60949038262E+03  0.39467955191E+04  0.38994507745E+04 0.  0.
        5    1    3    3  502    0 -0.13098878368E+04 -0.13784161822E+04 -0.13126304445E+03  0.19060664714E+04  0.46999998093E+01 0. -1.
       -5    1    3    3    0  502  0.13098878368E+04  0.13784161822E+04  0.74075342707E+03  0.20407290477E+04  0.46999998093E+01 0.  1.
</event>
<event>
 5   0  0.2904500E-09  0.3899409E+04  0.7818609E-02  0.8025152E-01
        1   -1    0    0  501    0  0.00000000000E+00  0.00000000000E+00  0.20078054688E+04  0.20078054688E+04  0.50400001928E-02 0. -1.
       -1   -1    0    0    0  501  0.00000000000E+00  0.00000000000E+00 -0.18932845704E+04  0.18932845704E+04  0.50400001928E-02 0.  1.
    10030    2    1    2    0    0  0.00000000000E+00  0.00000000000E+00  0.11452089835E+03  0.39010900392E+04  0.38994087318E+04 0.  0.
        3    1    3    3  502    0  0.12542641300E+04 -0.10952065845E+04  0.10719418800E+04  0.19803321375E+04  0.10100000352E+00 0. -1.
       -3    1    3    3    0  502 -0.12542641300E+04  0.10952065845E+04 -0.95742098165E+03  0.19207579017E+04  0.10100000352E+00 0.  1.
</event>
<event>
 5   0  0.6335942E-09  0.3900749E+04  0.7818609E-02  0.8024873E-01
        2   -1    0    0  501    0  0.00000000000E+00  0.00000000000E+00  0.17789606071E+04  0.17789606071E+04  0.25500000920E-02 0. -1.
       -2   -1    0    0    0  501  0.00000000000E+00  0.00000000000E+00 -0.21383049768E+04  0.21383049768E+04  0.25500000920E-02 0.  1.
    10030    2    1    2    0    0  0.00000000000E+00  0.00000000000E+00 -0.35934436977E+03  0.39172655839E+04  0.39007488100E+04 0.  0.
        2    1    3    3  502    0  0.61474718617E+03 -0.36466330477E+03 -0.20020369444E+04  0.21258046372E+04  0.25500000920E-02 0.  1.
       -2    1    3    3    0  502 -0.61474718617E+03  0.36466330477E+03  0.16426925746E+04  0.17914609467E+04  0.25500000920E-02 0. -1.
</event>
<event>
 5   0  0.6335942E-09  0.3899389E+04  0.7818609E-02  0.8025156E-01
        2   -1    0    0  501    0  0.00000000000E+00  0.00000000000E+00  0.19897245819E+04  0.19897245819E+04  0.25500000920E-02 0.  1.
       -2   -1    0    0    0  501  0.00000000000E+00  0.00000000000E+00 -0.19104701887E+04  0.19104701887E+04  0.25500000920E-02 0. -1.
    10030    2    1    2    0    0  0.00000000000E+00  0.00000000000E+00  0.79254393117E+02  0.39001947706E+04  0.38993894381E+04 0.  0.
        2    1    3    3  502    0 -0.16200851123E+04 -0.55236887896E+03  0.97337361417E+03  0.19690716956E+04  0.25500000920E-02 0.  1.
       -2    1    3    3    0  502  0.16200851123E+04  0.55236887896E+03 -0.89411922105E+03  0.19311230750E+04  0.25500000920E-02 0. -1.
</event>
<event>
 5   0  0.9434114E-09  0.3899003E+04  0.7818609E-02  0.8025237E-01
        2   -1    0    0  501    0  0.00000000000E+00  0.00000000000E+00  0.24941207822E+04  0.24941207822E+04  0.25500000920E-02 0. -1.
       -2   -1    0    0    0  501  0.00000000000E+00  0.00000000000E+00 -0.15238060198E+04  0.15238060198E+04  0.25500000920E-02 0.  1.
    10030    2    1    2    0    0  0.00000000000E+00  0.00000000000E+00  0.97031476241E+03  0.40179268020E+04  0.38990030839E+04 0.  0.
        4    1    3    3  502    0  0.17248565381E+04  0.23767953002E+03  0.13887916563E+04  0.22271878038E+04  0.12699999809E+01 0. -1.
       -4    1    3    3    0  502 -0.17248565381E+04 -0.23767953002E+03 -0.41847689391E+03  0.17907389982E+04  0.12699999809E+01 0.  1.
</event>
<event>
 5   0  0.2904500E-09  0.3894810E+04  0.7818609E-02  0.8026110E-01
       -1   -1    0    0    0  501  0.00000000000E+00  0.00000000000E+00  0.19869889592E+04  0.19869889592E+04  0.50400001928E-02 0.  1.
        1   -1    0    0  501    0  0.00000000000E+00  0.00000000000E+00 -0.19086093167E+04  0.19086093167E+04  0.50400001928E-02 0. -1.
    10030    2    1    2    0    0  0.00000000000E+00  0.00000000000E+00  0.78379642497E+02  0.38955982759E+04  0.38948096949E+04 0.  0.
        5    1    3    3  502    0 -0.44417975538E+03 -0.18854924656E+04  0.23919544708E+03  0.19518232617E+04  0.46999998093E+01 0. -1.
       -5    1    3    3    0  502  0.44417975538E+03  0.18854924656E+04 -0.16081580458E+03  0.19437750142E+04  0.46999998093E+01 0.  1.
</event>
<event>
 5   0  0.2929054E-09  0.3898997E+04  0.7818609E-02  0.8025238E-01
        1   -1    0    0  501    0  0.00000000000E+00  0.00000000000E+00  0.20002006791E+04  0.20002006791E+04  0.50400001928E-02 0. -1.
       -1   -1    0    0    0  501  0.00000000000E+00  0.00000000000E+00 -0.19000810963E+04  0.19000810963E+04  0.50400001928E-02 0.  1.
    10030    2    1    2    0    0  0.00000000000E+00  0.00000000000E+00  0.10011958273E+03  0.39002817754E+04  0.38989965371E+04 0.  0.
        1    1    3    3  502    0 -0.17143848754E+04  0.89607913965E+03  0.29194556500E+03  0.19563500552E+04  0.50400001928E-02 0. -1.
       -1    1    3    3    0  502  0.17143848754E+04 -0.89607913965E+03 -0.19182598227E+03  0.19439317202E+04  0.50400001928E-02 0.  1.
</event>
<event>
 5   0  0.2904500E-09  0.3900655E+04  0.7818609E-02  0.8024893E-01
       -1   -1    0    0    0  501  0.00000000000E+00  0.00000000000E+00  0.17460766077E+04  0.17460766077E+04  0.50400001928E-02 0.  1.
        1   -1    0    0  501    0  0.00000000000E+00  0.00000000000E+00 -0.21784709850E+04  0.21784709850E+04  0.50400001928E-02 0. -1.
    10030    2    1    2    0    0  0.00000000000E+00  0.00000000000E+00 -0.43239437727E+03  0.39245475927E+04  0.39006549334E+04 0.  0.
        2    1    3    3  502    0  0.11840548716E+04 -0.15388115967E+04 -0.31086107308E+02  0.19418788364E+04  0.25500000920E-02 0.  1.
       -2    1    3    3    0  502 -0.11840548716E+04  0.15388115967E+04 -0.40130826997E+03  0.19826687562E+04  0.25500000920E-02 0. -1.
</event>
<event>
 5   0  0.9368546E-09  0.3912349E+04  0.7818609E-02  0.8022466E-01
        2   -1    0    0  501    0  0.00000000000E+00  0.00000000000E+00  0.25199917294E+04  0.25199917294E+04  0.25500000920E-02 0. -1.
       -2   -1    0    0    0  501  0.00000000000E+00  0.00000000000E+00 -0.15185048025E+04  0.15185048025E+04  0.25500000920E-02 0.  1.
    10030    2    1    2    0    0  0.00000000000E+00  0.00000000000E+00  0.10014869269E+04  0.40384965319E+04  0.39123494442E+04 0.  0.
        5    1    3    3  502    0  0.24219740977E+03 -0.15945502005E+04  0.16433894937E+04  0.23026074449E+04  0.46999998093E+01 0. -1.
       -5    1    3    3    0  502 -0.24219740977E+03  0.15945502005E+04 -0.64190256673E+03  0.17358890870E+04  0.46999998093E+01 0.  1.
</event>
<event>
 5   0  0.2904500E-09  0.3900470E+04  0.7818609E-02  0.8024931E-01
        1   -1    0    0  501    0  0.00000000000E+00  0.00000000000E+00  0.21607632645E+04  0.21607632645E+04  0.50400001928E-02 0.  1.
       -1   -1    0    0    0  501  0.00000000000E+00  0.00000000000E+00 -0.17602190410E+04  0.17602190410E+04  0.50400001928E-02 0. -1.
    10030    2    1    2    0    0  0.00000000000E+00  0.00000000000E+00  0.40054422347E+03  0.39209823056E+04  0.39004700442E+04 0.  0.
        3    1    3    3  502    0 -0.13542432310E+04  0.11273281170E+04  0.10404744808E+04  0.20463212278E+04  0.10100000352E+00 0.  1.
       -3    1    3    3    0  502  0.13542432310E+04 -0.11273281170E+04 -0.63993025729E+03  0.18746610778E+04  0.10100000352E+00 0. -1.
</event>
<event>
 5   0  0.2904500E-09  0.3900604E+04  0.7818609E-02  0.8024904E-01
       -1   -1    0    0    0  501  0.00000000000E+00  0.00000000000E+00  0.31062766095E+04  0.31062766096E+04  0.50400001928E-02 0. -1.
        1   -1    0    0  501    0  0.00000000000E+00  0.00000000000E+00 -0.12245137033E+04  0.12245137033E+04  0.50400001928E-02 0.  1.
    10030    2    1    2    0    0  0.00000000000E+00  0.00000000000E+00  0.18817629063E+04  0.43307903128E+04  0.39006041965E+04 0.  0.
        2    1    3    3  502    0 -0.72629764909E+03  0.99698380697E+03  0.26181843031E+04  0.28941966124E+04  0.25500000920E-02 0. -1.
       -2    1    3    3    0  502  0.72629764909E+03 -0.99698380697E+03 -0.73642139677E+03  0.14365937004E+04  0.25500000920E-02 0.  1.
</event>
<event>
 5   0  0.9078515E-09  0.3899793E+04  0.7818609E-02  0.8025072E-01
        2   -1    0    0  501    0  0.00000000000E+00  0.00000000000E+00  0.13754595133E+04  0.13754595133E+04  0.25500000920E-02 0. -1.
       -2   -1    0    0    0  501  0.00000000000E+00  0.00000000000E+00 -0.27642366288E+04  0.27642366288E+04  0.25500000920E-02 0.  1.
    10030    2    1    2    0    0  0.00000000000E+00  0.00000000000E+00 -0.13887771155E+04  0.41396961421E+04  0.38997925935E+04 0.  0.
        3    1    3    3  502    0 -0.17723412742E+04  0.31070220808E+02 -0.15567276301E+04  0.23591438861E+04  0.10100000352E+00 0. -1.
       -3    1    3    3    0  502  0.17723412742E+04 -0.31070220808E+02  0.16795051461E+03  0.17805522560E+04  0.10100000352E+00 0.  1.
</event>
<event>
 5   0  0.2904500E-09  0.3898166E+04  0.7818609E-02  0.8025411E-01
        1   -1    0    0  501    0  0.00000000000E+00  0.00000000000E+00  0.14618021506E+04  0.14618021506E+04  0.50400001928E-02 0.  1.
       -1   -1    0    0    0  501  0.00000000000E+00  0.00000000000E+00 -0.25987955713E+04  0.25987955713E+04  0.50400001928E-02 0. -1.
    10030    2    1    2    0    0  0.00000000000E+00  0.00000000000E+00 -0.11369934207E+04  0.40605977219E+04  0.38981662125E+04 0.  0.
        3    1    3    3  502    0  0.82980832722E+03  0.13391741514E+04  0.62690863396E+03  0.16955776931E+04  0.10100000352E+00 0.  1.
       -3    1    3    3    0  502 -0.82980832722E+03 -0.13391741514E+04 -0.17639020547E+04  0.23650200288E+04  0.10100000352E+00 0. -1.
</event>
<event>
 5   0  0.2904500E-09  0.3892200E+04  0.7818609E-02  0.8026653E-01
        1   -1    0    0  501    0  0.00000000000E+00  0.00000000000E+00  0.15440063980E+04  0.15440063980E+04  0.50400001928E-02 0. -1.
       -1   -1    0    0    0  501  0.00000000000E+00  0.00000000000E+00 -0.24529074535E+04  0.24529074536E+04  0.50400001928E-02 0.  1.
    10030    2    1    2    0    0  0.00000000000E+00  0.00000000000E+00 -0.90890105554E+03  0.39969138516E+04  0.38921997904E+04 0.  0.
        3    1    3    3  502    0  0.50851934956E+03  0.18189638260E+04 -0.93620235227E+03  0.21080076337E+04  0.10100000352E+00 0.  1.
       -3    1    3    3    0  502 -0.50851934956E+03 -0.18189638260E+04  0.27301296735E+02  0.18889062179E+04  0.10100000352E+00 0. -1.
</event>
<event>
 5   0  0.2929054E-09  0.3898687E+04  0.7818609E-02  0.8025302E-01
        1   -1    0    0  501    0  0.00000000000E+00  0.00000000000E+00  0.23758868348E+04  0.23758868348E+04  0.50400001928E-02 0.  1.
       -1   -1    0    0    0  501  0.00000000000E+00  0.00000000000E+00 -0.15993777559E+04  0.15993777559E+04  0.50400001928E-02 0. -1.
    10030    2    1    2    0    0  0.00000000000E+00  0.00000000000E+00  0.77650907882E+03  0.39752645907E+04  0.38986872427E+04 0.  0.
        1    1    3    3  502    0  0.12304046692E+04 -0.29465674979E+03  0.19003604430E+04  0.22829997949E+04  0.50400001928E-02 0.  1.
       -1    1    3    3    0  502 -0.12304046692E+04  0.29465674979E+03 -0.11238513642E+04  0.16922647958E+04  0.50400001928E-02 0. -1.
</event>
<event>
 5   0  0.9368546E-09  0.3902390E+04  0.7818609E-02  0.8024532E-01
       -2   -1    0    0    0  501  0.00000000000E+00  0.00000000000E+00  0.18465907492E+04  0.18465907492E+04  0.25500000920E-02 0.  1.
        2   -1    0    0  501    0  0.00000000000E+00  0.00000000000E+00 -0.20617250801E+04  0.20617250801E+04  0.25500000920E-02 0. -1.
    10030    2    1    2    0    0  0.00000000000E+00  0.00000000000E+00 -0.21513433088E+03  0.39083158293E+04  0.39023902728E+04 0.  0.
        5    1    3    3  502    0  0.16958703460E+04  0.46397849498E+03 -0.95495362815E+03  0.20008025380E+04  0.46999998093E+01 0. -1.
       -5    1    3    3    0  502 -0.16958703460E+04 -0.46397849498E+03  0.73981929727E+03  0.19075132914E+04  0.46999998093E+01 0.  1.
</event>
<event>
 5   0  0.2904500E-09  0.3900091E+04  0.7818609E-02  0.8025010E-01
       -1   -1    0    0    0  501  0.00000000000E+00  0.00000000000E+00  0.12227884326E+04  0.12227884326E+04  0.50400001928E-02 0. -1.
        1   -1    0    0  501    0  0.00000000000E+00  0.00000000000E+00 -0.31098403872E+04  0.31098403872E+04  0.50400001928E-02 0.  1.
    10030    2    1    2    0    0  0.00000000000E+00  0.00000000000E+00 -0.18870519546E+04  0.43326288198E+04  0.39000906927E+04 0.  0.
        2    1    3    3  502    0 -0.10975183349E+04 -0.79636876438E+03  0.61329783189E+03  0.14882486133E+04  0.25500000920E-02 0. -1.
       -2    1    3    3    0  502  0.10975183349E+04  0.79636876438E+03 -0.25003497865E+04  0.28443802065E+04  0.25500000920E-02 0.  1.
</event>
<event>
 5   0  0.2904500E-09  0.3891766E+04  0.7818609E-02  0.8026744E-01
        1   -1    0    0  501    0  0.00000000000E+00  0.00000000000E+00  0.20668136992E+04  0.20668136992E+04  0.50400001928E-02 0.  1.
       -1   -1    0    0    0  501  0.00000000000E+00  0.00000000000E+00 -0.18320280274E+04  0.18320280274E+04  0.50400001928E-02 0. -1.
    10030    2    1    2    0    0  0.00000000000E+00  0.00000000000E+00  0.23478567183E+03  0.38988417267E+04  0.38917659870E+04 0.  0.
        2    1    3    3  502    0  0.11721293556E+04 -0.12937573120E+04 -0.74368451378E+03  0.18975673545E+04  0.25500000920E-02 0. -1.
       -2    1    3    3    0  502 -0.11721293556E+04  0.12937573120E+04  0.97847018561E+03  0.20012743722E+04  0.25500000920E-02 0.  1.
</event>
<event>
 5   0  0.9078515E-09  0.3891360E+04  0.7818609E-02  0.8026829E-01
       -2   -1    0    0    0  501  0.00000000000E+00  0.00000000000E+00  0.18225685630E+04  0.18225685630E+04  0.25500000920E-02 0. -1.
        2   -1    0    0  501    0  0.00000000000E+00  0.00000000000E+00 -0.20771074248E+04  0.20771074248E+04  0.25500000920E-02 0.  1.
    10030    2    1    2    0    0  0.00000000000E+00  0.00000000000E+00 -0.25453886186E+03  0.38996759878E+04  0.38913600165E+04 0.  0.
        3    1    3    3  502    0 -0.96278457730E+03 -0.33188756020E+03 -0.17886927089E+04  0.20582820779E+04  0.10100000352E+00 0.  1.
       -3    1    3    3    0  502  0.96278457730E+03  0.33188756020E+03  0.15341538471E+04  0.18413939099E+04  0.10100000352E+00 0. -1.
</event>
<event>
 5   0  0.6335942E-09  0.3899474E+04  0.7818609E-02  0.8025139E-01
        2   -1    0    0  501    0  0.00000000000E+00  0.00000000000E+00  0.14332504773E+04  0.14332504773E+04  0.25500000920E-02 0. -1.
       -2   -1    0    0    0  501  0.00000000000E+00  0.00000000000E+00 -0.26523443204E+04  0.26523443204E+04  0.25500000920E-02 0.  1.
    10030    2    1    2    0    0  0.00000000000E+00  0.00000000000E+00 -0.12190938431E+04  0.40855947978E+04  0.38994736893E+04 0.  0.
        2    1    3    3  502    0 -0.85000695507E+03  0.84280560772E+03 -0.22220438140E+04  0.25239476673E+04  0.25500000920E-02 0.  1.
       -2    1    3    3    0  502  0.85000695507E+03 -0.84280560772E+03  0.10029499708E+04  0.15616471305E+04  0.25500000920E-02 0. -1.
</event>
<event>
 5   0  0.9434114E-09  0.3900059E+04  0.7818609E-02  0.8025017E-01
        2   -1    0    0  501    0  0.00000000000E+00  0.00000000000E+00  0.16309188375E+04  0.16309188375E+04  0.25500000920E-02 0. -1.
       -2   -1    0    0    0  501  0.00000000000E+00  0.00000000000E+00 -0.23315782207E+04  0.23315782207E+04  0.25500000920E-02 0.  1.
    10030    2    1    2    0    0  0.00000000000E+00  0.00000000000E+00 -0.70065938320E+03  0.39624970581E+04  0.39000588924E+04 0.  0.
        4    1    3    3  502    0 -0.62607973742E+03 -0.19790750248E+03 -0.22158820319E+04  0.23111205095E+04  0.12699999809E+01 0.  1.
       -4    1    3    3    0  502  0.62607973742E+03  0.19790750248E+03  0.15152226487E+04  0.16513765486E+04  0.12699999809E+01 0. -1.
</event>
<event>
 5   0  0.2904500E-09  0.3897446E+04  0.7818609E-02  0.8025561E-01
       -1   -1    0    0    0  501  0.00000000000E+00  0.00000000000E+00  0.18775142663E+04  0.18775142663E+04  0.50400001928E-02 0.  1.
        1   -1    0    0  501    0  0.00000000000E+00  0.00000000000E+00 -0.20226323217E+04  0.20226323217E+04  0.50400001928E-02 0. -1.
    10030    2    1    2    0    0  0.00000000000E+00  0.00000000000E+00 -0.14511805538E+03  0.39001465880E+04  0.38974458505E+04 0.  0.
        5    1    3    3  502    0  0.12749602506E+04  0.76341548757E+02 -0.15453626069E+04  0.20048738987E+04  0.46999998093E+01 0. -1.
       -5    1    3    3    0  502 -0.12749602506E+04 -0.76341548757E+02  0.14002445515E+04  0.18952726893E+04  0.46999998093E+01 0.  1.
</event>
<event>
 5   0  0.2904500E-09  0.3903665E+04  0.7818609E-02  0.8024267E-01
        1   -1    0    0  501    0  0.00000000000E+00  0.00000000000E+00  0.23815299317E+04  0.23815299317E+04  0.50400001928E-02 0.  1.
       -1   -1    0    0    0  501  0.00000000000E+00  0.00000000000E+00 -0.15996650329E+04  0.15996650329E+04  0.50400001928E-02 0. -1.
    10030    2    1    2    0    0  0.00000000000E+00  0.00000000000E+00  0.78186489875E+03  0.39811949646E+04  0.39036650248E+04 0.  0.
        3    1    3    3  502    0  0.14925883705E+03  0.10256731243E+04 -0.12958095987E+04  0.16593390505E+04  0.10100000352E+00 0. -1.
       -3    1    3    3    0  502 -0.14925883705E+03 -0.10256731243E+04  0.20776744974E+04  0.23218559141E+04  0.10100000352E+00 0.  1.
</event>
<event>
 5   0  0.9434114E-09  0.3900855E+04  0.7818609E-02  0.8024851E-01
        2   -1    0    0  501    0  0.00000000000E+00  0.00000000000E+00  0.31901660543E+04  0.31901660543E+04  0.25500000920E-02 0.  1.
       -2   -1    0    0    0  501  0.00000000000E+00  0.00000000000E+00 -0.11924668639E+04  0.11924668639E+04  0.25500000920E-02 0. -1.
    10030    2    1    2    0    0  0.00000000000E+00  0.00000000000E+00  0.19976991904E+04  0.43826329181E+04  0.39008549370E+04 0.  0.
        4    1    3    3  502    0  0.11623041218E+03 -0.19036659876E+04  0.54011792784E+03  0.19822166103E+04  0.12699999809E+01 0. -1.
       -4    1    3    3    0  502 -0.11623041218E+03  0.19036659876E+04  0.14575812625E+04  0.24004163079E+04  0.12699999809E+01 0.  1.
</event>
<event>
 5   0  0.9368546E-09  0.3900005E+04  0.7818609E-02  0.8025028E-01
        2   -1    0    0  501    0  0.00000000000E+00  0.00000000000E+00  0.24419777775E+04  0.24419777775E+04  0.25500000920E-02 0. -1.
       -2   -1    0    0    0  501  0.00000000000E+00  0.00000000000E+00 -0.15571438114E+04  0.15571438114E+04  0.25500000920E-02 0.  1.
    10030    2    1    2    0    0  0.00000000000E+00  0.00000000000E+00  0.88483396607E+03  0.39991215890E+04  0.39000054277E+04 0.  0.
        5    1    3    3  502    0 -0.11531596902E+04  0.13656691152E+04  0.12417530271E+04  0.21764195537E+04  0.46999998093E+01 0. -1.
       -5    1    3    3    0  502  0.11531596902E+04 -0.13656691152E+04 -0.35691906100E+03  0.18227020353E+04  0.46999998093E+01 0.  1.
</event>
<event>
 5   0  0.2904500E-09  0.3899947E+04  0.7818609E-02  0.8025040E-01
       -1   -1    0    0    0  501  0.00000000000E+00  0.00000000000E+00  0.12975256018E+04  0.12975256018E+04  0.50400001928E-02 0. -1.
        1   -1    0    0  501    0  0.00000000000E+00  0.00000000000E+00 -0.29304985373E+04  0.29304985373E+04  0.50400001928E-02 0.  1.
    10030    2    1    2    0    0  0.00000000000E+00  0.00000000000E+00 -0.16329729354E+04  0.42280241391E+04  0.38999471167E+04 0.  0.
        5    1    3    3  502    0 -0.13763109615E+04 -0.38618221540E+03 -0.22543326478E+04  0.26693456769E+04  0.46999998093E+01 0.  1.
       -5    1    3    3    0  502  0.13763109615E+04  0.38618221540E+03  0.62135971234E+03  0.15586784621E+04  0.46999998093E+01 0. -1.
</event>
<event>
 5   0  0.2904500E-09  0.3919924E+04  0.7818609E-02  0.8020898E-01
        1   -1    0    0  501    0  0.00000000000E+00  0.00000000000E+00  0.19965287422E+04  0.19965287423E+04  0.50400001928E-02 0.  1.
       -1   -1    0    0    0  501  0.00000000000E+00  0.00000000000E+00 -0.19240646397E+04  0.19240646397E+04  0.50400001928E-02 0. -1.
    10030    2    1    2    0    0  0.00000000000E+00  0.00000000000E+00  0.72464102548E+02  0.39205933820E+04  0.39199236498E+04 0.  0.
        3    1    3    3  502    0 -0.55095909085E+03  0.71441715853E+03  0.17765013279E+04  0.19924619882E+04  0.10100000352E+00 0.  1.
       -3    1    3    3    0  502  0.55095909085E+03 -0.71441715853E+03 -0.17040372253E+04  0.19281313938E+04  0.10100000352E+00 0. -1.
</event>
<event>
 5   0  0.6335942E-09  0.3901099E+04  0.7818609E-02  0.8024801E-01
       -2   -1    0    0    0  501  0.00000000000E+00  0.00000000000E+00  0.15582244564E+04  0.15582244564E+04  0.25500000920E-02 0.  1.
        2   -1    0    0  501    0  0.00000000000E+00  0.00000000000E+00 -0.24416524205E+04  0.24416524205E+04  0.25500000920E-02 0. -1.
    10030    2    1    2    0    0  0.00000000000E+00  0.00000000000E+00 -0.88342796416E+03  0.39998768769E+04  0.39010985713E+04 0.  0.
        2    1    3    3  502    0  0.16379261174E+04 -0.93590458870E+03 -0.95017704116E+03  0.21122395165E+04  0.25500000920E-02 0. -1.
       -2    1    3    3    0  502 -0.16379261174E+04  0.93590458870E+03  0.66749076994E+02  0.18876373605E+04  0.25500000920E-02 0.  1.
</event>
<event>
 5   0  0.9078515E-09  0.3899586E+04  0.7818609E-02  0.8025115E-01
       -2   -1    0    0    0  501  0.00000000000E+00  0.00000000000E+00  0.15698734161E+04  0.15698734161E+04  0.25500000920E-02 0. -1.
        2   -1    0    0  501    0  0.00000000000E+00  0.00000000000E+00 -0.24216556585E+04  0.24216556585E+04  0.25500000920E-02 0.  1.
    10030    2    1    2    0    0  0.00000000000E+00  0.00000000000E+00 -0.85178224237E+03  0.39915290746E+04  0.38995860504E+04 0.  0.
        3    1    3    3  502    0 -0.26094816266E+03 -0.62325205239E+02 -0.24026722243E+04  0.24176046415E+04  0.10100000352E+00 0.  1.
       -3    1    3    3    0  502  0.26094816266E+03  0.62325205239E+02  0.15508899819E+04  0.15739244331E+04  0.10100000352E+00 0. -1.
</event>
<event>
 5   0  0.9434114E-09  0.3901889E+04  0.7818609E-02  0.8024636E-01
        2   -1    0    0  501    0  0.00000000000E+00  0.00000000000E+00  0.23732713693E+04  0.23732713693E+04  0.25500000920E-02 0.  1.
       -2   -1    0    0    0  501  0.00000000000E+00  0.00000000000E+00 -0.16037716094E+04  0.16037716094E+04  0.25500000920E-02 0. -1.
    10030    2    1    2    0    0  0.00000000000E+00  0.00000000000E+00  0.76949975989E+03  0.39770429786E+04  0.39018894107E+04 0.  0.
        4    1    3    3  502    0  0.72814366203E+03 -0.18698978481E+03 -0.14502098424E+04  0.16334835696E+04  0.12699999809E+01 0. -1.
       -4    1    3    3    0  502 -0.72814366203E+03  0.18698978481E+03  0.22197096023E+04  0.23435594090E+04  0.12699999809E+01 0.  1.
</event>
<event>
 5   0  0.6335942E-09  0.3900887E+04  0.7818609E-02  0.8024845E-01
       -2   -1    0    0    0  501  0.00000000000E+00  0.00000000000E+00  0.13659951839E+04  0.13659951839E+04  0.25500000920E-02 0.  1.
        2   -1    0    0  501    0  0.00000000000E+00  0.00000000000E+00 -0.27849505401E+04  0.27849505401E+04  0.25500000920E-02 0. -1.
    10030    2    1    2    0    0  0.00000000000E+00  0.00000000000E+00 -0.14189553562E+04  0.41509457239E+04  0.39008865787E+04 0.  0.
        2    1    3    3  502    0  0.18495325234E+04 -0.50369192952E+02 -0.52725645126E+02  0.18509693688E+04  0.25500000920E-02 0.  1.
       -2    1    3    3    0  502 -0.18495325234E+04  0.50369192952E+02 -0.13662297111E+04  0.22999763551E+04  0.25500000920E-02 0. -1.
</event>
<event>
 5   0  0.9368546E-09  0.3921054E+04  0.7818609E-02  0.8020665E-01
        2   -1    0    0  501    0  0.00000000000E+00  0.00000000000E+00  0.12240115464E+04  0.12240115464E+04  0.25500000920E-02 0.  1.
       -2   -1    0    0    0  501  0.00000000000E+00  0.00000000000E+00 -0.31402206739E+04  0.31402206739E+04  0.25500000920E-02 0. -1.
    10030    2    1    2    0    0  0.00000000000E+00  0.00000000000E+00 -0.19162091275E+04  0.43642322203E+04  0.39210541251E+04 0.  0.
        5    1    3    3  502    0 -0.26139999877E+03 -0.44892410367E+03 -0.30622173233E+04  0.31059716411E+04  0.46999998093E+01 0. -1.
       -5    1    3    3    0  502  0.26139999877E+03  0.44892410367E+03  0.11460081958E+04  0.12582605792E+04  0.46999998093E+01 0.  1.
</event>
<event>
 5   0  0.9078515E-09  0.3887943E+04  0.7818609E-02  0.8027542E-01
        2   -1    0    0  501    0  0.00000000000E+00  0.00000000000E+00  0.19497643736E+04  0.19497643736E+04  0.25500000920E-02 0. -1.
       -2   -1    0    0    0  501  0.00000000000E+00  0.00000000000E+00 -0.19381954850E+04  0.19381954850E+04  0.25500000920E-02 0.  1.
    10030    2    1    2    0    0  0.00000000000E+00  0.00000000000E+00  0.11568888559E+02  0.38879598586E+04  0.38879426466E+04 0.  0.
        3    1    3    3  502    0  0.17390689275E+04  0.35965819229E+03  0.79655323627E+03  0.19463329156E+04  0.10100000352E+00 0.  1.
       -3    1    3    3    0  502 -0.17390689275E+04 -0.35965819229E+03 -0.78498434771E+03  0.19416269431E+04  0.10100000352E+00 0. -1.
</event>
<event>
 5   0  0.2904500E-09  0.3897683E+04  0.7818609E-02  0.8025511E-01
        1   -1    0    0  501    0  0.00000000000E+00  0.00000000000E+00  0.27964411374E+04  0.27964411374E+04  0.50400001928E-02 0.  1.
       -1   -1    0    0    0  501  0.00000000000E+00  0.00000000000E+00 -0.13581489242E+04  0.13581489242E+04  0.50400001928E-02 0. -1.
    10030    2    1    2    0    0  0.00000000000E+00  0.00000000000E+00  0.14382922132E+04  0.41545900616E+04  0.38976831695E+04 0.  0.
        2    1    3    3  502    0 -0.15888332725E+04  0.43092241713E+03 -0.39262601135E+03  0.16924067130E+04  0.25500000920E-02 0. -1.
       -2    1    3    3    0  502  0.15888332725E+04 -0.43092241713E+03  0.18309182245E+04  0.24621833486E+04  0.25500000920E-02 0.  1.
</event>
<event>
 5   0  0.9368546E-09  0.3889725E+04  0.7818609E-02  0.8027170E-01
        2   -1    0    0  501    0  0.00000000000E+00  0.00000000000E+00  0.11206418056E+04  0.11206418056E+04  0.25500000920E-02 0. -1.
       -2   -1    0    0    0  501  0.00000000000E+00  0.00000000000E+00 -0.33752888565E+04  0.33752888565E+04  0.25500000920E-02 0.  1.
    10030    2    1    2    0    0  0.00000000000E+00  0.00000000000E+00 -0.22546470509E+04  0.44959306621E+04  0.38897248225E+04 0.  0.
        5    1    3    3  502    0 -0.15547189926E+04 -0.11664398428E+04 -0.12068560816E+04  0.22878498081E+04  0.46999998093E+01 0.  1.
       -5    1    3    3    0  502  0.15547189926E+04  0.11664398428E+04 -0.10477909693E+04  0.22080808540E+04  0.46999998093E+01 0. -1.
</event>
<event>
 5   0  0.2904500E-09  0.3869444E+04  0.7818609E-02  0.8031414E-01
       -1   -1    0    0    0  501  0.00000000000E+00  0.00000000000E+00  0.12073838796E+04  0.12073838796E+04  0.50400001928E-02 0.  1.
        1   -1    0    0  501    0  0.00000000000E+00  0.00000000000E+00 -0.31002146644E+04  0.31002146644E+04  0.50400001928E-02 0. -1.
    10030    2    1    2    0    0  0.00000000000E+00  0.00000000000E+00 -0.18928307848E+04  0.43075985440E+04  0.38694439958E+04 0.  0.
        5    1    3    3  502    0  0.91358453992E+03 -0.11346129427E+04 -0.23638317371E+04  0.27766357004E+04  0.46999998093E+01 0. -1.
       -5    1    3    3    0  502 -0.91358453992E+03  0.11346129427E+04  0.47100095234E+03  0.15309628436E+04  0.46999998093E+01 0.  1.
</event>
<event>
 5   0  0.2904500E-09  0.3899840E+04  0.7818609E-02  0.8025062E-01
        1   -1    0    0  501    0  0.00000000000E+00  0.00000000000E+00  0.19442558593E+04  0.19442558593E+04  0.50400001928E-02 0.  1.
       -1   -1    0    0    0  501  0.00000000000E+00  0.00000000000E+00 -0.19556007933E+04  0.19556007933E+04  0.50400001928E-02 0. -1.
    10030    2    1    2    0    0  0.00000000000E+00  0.00000000000E+00 -0.11344934061E+02  0.38998566526E+04  0.38998401510E+04 0.  0.
        5    1    3    3  502    0  0.15642292930E+04 -0.81804806666E+03 -0.83401786430E+03  0.19523380364E+04  0.46999998093E+01 0. -1.
       -5    1    3    3    0  502 -0.15642292930E+04  0.81804806666E+03  0.82267293024E+03  0.19475186162E+04  0.46999998093E+01 0.  1.
</event>
<event>
 5   0  0.2904500E-09  0.3903087E+04  0.7818609E-02  0.8024387E-01
        1   -1    0    0  501    0  0.00000000000E+00  0.00000000000E+00  0.27733900096E+04  0.27733900096E+04  0.50400001928E-02 0. -1.
       -1   -1    0    0    0  501  0.00000000000E+00  0.00000000000E+00 -0.13732370850E+04  0.13732370850E+04  0.50400001928E-02 0.  1.
    10030    2    1    2    0    0  0.00000000000E+00  0.00000000000E+00  0.14001529246E+04  0.41466270946E+04  0.39030869897E+04 0.  0.
        5    1    3    3  502    0 -0.95187678614E+03 -0.13417443933E+04 -0.41526434815E+03  0.16967068108E+04  0.46999998093E+01 0.  1.
       -5    1    3    3    0  502  0.95187678614E+03  0.13417443933E+04  0.18154172727E+04  0.24499202838E+04  0.46999998093E+01 0. -1.
</event>
<event>
 5   0  0.2904500E-09  0.3899839E+04  0.7818609E-02  0.8025063E-01
        1   -1    0    0  501    0  0.00000000000E+00  0.00000000000E+00  0.22379226136E+04  0.22379226136E+04  0.50400001928E-02 0.  1.
       -1   -1    0    0    0  501  0.00000000000E+00  0.00000000000E+00 -0.16989797529E+04  0.16989797529E+04  0.50400001928E-02 0. -1.
    10030    2    1    2    0    0  0.00000000000E+00  0.00000000000E+00  0.53894286073E+03  0.39369023665E+04  0.38998385654E+04 0.  0.
        4    1    3    3  502    0 -0.18408997693E+04 -0.30615495355E+03 -0.30118032889E+03  0.18903317221E+04  0.12699999809E+01 0. -1.
       -4    1    3    3    0  502  0.18408997693E+04  0.30615495355E+03  0.84012318963E+03  0.20465706444E+04  0.12699999809E+01 0.  1.
</event>
<event>
 5   0  0.9277261E-09  0.3896367E+04  0.7818609E-02  0.8025785E-01
        2   -1    0    0  501    0  0.00000000000E+00  0.00000000000E+00  0.35176169039E+04  0.35176169039E+04  0.25500000920E-02 0. -1.
       -2   -1    0    0    0  501  0.00000000000E+00  0.00000000000E+00 -0.10789743635E+04  0.10789743635E+04  0.25500000920E-02 0.  1.
    10030    2    1    2    0    0  0.00000000000E+00  0.00000000000E+00  0.24386425405E+04  0.45965912674E+04  0.38963667485E+04 0.  0.
        1    1    3    3  502    0 -0.57744502757E+03  0.42639192432E+03  0.33559248212E+04  0.34318339469E+04  0.50400001928E-02 0. -1.
       -1    1    3    3    0  502  0.57744502757E+03 -0.42639192432E+03 -0.91728228078E+03  0.11647573205E+04  0.50400001928E-02 0.  1.
</event>
<event>
 5   0  0.9368546E-09  0.3899079E+04  0.7818609E-02  0.8025221E-01
       -2   -1    0    0    0  501  0.00000000000E+00  0.00000000000E+00  0.25115034326E+04  0.25115034326E+04  0.25500000920E-02 0.  1.
        2   -1    0    0  501    0  0.00000000000E+00  0.00000000000E+00 -0.15133186181E+04  0.15133186181E+04  0.25500000920E-02 0. -1.
    10030    2    1    2    0    0  0.00000000000E+00  0.00000000000E+00  0.99818481454E+03  0.40248220507E+04  0.38990793292E+04 0.  0.
        5    1    3    3  502    0  0.10869690870E+04 -0.80030088160E+03  0.19511188865E+04  0.23725240350E+04  0.46999998093E+01 0.  1.
       -5    1    3    3    0  502 -0.10869690870E+04  0.80030088160E+03 -0.95293407194E+03  0.16522980157E+04  0.46999998093E+01 0. -1.
</event>
<event>
 5   0  0.2904500E-09  0.3891912E+04  0.7818609E-02  0.8026713E-01
       -1   -1    0    0    0  501  0.00000000000E+00  0.00000000000E+00  0.17096961852E+04  0.17096961852E+04  0.50400001928E-02 0.  1.
        1   -1    0    0  501    0  0.00000000000E+00  0.00000000000E+00 -0.22148644027E+04  0.22148644027E+04  0.50400001928E-02 0. -1.
    10030    2    1    2    0    0  0.00000000000E+00  0.00000000000E+00 -0.50516821745E+03  0.39245605879E+04  0.38919122396E+04 0.  0.
        4    1    3    3  502    0 -0.14097336638E+04  0.22548193333E+03  0.10808370372E+04  0.17906427391E+04  0.12699999809E+01 0.  1.
       -4    1    3    3    0  502  0.14097336638E+04 -0.22548193333E+03 -0.15860052546E+04  0.21339178489E+04  0.12699999809E+01 0. -1.
</event>
<event>
 5   0  0.6335942E-09  0.3900370E+04  0.7818609E-02  0.8024952E-01
       -2   -1    0    0    0  501  0.00000000000E+00  0.00000000000E+00  0.24536461429E+04  0.24536461429E+04  0.25500000920E-02 0.  1.
        2   -1    0    0  501    0  0.00000000000E+00  0.00000000000E+00 -0.15500282922E+04  0.15500282922E+04  0.25500000920E-02 0. -1.
    10030    2    1    2    0    0  0.00000000000E+00  0.00000000000E+00  0.90361785076E+03  0.40036744351E+04  0.39003696956E+04 0.  0.
        2    1    3    3  502    0  0.87497071505E+03 -0.89659539261E+03 -0.10823544633E+04  0.16555809356E+04  0.25500000920E-02 0. -1.
       -2    1    3    3    0  502 -0.87497071505E+03  0.89659539261E+03  0.19859723140E+04  0.23480934995E+04  0.25500000920E-02 0.  1.
</event>
<event>
 5   0  0.6335942E-09  0.3900808E+04  0.7818609E-02  0.8024861E-01
        2   -1    0    0  501    0  0.00000000000E+00  0.00000000000E+00  0.15580772546E+04  0.15580772546E+04  0.25500000920E-02 0.  1.
       -2   -1    0    0    0  501  0.00000000000E+00  0.00000000000E+00 -0.24415191983E+04  0.24415191983E+04  0.25500000920E-02 0. -1.
    10030    2    1    2    0    0  0.00000000000E+00  0.00000000000E+00 -0.88344194375E+03  0.39995964529E+04  0.39008078801E+04 0.  0.
        2    1    3    3  502    0  0.66371777309E+03  0.44083106884E+02 -0.23216235204E+04  0.24150363088E+04  0.25500000920E-02 0. -1.
       -2    1    3    3    0  502 -0.66371777309E+03 -0.44083106884E+02  0.14381815766E+04  0.15845601440E+04  0.25500000920E-02 0.  1.
</event>
<event>
 5   0  0.2904500E-09  0.3898355E+04  0.7818609E-02  0.8025371E-01
        1   -1    0    0  501    0  0.00000000000E+00  0.00000000000E+00  0.20418248009E+04  0.20418248009E+04  0.50400001928E-02 0. -1.
       -1   -1    0    0    0  501  0.00000000000E+00  0.00000000000E+00 -0.18607336923E+04  0.18607336923E+04  0.50400001928E-02 0.  1.
    10030    2    1    2    0    0  0.00000000000E+00  0.00000000000E+00  0.18109110859E+03  0.39025584931E+04  0.38983546276E+04 0.  0.
        4    1    3    3  502    0  0.89347333111E+02 -0.18585743061E+04 -0.49060539255E+03  0.19243119969E+04  0.12699999809E+01 0.  1.
       -4    1    3    3    0  502 -0.89347333111E+02  0.18585743061E+04  0.67169650114E+03  0.19782464962E+04  0.12699999809E+01 0. -1.
</event>
<event>
 5   0  0.9078515E-09  0.3900127E+04  0.7818609E-02  0.8025003E-01
        2   -1    0    0  501    0  0.00000000000E+00  0.00000000000E+00  0.25805822588E+04  0.25805822588E+04  0.25500000920E-02 0. -1.
       -2   -1    0    0    0  501  0.00000000000E+00  0.00000000000E+00 -0.14736006896E+04  0.14736006896E+04  0.25500000920E-02 0.  1.
    10030    2    1    2    0    0  0.00000000000E+00  0.00000000000E+00  0.11069815692E+04  0.40541829485E+04  0.39001270729E+04 0.  0.
        3    1    3    3  502    0 -0.12099789822E+04 -0.53326735357E+03 -0.93641606395E+03  0.16202772179E+04  0.10100000352E+00 0.  1.
       -3    1    3    3    0  502  0.12099789822E+04  0.53326735357E+03  0.20433976332E+04  0.24339057306E+04  0.10100000352E+00 0. -1.
</event>
<event>
 5   0  0.2904500E-09  0.3900949E+04  0.7818609E-02  0.8024832E-01
       -1   -1    0    0    0  501  0.00000000000E+00  0.00000000000E+00  0.32379162171E+04  0.32379162171E+04  0.50400001928E-02 0.  1.
        1   -1    0    0  501    0  0.00000000000E+00  0.00000000000E+00 -0.11749379253E+04  0.11749379253E+04  0.50400001928E-02 0. -1.
    10030    2    1    2    0    0  0.00000000000E+00  0.00000000000E+00  0.20629782918E+04  0.44128541425E+04  0.39009488910E+04 0.  0.
        3    1    3    3  502    0 -0.16624900987E+04  0.80858607626E+03  0.17349131473E+04  0.25352728472E+04  0.10100000352E+00 0.  1.
       -3    1    3    3    0  502  0.16624900987E+04 -0.80858607626E+03  0.32806514447E+03  0.18775812952E+04  0.10100000352E+00 0. -1.
</event>
<event>
 5   0  0.6335942E-09  0.3903122E+04  0.7818609E-02  0.8024380E-01
       -2   -1    0    0    0  501  0.00000000000E+00  0.00000000000E+00  0.24240476646E+04  0.24240476646E+04  0.25500000920E-02 0. -1.
        2   -1    0    0  501    0  0.00000000000E+00  0.00000000000E+00 -0.15711696666E+04  0.15711696666E+04  0.25500000920E-02 0.  1.
    10030    2    1    2    0    0  0.00000000000E+00  0.00000000000E+00  0.85287799795E+03  0.39952173312E+04  0.39031219100E+04 0.  0.
        2    1    3    3  502    0 -0.78953191949E+03  0.14092759098E+04  0.15473440772E+04  0.22368935905E+04  0.25500000920E-02 0. -1.
       -2    1    3    3    0  502  0.78953191949E+03 -0.14092759098E+04 -0.69446607928E+03  0.17583237407E+04  0.25500000920E-02 0.  1.
</event>
<event>
 5   0  0.2904500E-09  0.3903782E+04  0.7818609E-02  0.8024243E-01
        3   -1    0    0  501    0  0.00000000000E+00  0.00000000000E+00  0.14861243315E+04  0.14861243349E+04  0.10100000352E+00 0.  1.
       -3   -1    0    0    0  501  0.00000000000E+00  0.00000000000E+00 -0.25636338122E+04  0.25636338142E+04  0.10100000352E+00 0. -1.
    10030    2    1    2    0    0  0.00000000000E+00  0.00000000000E+00 -0.10775094808E+04  0.40497581491E+04  0.39037820617E+04 0.  0.
        4    1    3    3  502    0  0.67153719779E+03 -0.18257272214E+04 -0.37265871473E+03  0.19806863016E+04  0.12699999809E+01 0. -1.
       -4    1    3    3    0  502 -0.67153719779E+03  0.18257272214E+04 -0.70485076603E+03  0.20690718475E+04  0.12699999809E+01 0.  1.
</event>
<event>
 5   0  0.9368546E-09  0.3901378E+04  0.7818609E-02  0.8024743E-01
       -2   -1    0    0    0  501  0.00000000000E+00  0.00000000000E+00  0.12920990926E+04  0.12920990926E+04  0.25500000920E-02 0. -1.
        2   -1    0    0  501    0  0.00000000000E+00  0.00000000000E+00 -0.29449652533E+04  0.29449652533E+04  0.25500000920E-02 0.  1.
    10030    2    1    2    0    0  0.00000000000E+00  0.00000000000E+00 -0.16528661607E+04  0.42370643458E+04  0.39013776702E+04 0.  0.
        5    1    3    3  502    0  0.12665405026E+04  0.28287454891E+03 -0.24081168228E+04  0.27355422821E+04  0.46999998093E+01 0.  1.
       -5    1    3    3    0  502 -0.12665405026E+04 -0.28287454891E+03  0.75525066214E+03  0.15015220637E+04  0.46999998093E+01 0. -1.
</event>
<event>
 5   0  0.2929054E-09  0.3902485E+04  0.7818609E-02  0.8024513E-01
        1   -1    0    0  501    0  0.00000000000E+00  0.00000000000E+00  0.13069113024E+04  0.13069113024E+04  0.50400001928E-02 0. -1.
       -1   -1    0    0    0  501  0.00000000000E+00  0.00000000000E+00 -0.29132412233E+04  0.29132412233E+04  0.50400001928E-02 0.  1.
    10030    2    1    2    0    0  0.00000000000E+00  0.00000000000E+00 -0.16063299209E+04  0.42201525257E+04  0.39024853011E+04 0.  0.
        1    1    3    3  502    0  0.10711640634E+04 -0.10528981663E+04 -0.21500895759E+04  0.26227604130E+04  0.50400001928E-02 0.  1.
       -1    1    3    3    0  502 -0.10711640634E+04  0.10528981663E+04  0.54375965507E+03  0.15973921127E+04  0.50400001928E-02 0. -1.
</event>
<event>
 5   0  0.2929054E-09  0.3897976E+04  0.7818609E-02  0.8025450E-01
        1   -1    0    0  501    0  0.00000000000E+00  0.00000000000E+00  0.26925652943E+04  0.26925652943E+04  0.50400001928E-02 0.  1.
       -1   -1    0    0    0  501  0.00000000000E+00  0.00000000000E+00 -0.14107568056E+04  0.14107568056E+04  0.50400001928E-02 0. -1.
    10030    2    1    2    0    0  0.00000000000E+00  0.00000000000E+00  0.12818084887E+04  0.41033221000E+04  0.38979763025E+04 0.  0.
        1    1    3    3  502    0  0.41299915790E+02  0.18643290932E+04  0.12374369504E+04  0.22380077875E+04  0.50400001928E-02 0.  1.
       -1    1    3    3    0  502 -0.41299915790E+02 -0.18643290932E+04  0.44371538265E+02  0.18653143124E+04  0.50400001928E-02 0. -1.
</event>
<event>
 5   0  0.2904500E-09  0.3898664E+04  0.7818609E-02  0.8025307E-01
        1   -1    0    0  501    0  0.00000000000E+00  0.00000000000E+00  0.26109554603E+04  0.26109554603E+04  0.50400001928E-02 0.  1.
       -1   -1    0    0    0  501  0.00000000000E+00  0.00000000000E+00 -0.14553656440E+04  0.14553656440E+04  0.50400001928E-02 0. -1.
    10030    2    1    2    0    0  0.00000000000E+00  0.00000000000E+00  0.11555898163E+04  0.40663211043E+04  0.38986638095E+04 0.  0.
        3    1    3    3  502    0 -0.12626874163E+04  0.67049493658E+02  0.21251780126E+04  0.24729045152E+04  0.10100000352E+00 0.  1.
       -3    1    3    3    0  502  0.12626874163E+04 -0.67049493658E+02 -0.96958819624E+03  0.15934165891E+04  0.10100000352E+00 0. -1.
</event>
<event>
 5   0  0.6335942E-09  0.3900010E+04  0.7818609E-02  0.8025027E-01
        2   -1    0    0  501    0  0.00000000000E+00  0.00000000000E+00  0.24544120952E+04  0.24544120952E+04  0.25500000920E-02 0. -1.
       -2   -1    0    0    0  501  0.00000000000E+00  0.00000000000E+00 -0.15492590900E+04  0.15492590900E+04  0.25500000920E-02 0.  1.
    10030    2    1    2    0    0  0.00000000000E+00  0.00000000000E+00  0.90515300526E+03  0.40036711852E+04  0.39000103841E+04 0.  0.
        2    1    3    3  502    0  0.19307294130E+03 -0.14356426687E+04 -0.88756145048E+03  0.16988561920E+04  0.25500000920E-02 0.  1.
       -2    1    3    3    0  502 -0.19307294130E+03  0.14356426687E+04  0.17927144557E+04  0.23048149932E+04  0.25500000920E-02 0. -1.
</event>
<event>
 5   0  0.9277261E-09  0.3902361E+04  0.7818609E-02  0.8024538E-01
        2   -1    0    0  501    0  0.00000000000E+00  0.00000000000E+00  0.11821284431E+04  0.11821284431E+04  0.25500000920E-02 0. -1.
       -2   -1    0    0    0  501  0.00000000000E+00  0.00000000000E+00 -0.32205520243E+04  0.32205520243E+04  0.25500000920E-02 0.  1.
    10030    2    1    2    0    0  0.00000000000E+00  0.00000000000E+00 -0.20384235812E+04  0.44026804674E+04  0.39023614135E+04 0.  0.
        1    1    3    3  502    0 -0.12153421604E+04  0.10203707557E+04  0.26163778380E+03  0.16083119647E+04  0.50400001928E-02 0. -1.
       -1    1    3    3    0  502  0.12153421604E+04 -0.10203707557E+04 -0.23000613650E+04  0.27943685027E+04  0.50400001928E-02 0.  1.
</event>
<event>
 5   0  0.9368546E-09  0.3896548E+04  0.7818609E-02  0.8025747E-01
        2   -1    0    0  501    0  0.00000000000E+00  0.00000000000E+00  0.14740660630E+04  0.14740660630E+04  0.25500000920E-02 0. -1.
       -2   -1    0    0    0  501  0.00000000000E+00  0.00000000000E+00 -0.25750354587E+04  0.25750354587E+04  0.25500000920E-02 0.  1.
    10030    2    1    2    0    0  0.00000000000E+00  0.00000000000E+00 -0.11009693956E+04  0.40491015217E+04  0.38965484115E+04 0.  0.
        5    1    3    3  502    0 -0.42555419602E+03 -0.18327602596E+04 -0.10758920884E+04  0.21674114558E+04  0.46999998093E+01 0.  1.
       -5    1    3    3    0  502  0.42555419602E+03  0.18327602596E+04 -0.25077307286E+02  0.18816900659E+04  0.46999998093E+01 0. -1.
</event>
<event>
 5   0  0.9368546E-09  0.3899617E+04  0.7818609E-02  0.8025109E-01
       -2   -1    0    0    0  501  0.00000000000E+00  0.00000000000E+00  0.15104265622E+04  0.15104265622E+04  0.25500000920E-02 0.  1.
        2   -1    0    0  501    0  0.00000000000E+00  0.00000000000E+00 -0.25170057816E+04  0.25170057816E+04  0.25500000920E-02 0. -1.
    10030    2    1    2    0    0  0.00000000000E+00  0.00000000000E+00 -0.10065792194E+04  0.40274323438E+04  0.38996165913E+04 0.  0.
        5    1    3    3  502    0  0.61811051380E+03 -0.34138352068E+01  0.14065534627E+04  0.15363876447E+04  0.46999998093E+01 0.  1.
       -5    1    3    3    0  502 -0.61811051380E+03  0.34138352068E+01 -0.24131326821E+04  0.24910446991E+04  0.46999998093E+01 0. -1.
</event>
<event>
 5   0  0.2904500E-09  0.3898685E+04  0.7818609E-02  0.8025303E-01
        1   -1    0    0  501    0  0.00000000000E+00  0.00000000000E+00  0.21448695540E+04  0.21448695540E+04  0.50400001928E-02 0. -1.
       -1   -1    0    0    0  501  0.00000000000E+00  0.00000000000E+00 -0.17716397725E+04  0.17716397725E+04  0.50400001928E-02 0.  1.
    10030    2    1    2    0    0  0.00000000000E+00  0.00000000000E+00  0.37322978152E+03  0.39165093265E+04  0.38986850135E+04 0.  0.
        5    1    3    3  502    0  0.43277300565E+03 -0.19231314219E+03 -0.17129657983E+04  0.17772311991E+04  0.46999998093E+01 0.  1.
       -5    1    3    3    0  502 -0.43277300565E+03  0.19231314219E+03  0.20861955798E+04  0.21392781274E+04  0.46999998093E+01 0. -1.
</event>
<event>
 5   0  0.6335942E-09  0.3899214E+04  0.7818609E-02  0.8025193E-01
        2   -1    0    0  501    0  0.00000000000E+00  0.00000000000E+00  0.14053856731E+04  0.14053856731E+04  0.25500000920E-02 0.  1.
       -2   -1    0    0    0  501  0.00000000000E+00  0.00000000000E+00 -0.27045719042E+04  0.27045719042E+04  0.25500000920E-02 0. -1.
    10030    2    1    2    0    0  0.00000000000E+00  0.00000000000E+00 -0.12991862311E+04  0.41099575773E+04  0.38992135648E+04 0.  0.
        2    1    3    3  502    0 -0.16183165324E+04  0.52968014253E+03 -0.16503598505E+04  0.23713281276E+04  0.25500000920E-02 0. -1.
       -2    1    3    3    0  502  0.16183165324E+04 -0.52968014253E+03  0.35117361946E+03  0.17386294497E+04  0.25500000920E-02 0.  1.
</event>
<event>
 5   0  0.2904500E-09  0.3899106E+04  0.7818609E-02  0.8025215E-01
       -1   -1    0    0    0  501  0.00000000000E+00  0.00000000000E+00  0.22406465765E+04  0.22406465765E+04  0.50400001928E-02 0.  1.
        1   -1    0    0  501    0  0.00000000000E+00  0.00000000000E+00 -0.16962766059E+04  0.16962766059E+04  0.50400001928E-02 0. -1.
    10030    2    1    2    0    0  0.00000000000E+00  0.00000000000E+00  0.54436997063E+03  0.39369231824E+04  0.38991057281E+04 0.  0.
        3    1    3    3  502    0  0.15439448098E+04 -0.80652086450E+03 -0.61181493095E+03  0.18462283176E+04  0.10100000352E+00 0. -1.
       -3    1    3    3    0  502 -0.15439448098E+04  0.80652086450E+03  0.11561849016E+04  0.20906948648E+04  0.10100000352E+00 0.  1.
</event>
<event>
 5   0  0.9434114E-09  0.3899256E+04  0.7818609E-02  0.8025184E-01
       -2   -1    0    0    0  501  0.00000000000E+00  0.00000000000E+00  0.27929651100E+04  0.27929651100E+04  0.25500000920E-02 0.  1.
        2   -1    0    0  501    0  0.00000000000E+00  0.00000000000E+00 -0.13609366717E+04  0.13609366717E+04  0.25500000920E-02 0. -1.
    10030    2    1    2    0    0  0.00000000000E+00  0.00000000000E+00  0.14320284383E+04  0.41539017817E+04  0.38992556423E+04 0.  0.
        4    1    3    3  502    0  0.16576458126E+03 -0.84730459731E+03 -0.11461839503E+04  0.14349711627E+04  0.12699999809E+01 0. -1.
       -4    1    3    3    0  502 -0.16576458126E+03  0.84730459731E+03  0.25782123886E+04  0.27189306189E+04  0.12699999809E+01 0.  1.
</event>
<event>
 5   0  0.2929054E-09  0.3899233E+04  0.7818609E-02  0.8025189E-01
        1   -1    0    0  501    0  0.00000000000E+00  0.00000000000E+00  0.20247465940E+04  0.20247465940E+04  0.50400001928E-02 0.  1.
       -1   -1    0    0    0  501  0.00000000000E+00  0.00000000000E+00 -0.18772745281E+04  0.18772745281E+04  0.50400001928E-02 0. -1.
    10030    2    1    2    0    0  0.00000000000E+00  0.00000000000E+00  0.14747206594E+03  0.39020211222E+04  0.38992333641E+04 0.  0.
        1    1    3    3  502    0 -0.11571091732E+04 -0.14593018511E+04  0.65081258508E+03  0.19728204562E+04  0.50400001928E-02 0.  1.
       -1    1    3    3    0  502  0.11571091732E+04  0.14593018511E+04 -0.50334051914E+03  0.19292006660E+04  0.50400001928E-02 0. -1.
</event>
<event>
 5   0  0.2929054E-09  0.3898299E+04  0.7818609E-02  0.8025383E-01
       -1   -1    0    0    0  501  0.00000000000E+00  0.00000000000E+00  0.29526108222E+04  0.29526108222E+04  0.50400001928E-02 0.  1.
        1   -1    0    0  501    0  0.00000000000E+00  0.00000000000E+00 -0.12867200187E+04  0.12867200187E+04  0.50400001928E-02 0. -1.
    10030    2    1    2    0    0  0.00000000000E+00  0.00000000000E+00  0.16658908035E+04  0.42393308409E+04  0.38982988353E+04 0.  0.
        1    1    3    3  502    0  0.18262601221E+04 -0.27207893320E+03  0.15387348475E+03  0.18528167823E+04  0.50400001928E-02 0. -1.
       -1    1    3    3    0  502 -0.18262601221E+04  0.27207893320E+03  0.15120173187E+04  0.23865140586E+04  0.50400001928E-02 0.  1.
</event>
<event>
 5   0  0.9434114E-09  0.3915378E+04  0.7818609E-02  0.8021839E-01
       -2   -1    0    0    0  501  0.00000000000E+00  0.00000000000E+00  0.22463706107E+04  0.22463706107E+04  0.25500000920E-02 0. -1.
        2   -1    0    0  501    0  0.00000000000E+00  0.00000000000E+00 -0.17061055357E+04  0.17061055357E+04  0.25500000920E-02 0.  1.
    10030    2    1    2    0    0  0.00000000000E+00  0.00000000000E+00  0.54026507502E+03  0.39524761463E+04  0.39153775471E+04 0.  0.
        4    1    3    3  502    0 -0.18619100307E+04 -0.31704748740E+03  0.79010105021E+03  0.20473127153E+04  0.12699999809E+01 0. -1.
       -4    1    3    3    0  502  0.18619100307E+04  0.31704748740E+03 -0.24983597519E+03  0.19051634311E+04  0.12699999809E+01 0.  1.
</event>
<event>
 5   0  0.9277261E-09  0.3900309E+04  0.7818609E-02  0.8024965E-01
       -2   -1    0    0    0  501  0.00000000000E+00  0.00000000000E+00  0.21617297308E+04  0.21617297308E+04  0.25500000920E-02 0.  1.
        2   -1    0    0  501    0  0.00000000000E+00  0.00000000000E+00 -0.17592864133E+04  0.17592864133E+04  0.25500000920E-02 0. -1.
    10030    2    1    2    0    0  0.00000000000E+00  0.00000000000E+00  0.40244331753E+03  0.39210161441E+04  0.39003085747E+04 0.  0.
        1    1    3    3  502    0 -0.38824589621E+03  0.18379898823E+04 -0.32516122243E+03  0.19064814460E+04  0.50400001928E-02 0. -1.
       -1    1    3    3    0  502  0.38824589621E+03 -0.18379898823E+04  0.72760453996E+03  0.20145346981E+04  0.50400001928E-02 0.  1.
</event>
<event>
 5   0  0.6335942E-09  0.3901043E+04  0.7818609E-02  0.8024812E-01
        2   -1    0    0  501    0  0.00000000000E+00  0.00000000000E+00  0.11285160537E+04  0.11285160537E+04  0.25500000920E-02 0.  1.
       -2   -1    0    0    0  501  0.00000000000E+00  0.00000000000E+00 -0.33712710921E+04  0.33712710921E+04  0.25500000920E-02 0. -1.
    10030    2    1    2    0    0  0.00000000000E+00  0.00000000000E+00 -0.22427550384E+04  0.44997871458E+04  0.39010427062E+04 0.  0.
        2    1    3    3  502    0 -0.12041972559E+04  0.57156418668E+02 -0.28900760080E+04  0.31314369257E+04  0.25500000920E-02 0. -1.
       -2    1    3    3    0  502  0.12041972559E+04 -0.57156418668E+02  0.64732096969E+03  0.13683502202E+04  0.25500000920E-02 0.  1.
</event>
<event>
 5   0  0.6335942E-09  0.3904502E+04  0.7818609E-02  0.8024094E-01
        2   -1    0    0  501    0  0.00000000000E+00  0.00000000000E+00  0.24887757746E+04  0.24887757746E+04  0.25500000920E-02 0.  1.
       -2   -1    0    0    0  501  0.00000000000E+00  0.00000000000E+00 -0.15313888596E+04  0.15313888596E+04  0.25500000920E-02 0. -1.
    10030    2    1    2    0    0  0.00000000000E+00  0.00000000000E+00  0.95738691504E+03  0.40201646342E+04  0.39045017583E+04 0.  0.
        2    1    3    3  502    0 -0.55276880660E+03 -0.10901625191E+04 -0.10886604872E+04  0.16368229373E+04  0.25500000920E-02 0. -1.
       -2    1    3    3    0  502  0.55276880660E+03  0.10901625191E+04  0.20460474023E+04  0.23833416969E+04  0.25500000920E-02 0.  1.
</event>
<event>
 5   0  0.2929054E-09  0.3901656E+04  0.7818609E-02  0.8024685E-01
       -1   -1    0    0    0  501  0.00000000000E+00  0.00000000000E+00  0.13685705393E+04  0.13685705393E+04  0.50400001928E-02 0.  1.
        1   -1    0    0  501    0  0.00000000000E+00  0.00000000000E+00 -0.27808063862E+04  0.27808063862E+04  0.50400001928E-02 0. -1.
    10030    2    1    2    0    0  0.00000000000E+00  0.00000000000E+00 -0.14122358469E+04  0.41493769255E+04  0.39016559026E+04 0.  0.
        1    1    3    3  502    0  0.11908182750E+04  0.14447354642E+03  0.93000346324E+03  0.15178363585E+04  0.50400001928E-02 0.  1.
       -1    1    3    3    0  502 -0.11908182750E+04 -0.14447354642E+03 -0.23422393101E+04  0.26315405670E+04  0.50400001928E-02 0. -1.
</event>
<event>
 5   0  0.2904500E-09  0.3897248E+04  0.7818609E-02  0.8025602E-01
        1   -1    0    0  501    0  0.00000000000E+00  0.00000000000E+00  0.21470663365E+04  0.21470663365E+04  0.50400001928E-02 0. -1.
       -1   -1    0    0    0  501  0.00000000000E+00  0.00000000000E+00 -0.17685227674E+04  0.17685227674E+04  0.50400001928E-02 0.  1.
    10030    2    1    2    0    0  0.00000000000E+00  0.00000000000E+00  0.37854356910E+03  0.39155891039E+04  0.38972481057E+04 0.  0.
        3    1    3    3  502    0 -0.13202296123E+04 -0.20118932140E+03  0.16149821259E+04  0.20956265529E+04  0.10100000352E+00 0. -1.
       -3    1    3    3    0  502  0.13202296123E+04  0.20118932140E+03 -0.12364385568E+04  0.18199625510E+04  0.10100000352E+00 0.  1.
</event>
<event>
 5   0  0.6335942E-09  0.3899822E+04  0.7818609E-02  0.8025066E-01
       -2   -1    0    0    0  501  0.00000000000E+00  0.00000000000E+00  0.21197170951E+04  0.21197170951E+04  0.25500000920E-02 0.  1.
        2   -1    0    0  501    0  0.00000000000E+00  0.00000000000E+00 -0.17937081313E+04  0.17937081313E+04  0.25500000920E-02 0. -1.
    10030    2    1    2    0    0  0.00000000000E+00  0.00000000000E+00  0.32600896372E+03  0.39134252264E+04  0.38998224521E+04 0.  0.
        2    1    3    3  502    0 -0.49346907658E+03 -0.16582083364E+04 -0.73956994194E+03  0.18815234028E+04  0.25500000920E-02 0. -1.
       -2    1    3    3    0  502  0.49346907658E+03  0.16582083364E+04  0.10655789057E+04  0.20319018236E+04  0.25500000920E-02 0.  1.
</event>
<event>
 5   0  0.2904500E-09  0.3899244E+04  0.7818609E-02  0.8025186E-01
        1   -1    0    0  501    0  0.00000000000E+00  0.00000000000E+00  0.16654573149E+04  0.16654573149E+04  0.50400001928E-02 0. -1.
       -1   -1    0    0    0  501  0.00000000000E+00  0.00000000000E+00 -0.22822715668E+04  0.22822715668E+04  0.50400001928E-02 0.  1.
    10030    2    1    2    0    0  0.00000000000E+00  0.00000000000E+00 -0.61681425186E+03  0.39477288817E+04  0.38992439655E+04 0.  0.
        2    1    3    3  502    0 -0.17792476291E+04  0.28637526214E+03 -0.10614929665E+04  0.20915305961E+04  0.25500000920E-02 0. -1.
       -2    1    3    3    0  502  0.17792476291E+04 -0.28637526214E+03  0.44467871467E+03  0.18561982856E+04  0.25500000920E-02 0.  1.
</event>
<event>
 5   0  0.2904500E-09  0.3899686E+04  0.7818609E-02  0.8025094E-01
        1   -1    0    0  501    0  0.00000000000E+00  0.00000000000E+00  0.18232432218E+04  0.18232432219E+04  0.50400001928E-02 0.  1.
       -1   -1    0    0    0  501  0.00000000000E+00  0.00000000000E+00 -0.20852337002E+04  0.20852337002E+04  0.50400001928E-02 0. -1.
    10030    2    1    2    0    0  0.00000000000E+00  0.00000000000E+00 -0.26199047837E+03  0.39084769221E+04  0.38996862489E+04 0.  0.
        2    1    3    3  502    0  0.61346151841E+03  0.96484640277E+03 -0.17139936715E+04  0.20603489805E+04  0.25500000920E-02 0. -1.
       -2    1    3    3    0  502 -0.61346151841E+03 -0.96484640277E+03  0.14520031931E+04  0.18481279416E+04  0.25500000920E-02 0.  1.
</event>
<event>
 5   0  0.2904500E-09  0.3900376E+04  0.7818609E-02  0.8024951E-01
       -1   -1    0    0    0  501  0.00000000000E+00  0.00000000000E+00  0.21855341717E+04  0.21855341717E+04  0.50400001928E-02 0. -1.
        1   -1    0    0  501    0  0.00000000000E+00  0.00000000000E+00 -0.17401843338E+04  0.17401843338E+04  0.50400001928E-02 0.  1.
    10030    2    1    2    0    0  0.00000000000E+00  0.00000000000E+00  0.44534983783E+03  0.39257185055E+04  0.39003755340E+04 0.  0.
        4    1    3    3  502    0 -0.10100523545E+04  0.25345563142E+03  0.18822625143E+04  0.21511297733E+04  0.12699999809E+01 0. -1.
       -4    1    3    3    0  502  0.10100523545E+04 -0.25345563142E+03 -0.14369126765E+04  0.17745887322E+04  0.12699999809E+01 0.  1.
</event>
<event>
 5   0  0.6335942E-09  0.3899889E+04  0.7818609E-02  0.8025052E-01
        2   -1    0    0  501    0  0.00000000000E+00  0.00000000000E+00  0.33274862878E+04  0.33274862878E+04  0.25500000920E-02 0.  1.
       -2   -1    0    0    0  501  0.00000000000E+00  0.00000000000E+00 -0.11426892855E+04  0.11426892855E+04  0.25500000920E-02 0. -1.
    10030    2    1    2    0    0  0.00000000000E+00  0.00000000000E+00  0.21847970023E+04  0.44701755734E+04  0.38998886799E+04 0.  0.
        2    1    3    3  502    0  0.35620659140E+03  0.79235342246E+03  0.30934102200E+04  0.32130816782E+04  0.25500000920E-02 0.  1.
       -2    1    3    3    0  502 -0.35620659140E+03 -0.79235342246E+03 -0.90861321770E+03  0.12570938952E+04  0.25500000920E-02 0. -1.
</event>
<event>
 5   0  0.2929054E-09  0.3899962E+04  0.7818609E-02  0.8025037E-01
       -1   -1    0    0    0  501  0.00000000000E+00  0.00000000000E+00  0.33901819232E+04  0.33901819232E+04  0.50400001928E-02 0.  1.
        1   -1    0    0  501    0  0.00000000000E+00  0.00000000000E+00 -0.11215994239E+04  0.11215994239E+04  0.50400001928E-02 0. -1.
    10030    2    1    2    0    0  0.00000000000E+00  0.00000000000E+00  0.22685824993E+04  0.45117813472E+04  0.38999620983E+04 0.  0.
        1    1    3    3  502    0 -0.11041788773E+04  0.25330398049E+01 -0.72508553361E+03  0.13209717789E+04  0.50400001928E-02 0. -1.
       -1    1    3    3    0  502  0.11041788773E+04 -0.25330398049E+01  0.29936680330E+04  0.31908095683E+04  0.50400001928E-02 0.  1.
</event>
<event>
 5   0  0.6335942E-09  0.3900747E+04  0.7818609E-02  0.8024874E-01
        2   -1    0    0  501    0  0.00000000000E+00  0.00000000000E+00  0.22664212296E+04  0.22664212296E+04  0.25500000920E-02 0.  1.
       -2   -1    0    0    0  501  0.00000000000E+00  0.00000000000E+00 -0.16783983332E+04  0.16783983332E+04  0.25500000920E-02 0. -1.
    10030    2    1    2    0    0  0.00000000000E+00  0.00000000000E+00  0.58802289639E+03  0.39448195629E+04  0.39007474228E+04 0.  0.
        2    1    3    3  502    0 -0.21583773717E+03 -0.47899879941E+02  0.22537076597E+04  0.22645261188E+04  0.25500000920E-02 0.  1.
       -2    1    3    3    0  502  0.21583773717E+03  0.47899879941E+02 -0.16656847633E+04  0.16802934440E+04  0.25500000920E-02 0. -1.
</event>
<event>
 5   0  0.6335942E-09  0.3899919E+04  0.7818609E-02  0.8025046E-01
        2   -1    0    0  501    0  0.00000000000E+00  0.00000000000E+00  0.14151448993E+04  0.14151448993E+04  0.25500000920E-02 0. -1.
       -2   -1    0    0    0  501  0.00000000000E+00  0.00000000000E+00 -0.26868927654E+04  0.26868927654E+04  0.25500000920E-02 0.  1.
    10030    2    1    2    0    0  0.00000000000E+00  0.00000000000E+00 -0.12717478661E+04  0.41020376648E+04  0.38999192772E+04 0.  0.
        2    1    3    3  502    0  0.61575520335E+03  0.11875902292E+04  0.85639202956E+03  0.15883741156E+04  0.25500000920E-02 0. -1.
       -2    1    3    3    0  502 -0.61575520335E+03 -0.11875902292E+04 -0.21281398957E+04  0.25136635492E+04  0.25500000920E-02 0.  1.
</event>
<event>
 5   0  0.6335942E-09  0.3900232E+04  0.7818609E-02  0.8024981E-01
        2   -1    0    0  501    0  0.00000000000E+00  0.00000000000E+00  0.18345390324E+04  0.18345390324E+04  0.25500000920E-02 0.  1.
       -2   -1    0    0    0  501  0.00000000000E+00  0.00000000000E+00 -0.20729743832E+04  0.20729743832E+04  0.25500000920E-02 0. -1.
    10030    2    1    2    0    0  0.00000000000E+00  0.00000000000E+00 -0.23843535083E+03  0.39075134156E+04  0.39002320029E+04 0.  0.
        2    1    3    3  502    0 -0.97861068024E+03  0.10026287711E+04  0.12397840934E+04  0.18708308086E+04  0.25500000920E-02 0.  1.
       -2    1    3    3    0  502  0.97861068024E+03 -0.10026287711E+04 -0.14782194442E+04  0.20366826070E+04  0.25500000920E-02 0. -1.
</event>
<event>
 5   0  0.9434114E-09  0.3900347E+04  0.7818609E-02  0.8024957E-01
        2   -1    0    0  501    0  0.00000000000E+00  0.00000000000E+00  0.11435757541E+04  0.11435757541E+04  0.25500000920E-02 0.  1.
       -2   -1    0    0    0  501  0.00000000000E+00  0.00000000000E+00 -0.33256885003E+04  0.33256885003E+04  0.25500000920E-02 0. -1.
    10030    2    1    2    0    0  0.00000000000E+00  0.00000000000E+00 -0.21821127462E+04  0.44692642545E+04  0.39003470280E+04 0.  0.
        4    1    3    3  502    0 -0.13163165105E+04 -0.39637108840E+03  0.49395702334E+03  0.14607512962E+04  0.12699999809E+01 0.  1.
       -4    1    3    3    0  502  0.13163165105E+04  0.39637108840E+03 -0.26760697696E+04  0.30085129583E+04  0.12699999809E+01 0. -1.
</event>
<event>
 5   0  0.2904500E-09  0.3899644E+04  0.7818609E-02  0.8025103E-01
       -1   -1    0    0    0  501  0.00000000000E+00  0.00000000000E+00  0.17727516117E+04  0.17727516117E+04  0.50400001928E-02 0.  1.
        1   -1    0    0  501    0  0.00000000000E+00  0.00000000000E+00 -0.21445790119E+04  0.21445790119E+04  0.50400001928E-02 0. -1.
    10030    2    1    2    0    0  0.00000000000E+00  0.00000000000E+00 -0.37182740019E+03  0.39173306236E+04  0.38996440349E+04 0.  0.
        2    1    3    3  502    0  0.15542633865E+04  0.73340164997E+03 -0.11110647936E+04  0.20464793257E+04  0.25500000920E-02 0. -1.
       -2    1    3    3    0  502 -0.15542633865E+04 -0.73340164997E+03  0.73923739342E+03  0.18708512979E+04  0.25500000920E-02 0.  1.
</event>
<event>
 5   0  0.9434114E-09  0.3901763E+04  0.7818609E-02  0.8024663E-01
        2   -1    0    0  501    0  0.00000000000E+00  0.00000000000E+00  0.19017654523E+04  0.19017654523E+04  0.25500000920E-02 0.  1.
       -2   -1    0    0    0  501  0.00000000000E+00  0.00000000000E+00 -0.20012659573E+04  0.20012659573E+04  0.25500000920E-02 0. -1.
    10030    2    1    2    0    0  0.00000000000E+00  0.00000000000E+00 -0.99500505040E+02  0.39030314096E+04  0.39017629136E+04 0.  0.
        4    1    3    3  502    0 -0.11445357756E+04 -0.13647199636E+04 -0.84594502351E+03  0.19718132053E+04  0.12699999809E+01 0. -1.
       -4    1    3    3    0  502  0.11445357756E+04  0.13647199636E+04  0.74644451847E+03  0.19312182044E+04  0.12699999809E+01 0.  1.
</event>
<event>
 5   0  0.9368546E-09  0.3898717E+04  0.7818609E-02  0.8025296E-01
        2   -1    0    0  501    0  0.00000000000E+00  0.00000000000E+00  0.13116354941E+04  0.13116354941E+04  0.25500000920E-02 0. -1.
       -2   -1    0    0    0  501  0.00000000000E+00  0.00000000000E+00 -0.28971445876E+04  0.28971445876E+04  0.25500000920E-02 0.  1.
    10030    2    1    2    0    0  0.00000000000E+00  0.00000000000E+00 -0.15855090934E+04  0.42087800817E+04  0.38987165440E+04 0.  0.
        5    1    3    3  502    0  0.55205597361E+03  0.13708050885E+04  0.57960882041E+03  0.15874006625E+04  0.46999998093E+01 0. -1.
       -5    1    3    3    0  502 -0.55205597361E+03 -0.13708050885E+04 -0.21651179138E+04  0.26213794192E+04  0.46999998093E+01 0.  1.
</event>
<event>
 5   0  0.2904500E-09  0.3900239E+04  0.7818609E-02  0.8024980E-01
        1   -1    0    0  501    0  0.00000000000E+00  0.00000000000E+00  0.19054678524E+04  0.19054678524E+04  0.50400001928E-02 0.  1.
       -1   -1    0    0    0  501  0.00000000000E+00  0.00000000000E+00 -0.19958170699E+04  0.19958170700E+04  0.50400001928E-02 0. -1.
    10030    2    1    2    0    0  0.00000000000E+00  0.00000000000E+00 -0.90349217521E+02  0.39012849224E+04  0.39002385907E+04 0.  0.
        3    1    3    3  502    0  0.78253605802E+02 -0.10280583608E+04 -0.17008943737E+04  0.19889870036E+04  0.10100000352E+00 0. -1.
       -3    1    3    3    0  502 -0.78253605802E+02  0.10280583608E+04  0.16105451561E+04  0.19122979188E+04  0.10100000352E+00 0.  1.
</event>
<event>
 5   0  0.9078515E-09  0.3900139E+04  0.7818609E-02  0.8025000E-01
       -2   -1    0    0    0  501  0.00000000000E+00  0.00000000000E+00  0.24626430025E+04  0.24626430025E+04  0.25500000920E-02 0.  1.
        2   -1    0    0  501    0  0.00000000000E+00  0.00000000000E+00 -0.15441826304E+04  0.15441826304E+04  0.25500000920E-02 0. -1.
    10030    2    1    2    0    0  0.00000000000E+00  0.00000000000E+00  0.91846037207E+03  0.40068256330E+04  0.39001387409E+04 0.  0.
        3    1    3    3  502    0  0.16040969700E+04 -0.96568094616E+03 -0.10075232175E+03  0.18750514178E+04  0.10100000352E+00 0. -1.
       -3    1    3    3    0  502 -0.16040969700E+04  0.96568094616E+03  0.10192126938E+04  0.21317742152E+04  0.10100000352E+00 0.  1.
</event>
<event>
 5   0  0.2904500E-09  0.3898528E+04  0.7818609E-02  0.8025335E-01
       -1   -1    0    0    0  501  0.00000000000E+00  0.00000000000E+00  0.19684217436E+04  0.19684217436E+04  0.50400001928E-02 0.  1.
        1   -1    0    0  501    0  0.00000000000E+00  0.00000000000E+00 -0.19302925077E+04  0.19302925078E+04  0.50400001928E-02 0. -1.
    10030    2    1    2    0    0  0.00000000000E+00  0.00000000000E+00  0.38129235828E+02  0.38987142513E+04  0.38985277958E+04 0.  0.
        3    1    3    3  502    0  0.13339894004E+04 -0.14081487757E+04  0.21199620900E+03  0.19512439872E+04  0.10100000352E+00 0.  1.
       -3    1    3    3    0  502 -0.13339894004E+04  0.14081487757E+04 -0.17386697317E+03  0.19474702641E+04  0.10100000352E+00 0. -1.
</event>
<event>
 5   0  0.9078515E-09  0.3903598E+04  0.7818609E-02  0.8024281E-01
        2   -1    0    0  501    0  0.00000000000E+00  0.00000000000E+00  0.13698620907E+04  0.13698620907E+04  0.25500000920E-02 0. -1.
       -2   -1    0    0    0  501  0.00000000000E+00  0.00000000000E+00 -0.27809510564E+04  0.27809510565E+04  0.25500000920E-02 0.  1.
    10030    2    1    2    0    0  0.00000000000E+00  0.00000000000E+00 -0.14110889658E+04  0.41508131471E+04  0.39035980470E+04 0.  0.
        3    1    3    3  502    0 -0.15158332666E+04 -0.12289514757E+04 -0.74599571949E+03  0.20891581667E+04  0.10100000352E+00 0.  1.
       -3    1    3    3    0  502  0.15158332666E+04  0.12289514757E+04 -0.66509324630E+03  0.20616549804E+04  0.10100000352E+00 0. -1.
</event>
<event>
 5   0  0.6335942E-09  0.3900289E+04  0.7818609E-02  0.8024969E-01
        2   -1    0    0  501    0  0.00000000000E+00  0.00000000000E+00  0.21734003929E+04  0.21734003929E+04  0.25500000920E-02 0.  1.
       -2   -1    0    0    0  501  0.00000000000E+00  0.00000000000E+00 -0.17498216575E+04  0.17498216575E+04  0.25500000920E-02 0. -1.
    10030    2    1    2    0    0  0.00000000000E+00  0.00000000000E+00  0.42357873538E+03  0.39232220504E+04  0.39002887472E+04 0.  0.
        2    1    3    3  502    0 -0.13790949000E+04 -0.28299687067E+03 -0.11456168050E+04  0.18150558768E+04  0.25500000920E-02 0. -1.
       -2    1    3    3    0  502  0.13790949000E+04  0.28299687067E+03  0.15691955403E+04  0.21081661737E+04  0.25500000920E-02 0.  1.
</event>
<event>
 5   0  0.2904500E-09  0.3899496E+04  0.7818609E-02  0.8025134E-01
        1   -1    0    0  501    0  0.00000000000E+00  0.00000000000E+00  0.20113840350E+04  0.20113840350E+04  0.50400001928E-02 0.  1.
       -1   -1    0    0    0  501  0.00000000000E+00  0.00000000000E+00 -0.18900009048E+04  0.18900009049E+04  0.50400001928E-02 0. -1.
    10030    2    1    2    0    0  0.00000000000E+00  0.00000000000E+00  0.12138313013E+03  0.39013849398E+04  0.38994961962E+04 0.  0.
        4    1    3    3  502    0 -0.12104058052E+04  0.84730934064E+03  0.13335108536E+04  0.19902934813E+04  0.12699999809E+01 0.  1.
       -4    1    3    3    0  502  0.12104058052E+04 -0.84730934064E+03 -0.12121277235E+04  0.19110914586E+04  0.12699999809E+01 0. -1.
</event>
<event>
 5   0  0.2929054E-09  0.3899419E+04  0.7818609E-02  0.8025150E-01
        1   -1    0    0  501    0  0.00000000000E+00  0.00000000000E+00  0.17521396049E+04  0.17521396049E+04  0.50400001928E-02 0.  1.
       -1   -1    0    0    0  501  0.00000000000E+00  0.00000000000E+00 -0.21695575662E+04  0.21695575662E+04  0.50400001928E-02 0. -1.
    10030    2    1    2    0    0  0.00000000000E+00  0.00000000000E+00 -0.41741796133E+03  0.39216971711E+04  0.38994193090E+04 0.  0.
        1    1    3    3  502    0 -0.18132261828E+04 -0.94851235270E+02 -0.92310644349E+03  0.20368876879E+04  0.50400001928E-02 0. -1.
       -1    1    3    3    0  502  0.18132261828E+04  0.94851235270E+02  0.50568848216E+03  0.18848094832E+04  0.50400001928E-02 0.  1.
</event>
<event>
 5   0  0.6335942E-09  0.3898440E+04  0.7818609E-02  0.8025354E-01
        2   -1    0    0  501    0  0.00000000000E+00  0.00000000000E+00  0.15385044765E+04  0.15385044765E+04  0.25500000920E-02 0.  1.
       -2   -1    0    0    0  501  0.00000000000E+00  0.00000000000E+00 -0.24695788544E+04  0.24695788544E+04  0.25500000920E-02 0. -1.
    10030    2    1    2    0    0  0.00000000000E+00  0.00000000000E+00 -0.93107437791E+03  0.40080833310E+04  0.38984397508E+04 0.  0.
        2    1    3    3  502    0  0.11815492342E+04 -0.10976842763E+04 -0.15910822798E+04  0.22655048410E+04  0.25500000920E-02 0. -1.
       -2    1    3    3    0  502 -0.11815492342E+04  0.10976842763E+04  0.66000790190E+03  0.17425784900E+04  0.25500000920E-02 0.  1.
</event>
<event>
 5   0  0.6335942E-09  0.3901313E+04  0.7818609E-02  0.8024756E-01
        2   -1    0    0  501    0  0.00000000000E+00  0.00000000000E+00  0.15218072656E+04  0.15218072656E+04  0.25500000920E-02 0.  1.
       -2   -1    0    0    0  501  0.00000000000E+00  0.00000000000E+00 -0.25003561896E+04  0.25003561896E+04  0.25500000920E-02 0. -1.
    10030    2    1    2    0    0  0.00000000000E+00  0.00000000000E+00 -0.97854892400E+03  0.40221634553E+04  0.39013127104E+04 0.  0.
        2    1    3    3  502    0  0.89269046903E+03 -0.72575069934E+03 -0.21133330997E+04  0.24061976522E+04  0.25500000920E-02 0. -1.
       -2    1    3    3    0  502 -0.89269046903E+03  0.72575069934E+03  0.11347841757E+04  0.16159658030E+04  0.25500000920E-02 0.  1.
</event>
<event>
 5   0  0.9277261E-09  0.3899004E+04  0.7818609E-02  0.8025236E-01
       -2   -1    0    0    0  501  0.00000000000E+00  0.00000000000E+00  0.23520047350E+04  0.23520047350E+04  0.25500000920E-02 0. -1.
        2   -1    0    0  501    0  0.00000000000E+00  0.00000000000E+00 -0.16158806560E+04  0.16158806560E+04  0.25500000920E-02 0.  1.
    10030    2    1    2    0    0  0.00000000000E+00  0.00000000000E+00  0.73612407903E+03  0.39678853910E+04  0.38990044648E+04 0.  0.
        1    1    3    3  502    0 -0.40242911815E+03 -0.13643193012E+04 -0.98862208999E+03  0.17322499784E+04  0.50400001928E-02 0.  1.
       -1    1    3    3    0  502  0.40242911815E+03  0.13643193012E+04  0.17247461690E+04  0.22356354126E+04  0.50400001928E-02 0. -1.
</event>
<event>
 5   0  0.9368546E-09  0.3894182E+04  0.7818609E-02  0.8026240E-01
       -2   -1    0    0    0  501  0.00000000000E+00  0.00000000000E+00  0.13774372898E+04  0.13774372898E+04  0.25500000920E-02 0. -1.
        2   -1    0    0  501    0  0.00000000000E+00  0.00000000000E+00 -0.27523310858E+04  0.27523310858E+04  0.25500000920E-02 0.  1.
    10030    2    1    2    0    0  0.00000000000E+00  0.00000000000E+00 -0.13748937960E+04  0.41297683756E+04  0.38941820560E+04 0.  0.
        5    1    3    3  502    0 -0.45663307402E+03 -0.18923665030E+04 -0.64533788494E+03  0.20508651398E+04  0.46999998093E+01 0.  1.
       -5    1    3    3    0  502  0.45663307402E+03  0.18923665030E+04 -0.72955591111E+03  0.20789032357E+04  0.46999998093E+01 0. -1.
</event>
<event>
 5   0  0.2904500E-09  0.3900871E+04  0.7818609E-02  0.8024848E-01
        1   -1    0    0  501    0  0.00000000000E+00  0.00000000000E+00  0.26754685473E+04  0.26754685473E+04  0.50400001928E-02 0. -1.
       -1   -1    0    0    0  501  0.00000000000E+00  0.00000000000E+00 -0.14218815765E+04  0.14218815765E+04  0.50400001928E-02 0.  1.
    10030    2    1    2    0    0  0.00000000000E+00  0.00000000000E+00  0.12535869709E+04  0.40973501238E+04  0.39008714082E+04 0.  0.
        3    1    3    3  502    0  0.11441256542E+03 -0.11065311985E+04 -0.10559922420E+04  0.15338256595E+04  0.10100000352E+00 0.  1.
       -3    1    3    3    0  502 -0.11441256542E+03  0.11065311985E+04  0.23095792129E+04  0.25635244643E+04  0.10100000352E+00 0. -1.
</event>
<event>
 5   0  0.2929054E-09  0.3899385E+04  0.7818609E-02  0.8025157E-01
       -1   -1    0    0    0  501  0.00000000000E+00  0.00000000000E+00  0.15843712791E+04  0.15843712791E+04  0.50400001928E-02 0.  1.
        1   -1    0    0  501    0  0.00000000000E+00  0.00000000000E+00 -0.23992484141E+04  0.23992484141E+04  0.50400001928E-02 0. -1.
    10030    2    1    2    0    0  0.00000000000E+00  0.00000000000E+00 -0.81487713506E+03  0.39836196932E+04  0.38993847098E+04 0.  0.
        1    1    3    3  502    0  0.19165669717E+04 -0.35124628453E+03 -0.33742065835E+03  0.19774871960E+04  0.50400001928E-02 0. -1.
       -1    1    3    3    0  502 -0.19165669717E+04  0.35124628453E+03 -0.47745647671E+03  0.20061324973E+04  0.50400001928E-02 0.  1.
</event>
<event>
 5   0  0.6335942E-09  0.3903465E+04  0.7818609E-02  0.8024309E-01
        2   -1    0    0  501    0  0.00000000000E+00  0.00000000000E+00  0.22455828337E+04  0.22455828337E+04  0.25500000920E-02 0. -1.
       -2   -1    0    0    0  501  0.00000000000E+00  0.00000000000E+00 -0.16963343249E+04  0.16963343249E+04  0.25500000920E-02 0.  1.
    10030    2    1    2    0    0  0.00000000000E+00  0.00000000000E+00  0.54924850879E+03  0.39419171586E+04  0.39034647380E+04 0.  0.
        2    1    3    3  502    0 -0.46967865882E+03  0.17928838993E+04 -0.34314412407E+03  0.18848815901E+04  0.25500000920E-02 0.  1.
       -2    1    3    3    0  502  0.46967865882E+03 -0.17928838993E+04  0.89239263286E+03  0.20570355685E+04  0.25500000920E-02 0. -1.
</event>
<event>
 5   0  0.2904500E-09  0.3900894E+04  0.7818609E-02  0.8024843E-01
       -1   -1    0    0    0  501  0.00000000000E+00  0.00000000000E+00  0.16084934427E+04  0.16084934427E+04  0.50400001928E-02 0. -1.
        1   -1    0    0  501    0  0.00000000000E+00  0.00000000000E+00 -0.23650972335E+04  0.23650972335E+04  0.50400001928E-02 0.  1.
    10030    2    1    2    0    0  0.00000000000E+00  0.00000000000E+00 -0.75660379074E+03  0.39735906762E+04  0.39008939445E+04 0.  0.
        5    1    3    3  502    0  0.13061375083E+04  0.32914234286E+03  0.10586216976E+04  0.17131934687E+04  0.46999998093E+01 0. -1.
       -5    1    3    3    0  502 -0.13061375083E+04 -0.32914234286E+03 -0.18152254884E+04  0.22603972076E+04  0.46999998093E+01 0.  1.
</event>
<event>
 5   0  0.2929054E-09  0.3899895E+04  0.7818609E-02  0.8025051E-01
        1   -1    0    0  501    0  0.00000000000E+00  0.00000000000E+00  0.11323637445E+04  0.11323637445E+04  0.50400001928E-02 0. -1.
       -1   -1    0    0    0  501  0.00000000000E+00  0.00000000000E+00 -0.33578383872E+04  0.33578383872E+04  0.50400001928E-02 0.  1.
    10030    2    1    2    0    0  0.00000000000E+00  0.00000000000E+00 -0.22254746427E+04  0.44902021317E+04  0.38998945881E+04 0.  0.
        1    1    3    3  502    0  0.42536601265E+02  0.16208720710E+04  0.13438753869E+03  0.16269897491E+04  0.50400001928E-02 0. -1.
       -1    1    3    3    0  502 -0.42536601265E+02 -0.16208720710E+04 -0.23598621814E+04  0.28632123826E+04  0.50400001928E-02 0.  1.
</event>
<event>
 5   0  0.2904500E-09  0.3899450E+04  0.7818609E-02  0.8025144E-01
       -1   -1    0    0    0  501  0.00000000000E+00  0.00000000000E+00  0.15299240277E+04  0.15299240277E+04  0.50400001928E-02 0. -1.
        1   -1    0    0  501    0  0.00000000000E+00  0.00000000000E+00 -0.24847166388E+04  0.24847166388E+04  0.50400001928E-02 0.  1.
    10030    2    1    2    0    0  0.00000000000E+00  0.00000000000E+00 -0.95479261108E+03  0.40146406665E+04  0.38994500575E+04 0.  0.
        2    1    3    3  502    0  0.14292539121E+03 -0.98380162157E+03 -0.22041824568E+04  0.24179978496E+04  0.25500000920E-02 0.  1.
       -2    1    3    3    0  502 -0.14292539121E+03  0.98380162157E+03  0.12493898457E+04  0.15966428169E+04  0.25500000920E-02 0. -1.
</event>
<event>
 5   0  0.6335942E-09  0.3900666E+04  0.7818609E-02  0.8024891E-01
        2   -1    0    0  501    0  0.00000000000E+00  0.00000000000E+00  0.26935387157E+04  0.26935387157E+04  0.25500000920E-02 0. -1.
       -2   -1    0    0    0  501  0.00000000000E+00  0.00000000000E+00 -0.14121935378E+04  0.14121935378E+04  0.25500000920E-02 0.  1.
    10030    2    1    2    0    0  0.00000000000E+00  0.00000000000E+00  0.12813451779E+04  0.41057322534E+04  0.39006655678E+04 0.  0.
        2    1    3    3  502    0  0.92426745040E+03 -0.10732251598E+04  0.20519499588E+04  0.24933072809E+04  0.25500000920E-02 0. -1.
       -2    1    3    3    0  502 -0.92426745040E+03  0.10732251598E+04 -0.77060478092E+03  0.16124249725E+04  0.25500000920E-02 0.  1.
</event>
<event>
 5   0  0.9078515E-09  0.3902157E+04  0.7818609E-02  0.8024581E-01
       -2   -1    0    0    0  501  0.00000000000E+00  0.00000000000E+00  0.18173117225E+04  0.18173117225E+04  0.25500000920E-02 0. -1.
        2   -1    0    0  501    0  0.00000000000E+00  0.00000000000E+00 -0.20946913443E+04  0.20946913443E+04  0.25500000920E-02 0.  1.
    10030    2    1    2    0    0  0.00000000000E+00  0.00000000000E+00 -0.27737962176E+03  0.39120030668E+04  0.39021569087E+04 0.  0.
        3    1    3    3  502    0 -0.46496255190E+03 -0.11656373475E+04 -0.16363825671E+04  0.20621950724E+04  0.10100000352E+00 0.  1.
       -3    1    3    3    0  502  0.46496255190E+03  0.11656373475E+04  0.13590029454E+04  0.18498079944E+04  0.10100000352E+00 0. -1.
</event>
<event>
 5   0  0.2904500E-09  0.3898749E+04  0.7818609E-02  0.8025289E-01
       -1   -1    0    0    0  501  0.00000000000E+00  0.00000000000E+00  0.16268032482E+04  0.16268032482E+04  0.50400001928E-02 0. -1.
        1   -1    0    0  501    0  0.00000000000E+00  0.00000000000E+00 -0.23359066845E+04  0.23359066846E+04  0.50400001928E-02 0.  1.
    10030    2    1    2    0    0  0.00000000000E+00  0.00000000000E+00 -0.70910343638E+03  0.39627099327E+04  0.38987488157E+04 0.  0.
        5    1    3    3  502    0  0.13171584669E+04 -0.14263470860E+04 -0.17656156232E+03  0.19495046838E+04  0.46999998093E+01 0. -1.
       -5    1    3    3    0  502 -0.13171584669E+04  0.14263470860E+04 -0.53254187406E+03  0.20132052490E+04  0.46999998093E+01 0.  1.
</event>
<event>
 5   0  0.2929054E-09  0.3898672E+04  0.7818609E-02  0.8025306E-01
        1   -1    0    0  501    0  0.00000000000E+00  0.00000000000E+00  0.12178571050E+04  0.12178571051E+04  0.50400001928E-02 0.  1.
       -1   -1    0    0    0  501  0.00000000000E+00  0.00000000000E+00 -0.31201607192E+04  0.31201607192E+04  0.50400001928E-02 0. -1.
    10030    2    1    2    0    0  0.00000000000E+00  0.00000000000E+00 -0.19023036142E+04  0.43380178243E+04  0.38986715177E+04 0.  0.
        1    1    3    3  502    0 -0.28930499376E+03  0.15466401568E+04 -0.22315286948E+04  0.27304786155E+04  0.50400001928E-02 0. -1.
       -1    1    3    3    0  502  0.28930499376E+03 -0.15466401568E+04  0.32922508058E+03  0.16075392088E+04  0.50400001928E-02 0.  1.
</event>
<event>
 5   0  0.2904500E-09  0.3900254E+04  0.7818609E-02  0.8024976E-01
        1   -1    0    0  501    0  0.00000000000E+00  0.00000000000E+00  0.22467599994E+04  0.22467599995E+04  0.50400001928E-02 0.  1.
       -1   -1    0    0    0  501  0.00000000000E+00  0.00000000000E+00 -0.16926576779E+04  0.16926576779E+04  0.50400001928E-02 0. -1.
    10030    2    1    2    0    0  0.00000000000E+00  0.00000000000E+00  0.55410232159E+03  0.39394176773E+04  0.39002541268E+04 0.  0.
        3    1    3    3  502    0 -0.57066725377E+03  0.47540865826E+03  0.20982990104E+04  0.22258780861E+04  0.10100000352E+00 0.  1.
       -3    1    3    3    0  502  0.57066725377E+03 -0.47540865826E+03 -0.15441966888E+04  0.17135395912E+04  0.10100000352E+00 0. -1.
</event>
<event>
 5   0  0.9078515E-09  0.3892260E+04  0.7818609E-02  0.8026641E-01
        2   -1    0    0  501    0  0.00000000000E+00  0.00000000000E+00  0.26391849092E+04  0.26391849092E+04  0.25500000920E-02 0.  1.
       -2   -1    0    0    0  501  0.00000000000E+00  0.00000000000E+00 -0.14350724259E+04  0.14350724259E+04  0.25500000920E-02 0. -1.
    10030    2    1    2    0    0  0.00000000000E+00  0.00000000000E+00  0.12041124834E+04  0.40742573351E+04  0.38922597498E+04 0.  0.
        3    1    3    3  502    0  0.13615980463E+04  0.17050924189E+03 -0.84247052927E+03  0.16102109315E+04  0.10100000352E+00 0. -1.
       -3    1    3    3    0  502 -0.13615980463E+04 -0.17050924189E+03  0.20465830126E+04  0.24640464036E+04  0.10100000352E+00 0.  1.
</event>
<event>
 5   0  0.2904500E-09  0.3899608E+04  0.7818609E-02  0.8025111E-01
        1   -1    0    0  501    0  0.00000000000E+00  0.00000000000E+00  0.33713560174E+04  0.33713560174E+04  0.50400001928E-02 0. -1.
       -1   -1    0    0    0  501  0.00000000000E+00  0.00000000000E+00 -0.11276577406E+04  0.11276577406E+04  0.50400001928E-02 0.  1.
    10030    2    1    2    0    0  0.00000000000E+00  0.00000000000E+00  0.22436982768E+04  0.44990137580E+04  0.38996080363E+04 0.  0.
        5    1    3    3  502    0  0.21551851491E+03  0.15331311347E+04 -0.24556366869E+03  0.15675659195E+04  0.46999998093E+01 0.  1.
       -5    1    3    3    0  502 -0.21551851491E+03 -0.15331311347E+04  0.24892619455E+04  0.29314478385E+04  0.46999998093E+01 0. -1.
</event>
<event>
 5   0  0.6335942E-09  0.3900455E+04  0.7818609E-02  0.8024935E-01
        2   -1    0    0  501    0  0.00000000000E+00  0.00000000000E+00  0.30595119887E+04  0.30595119887E+04  0.25500000920E-02 0. -1.
       -2   -1    0    0    0  501  0.00000000000E+00  0.00000000000E+00 -0.12431352189E+04  0.12431352189E+04  0.25500000920E-02 0.  1.
    10030    2    1    2    0    0  0.00000000000E+00  0.00000000000E+00  0.18163767698E+04  0.43026472076E+04  0.39004548995E+04 0.  0.
        2    1    3    3  502    0 -0.53684181892E+03 -0.44291210145E+03 -0.11014837235E+04  0.13029338668E+04  0.25500000920E-02 0.  1.
       -2    1    3    3    0  502  0.53684181892E+03  0.44291210145E+03  0.29178604933E+04  0.29997133407E+04  0.25500000920E-02 0. -1.
</event>
<event>
 5   0  0.6335942E-09  0.3900298E+04  0.7818609E-02  0.8024967E-01
       -2   -1    0    0    0  501  0.00000000000E+00  0.00000000000E+00  0.20650413224E+04  0.20650413224E+04  0.25500000920E-02 0. -1.
        2   -1    0    0  501    0  0.00000000000E+00  0.00000000000E+00 -0.18416488261E+04  0.18416488261E+04  0.25500000920E-02 0.  1.
    10030    2    1    2    0    0  0.00000000000E+00  0.00000000000E+00  0.22339249626E+03  0.39066901485E+04  0.39002979001E+04 0.  0.
        2    1    3    3  502    0  0.12239275096E+04  0.15026040592E+04 -0.10606157174E+03  0.19408932388E+04  0.25500000920E-02 0. -1.
       -2    1    3    3    0  502 -0.12239275096E+04 -0.15026040592E+04  0.32945406801E+03  0.19657969097E+04  0.25500000920E-02 0.  1.
</event>
<event>
 5   0  0.9368546E-09  0.3899734E+04  0.7818609E-02  0.8025085E-01
       -2   -1    0    0    0  501  0.00000000000E+00  0.00000000000E+00  0.17241817452E+04  0.17241817452E+04  0.25500000920E-02 0.  1.
        2   -1    0    0  501    0  0.00000000000E+00  0.00000000000E+00 -0.22050928915E+04  0.22050928915E+04  0.25500000920E-02 0. -1.
    10030    2    1    2    0    0  0.00000000000E+00  0.00000000000E+00 -0.48091114631E+03  0.39292746368E+04  0.38997337910E+04 0.  0.
        5    1    3    3  502    0 -0.47513355039E+03 -0.35795265766E+03 -0.21114215500E+04  0.21936282838E+04  0.46999998093E+01 0. -1.
       -5    1    3    3    0  502  0.47513355039E+03  0.35795265766E+03  0.16305104037E+04  0.17356463529E+04  0.46999998093E+01 0.  1.
</event>
<event>
 5   0  0.9434114E-09  0.3898633E+04  0.7818609E-02  0.8025314E-01
       -2   -1    0    0    0  501  0.00000000000E+00  0.00000000000E+00  0.11050241766E+04  0.11050241767E+04  0.25500000920E-02 0. -1.
        2   -1    0    0  501    0  0.00000000000E+00  0.00000000000E+00 -0.34386885681E+04  0.34386885681E+04  0.25500000920E-02 0.  1.
    10030    2    1    2    0    0  0.00000000000E+00  0.00000000000E+00 -0.23336643914E+04  0.45437127447E+04  0.38986325827E+04 0.  0.
        4    1    3    3  502    0  0.14289527271E+04 -0.10642513229E+04 -0.24523477369E+03  0.17985211930E+04  0.12699999809E+01 0. -1.
       -4    1    3    3    0  502 -0.14289527271E+04  0.10642513229E+04 -0.20884296177E+04  0.27451915517E+04  0.12699999809E+01 0.  1.
</event>
<event>
 5   0  0.6335942E-09  0.3898951E+04  0.7818609E-02  0.8025247E-01
        2   -1    0    0  501    0  0.00000000000E+00  0.00000000000E+00  0.20511059430E+04  0.20511059430E+04  0.25500000920E-02 0. -1.
       -2   -1    0    0    0  501  0.00000000000E+00  0.00000000000E+00 -0.18528810444E+04  0.18528810444E+04  0.25500000920E-02 0.  1.
    10030    2    1    2    0    0  0.00000000000E+00  0.00000000000E+00  0.19822489857E+03  0.39039869873E+04  0.38989513060E+04 0.  0.
        2    1    3    3  502    0  0.45706671112E+03 -0.18948581077E+04  0.66542062641E+02  0.19503397326E+04  0.25500000920E-02 0. -1.
       -2    1    3    3    0  502 -0.45706671112E+03  0.18948581077E+04  0.13168283593E+03  0.19536472547E+04  0.25500000920E-02 0.  1.
</event>
<event>
 5   0  0.9434114E-09  0.3898584E+04  0.7818609E-02  0.8025324E-01
        2   -1    0    0  501    0  0.00000000000E+00  0.00000000000E+00  0.13280562246E+04  0.13280562246E+04  0.25500000920E-02 0. -1.
       -2   -1    0    0    0  501  0.00000000000E+00  0.00000000000E+00 -0.28611280804E+04  0.28611280804E+04  0.25500000920E-02 0.  1.
    10030    2    1    2    0    0  0.00000000000E+00  0.00000000000E+00 -0.15330718558E+04  0.41891843051E+04  0.38985838232E+04 0.  0.
        4    1    3    3  502    0 -0.38891825335E+03  0.13676797532E+04 -0.21993180972E+04  0.26189324201E+04  0.12699999809E+01 0.  1.
       -4    1    3    3    0  502  0.38891825335E+03 -0.13676797532E+04  0.66624624143E+03  0.15702518850E+04  0.12699999809E+01 0. -1.
</event>
<event>
 5   0  0.2904500E-09  0.3899461E+04  0.7818609E-02  0.8025141E-01
        1   -1    0    0  501    0  0.00000000000E+00  0.00000000000E+00  0.12464542108E+04  0.12464542108E+04  0.50400001928E-02 0. -1.
       -1   -1    0    0    0  501  0.00000000000E+00  0.00000000000E+00 -0.30498109116E+04  0.30498109116E+04  0.50400001928E-02 0.  1.
    10030    2    1    2    0    0  0.00000000000E+00  0.00000000000E+00 -0.18033567008E+04  0.42962651224E+04  0.38994613232E+04 0.  0.
        2    1    3    3  502    0 -0.18905421734E+04 -0.10319822249E+03 -0.38885726454E+03  0.19328759801E+04  0.25500000920E-02 0. -1.
       -2    1    3    3    0  502  0.18905421734E+04  0.10319822249E+03 -0.14144994363E+04  0.23633891422E+04  0.25500000920E-02 0.  1.
</event>
<event>
 5   0  0.2904500E-09  0.3897140E+04  0.7818609E-02  0.8025624E-01
        1   -1    0    0  501    0  0.00000000000E+00  0.00000000000E+00  0.19210314319E+04  0.19210314319E+04  0.50400001928E-02 0. -1.
       -1   -1    0    0    0  501  0.00000000000E+00  0.00000000000E+00 -0.19765031246E+04  0.19765031246E+04  0.50400001928E-02 0.  1.
    10030    2    1    2    0    0  0.00000000000E+00  0.00000000000E+00 -0.55471692737E+02  0.38975345565E+04  0.38971397858E+04 0.  0.
        4    1    3    3  502    0 -0.11032615753E+04  0.56234267942E+03 -0.15323840514E+04  0.19701821962E+04  0.12699999809E+01 0.  1.
       -4    1    3    3    0  502  0.11032615753E+04 -0.56234267942E+03  0.14769123586E+04  0.19273523602E+04  0.12699999809E+01 0. -1.
</event>
<event>
 5   0  0.2904500E-09  0.3901462E+04  0.7818609E-02  0.8024725E-01
       -1   -1    0    0    0  501  0.00000000000E+00  0.00000000000E+00  0.15534758534E+04  0.15534758534E+04  0.50400001928E-02 0. -1.
        1   -1    0    0  501    0  0.00000000000E+00  0.00000000000E+00 -0.24495721615E+04  0.24495721615E+04  0.50400001928E-02 0.  1.
    10030    2    1    2    0    0  0.00000000000E+00  0.00000000000E+00 -0.89609630808E+03  0.40030480149E+04  0.39014618820E+04 0.  0.
        4    1    3    3  502    0 -0.77681792433E+01  0.24343703350E+03  0.15378131847E+04  0.15569819966E+04  0.12699999809E+01 0. -1.
       -4    1    3    3    0  502  0.77681792433E+01 -0.24343703350E+03 -0.24339094928E+04  0.24460660183E+04  0.12699999809E+01 0.  1.
</event>
<event>
 5   0  0.6335942E-09  0.3900014E+04  0.7818609E-02  0.8025026E-01
       -2   -1    0    0    0  501  0.00000000000E+00  0.00000000000E+00  0.14470064128E+04  0.14470064128E+04  0.25500000920E-02 0.  1.
        2   -1    0    0  501    0  0.00000000000E+00  0.00000000000E+00 -0.26278574934E+04  0.26278574934E+04  0.25500000920E-02 0. -1.
    10030    2    1    2    0    0  0.00000000000E+00  0.00000000000E+00 -0.11808510806E+04  0.40748639062E+04  0.39000136640E+04 0.  0.
        2    1    3    3  502    0  0.17772613803E+04  0.51930333536E+03 -0.12295635147E+04  0.22226471615E+04  0.25500000920E-02 0. -1.
       -2    1    3    3    0  502 -0.17772613803E+04 -0.51930333536E+03  0.48712434039E+02  0.18522167447E+04  0.25500000920E-02 0.  1.
</event>
<event>
 5   0  0.2904500E-09  0.3900167E+04  0.7818609E-02  0.8024995E-01
        1   -1    0    0  501    0  0.00000000000E+00  0.00000000000E+00  0.13097251887E+04  0.13097251887E+04  0.50400001928E-02 0. -1.
       -1   -1    0    0    0  501  0.00000000000E+00  0.00000000000E+00 -0.29035289806E+04  0.29035289806E+04  0.50400001928E-02 0.  1.
    10030    2    1    2    0    0  0.00000000000E+00  0.00000000000E+00 -0.15938037919E+04  0.42132541693E+04  0.39001666846E+04 0.  0.
        5    1    3    3  502    0 -0.17049990928E+04 -0.62241602030E+02  0.22331916382E+03  0.17206944709E+04  0.46999998093E+01 0. -1.
       -5    1    3    3    0  502  0.17049990928E+04  0.62241602030E+02 -0.18171229557E+04  0.24925596983E+04  0.46999998093E+01 0.  1.
</event>
<event>
 5   0  0.2904500E-09  0.3899565E+04  0.7818609E-02  0.8025120E-01
       -4   -1    0    0    0  501  0.00000000000E+00  0.00000000000E+00  0.16887615941E+04  0.16887620716E+04  0.12699999809E+01 0. -1.
        4   -1    0    0  501    0  0.00000000000E+00  0.00000000000E+00 -0.22511466525E+04  0.22511470108E+04  0.12699999809E+01 0.  1.
    10030    2    1    2    0    0  0.00000000000E+00  0.00000000000E+00 -0.56238505845E+03  0.39399090824E+04  0.38995649274E+04 0.  0.
        4    1    3    3  502    0  0.88806370669E+00 -0.18994609491E+04 -0.72585644907E+03  0.20334261440E+04  0.12699999809E+01 0. -1.
       -4    1    3    3    0  502 -0.88806370669E+00  0.18994609491E+04  0.16347139062E+03  0.19064829383E+04  0.12699999809E+01 0.  1.
</event>
<event>
 5   0  0.2904500E-09  0.3900108E+04  0.7818609E-02  0.8025007E-01
       -1   -1    0    0    0  501  0.00000000000E+00  0.00000000000E+00  0.16952152051E+04  0.16952152051E+04  0.50400001928E-02 0. -1.
        1   -1    0    0  501    0  0.00000000000E+00  0.00000000000E+00 -0.22432020564E+04  0.22432020564E+04  0.50400001928E-02 0.  1.
    10030    2    1    2    0    0  0.00000000000E+00  0.00000000000E+00 -0.54798685134E+03  0.39384172615E+04  0.39001078109E+04 0.  0.
        4    1    3    3  502    0  0.29648248020E+03  0.83180999912E+03 -0.20297201676E+04  0.22134984318E+04  0.12699999809E+01 0.  1.
       -4    1    3    3    0  502 -0.29648248020E+03 -0.83180999912E+03  0.14817333163E+04  0.17249188297E+04  0.12699999809E+01 0. -1.
</event>
<event>
 5   0  0.2904500E-09  0.3905193E+04  0.7818609E-02  0.8023950E-01
        1   -1    0    0  501    0  0.00000000000E+00  0.00000000000E+00  0.13265283484E+04  0.13265283484E+04  0.50400001928E-02 0.  1.
       -1   -1    0    0    0  501  0.00000000000E+00  0.00000000000E+00 -0.28741433573E+04  0.28741433573E+04  0.50400001928E-02 0. -1.
    10030    2    1    2    0    0  0.00000000000E+00  0.00000000000E+00 -0.15476150089E+04  0.42006717058E+04  0.39051927691E+04 0.  0.
        4    1    3    3  502    0  0.80628973132E+03 -0.14711820632E+04 -0.18484758060E+04  0.24962660540E+04  0.12699999809E+01 0. -1.
       -4    1    3    3    0  502 -0.80628973132E+03  0.14711820632E+04  0.30086079710E+03  0.17044056518E+04  0.12699999809E+01 0.  1.
</event>
<event>
 5   0  0.9078515E-09  0.3880350E+04  0.7818609E-02  0.8029129E-01
        2   -1    0    0  501    0  0.00000000000E+00  0.00000000000E+00  0.24349515972E+04  0.24349515972E+04  0.25500000920E-02 0. -1.
       -2   -1    0    0    0  501  0.00000000000E+00  0.00000000000E+00 -0.15459357903E+04  0.15459357903E+04  0.25500000920E-02 0.  1.
    10030    2    1    2    0    0  0.00000000000E+00  0.00000000000E+00  0.88901580688E+03  0.39808873874E+04  0.38803498923E+04 0.  0.
        3    1    3    3  502    0 -0.27909521869E+03 -0.18201875164E+04  0.10713226524E+04  0.21304245989E+04  0.10100000352E+00 0. -1.
       -3    1    3    3    0  502  0.27909521869E+03  0.18201875164E+04 -0.18230684547E+03  0.18504627886E+04  0.10100000352E+00 0.  1.
</event>
<event>
 5   0  0.2904500E-09  0.3900751E+04  0.7818609E-02  0.8024873E-01
       -1   -1    0    0    0  501  0.00000000000E+00  0.00000000000E+00  0.15587013765E+04  0.15587013765E+04  0.50400001928E-02 0.  1.
        1   -1    0    0  501    0  0.00000000000E+00  0.00000000000E+00 -0.24404705550E+04  0.24404705550E+04  0.50400001928E-02 0. -1.
    10030    2    1    2    0    0  0.00000000000E+00  0.00000000000E+00 -0.88176917854E+03  0.39991719315E+04  0.39007511141E+04 0.  0.
        2    1    3    3  502    0  0.13304539013E+03  0.19389871147E+04 -0.60807182115E+03  0.20364487340E+04  0.25500000920E-02 0. -1.
       -2    1    3    3    0  502 -0.13304539013E+03 -0.19389871147E+04 -0.27369735739E+03  0.19627231975E+04  0.25500000920E-02 0.  1.
</event>
<event>
 5   0  0.9078515E-09  0.3906423E+04  0.7818609E-02  0.8023695E-01
        2   -1    0    0  501    0  0.00000000000E+00  0.00000000000E+00  0.21629628935E+04  0.21629628935E+04  0.25500000920E-02 0.  1.
       -2   -1    0    0    0  501  0.00000000000E+00  0.00000000000E+00 -0.17638008974E+04  0.17638008974E+04  0.25500000920E-02 0. -1.
    10030    2    1    2    0    0  0.00000000000E+00  0.00000000000E+00  0.39916199616E+03  0.39267637909E+04  0.39064233732E+04 0.  0.
        3    1    3    3  502    0 -0.27514645286E+03 -0.84097179530E+02  0.21415455373E+04  0.21607857841E+04  0.10100000352E+00 0.  1.
       -3    1    3    3    0  502  0.27514645286E+03  0.84097179530E+02 -0.17423835411E+04  0.17659780069E+04  0.10100000352E+00 0. -1.
</event>
<event>
 5   0  0.2904500E-09  0.3900618E+04  0.7818609E-02  0.8024901E-01
       -1   -1    0    0    0  501  0.00000000000E+00  0.00000000000E+00  0.18865638743E+04  0.18865638743E+04  0.50400001928E-02 0. -1.
        1   -1    0    0  501    0  0.00000000000E+00  0.00000000000E+00 -0.20162076166E+04  0.20162076166E+04  0.50400001928E-02 0.  1.
    10030    2    1    2    0    0  0.00000000000E+00  0.00000000000E+00 -0.12964374229E+03  0.39027714910E+04  0.39006176191E+04 0.  0.
        5    1    3    3  502    0 -0.27340049663E+03 -0.12156863952E+04  0.14363536013E+04  0.19015191298E+04  0.46999998093E+01 0. -1.
       -5    1    3    3    0  502  0.27340049663E+03  0.12156863952E+04 -0.15659973436E+04  0.20012523612E+04  0.46999998093E+01 0.  1.
</event>
<event>
 5   0  0.9078515E-09  0.3900875E+04  0.7818609E-02  0.8024847E-01
        2   -1    0    0  501    0  0.00000000000E+00  0.00000000000E+00  0.19806168436E+04  0.19806168436E+04  0.25500000920E-02 0.  1.
       -2   -1    0    0    0  501  0.00000000000E+00  0.00000000000E+00 -0.19207179348E+04  0.19207179348E+04  0.25500000920E-02 0. -1.
    10030    2    1    2    0    0  0.00000000000E+00  0.00000000000E+00  0.59898908788E+02  0.39013347784E+04  0.39008749242E+04 0.  0.
        3    1    3    3  502    0 -0.38754249947E+03  0.17017760894E+04  0.90066981953E+03  0.19640359420E+04  0.10100000352E+00 0.  1.
       -3    1    3    3    0  502  0.38754249947E+03 -0.17017760894E+04 -0.84077091074E+03  0.19372988365E+04  0.10100000352E+00 0. -1.
</event>
<event>
 5   0  0.2929054E-09  0.3903025E+04  0.7818609E-02  0.8024400E-01
        1   -1    0    0  501    0  0.00000000000E+00  0.00000000000E+00  0.22835423148E+04  0.22835423148E+04  0.50400001928E-02 0.  1.
       -1   -1    0    0    0  501  0.00000000000E+00  0.00000000000E+00 -0.16677604135E+04  0.16677604135E+04  0.50400001928E-02 0. -1.
    10030    2    1    2    0    0  0.00000000000E+00  0.00000000000E+00  0.61578190130E+03  0.39513027283E+04  0.39030252242E+04 0.  0.
        1    1    3    3  502    0  0.79598431461E+03  0.98579339398E+03 -0.11947262179E+04  0.17414793655E+04  0.50400001928E-02 0. -1.
       -1    1    3    3    0  502 -0.79598431461E+03 -0.98579339398E+03  0.18105081192E+04  0.22098233627E+04  0.50400001928E-02 0.  1.
</event>
<event>
 5   0  0.2904500E-09  0.3900536E+04  0.7818609E-02  0.8024918E-01
       -1   -1    0    0    0  501  0.00000000000E+00  0.00000000000E+00  0.20945162435E+04  0.20945162436E+04  0.50400001928E-02 0.  1.
        1   -1    0    0  501    0  0.00000000000E+00  0.00000000000E+00 -0.18159544500E+04  0.18159544500E+04  0.50400001928E-02 0. -1.
    10030    2    1    2    0    0  0.00000000000E+00  0.00000000000E+00  0.27856179356E+03  0.39104706936E+04  0.39005364211E+04 0.  0.
        5    1    3    3  502    0 -0.61654865388E+03  0.17331949834E+04 -0.51000032641E+03  0.19089838962E+04  0.46999998093E+01 0. -1.
       -5    1    3    3    0  502  0.61654865388E+03 -0.17331949834E+04  0.78856211997E+03  0.20014867974E+04  0.46999998093E+01 0.  1.
</event>
<event>
 5   0  0.9078515E-09  0.3899055E+04  0.7818609E-02  0.8025226E-01
       -2   -1    0    0    0  501  0.00000000000E+00  0.00000000000E+00  0.20951841943E+04  0.20951841943E+04  0.25500000920E-02 0.  1.
        2   -1    0    0  501    0  0.00000000000E+00  0.00000000000E+00 -0.18139969179E+04  0.18139969179E+04  0.25500000920E-02 0. -1.
    10030    2    1    2    0    0  0.00000000000E+00  0.00000000000E+00  0.28118727636E+03  0.39091811121E+04  0.38990551013E+04 0.  0.
        3    1    3    3  502    0  0.15190164872E+04 -0.69474549685E+03  0.11484781038E+04  0.20270876545E+04  0.10100000352E+00 0.  1.
       -3    1    3    3    0  502 -0.15190164872E+04  0.69474549685E+03 -0.86729082744E+03  0.18820934577E+04  0.10100000352E+00 0. -1.
</event>
<event>
 5   0  0.2929054E-09  0.3900021E+04  0.7818609E-02  0.8025025E-01
       -1   -1    0    0    0  501  0.00000000000E+00  0.00000000000E+00  0.12676253052E+04  0.12676253053E+04  0.50400001928E-02 0.  1.
        1   -1    0    0  501    0  0.00000000000E+00  0.00000000000E+00 -0.29997363455E+04  0.29997363455E+04  0.50400001928E-02 0. -1.
    10030    2    1    2    0    0  0.00000000000E+00  0.00000000000E+00 -0.17321110403E+04  0.42673616508E+04  0.39000213849E+04 0.  0.
        1    1    3    3  502    0 -0.59263278752E+03 -0.39397684217E+00 -0.28988130305E+04  0.29587718334E+04  0.50400001928E-02 0. -1.
       -1    1    3    3    0  502  0.59263278752E+03  0.39397684217E+00  0.11667019903E+04  0.13085898174E+04  0.50400001928E-02 0.  1.
</event>
<event>
 5   0  0.2904500E-09  0.3900068E+04  0.7818609E-02  0.8025015E-01
       -1   -1    0    0    0  501  0.00000000000E+00  0.00000000000E+00  0.15158374636E+04  0.15158374636E+04  0.50400001928E-02 0.  1.
        1   -1    0    0  501    0  0.00000000000E+00  0.00000000000E+00 -0.25086012417E+04  0.25086012417E+04  0.50400001928E-02 0. -1.
    10030    2    1    2    0    0  0.00000000000E+00  0.00000000000E+00 -0.99276377808E+03  0.40244387053E+04  0.39000675602E+04 0.  0.
        2    1    3    3  502    0 -0.77113852446E+03 -0.17613556314E+04 -0.16105200478E+03  0.19294989071E+04  0.25500000920E-02 0.  1.
       -2    1    3    3    0  502  0.77113852446E+03  0.17613556314E+04 -0.83171177329E+03  0.20949397982E+04  0.25500000920E-02 0. -1.
</event>
<event>
 5   0  0.6335942E-09  0.3892996E+04  0.7818609E-02  0.8026488E-01
       -2   -1    0    0    0  501  0.00000000000E+00  0.00000000000E+00  0.34098336701E+04  0.34098336701E+04  0.25500000920E-02 0.  1.
        2   -1    0    0  501    0  0.00000000000E+00  0.00000000000E+00 -0.11111549406E+04  0.11111549406E+04  0.25500000920E-02 0. -1.
    10030    2    1    2    0    0  0.00000000000E+00  0.00000000000E+00  0.22986787295E+04  0.45209886107E+04  0.38929955198E+04 0.  0.
        2    1    3    3  502    0 -0.66202716545E+03  0.15681733666E+04  0.22457853708E+04  0.28179779288E+04  0.25500000920E-02 0.  1.
       -2    1    3    3    0  502  0.66202716545E+03 -0.15681733666E+04  0.52893358668E+02  0.17030106819E+04  0.25500000920E-02 0. -1.
</event>
<event>
 5   0  0.6335942E-09  0.3900349E+04  0.7818609E-02  0.8024957E-01
       -2   -1    0    0    0  501  0.00000000000E+00  0.00000000000E+00  0.12916140775E+04  0.12916140775E+04  0.25500000920E-02 0. -1.
        2   -1    0    0  501    0  0.00000000000E+00  0.00000000000E+00 -0.29445172698E+04  0.29445172698E+04  0.25500000920E-02 0.  1.
    10030    2    1    2    0    0  0.00000000000E+00  0.00000000000E+00 -0.16529031923E+04  0.42361313474E+04  0.39003486805E+04 0.  0.
        2    1    3    3  502    0 -0.33649064931E+03  0.11912489468E+04  0.81022575188E+03  0.14794477954E+04  0.25500000920E-02 0. -1.
       -2    1    3    3    0  502  0.33649064931E+03 -0.11912489468E+04 -0.24631289442E+04  0.27566835520E+04  0.25500000920E-02 0.  1.
</event>
<event>
 5   0  0.9434114E-09  0.3899737E+04  0.7818609E-02  0.8025084E-01
       -2   -1    0    0    0  501  0.00000000000E+00  0.00000000000E+00  0.14139217471E+04  0.14139217471E+04  0.25500000920E-02 0.  1.
        2   -1    0    0  501    0  0.00000000000E+00  0.00000000000E+00 -0.26889653842E+04  0.26889653842E+04  0.25500000920E-02 0. -1.
    10030    2    1    2    0    0  0.00000000000E+00  0.00000000000E+00 -0.12750436372E+04  0.41028871313E+04  0.38997367264E+04 0.  0.
        4    1    3    3  502    0  0.17703450816E+04 -0.64315108467E+03 -0.10705388694E+03  0.18865914166E+04  0.12699999809E+01 0. -1.
       -4    1    3    3    0  502 -0.17703450816E+04  0.64315108467E+03 -0.11679897502E+04  0.22162957147E+04  0.12699999809E+01 0.  1.
</event>
<event>
 5   0  0.9277261E-09  0.3900756E+04  0.7818609E-02  0.8024872E-01
       -2   -1    0    0    0  501  0.00000000000E+00  0.00000000000E+00  0.15007185910E+04  0.15007185910E+04  0.25500000920E-02 0. -1.
        2   -1    0    0  501    0  0.00000000000E+00  0.00000000000E+00 -0.25347680009E+04  0.25347680009E+04  0.25500000920E-02 0.  1.
    10030    2    1    2    0    0  0.00000000000E+00  0.00000000000E+00 -0.10340494098E+04  0.40354865919E+04  0.39007555488E+04 0.  0.
        1    1    3    3  502    0  0.69537482040E+02 -0.15941993641E+02 -0.25334177074E+04  0.25344220029E+04  0.50400001928E-02 0.  1.
       -1    1    3    3    0  502 -0.69537482040E+02  0.15941993641E+02  0.14993682976E+04  0.15010645890E+04  0.50400001928E-02 0. -1.
</event>
<event>
 5   0  0.9368546E-09  0.3899796E+04  0.7818609E-02  0.8025072E-01
        2   -1    0    0  501    0  0.00000000000E+00  0.00000000000E+00  0.19439292968E+04  0.19439292968E+04  0.25500000920E-02 0. -1.
       -2   -1    0    0    0  501  0.00000000000E+00  0.00000000000E+00 -0.19558853672E+04  0.19558853672E+04  0.25500000920E-02 0.  1.
    10030    2    1    2    0    0  0.00000000000E+00  0.00000000000E+00 -0.11956070451E+02  0.38998146640E+04  0.38997963365E+04 0.  0.
        5    1    3    3  502    0 -0.52239986635E+03 -0.13542735087E+04  0.12959967543E+04  0.19459157315E+04  0.46999998093E+01 0. -1.
       -5    1    3    3    0  502  0.52239986635E+03  0.13542735087E+04 -0.13079528247E+04  0.19538989325E+04  0.46999998093E+01 0.  1.
</event>
<event>
 5   0  0.6335942E-09  0.3895144E+04  0.7818609E-02  0.8026040E-01
        2   -1    0    0  501    0  0.00000000000E+00  0.00000000000E+00  0.19173433847E+04  0.19173433847E+04  0.25500000920E-02 0. -1.
       -2   -1    0    0    0  501  0.00000000000E+00  0.00000000000E+00 -0.19782773968E+04  0.19782773968E+04  0.25500000920E-02 0.  1.
    10030    2    1    2    0    0  0.00000000000E+00  0.00000000000E+00 -0.60934012109E+02  0.38956207815E+04  0.38951441975E+04 0.  0.
        2    1    3    3  502    0  0.68844903972E+03  0.11878616882E+03 -0.18486456668E+04  0.19762497402E+04  0.25500000920E-02 0.  1.
       -2    1    3    3    0  502 -0.68844903972E+03 -0.11878616882E+03  0.17877116547E+04  0.19193710414E+04  0.25500000920E-02 0. -1.
</event>
<event>
 5   0  0.9277261E-09  0.3923755E+04  0.7818609E-02  0.8020107E-01
       -2   -1    0    0    0  501  0.00000000000E+00  0.00000000000E+00  0.13671672526E+04  0.13671672526E+04  0.25500000920E-02 0. -1.
        2   -1    0    0  501    0  0.00000000000E+00  0.00000000000E+00 -0.28152835184E+04  0.28152835184E+04  0.25500000920E-02 0.  1.
    10030    2    1    2    0    0  0.00000000000E+00  0.00000000000E+00 -0.14481162658E+04  0.41824507710E+04  0.39237550551E+04 0.  0.
        1    1    3    3  502    0 -0.44879359155E+03 -0.12955055603E+04  0.77174798942E+03  0.15733230132E+04  0.50400001928E-02 0. -1.
       -1    1    3    3    0  502  0.44879359155E+03  0.12955055603E+04 -0.22198642552E+04  0.26091277578E+04  0.50400001928E-02 0.  1.
</event>
<event>
 5   0  0.2904500E-09  0.3902496E+04  0.7818609E-02  0.8024510E-01
        1   -1    0    0  501    0  0.00000000000E+00  0.00000000000E+00  0.24039442704E+04  0.24039442705E+04  0.50400001928E-02 0.  1.
       -1   -1    0    0    0  501  0.00000000000E+00  0.00000000000E+00 -0.15838004503E+04  0.15838004503E+04  0.50400001928E-02 0. -1.
    10030    2    1    2    0    0  0.00000000000E+00  0.00000000000E+00  0.82014382012E+03  0.39877447208E+04  0.39024956211E+04 0.  0.
        5    1    3    3  502    0 -0.59682508842E+03  0.74353090961E+03 -0.13295591647E+04  0.16360892586E+04  0.46999998093E+01 0. -1.
       -5    1    3    3    0  502  0.59682508842E+03 -0.74353090961E+03  0.21497029848E+04  0.23516554622E+04  0.46999998093E+01 0.  1.
</event>
<event>
 5   0  0.2904500E-09  0.3900063E+04  0.7818609E-02  0.8025016E-01
        1   -1    0    0  501    0  0.00000000000E+00  0.00000000000E+00  0.12517515891E+04  0.12517515891E+04  0.50400001928E-02 0.  1.
       -1   -1    0    0    0  501  0.00000000000E+00  0.00000000000E+00 -0.30378408437E+04  0.30378408437E+04  0.50400001928E-02 0. -1.
    10030    2    1    2    0    0  0.00000000000E+00  0.00000000000E+00 -0.17860892546E+04  0.42895924328E+04  0.39000626167E+04 0.  0.
        5    1    3    3  502    0 -0.13211200779E+04  0.14294012649E+04 -0.76265561893E+03  0.20905051828E+04  0.46999998093E+01 0.  1.
       -5    1    3    3    0  502  0.13211200779E+04 -0.14294012649E+04 -0.10234336357E+04  0.21990872500E+04  0.46999998093E+01 0. -1.
</event>
<event>
 5   0  0.2904500E-09  0.3899897E+04  0.7818609E-02  0.8025051E-01
        1   -1    0    0  501    0  0.00000000000E+00  0.00000000000E+00  0.12210353017E+04  0.12210353017E+04  0.50400001928E-02 0. -1.
       -1   -1    0    0    0  501  0.00000000000E+00  0.00000000000E+00 -0.31139954374E+04  0.31139954374E+04  0.50400001928E-02 0.  1.
    10030    2    1    2    0    0  0.00000000000E+00  0.00000000000E+00 -0.18929601357E+04  0.43350307391E+04  0.38998965927E+04 0.  0.
        3    1    3    3  502    0  0.11379942182E+04 -0.12217412440E+04  0.17318958860E+03  0.16785938019E+04  0.10100000352E+00 0. -1.
       -3    1    3    3    0  502 -0.11379942182E+04  0.12217412440E+04 -0.20661497243E+04  0.26564369372E+04  0.10100000352E+00 0.  1.
</event>
<event>
 5   0  0.9368546E-09  0.3902970E+04  0.7818609E-02  0.8024412E-01
        2   -1    0    0  501    0  0.00000000000E+00  0.00000000000E+00  0.26537570161E+04  0.26537570161E+04  0.25500000920E-02 0. -1.
       -2   -1    0    0    0  501  0.00000000000E+00  0.00000000000E+00 -0.14350574944E+04  0.14350574944E+04  0.25500000920E-02 0.  1.
    10030    2    1    2    0    0  0.00000000000E+00  0.00000000000E+00  0.12186995216E+04  0.40888145105E+04  0.39029700969E+04 0.  0.
        5    1    3    3  502    0 -0.14288016729E+04 -0.77444857111E+03 -0.52237973840E+03  0.17070874292E+04  0.46999998093E+01 0.  1.
       -5    1    3    3    0  502  0.14288016729E+04  0.77444857111E+03  0.17410792600E+04  0.23817270813E+04  0.46999998093E+01 0. -1.
</event>
<event>
 5   0  0.2904500E-09  0.3900804E+04  0.7818609E-02  0.8024862E-01
       -1   -1    0    0    0  501  0.00000000000E+00  0.00000000000E+00  0.26346957285E+04  0.26346957285E+04  0.50400001928E-02 0.  1.
        1   -1    0    0  501    0  0.00000000000E+00  0.00000000000E+00 -0.14438354981E+04  0.14438354981E+04  0.50400001928E-02 0. -1.
    10030    2    1    2    0    0  0.00000000000E+00  0.00000000000E+00  0.11908602303E+04  0.40785312266E+04  0.39008036196E+04 0.  0.
        4    1    3    3  502    0  0.13156096043E+04  0.14394555400E+04  0.63172066302E+03  0.20498618225E+04  0.12699999809E+01 0.  1.
       -4    1    3    3    0  502 -0.13156096043E+04 -0.14394555400E+04  0.55913956733E+03  0.20286694041E+04  0.12699999809E+01 0. -1.
</event>
<event>
 5   0  0.9277261E-09  0.3897064E+04  0.7818609E-02  0.8025640E-01
       -2   -1    0    0    0  501  0.00000000000E+00  0.00000000000E+00  0.20635860080E+04  0.20635860080E+04  0.25500000920E-02 0. -1.
        2   -1    0    0  501    0  0.00000000000E+00  0.00000000000E+00 -0.18398924845E+04  0.18398924845E+04  0.25500000920E-02 0.  1.
    10030    2    1    2    0    0  0.00000000000E+00  0.00000000000E+00  0.22369352345E+03  0.39034784925E+04  0.38970637086E+04 0.  0.
        1    1    3    3  502    0 -0.17164816274E+04 -0.48555534357E+03  0.89716743202E+03  0.19967429905E+04  0.50400001928E-02 0. -1.
       -1    1    3    3    0  502  0.17164816274E+04  0.48555534357E+03 -0.67347390857E+03  0.19067355020E+04  0.50400001928E-02 0.  1.
</event>
<event>
 5   0  0.2904500E-09  0.3899755E+04  0.7818609E-02  0.8025080E-01
       -3   -1    0    0    0  501  0.00000000000E+00  0.00000000000E+00  0.12223729503E+04  0.12223729544E+04  0.10100000352E+00 0. -1.
        3   -1    0    0  501    0  0.00000000000E+00  0.00000000000E+00 -0.31103623435E+04  0.31103623451E+04  0.10100000352E+00 0.  1.
    10030    2    1    2    0    0  0.00000000000E+00  0.00000000000E+00 -0.18879893932E+04  0.43327352995E+04  0.38997552778E+04 0.  0.
        3    1    3    3  502    0 -0.28058522089E+03 -0.68470933161E+02  0.11984761090E+04  0.12327860029E+04  0.10100000352E+00 0. -1.
       -3    1    3    3    0  502  0.28058522089E+03  0.68470933161E+02 -0.30864655022E+04  0.30999492966E+04  0.10100000352E+00 0.  1.
</event>
<event>
 5   0  0.6335942E-09  0.3899332E+04  0.7818609E-02  0.8025168E-01
       -2   -1    0    0    0  501  0.00000000000E+00  0.00000000000E+00  0.12535132461E+04  0.12535132461E+04  0.25500000920E-02 0. -1.
        2   -1    0    0  501    0  0.00000000000E+00  0.00000000000E+00 -0.30324351556E+04  0.30324351556E+04  0.25500000920E-02 0.  1.
    10030    2    1    2    0    0  0.00000000000E+00  0.00000000000E+00 -0.17789219095E+04  0.42859484017E+04  0.38993320635E+04 0.  0.
        2    1    3    3  502    0  0.20722829870E+03 -0.12110358655E+04  0.77445161271E+03  0.14523521391E+04  0.25500000920E-02 0. -1.
       -2    1    3    3    0  502 -0.20722829870E+03  0.12110358655E+04 -0.25533735222E+04  0.28335962626E+04  0.25500000920E-02 0.  1.
</event>
<event>
 5   0  0.2904500E-09  0.3901600E+04  0.7818609E-02  0.8024697E-01
       -1   -1    0    0    0  501  0.00000000000E+00  0.00000000000E+00  0.28009413434E+04  0.28009413434E+04  0.50400001928E-02 0.  1.
        1   -1    0    0  501    0  0.00000000000E+00  0.00000000000E+00 -0.13586934664E+04  0.13586934664E+04  0.50400001928E-02 0. -1.
    10030    2    1    2    0    0  0.00000000000E+00  0.00000000000E+00  0.14422478770E+04  0.41596348099E+04  0.39016000324E+04 0.  0.
        5    1    3    3  502    0 -0.19187980919E+03 -0.41325339964E+03 -0.13011648813E+04  0.13786400443E+04  0.46999998093E+01 0. -1.
       -5    1    3    3    0  502  0.19187980919E+03  0.41325339964E+03  0.27434127583E+04  0.27809947655E+04  0.46999998093E+01 0.  1.
</event>
<event>
 5   0  0.6335942E-09  0.3901085E+04  0.7818609E-02  0.8024803E-01
       -2   -1    0    0    0  501  0.00000000000E+00  0.00000000000E+00  0.13635063728E+04  0.13635063728E+04  0.25500000920E-02 0. -1.
        2   -1    0    0  501    0  0.00000000000E+00  0.00000000000E+00 -0.27903183950E+04  0.27903183950E+04  0.25500000920E-02 0.  1.
    10030    2    1    2    0    0  0.00000000000E+00  0.00000000000E+00 -0.14268120222E+04  0.41538247678E+04  0.39010854458E+04 0.  0.
        2    1    3    3  502    0  0.47612493515E+03 -0.55516013121E+03 -0.26387925748E+04  0.27382702529E+04  0.25500000920E-02 0.  1.
       -2    1    3    3    0  502 -0.47612493515E+03  0.55516013121E+03  0.12119805525E+04  0.14155545150E+04  0.25500000920E-02 0. -1.
</event>
<event>
 5   0  0.9078515E-09  0.3903836E+04  0.7818609E-02  0.8024232E-01
       -2   -1    0    0    0  501  0.00000000000E+00  0.00000000000E+00  0.27807541114E+04  0.27807541114E+04  0.25500000920E-02 0. -1.
        2   -1    0    0  501    0  0.00000000000E+00  0.00000000000E+00 -0.13701264165E+04  0.13701264165E+04  0.25500000920E-02 0.  1.
    10030    2    1    2    0    0  0.00000000000E+00  0.00000000000E+00  0.14106276949E+04  0.41508805279E+04  0.39038364032E+04 0.  0.
        3    1    3    3  502    0  0.10609343512E+04 -0.33259608072E+02 -0.10364247532E+04  0.14835309833E+04  0.10100000352E+00 0.  1.
       -3    1    3    3    0  502 -0.10609343512E+04  0.33259608072E+02  0.24470524481E+04  0.26673495446E+04  0.10100000352E+00 0. -1.
</event>
<event>
 5   0  0.2904500E-09  0.3899928E+04  0.7818609E-02  0.8025044E-01
       -1   -1    0    0    0  501  0.00000000000E+00  0.00000000000E+00  0.16414959690E+04  0.16414959690E+04  0.50400001928E-02 0. -1.
        1   -1    0    0  501    0  0.00000000000E+00  0.00000000000E+00 -0.23163989257E+04  0.23163989257E+04  0.50400001928E-02 0.  1.
    10030    2    1    2    0    0  0.00000000000E+00  0.00000000000E+00 -0.67490295672E+03  0.39578948947E+04  0.38999279476E+04 0.  0.
        4    1    3    3  502    0 -0.60714379260E+03 -0.17982982773E+03 -0.22091514863E+04  0.22981110186E+04  0.12699999809E+01 0.  1.
       -4    1    3    3    0  502  0.60714379260E+03  0.17982982773E+03  0.15342485295E+04  0.16597838760E+04  0.12699999809E+01 0. -1.
</event>
<event>
 5   0  0.9277261E-09  0.3899700E+04  0.7818609E-02  0.8025092E-01
       -2   -1    0    0    0  501  0.00000000000E+00  0.00000000000E+00  0.17026949004E+04  0.17026949004E+04  0.25500000920E-02 0. -1.
        2   -1    0    0  501    0  0.00000000000E+00  0.00000000000E+00 -0.22328812670E+04  0.22328812670E+04  0.25500000920E-02 0.  1.
    10030    2    1    2    0    0  0.00000000000E+00  0.00000000000E+00 -0.53018636658E+03  0.39355761675E+04  0.38997002688E+04 0.  0.
        1    1    3    3  502    0  0.11004911649E+04  0.13279692303E+03  0.13537837733E+04  0.17496989260E+04  0.50400001928E-02 0. -1.
       -1    1    3    3    0  502 -0.11004911649E+04 -0.13279692303E+03 -0.18839701399E+04  0.21858772415E+04  0.50400001928E-02 0.  1.
</event>
<event>
 5   0  0.2904500E-09  0.3898601E+04  0.7818609E-02  0.8025320E-01
       -1   -1    0    0    0  501  0.00000000000E+00  0.00000000000E+00  0.24180864409E+04  0.24180864409E+04  0.50400001928E-02 0.  1.
        1   -1    0    0  501    0  0.00000000000E+00  0.00000000000E+00 -0.15713962594E+04  0.15713962594E+04  0.50400001928E-02 0. -1.
    10030    2    1    2    0    0  0.00000000000E+00  0.00000000000E+00  0.84669018146E+03  0.39894827003E+04  0.38986007685E+04 0.  0.
        5    1    3    3  502    0 -0.96851248876E+03  0.11954085563E+04 -0.80152570059E+03  0.17347863258E+04  0.46999998093E+01 0. -1.
       -5    1    3    3    0  502  0.96851248876E+03 -0.11954085563E+04  0.16482158821E+04  0.22546963745E+04  0.46999998093E+01 0.  1.
</event>
<event>
 5   0  0.2929054E-09  0.3888940E+04  0.7818609E-02  0.8027333E-01
       -1   -1    0    0    0  501  0.00000000000E+00  0.00000000000E+00  0.16157945149E+04  0.16157945150E+04  0.50400001928E-02 0.  1.
        1   -1    0    0  501    0  0.00000000000E+00  0.00000000000E+00 -0.23400025894E+04  0.23400025894E+04  0.50400001928E-02 0. -1.
    10030    2    1    2    0    0  0.00000000000E+00  0.00000000000E+00 -0.72420807448E+03  0.39557971044E+04  0.38889398807E+04 0.  0.
        1    1    3    3  502    0  0.93383571317E+03 -0.13338239402E+04  0.71910315883E+03  0.17799564028E+04  0.50400001928E-02 0.  1.
       -1    1    3    3    0  502 -0.93383571317E+03  0.13338239402E+04 -0.14433112333E+04  0.21758407016E+04  0.50400001928E-02 0. -1.
</event>
<event>
 5   0  0.2904500E-09  0.3901140E+04  0.7818609E-02  0.8024792E-01
       -1   -1    0    0    0  501  0.00000000000E+00  0.00000000000E+00  0.16994192207E+04  0.16994192208E+04  0.50400001928E-02 0. -1.
        1   -1    0    0  501    0  0.00000000000E+00  0.00000000000E+00 -0.22388377063E+04  0.22388377063E+04  0.50400001928E-02 0.  1.
    10030    2    1    2    0    0  0.00000000000E+00  0.00000000000E+00 -0.53941848560E+03  0.39382569271E+04  0.39011402591E+04 0.  0.
        3    1    3    3  502    0  0.84183396583E+03 -0.15382566000E+04 -0.11321240476E+04  0.20872524196E+04  0.10100000352E+00 0.  1.
       -3    1    3    3    0  502 -0.84183396583E+03  0.15382566000E+04  0.59270556203E+03  0.18510045075E+04  0.10100000352E+00 0. -1.
</event>
<event>
 5   0  0.2904500E-09  0.3899742E+04  0.7818609E-02  0.8025083E-01
       -1   -1    0    0    0  501  0.00000000000E+00  0.00000000000E+00  0.16193700182E+04  0.16193700182E+04  0.50400001928E-02 0.  1.
        1   -1    0    0  501    0  0.00000000000E+00  0.00000000000E+00 -0.23478252756E+04  0.23478252757E+04  0.50400001928E-02 0. -1.
    10030    2    1    2    0    0  0.00000000000E+00  0.00000000000E+00 -0.72845525745E+03  0.39671952939E+04  0.38997424835E+04 0.  0.
        4    1    3    3  502    0 -0.86202805253E+02  0.38627312142E+03 -0.23065341439E+04  0.23402434099E+04  0.12699999809E+01 0. -1.
       -4    1    3    3    0  502  0.86202805253E+02 -0.38627312142E+03  0.15780788864E+04  0.16269518839E+04  0.12699999809E+01 0.  1.
</event>
<event>
 5   0  0.9277261E-09  0.3899551E+04  0.7818609E-02  0.8025123E-01
       -2   -1    0    0    0  501  0.00000000000E+00  0.00000000000E+00  0.26285886875E+04  0.26285886875E+04  0.25500000920E-02 0.  1.
        2   -1    0    0  501    0  0.00000000000E+00  0.00000000000E+00 -0.14462608036E+04  0.14462608036E+04  0.25500000920E-02 0. -1.
    10030    2    1    2    0    0  0.00000000000E+00  0.00000000000E+00  0.11823278840E+04  0.40748494911E+04  0.38995511472E+04 0.  0.
        1    1    3    3  502    0  0.11280280919E+04 -0.13868655118E+04  0.14044717493E+04  0.22734080625E+04  0.50400001928E-02 0.  1.
       -1    1    3    3    0  502 -0.11280280919E+04  0.13868655118E+04 -0.22214386530E+03  0.18014414286E+04  0.50400001928E-02 0. -1.
</event>
<event>
 5   0  0.2904500E-09  0.3899750E+04  0.7818609E-02  0.8025081E-01
        1   -1    0    0  501    0  0.00000000000E+00  0.00000000000E+00  0.20709278807E+04  0.20709278807E+04  0.50400001928E-02 0. -1.
       -1   -1    0    0    0  501  0.00000000000E+00  0.00000000000E+00 -0.18358984760E+04  0.18358984760E+04  0.50400001928E-02 0.  1.
    10030    2    1    2    0    0  0.00000000000E+00  0.00000000000E+00  0.23502940467E+03  0.39068263567E+04  0.38997504228E+04 0.  0.
        5    1    3    3  502    0  0.65661119571E+03  0.17982901630E+04  0.48832881995E+03  0.19757208556E+04  0.46999998093E+01 0.  1.
       -5    1    3    3    0  502 -0.65661119571E+03 -0.17982901630E+04 -0.25329941527E+03  0.19311055011E+04  0.46999998093E+01 0. -1.
</event>
<event>
 5   0  0.9078515E-09  0.3899995E+04  0.7818609E-02  0.8025030E-01
        2   -1    0    0  501    0  0.00000000000E+00  0.00000000000E+00  0.29308655484E+04  0.29308655484E+04  0.25500000920E-02 0. -1.
       -2   -1    0    0    0  501  0.00000000000E+00  0.00000000000E+00 -0.12973948220E+04  0.12973948220E+04  0.25500000920E-02 0.  1.
    10030    2    1    2    0    0  0.00000000000E+00  0.00000000000E+00  0.16334707264E+04  0.42282603704E+04  0.38999947623E+04 0.  0.
        3    1    3    3  502    0 -0.18923444315E+04 -0.44166090502E+03  0.99308557685E+03  0.21822581826E+04  0.10100000352E+00 0.  1.
       -3    1    3    3    0  502  0.18923444315E+04  0.44166090502E+03  0.64038514959E+03  0.20460021878E+04  0.10100000352E+00 0. -1.
</event>
<event>
 5   0  0.9368546E-09  0.3900339E+04  0.7818609E-02  0.8024959E-01
        2   -1    0    0  501    0  0.00000000000E+00  0.00000000000E+00  0.12924796838E+04  0.12924796838E+04  0.25500000920E-02 0. -1.
       -2   -1    0    0    0  501  0.00000000000E+00  0.00000000000E+00 -0.29425300493E+04  0.29425300493E+04  0.25500000920E-02 0.  1.
    10030    2    1    2    0    0  0.00000000000E+00  0.00000000000E+00 -0.16500503655E+04  0.42350097331E+04  0.39003386046E+04 0.  0.
        5    1    3    3  502    0 -0.79156406687E+03  0.80911951579E+03  0.89928417192E+03  0.14456770644E+04  0.46999998093E+01 0. -1.
       -5    1    3    3    0  502  0.79156406687E+03 -0.80911951579E+03 -0.25493345374E+04  0.27893326687E+04  0.46999998093E+01 0.  1.
</event>
<event>
 5   0  0.2904500E-09  0.3899525E+04  0.7818609E-02  0.8025128E-01
        1   -1    0    0  501    0  0.00000000000E+00  0.00000000000E+00  0.24591923847E+04  0.24591923848E+04  0.50400001928E-02 0. -1.
       -1   -1    0    0    0  501  0.00000000000E+00  0.00000000000E+00 -0.15458628199E+04  0.15458628199E+04  0.50400001928E-02 0.  1.
    10030    2    1    2    0    0  0.00000000000E+00  0.00000000000E+00  0.91332956481E+03  0.40050552047E+04  0.38995251376E+04 0.  0.
        2    1    3    3  502    0  0.11915859095E+04  0.42185166060E+03  0.19813380625E+04  0.23502204835E+04  0.25500000920E-02 0. -1.
       -2    1    3    3    0  502 -0.11915859095E+04 -0.42185166060E+03 -0.10680084977E+04  0.16548347212E+04  0.25500000920E-02 0.  1.
</event>
<event>
 5   0  0.2904500E-09  0.3900127E+04  0.7818609E-02  0.8025003E-01
        1   -1    0    0  501    0  0.00000000000E+00  0.00000000000E+00  0.20954222723E+04  0.20954222723E+04  0.50400001928E-02 0.  1.
       -1   -1    0    0    0  501  0.00000000000E+00  0.00000000000E+00 -0.18147885868E+04  0.18147885868E+04  0.50400001928E-02 0. -1.
    10030    2    1    2    0    0  0.00000000000E+00  0.00000000000E+00  0.28063368551E+03  0.39102108591E+04  0.39001273949E+04 0.  0.
        4    1    3    3  502    0 -0.11242418947E+04  0.25867256428E+03 -0.14359806788E+04  0.18419754222E+04  0.12699999809E+01 0. -1.
       -4    1    3    3    0  502  0.11242418947E+04 -0.25867256428E+03  0.17166143643E+04  0.20682354368E+04  0.12699999809E+01 0.  1.
</event>
<event>
 5   0  0.6335942E-09  0.3900097E+04  0.7818609E-02  0.8025009E-01
        2   -1    0    0  501    0  0.00000000000E+00  0.00000000000E+00  0.16884722337E+04  0.16884722337E+04  0.25500000920E-02 0.  1.
       -2   -1    0    0    0  501  0.00000000000E+00  0.00000000000E+00 -0.22521476013E+04  0.22521476013E+04  0.25500000920E-02 0. -1.
    10030    2    1    2    0    0  0.00000000000E+00  0.00000000000E+00 -0.56367536759E+03  0.39406198351E+04  0.39000967635E+04 0.  0.
        2    1    3    3  502    0 -0.52217917400E+03 -0.18776440412E+04 -0.21428150678E+03  0.19606465259E+04  0.25500000920E-02 0.  1.
       -2    1    3    3    0  502  0.52217917400E+03  0.18776440412E+04 -0.34939386081E+03  0.19799733092E+04  0.25500000920E-02 0. -1.
</event>
<event>
 5   0  0.9078515E-09  0.3898652E+04  0.7818609E-02  0.8025310E-01
       -2   -1    0    0    0  501  0.00000000000E+00  0.00000000000E+00  0.17944590650E+04  0.17944590650E+04  0.25500000920E-02 0.  1.
        2   -1    0    0  501    0  0.00000000000E+00  0.00000000000E+00 -0.21175581672E+04  0.21175581672E+04  0.25500000920E-02 0. -1.
    10030    2    1    2    0    0  0.00000000000E+00  0.00000000000E+00 -0.32309910222E+03  0.39120172322E+04  0.38986517920E+04 0.  0.
        3    1    3    3  502    0  0.94683856305E+03 -0.15041494209E+03  0.15415444061E+04  0.18153476486E+04  0.10100000352E+00 0.  1.
       -3    1    3    3    0  502 -0.94683856305E+03  0.15041494209E+03 -0.18646435083E+04  0.20966695835E+04  0.10100000352E+00 0. -1.
</event>
<event>
 5   0  0.2929054E-09  0.3901269E+04  0.7818609E-02  0.8024765E-01
        1   -1    0    0  501    0  0.00000000000E+00  0.00000000000E+00  0.28014766640E+04  0.28014766641E+04  0.50400001928E-02 0. -1.
       -1   -1    0    0    0  501  0.00000000000E+00  0.00000000000E+00 -0.13582030142E+04  0.13582030142E+04  0.50400001928E-02 0.  1.
    10030    2    1    2    0    0  0.00000000000E+00  0.00000000000E+00  0.14432736499E+04  0.41596796782E+04  0.39012685369E+04 0.  0.
        1    1    3    3  502    0  0.24997503409E+03  0.15492949562E+04  0.19568959681E+04  0.25084346132E+04  0.50400001928E-02 0. -1.
       -1    1    3    3    0  502 -0.24997503409E+03 -0.15492949562E+04 -0.51362231816E+03  0.16512450650E+04  0.50400001928E-02 0.  1.
</event>
<event>
 5   0  0.9078515E-09  0.3900564E+04  0.7818609E-02  0.8024912E-01
        2   -1    0    0  501    0  0.00000000000E+00  0.00000000000E+00  0.12561490103E+04  0.12561490103E+04  0.25500000920E-02 0. -1.
       -2   -1    0    0    0  501  0.00000000000E+00  0.00000000000E+00 -0.30279845078E+04  0.30279845078E+04  0.25500000920E-02 0.  1.
    10030    2    1    2    0    0  0.00000000000E+00  0.00000000000E+00 -0.17718354976E+04  0.42841335181E+04  0.39005639298E+04 0.  0.
        3    1    3    3  502    0 -0.56371585509E+03  0.14217079238E+04 -0.22151191020E+04  0.26917989583E+04  0.10100000352E+00 0.  1.
       -3    1    3    3    0  502  0.56371585509E+03 -0.14217079238E+04  0.44328360442E+03  0.15923345597E+04  0.10100000352E+00 0. -1.
</event>
<event>
 5   0  0.2904500E-09  0.3904077E+04  0.7818609E-02  0.8024182E-01
       -1   -1    0    0    0  501  0.00000000000E+00  0.00000000000E+00  0.17413505312E+04  0.17413505312E+04  0.50400001928E-02 0.  1.
        1   -1    0    0  501    0  0.00000000000E+00  0.00000000000E+00 -0.21882177437E+04  0.21882177437E+04  0.50400001928E-02 0. -1.
    10030    2    1    2    0    0  0.00000000000E+00  0.00000000000E+00 -0.44686721246E+03  0.39295682749E+04  0.39040769103E+04 0.  0.
        4    1    3    3  502    0 -0.99853774857E+03  0.50431026032E+03 -0.18335805951E+04  0.21478887042E+04  0.12699999809E+01 0. -1.
       -4    1    3    3    0  502  0.99853774857E+03 -0.50431026032E+03  0.13867133827E+04  0.17816795707E+04  0.12699999809E+01 0.  1.
</event>
<event>
 5   0  0.2904500E-09  0.3899964E+04  0.7818609E-02  0.8025037E-01
        1   -1    0    0  501    0  0.00000000000E+00  0.00000000000E+00  0.23059447137E+04  0.23059447137E+04  0.50400001928E-02 0.  1.
       -1   -1    0    0    0  501  0.00000000000E+00  0.00000000000E+00 -0.16489686878E+04  0.16489686878E+04  0.50400001928E-02 0. -1.
    10030    2    1    2    0    0  0.00000000000E+00  0.00000000000E+00  0.65697602589E+03  0.39549134016E+04  0.38999644249E+04 0.  0.
        5    1    3    3  502    0  0.37702924070E+03  0.76034305692E+03  0.21088250506E+04  0.22731999025E+04  0.46999998093E+01 0.  1.
       -5    1    3    3    0  502 -0.37702924070E+03 -0.76034305692E+03 -0.14518490247E+04  0.16817134991E+04  0.46999998093E+01 0. -1.
</event>
<event>
 5   0  0.6335942E-09  0.3899030E+04  0.7818609E-02  0.8025231E-01
        2   -1    0    0  501    0  0.00000000000E+00  0.00000000000E+00  0.22876935133E+04  0.22876935133E+04  0.25500000920E-02 0. -1.
       -2   -1    0    0    0  501  0.00000000000E+00  0.00000000000E+00 -0.16613278331E+04  0.16613278331E+04  0.25500000920E-02 0.  1.
    10030    2    1    2    0    0  0.00000000000E+00  0.00000000000E+00  0.62636568025E+03  0.39490213464E+04  0.38990300882E+04 0.  0.
        2    1    3    3  502    0 -0.24157869478E+03 -0.60536574005E+03  0.21740699370E+04  0.22696713497E+04  0.25500000920E-02 0. -1.
       -2    1    3    3    0  502  0.24157869478E+03  0.60536574005E+03 -0.15477042567E+04  0.16793499966E+04  0.25500000920E-02 0.  1.
</event>
<event>
 5   0  0.2929054E-09  0.3901063E+04  0.7818609E-02  0.8024808E-01
        1   -1    0    0  501    0  0.00000000000E+00  0.00000000000E+00  0.22026746970E+04  0.22026746970E+04  0.50400001928E-02 0. -1.
       -1   -1    0    0    0  501  0.00000000000E+00  0.00000000000E+00 -0.17272510769E+04  0.17272510769E+04  0.50400001928E-02 0.  1.
    10030    2    1    2    0    0  0.00000000000E+00  0.00000000000E+00  0.47542362005E+03  0.39299257739E+04  0.39010625437E+04 0.  0.
        1    1    3    3  502    0 -0.12284573834E+04 -0.10905175790E+04 -0.82184769020E+03  0.18367824474E+04  0.50400001928E-02 0.  1.
       -1    1    3    3    0  502  0.12284573834E+04  0.10905175790E+04  0.12972713102E+04  0.20931433265E+04  0.50400001928E-02 0. -1.
</event>
<event>
 5   0  0.2904500E-09  0.3899805E+04  0.7818609E-02  0.8025070E-01
       -1   -1    0    0    0  501  0.00000000000E+00  0.00000000000E+00  0.17931392191E+04  0.17931392191E+04  0.50400001928E-02 0.  1.
        1   -1    0    0  501    0  0.00000000000E+00  0.00000000000E+00 -0.21203711236E+04  0.21203711236E+04  0.50400001928E-02 0. -1.
    10030    2    1    2    0    0  0.00000000000E+00  0.00000000000E+00 -0.32723190446E+03  0.39135103427E+04  0.38998054417E+04 0.  0.
        2    1    3    3  502    0  0.66796799537E+02  0.14152679467E+04 -0.15079788113E+04  0.20691653556E+04  0.25500000920E-02 0. -1.
       -2    1    3    3    0  502 -0.66796799537E+02 -0.14152679467E+04  0.11807469069E+04  0.18443449871E+04  0.25500000920E-02 0.  1.
</event>
<event>
 5   0  0.9368546E-09  0.3904484E+04  0.7818609E-02  0.8024097E-01
        2   -1    0    0  501    0  0.00000000000E+00  0.00000000000E+00  0.24305170050E+04  0.24305170050E+04  0.25500000920E-02 0. -1.
       -2   -1    0    0    0  501  0.00000000000E+00  0.00000000000E+00 -0.15680813583E+04  0.15680813583E+04  0.25500000920E-02 0.  1.
    10030    2    1    2    0    0  0.00000000000E+00  0.00000000000E+00  0.86243564670E+03  0.39985983634E+04  0.39044837849E+04 0.  0.
        5    1    3    3  502    0  0.17579841412E+04 -0.84290072590E+03  0.32760376645E+03  0.19769512367E+04  0.46999998093E+01 0. -1.
       -5    1    3    3    0  502 -0.17579841412E+04  0.84290072590E+03  0.53483188025E+03  0.20216471267E+04  0.46999998093E+01 0.  1.
</event>
<event>
 5   0  0.9434114E-09  0.3899175E+04  0.7818609E-02  0.8025201E-01
       -2   -1    0    0    0  501  0.00000000000E+00  0.00000000000E+00  0.28048156889E+04  0.28048156889E+04  0.25500000920E-02 0.  1.
        2   -1    0    0  501    0  0.00000000000E+00  0.00000000000E+00 -0.13551307294E+04  0.13551307294E+04  0.25500000920E-02 0. -1.
    10030    2    1    2    0    0  0.00000000000E+00  0.00000000000E+00  0.14496849595E+04  0.41599464183E+04  0.38991752617E+04 0.  0.
        4    1    3    3  502    0 -0.17385434573E+04  0.12063034977E+03 -0.20756620348E+03  0.17550414172E+04  0.12699999809E+01 0. -1.
       -4    1    3    3    0  502  0.17385434573E+04 -0.12063034977E+03  0.16572511630E+04  0.24049050011E+04  0.12699999809E+01 0.  1.
</event>
<event>
 5   0  0.2904500E-09  0.3900538E+04  0.7818609E-02  0.8024917E-01
       -1   -1    0    0    0  501  0.00000000000E+00  0.00000000000E+00  0.14977310949E+04  0.14977310949E+04  0.50400001928E-02 0. -1.
        1   -1    0    0  501    0  0.00000000000E+00  0.00000000000E+00 -0.25395401740E+04  0.25395401740E+04  0.50400001928E-02 0.  1.
    10030    2    1    2    0    0  0.00000000000E+00  0.00000000000E+00 -0.10418090791E+04  0.40372712690E+04  0.39005375452E+04 0.  0.
        2    1    3    3  502    0 -0.64016944256E+03 -0.13968710312E+04 -0.17640409135E+04  0.23394242748E+04  0.25500000920E-02 0.  1.
       -2    1    3    3    0  502  0.64016944256E+03  0.13968710312E+04  0.72223183442E+03  0.16978469942E+04  0.25500000920E-02 0. -1.
</event>
<event>
 5   0  0.2904500E-09  0.3901125E+04  0.7818609E-02  0.8024795E-01
        1   -1    0    0  501    0  0.00000000000E+00  0.00000000000E+00  0.12246950913E+04  0.12246950913E+04  0.50400001928E-02 0. -1.
       -1   -1    0    0    0  501  0.00000000000E+00  0.00000000000E+00 -0.31066464515E+04  0.31066464515E+04  0.50400001928E-02 0.  1.
    10030    2    1    2    0    0  0.00000000000E+00  0.00000000000E+00 -0.18819513602E+04  0.43313415429E+04  0.39011253042E+04 0.  0.
        3    1    3    3  502    0  0.82546700584E+03 -0.16964523169E+04 -0.39102448133E+03  0.19267190757E+04  0.10100000352E+00 0.  1.
       -3    1    3    3    0  502 -0.82546700584E+03  0.16964523169E+04 -0.14909268789E+04  0.24046224672E+04  0.10100000352E+00 0. -1.
</event>
<event>
 5   0  0.2904500E-09  0.3901685E+04  0.7818609E-02  0.8024679E-01
        1   -1    0    0  501    0  0.00000000000E+00  0.00000000000E+00  0.21167022576E+04  0.21167022576E+04  0.50400001928E-02 0.  1.
       -1   -1    0    0    0  501  0.00000000000E+00  0.00000000000E+00 -0.17979795702E+04  0.17979795702E+04  0.50400001928E-02 0. -1.
    10030    2    1    2    0    0  0.00000000000E+00  0.00000000000E+00  0.31872268746E+03  0.39146818278E+04  0.39016854898E+04 0.  0.
        2    1    3    3  502    0 -0.56977294223E+03 -0.11762233091E+04  0.16125105211E+04  0.20756523455E+04  0.25500000920E-02 0.  1.
       -2    1    3    3    0  502  0.56977294223E+03  0.11762233091E+04 -0.12937878336E+04  0.18390294824E+04  0.25500000920E-02 0. -1.
</event>
<event>
 5   0  0.9277261E-09  0.3898514E+04  0.7818609E-02  0.8025338E-01
       -2   -1    0    0    0  501  0.00000000000E+00  0.00000000000E+00  0.15571771892E+04  0.15571771892E+04  0.25500000920E-02 0. -1.
        2   -1    0    0  501    0  0.00000000000E+00  0.00000000000E+00 -0.24400584386E+04  0.24400584386E+04  0.25500000920E-02 0.  1.
    10030    2    1    2    0    0  0.00000000000E+00  0.00000000000E+00 -0.88288124934E+03  0.39972356278E+04  0.38985142508E+04 0.  0.
        1    1    3    3  502    0 -0.36586435131E+03  0.61516355777E+03  0.14175690158E+04  0.15880128592E+04  0.50400001928E-02 0. -1.
       -1    1    3    3    0  502  0.36586435131E+03 -0.61516355777E+03 -0.23004502651E+04  0.24092227686E+04  0.50400001928E-02 0.  1.
</event>
<event>
 5   0  0.2904500E-09  0.3904804E+04  0.7818609E-02  0.8024031E-01
       -1   -1    0    0    0  501  0.00000000000E+00  0.00000000000E+00  0.22141785261E+04  0.22141785261E+04  0.50400001928E-02 0.  1.
        1   -1    0    0  501    0  0.00000000000E+00  0.00000000000E+00 -0.17215746148E+04  0.17215746148E+04  0.50400001928E-02 0. -1.
    10030    2    1    2    0    0  0.00000000000E+00  0.00000000000E+00  0.49260391131E+03  0.39357531410E+04  0.39048039865E+04 0.  0.
        5    1    3    3  502    0  0.17261895195E+04 -0.26838073533E+03 -0.63244123470E+03  0.18578919457E+04  0.46999998093E+01 0. -1.
       -5    1    3    3    0  502 -0.17261895195E+04  0.26838073533E+03  0.11250451460E+04  0.20778611953E+04  0.46999998093E+01 0.  1.
</event>
<event>
 5   0  0.2904500E-09  0.3900217E+04  0.7818609E-02  0.8024984E-01
        1   -1    0    0  501    0  0.00000000000E+00  0.00000000000E+00  0.28573265703E+04  0.28573265703E+04  0.50400001928E-02 0. -1.
       -1   -1    0    0    0  501  0.00000000000E+00  0.00000000000E+00 -0.13309374123E+04  0.13309374123E+04  0.50400001928E-02 0.  1.
    10030    2    1    2    0    0  0.00000000000E+00  0.00000000000E+00  0.15263891580E+04  0.41882639826E+04  0.39002168307E+04 0.  0.
        4    1    3    3  502    0 -0.17172684605E+03  0.18906012801E+04  0.28408482405E+03  0.19195231466E+04  0.12699999809E+01 0.  1.
       -4    1    3    3    0  502  0.17172684605E+03 -0.18906012801E+04  0.12423043340E+04  0.22687408361E+04  0.12699999809E+01 0. -1.
</event>
<event>
 5   0  0.2929054E-09  0.3900727E+04  0.7818609E-02  0.8024878E-01
       -1   -1    0    0    0  501  0.00000000000E+00  0.00000000000E+00  0.26141092766E+04  0.26141092766E+04  0.50400001928E-02 0.  1.
        1   -1    0    0  501    0  0.00000000000E+00  0.00000000000E+00 -0.14551489933E+04  0.14551489933E+04  0.50400001928E-02 0. -1.
    10030    2    1    2    0    0  0.00000000000E+00  0.00000000000E+00  0.11589602833E+04  0.40692582700E+04  0.39007273590E+04 0.  0.
        1    1    3    3  502    0  0.97762621446E+03 -0.14892565466E+04 -0.24872240436E+03  0.17987498190E+04  0.50400001928E-02 0.  1.
       -1    1    3    3    0  502 -0.97762621446E+03  0.14892565466E+04  0.14076826877E+04  0.22705084510E+04  0.50400001928E-02 0. -1.
</event>
<event>
 5   0  0.9434114E-09  0.3902965E+04  0.7818609E-02  0.8024413E-01
        2   -1    0    0  501    0  0.00000000000E+00  0.00000000000E+00  0.25019762756E+04  0.25019762756E+04  0.25500000920E-02 0.  1.
       -2   -1    0    0    0  501  0.00000000000E+00  0.00000000000E+00 -0.15221102115E+04  0.15221102115E+04  0.25500000920E-02 0. -1.
    10030    2    1    2    0    0  0.00000000000E+00  0.00000000000E+00  0.97986606412E+03  0.40240864870E+04  0.39029648412E+04 0.  0.
        4    1    3    3  502    0 -0.11518951964E+04 -0.88216474657E+03  0.18355024519E+04  0.23396897331E+04  0.12699999809E+01 0.  1.
       -4    1    3    3    0  502  0.11518951964E+04  0.88216474657E+03 -0.85563638779E+03  0.16843967539E+04  0.12699999809E+01 0. -1.
</event>
<event>
 5   0  0.2929054E-09  0.3907033E+04  0.7818609E-02  0.8023568E-01
       -1   -1    0    0    0  501  0.00000000000E+00  0.00000000000E+00  0.21574950918E+04  0.21574950918E+04  0.50400001928E-02 0.  1.
        1   -1    0    0  501    0  0.00000000000E+00  0.00000000000E+00 -0.17688228581E+04  0.17688228581E+04  0.50400001928E-02 0. -1.
    10030    2    1    2    0    0  0.00000000000E+00  0.00000000000E+00  0.38867223370E+03  0.39263179498E+04  0.39070329584E+04 0.  0.
        1    1    3    3  502    0  0.10411121155E+04 -0.25322445856E+03 -0.14471859748E+04  0.18006621863E+04  0.50400001928E-02 0. -1.
       -1    1    3    3    0  502 -0.10411121155E+04  0.25322445856E+03  0.18358582085E+04  0.21256557636E+04  0.50400001928E-02 0.  1.
</event>
<event>
 5   0  0.9277261E-09  0.3899940E+04  0.7818609E-02  0.8025042E-01
        2   -1    0    0  501    0  0.00000000000E+00  0.00000000000E+00  0.23832859635E+04  0.23832859635E+04  0.25500000920E-02 0. -1.
       -2   -1    0    0    0  501  0.00000000000E+00  0.00000000000E+00 -0.15954367976E+04  0.15954367976E+04  0.25500000920E-02 0.  1.
    10030    2    1    2    0    0  0.00000000000E+00  0.00000000000E+00  0.78784916581E+03  0.39787227611E+04  0.38999395510E+04 0.  0.
        1    1    3    3  502    0  0.16038672024E+04 -0.67803171247E+02 -0.73541312364E+03  0.17657348995E+04  0.50400001928E-02 0.  1.
       -1    1    3    3    0  502 -0.16038672024E+04  0.67803171247E+02  0.15232622895E+04  0.22129878616E+04  0.50400001928E-02 0. -1.
</event>
<event>
 5   0  0.9078515E-09  0.3900113E+04  0.7818609E-02  0.8025006E-01
        2   -1    0    0  501    0  0.00000000000E+00  0.00000000000E+00  0.14598883255E+04  0.14598883255E+04  0.25500000920E-02 0. -1.
       -2   -1    0    0    0  501  0.00000000000E+00  0.00000000000E+00 -0.26048025931E+04  0.26048025931E+04  0.25500000920E-02 0.  1.
    10030    2    1    2    0    0  0.00000000000E+00  0.00000000000E+00 -0.11449142675E+04  0.40646909186E+04  0.39001132783E+04 0.  0.
        3    1    3    3  502    0 -0.80899616000E+03 -0.15901697044E+04  0.24791000753E+03  0.18012700680E+04  0.10100000352E+00 0. -1.
       -3    1    3    3    0  502  0.80899616000E+03  0.15901697044E+04 -0.13928242751E+04  0.22634208506E+04  0.10100000352E+00 0.  1.
</event>
<event>
 5   0  0.9434114E-09  0.3903839E+04  0.7818609E-02  0.8024231E-01
       -2   -1    0    0    0  501  0.00000000000E+00  0.00000000000E+00  0.22127500052E+04  0.22127500052E+04  0.25500000920E-02 0.  1.
        2   -1    0    0  501    0  0.00000000000E+00  0.00000000000E+00 -0.17218347552E+04  0.17218347552E+04  0.25500000920E-02 0. -1.
    10030    2    1    2    0    0  0.00000000000E+00  0.00000000000E+00  0.49091525001E+03  0.39345847604E+04  0.39038390661E+04 0.  0.
        4    1    3    3  502    0  0.23639715998E+03 -0.19375135753E+04  0.23328864134E+03  0.19657740650E+04  0.12699999809E+01 0.  1.
       -4    1    3    3    0  502 -0.23639715998E+03  0.19375135753E+04  0.25762660867E+03  0.19688106953E+04  0.12699999809E+01 0. -1.
</event>
<event>
 5   0  0.2904500E-09  0.3901607E+04  0.7818609E-02  0.8024695E-01
        1   -1    0    0  501    0  0.00000000000E+00  0.00000000000E+00  0.11488817479E+04  0.11488817480E+04  0.50400001928E-02 0. -1.
       -1   -1    0    0    0  501  0.00000000000E+00  0.00000000000E+00 -0.33124689131E+04  0.33124689131E+04  0.50400001928E-02 0.  1.
    10030    2    1    2    0    0  0.00000000000E+00  0.00000000000E+00 -0.21635871652E+04  0.44613506611E+04  0.39016073995E+04 0.  0.
        3    1    3    3  502    0  0.19084112039E+04  0.16478978639E+02 -0.15439149189E+04  0.24547867864E+04  0.10100000352E+00 0.  1.
       -3    1    3    3    0  502 -0.19084112039E+04 -0.16478978639E+02 -0.61967224626E+03  0.20065638746E+04  0.10100000352E+00 0. -1.
</event>
<event>
 5   0  0.6335942E-09  0.3899653E+04  0.7818609E-02  0.8025101E-01
       -2   -1    0    0    0  501  0.00000000000E+00  0.00000000000E+00  0.21026040593E+04  0.21026040593E+04  0.25500000920E-02 0. -1.
        2   -1    0    0  501    0  0.00000000000E+00  0.00000000000E+00 -0.18081495812E+04  0.18081495812E+04  0.25500000920E-02 0.  1.
    10030    2    1    2    0    0  0.00000000000E+00  0.00000000000E+00  0.29445447816E+03  0.39107536405E+04  0.38996526252E+04 0.  0.
        2    1    3    3  502    0  0.10386093840E+04  0.37113882067E+03  0.17597127420E+04  0.20767865589E+04  0.25500000920E-02 0. -1.
       -2    1    3    3    0  502 -0.10386093840E+04 -0.37113882067E+03 -0.14652582638E+04  0.18339670816E+04  0.25500000920E-02 0.  1.
</event>
<event>
 5   0  0.2904500E-09  0.3899071E+04  0.7818609E-02  0.8025223E-01
        1   -1    0    0  501    0  0.00000000000E+00  0.00000000000E+00  0.23852785199E+04  0.23852785199E+04  0.50400001928E-02 0. -1.
       -1   -1    0    0    0  501  0.00000000000E+00  0.00000000000E+00 -0.15933937567E+04  0.15933937567E+04  0.50400001928E-02 0.  1.
    10030    2    1    2    0    0  0.00000000000E+00  0.00000000000E+00  0.79188476321E+03  0.39786722766E+04  0.38990706081E+04 0.  0.
        5    1    3    3  502    0 -0.16340935657E+03  0.15450389328E+04  0.15976167162E+04  0.22285082867E+04  0.46999998093E+01 0. -1.
       -5    1    3    3    0  502  0.16340935657E+03 -0.15450389328E+04 -0.80573195298E+03  0.17501639900E+04  0.46999998093E+01 0.  1.
</event>
<event>
 5   0  0.9277261E-09  0.3895374E+04  0.7818609E-02  0.8025992E-01
       -2   -1    0    0    0  501  0.00000000000E+00  0.00000000000E+00  0.16344083561E+04  0.16344083561E+04  0.25500000920E-02 0. -1.
        2   -1    0    0  501    0  0.00000000000E+00  0.00000000000E+00 -0.23210142139E+04  0.23210142139E+04  0.25500000920E-02 0.  1.
    10030    2    1    2    0    0  0.00000000000E+00  0.00000000000E+00 -0.68660585775E+03  0.39554225700E+04  0.38953741930E+04 0.  0.
        1    1    3    3  502    0  0.14119520450E+04 -0.99553156015E+03  0.56988990227E+03  0.18191938230E+04  0.50400001928E-02 0. -1.
       -1    1    3    3    0  502 -0.14119520450E+04  0.99553156015E+03 -0.12564957600E+04  0.21362287470E+04  0.50400001928E-02 0.  1.
</event>
<event>
 5   0  0.9368546E-09  0.3900297E+04  0.7818609E-02  0.8024967E-01
       -2   -1    0    0    0  501  0.00000000000E+00  0.00000000000E+00  0.14002574212E+04  0.14002574212E+04  0.25500000920E-02 0.  1.
        2   -1    0    0  501    0  0.00000000000E+00  0.00000000000E+00 -0.27159862689E+04  0.27159862689E+04  0.25500000920E-02 0. -1.
    10030    2    1    2    0    0  0.00000000000E+00  0.00000000000E+00 -0.13157288477E+04  0.41162436902E+04  0.39002973882E+04 0.  0.
        5    1    3    3  502    0  0.11818303671E+03 -0.50283498558E+03  0.13267433483E+04  0.14237556866E+04  0.46999998093E+01 0.  1.
       -5    1    3    3    0  502 -0.11818303671E+03  0.50283498558E+03 -0.26424721960E+04  0.26924880036E+04  0.46999998093E+01 0. -1.
</event>
<event>
 5   0  0.9368546E-09  0.3902252E+04  0.7818609E-02  0.8024561E-01
       -2   -1    0    0    0  501  0.00000000000E+00  0.00000000000E+00  0.28453729462E+04  0.28453729462E+04  0.25500000920E-02 0.  1.
        2   -1    0    0  501    0  0.00000000000E+00  0.00000000000E+00 -0.13379242337E+04  0.13379242337E+04  0.25500000920E-02 0. -1.
    10030    2    1    2    0    0  0.00000000000E+00  0.00000000000E+00  0.15074487125E+04  0.41832971799E+04  0.39022523848E+04 0.  0.
        5    1    3    3  502    0 -0.15871272073E+04  0.50239458493E+03  0.18446070329E+04  0.24847475298E+04  0.46999998093E+01 0.  1.
       -5    1    3    3    0  502  0.15871272073E+04 -0.50239458493E+03 -0.33715832041E+03  0.16985496502E+04  0.46999998093E+01 0. -1.
</event>
<event>
 5   0  0.2904500E-09  0.3899932E+04  0.7818609E-02  0.8025043E-01
       -1   -1    0    0    0  501  0.00000000000E+00  0.00000000000E+00  0.10853600333E+04  0.10853600333E+04  0.50400001928E-02 0. -1.
        1   -1    0    0  501    0  0.00000000000E+00  0.00000000000E+00 -0.35033228568E+04  0.35033228568E+04  0.50400001928E-02 0.  1.
    10030    2    1    2    0    0  0.00000000000E+00  0.00000000000E+00 -0.24179628235E+04  0.45886828901E+04  0.38999315956E+04 0.  0.
        3    1    3    3  502    0  0.10143517952E+04 -0.16209284870E+04 -0.16586356404E+04  0.25312824659E+04  0.10100000352E+00 0. -1.
       -3    1    3    3    0  502 -0.10143517952E+04  0.16209284870E+04 -0.75932718311E+03  0.20574004242E+04  0.10100000352E+00 0.  1.
</event>
<event>
 5   0  0.2929054E-09  0.3900680E+04  0.7818609E-02  0.8024888E-01
       -1   -1    0    0    0  501  0.00000000000E+00  0.00000000000E+00  0.33488442957E+04  0.33488442957E+04  0.50400001928E-02 0. -1.
        1   -1    0    0  501    0  0.00000000000E+00  0.00000000000E+00 -0.11358622757E+04  0.11358622757E+04  0.50400001928E-02 0.  1.
    10030    2    1    2    0    0  0.00000000000E+00  0.00000000000E+00  0.22129820201E+04  0.44847065714E+04  0.39006798908E+04 0.  0.
        1    1    3    3  502    0 -0.11333966654E+04  0.91924926687E+03  0.25941377472E+04  0.29764337499E+04  0.50400001928E-02 0. -1.
       -1    1    3    3    0  502  0.11333966654E+04 -0.91924926687E+03 -0.38115572712E+03  0.15082728215E+04  0.50400001928E-02 0.  1.
</event>
<event>
 5   0  0.2904500E-09  0.3899869E+04  0.7818609E-02  0.8025056E-01
        1   -1    0    0  501    0  0.00000000000E+00  0.00000000000E+00  0.23006203356E+04  0.23006203356E+04  0.50400001928E-02 0.  1.
       -1   -1    0    0    0  501  0.00000000000E+00  0.00000000000E+00 -0.16527042522E+04  0.16527042522E+04  0.50400001928E-02 0. -1.
    10030    2    1    2    0    0  0.00000000000E+00  0.00000000000E+00  0.64791608344E+03  0.39533245878E+04  0.38998692344E+04 0.  0.
        5    1    3    3  502    0 -0.16298357677E+04  0.10697045505E+04  0.28353074667E+03  0.19700366060E+04  0.46999998093E+01 0. -1.
       -5    1    3    3    0  502  0.16298357677E+04 -0.10697045505E+04  0.36438533678E+03  0.19832879817E+04  0.46999998093E+01 0.  1.
</event>
<event>
 5   0  0.2929054E-09  0.3901869E+04  0.7818609E-02  0.8024641E-01
        1   -1    0    0  501    0  0.00000000000E+00  0.00000000000E+00  0.27368816400E+04  0.27368816400E+04  0.50400001928E-02 0.  1.
       -1   -1    0    0    0  501  0.00000000000E+00  0.00000000000E+00 -0.13906870979E+04  0.13906870979E+04  0.50400001928E-02 0. -1.
    10030    2    1    2    0    0  0.00000000000E+00  0.00000000000E+00  0.13461945421E+04  0.41275687379E+04  0.39018692880E+04 0.  0.
        1    1    3    3  502    0  0.19314242424E+04  0.15540081285E+03  0.43280838115E+03  0.19854148462E+04  0.50400001928E-02 0. -1.
       -1    1    3    3    0  502 -0.19314242424E+04 -0.15540081285E+03  0.91338616093E+03  0.21421538917E+04  0.50400001928E-02 0.  1.
</event>
<event>
 5   0  0.2904500E-09  0.3899254E+04  0.7818609E-02  0.8025184E-01
       -1   -1    0    0    0  501  0.00000000000E+00  0.00000000000E+00  0.23215557457E+04  0.23215557458E+04  0.50400001928E-02 0.  1.
        1   -1    0    0  501    0  0.00000000000E+00  0.00000000000E+00 -0.16372835775E+04  0.16372835775E+04  0.50400001928E-02 0. -1.
    10030    2    1    2    0    0  0.00000000000E+00  0.00000000000E+00  0.68427216823E+03  0.39588393233E+04  0.38992538244E+04 0.  0.
        2    1    3    3  502    0 -0.31890031304E+03 -0.18934896411E+04 -0.72947155350E+00  0.19201564943E+04  0.25500000920E-02 0. -1.
       -2    1    3    3    0  502  0.31890031304E+03  0.18934896411E+04  0.68500163979E+03  0.20386828290E+04  0.25500000920E-02 0.  1.
</event>
<event>
 5   0  0.2904500E-09  0.3903944E+04  0.7818609E-02  0.8024209E-01
        1   -1    0    0  501    0  0.00000000000E+00  0.00000000000E+00  0.30246294221E+04  0.30246294221E+04  0.50400001928E-02 0.  1.
       -1   -1    0    0    0  501  0.00000000000E+00  0.00000000000E+00 -0.12597226087E+04  0.12597226087E+04  0.50400001928E-02 0. -1.
    10030    2    1    2    0    0  0.00000000000E+00  0.00000000000E+00  0.17649068134E+04  0.42843520308E+04  0.39039436809E+04 0.  0.
        3    1    3    3  502    0  0.49846485290E+03  0.18815295147E+04  0.72126187337E+03  0.20757743674E+04  0.10100000352E+00 0. -1.
       -3    1    3    3    0  502 -0.49846485290E+03 -0.18815295147E+04  0.10436449401E+04  0.22085776634E+04  0.10100000352E+00 0.  1.
</event>
<event>
 5   0  0.9368546E-09  0.3893242E+04  0.7818609E-02  0.8026436E-01
       -2   -1    0    0    0  501  0.00000000000E+00  0.00000000000E+00  0.13490364297E+04  0.13490364297E+04  0.25500000920E-02 0.  1.
        2   -1    0    0  501    0  0.00000000000E+00  0.00000000000E+00 -0.28089181684E+04  0.28089181684E+04  0.25500000920E-02 0. -1.
    10030    2    1    2    0    0  0.00000000000E+00  0.00000000000E+00 -0.14598817387E+04  0.41579545980E+04  0.38932418045E+04 0.  0.
        5    1    3    3  502    0  0.10088987881E+04 -0.53397228473E+03 -0.24139552686E+04  0.26702444260E+04  0.46999998093E+01 0. -1.
       -5    1    3    3    0  502 -0.10088987881E+04  0.53397228473E+03  0.95407352995E+03  0.14877101721E+04  0.46999998093E+01 0.  1.
</event>
<event>
 5   0  0.2904500E-09  0.3900161E+04  0.7818609E-02  0.8024996E-01
       -1   -1    0    0    0  501  0.00000000000E+00  0.00000000000E+00  0.17769755817E+04  0.17769755817E+04  0.50400001928E-02 0. -1.
        1   -1    0    0  501    0  0.00000000000E+00  0.00000000000E+00 -0.21400487266E+04  0.21400487266E+04  0.50400001928E-02 0.  1.
    10030    2    1    2    0    0  0.00000000000E+00  0.00000000000E+00 -0.36307314484E+03  0.39170243083E+04  0.39001611920E+04 0.  0.
        5    1    3    3  502    0 -0.31232593994E+03  0.15606435965E+04 -0.13131898294E+04  0.20634062969E+04  0.46999998093E+01 0.  1.
       -5    1    3    3    0  502  0.31232593994E+03 -0.15606435965E+04  0.95011668458E+03  0.18536180114E+04  0.46999998093E+01 0. -1.
</event>
<event>
 5   0  0.9277261E-09  0.3899085E+04  0.7818609E-02  0.8025220E-01
        2   -1    0    0  501    0  0.00000000000E+00  0.00000000000E+00  0.21448057007E+04  0.21448057007E+04  0.25500000920E-02 0. -1.
       -2   -1    0    0    0  501  0.00000000000E+00  0.00000000000E+00 -0.17720561102E+04  0.17720561102E+04  0.25500000920E-02 0.  1.
    10030    2    1    2    0    0  0.00000000000E+00  0.00000000000E+00  0.37274959049E+03  0.39168618109E+04  0.38990850450E+04 0.  0.
        1    1    3    3  502    0  0.38067908142E+03  0.53315366087E+03 -0.16581739166E+04  0.17828937509E+04  0.50400001928E-02 0.  1.
       -1    1    3    3    0  502 -0.38067908142E+03 -0.53315366087E+03  0.20309235071E+04  0.21339680600E+04  0.50400001928E-02 0. -1.
</event>
<event>
 5   0  0.2929054E-09  0.3899017E+04  0.7818609E-02  0.8025234E-01
       -1   -1    0    0    0  501  0.00000000000E+00  0.00000000000E+00  0.26435239747E+04  0.26435239747E+04  0.50400001928E-02 0.  1.
        1   -1    0    0  501    0  0.00000000000E+00  0.00000000000E+00 -0.14376956484E+04  0.14376956484E+04  0.50400001928E-02 0. -1.
    10030    2    1    2    0    0  0.00000000000E+00  0.00000000000E+00  0.12058283263E+04  0.40812196231E+04  0.38990167555E+04 0.  0.
        1    1    3    3  502    0 -0.11062081495E+04  0.13827695850E+04 -0.25056261759E+03  0.17884434071E+04  0.50400001928E-02 0. -1.
       -1    1    3    3    0  502  0.11062081495E+04 -0.13827695850E+04  0.14563909439E+04  0.22927762160E+04  0.50400001928E-02 0.  1.
</event>
<event>
 5   0  0.9434114E-09  0.3900610E+04  0.7818609E-02  0.8024902E-01
        2   -1    0    0  501    0  0.00000000000E+00  0.00000000000E+00  0.13630890783E+04  0.13630890783E+04  0.25500000920E-02 0.  1.
       -2   -1    0    0    0  501  0.00000000000E+00  0.00000000000E+00 -0.27904921181E+04  0.27904921181E+04  0.25500000920E-02 0. -1.
    10030    2    1    2    0    0  0.00000000000E+00  0.00000000000E+00 -0.14274030399E+04  0.41535811964E+04  0.39006098647E+04 0.  0.
        4    1    3    3  502    0 -0.76678933437E+03  0.78624219665E+03 -0.24299166778E+04  0.26665782098E+04  0.12699999809E+01 0. -1.
       -4    1    3    3    0  502  0.76678933437E+03 -0.78624219665E+03  0.10025136379E+04  0.14870029866E+04  0.12699999809E+01 0.  1.
</event>
<event>
 5   0  0.9277261E-09  0.3899325E+04  0.7818609E-02  0.8025170E-01
       -2   -1    0    0    0  501  0.00000000000E+00  0.00000000000E+00  0.16139729538E+04  0.16139729538E+04  0.25500000920E-02 0.  1.
        2   -1    0    0  501    0  0.00000000000E+00  0.00000000000E+00 -0.23551723123E+04  0.23551723123E+04  0.25500000920E-02 0. -1.
    10030    2    1    2    0    0  0.00000000000E+00  0.00000000000E+00 -0.74119935853E+03  0.39691452662E+04  0.38993252820E+04 0.  0.
        1    1    3    3  502    0 -0.21027026178E+03  0.75542797644E+03 -0.21875824927E+04  0.23238765400E+04  0.50400001928E-02 0. -1.
       -1    1    3    3    0  502  0.21027026178E+03 -0.75542797644E+03  0.14463831342E+04  0.16452687262E+04  0.50400001928E-02 0.  1.
</event>
<event>
 5   0  0.2929054E-09  0.3896346E+04  0.7818609E-02  0.8025790E-01
       -1   -1    0    0    0  501  0.00000000000E+00  0.00000000000E+00  0.26653703092E+04  0.26653703092E+04  0.50400001928E-02 0.  1.
        1   -1    0    0  501    0  0.00000000000E+00  0.00000000000E+00 -0.14239591053E+04  0.14239591053E+04  0.50400001928E-02 0. -1.
    10030    2    1    2    0    0  0.00000000000E+00  0.00000000000E+00  0.12414112039E+04  0.40893294145E+04  0.38963461452E+04 0.  0.
        1    1    3    3  502    0 -0.13487591010E+04  0.11977893570E+04 -0.15162806845E+03  0.18102048303E+04  0.50400001928E-02 0. -1.
       -1    1    3    3    0  502  0.13487591010E+04 -0.11977893570E+04  0.13930392723E+04  0.22791245843E+04  0.50400001928E-02 0.  1.
</event>
<event>
 5   0  0.2904500E-09  0.3895987E+04  0.7818609E-02  0.8025864E-01
        1   -1    0    0  501    0  0.00000000000E+00  0.00000000000E+00  0.14240171674E+04  0.14240171674E+04  0.50400001928E-02 0. -1.
       -1   -1    0    0    0  501  0.00000000000E+00  0.00000000000E+00 -0.26647707123E+04  0.26647707123E+04  0.50400001928E-02 0.  1.
    10030    2    1    2    0    0  0.00000000000E+00  0.00000000000E+00 -0.12407535449E+04  0.40887878797E+04  0.38959872903E+04 0.  0.
        5    1    3    3  502    0  0.45800129265E+03 -0.16239662218E+04 -0.16420110582E+04  0.23544115781E+04  0.46999998093E+01 0. -1.
       -5    1    3    3    0  502 -0.45800129265E+03  0.16239662218E+04  0.40125751329E+03  0.17343763016E+04  0.46999998093E+01 0.  1.
</event>
<event>
 5   0  0.2904500E-09  0.3899776E+04  0.7818609E-02  0.8025076E-01
       -3   -1    0    0    0  501  0.00000000000E+00  0.00000000000E+00  0.16343103300E+04  0.16343103331E+04  0.10100000352E+00 0. -1.
        3   -1    0    0  501    0  0.00000000000E+00  0.00000000000E+00 -0.23264021297E+04  0.23264021319E+04  0.10100000352E+00 0.  1.
    10030    2    1    2    0    0  0.00000000000E+00  0.00000000000E+00 -0.69209179968E+03  0.39607124650E+04  0.38997759129E+04 0.  0.
        2    1    3    3  502    0 -0.14937795130E+04  0.88502866631E+03  0.55518099707E+03  0.18228765491E+04  0.25500000920E-02 0. -1.
       -2    1    3    3    0  502  0.14937795130E+04 -0.88502866631E+03 -0.12472727967E+04  0.21378359159E+04  0.25500000920E-02 0.  1.
</event>
<event>
 5   0  0.2904500E-09  0.3898963E+04  0.7818609E-02  0.8025245E-01
       -1   -1    0    0    0  501  0.00000000000E+00  0.00000000000E+00  0.16748070299E+04  0.16748070299E+04  0.50400001928E-02 0.  1.
        1   -1    0    0  501    0  0.00000000000E+00  0.00000000000E+00 -0.22692036037E+04  0.22692036037E+04  0.50400001928E-02 0. -1.
    10030    2    1    2    0    0  0.00000000000E+00  0.00000000000E+00 -0.59439657377E+03  0.39440106336E+04  0.38989630149E+04 0.  0.
        2    1    3    3  502    0 -0.10949561575E+04 -0.44345876090E+03  0.12714908348E+04  0.17355902749E+04  0.25500000920E-02 0.  1.
       -2    1    3    3    0  502  0.10949561575E+04  0.44345876090E+03 -0.18658874085E+04  0.22084203587E+04  0.25500000920E-02 0. -1.
</event>
<event>
 5   0  0.9078515E-09  0.3899624E+04  0.7818609E-02  0.8025107E-01
        2   -1    0    0  501    0  0.00000000000E+00  0.00000000000E+00  0.17259355536E+04  0.17259355536E+04  0.25500000920E-02 0. -1.
       -2   -1    0    0    0  501  0.00000000000E+00  0.00000000000E+00 -0.22027282170E+04  0.22027282170E+04  0.25500000920E-02 0.  1.
    10030    2    1    2    0    0  0.00000000000E+00  0.00000000000E+00 -0.47679266342E+03  0.39286637706E+04  0.38996240561E+04 0.  0.
        3    1    3    3  502    0  0.16634711648E+04  0.86013761584E+03  0.30859616318E+03  0.18979474799E+04  0.10100000352E+00 0.  1.
       -3    1    3    3    0  502 -0.16634711648E+04 -0.86013761584E+03 -0.78538882659E+03  0.20307162907E+04  0.10100000352E+00 0. -1.
</event>
<event>
 5   0  0.6335942E-09  0.3903555E+04  0.7818609E-02  0.8024290E-01
       -2   -1    0    0    0  501  0.00000000000E+00  0.00000000000E+00  0.28321605008E+04  0.28321605009E+04  0.25500000920E-02 0. -1.
        2   -1    0    0  501    0  0.00000000000E+00  0.00000000000E+00 -0.13450633383E+04  0.13450633383E+04  0.25500000920E-02 0.  1.
    10030    2    1    2    0    0  0.00000000000E+00  0.00000000000E+00  0.14870971625E+04  0.41772238392E+04  0.39035549223E+04 0.  0.
        2    1    3    3  502    0  0.37524077218E+03  0.10509587178E+04  0.24570964324E+04  0.26986372008E+04  0.25500000920E-02 0. -1.
       -2    1    3    3    0  502 -0.37524077218E+03 -0.10509587178E+04 -0.96999926987E+03  0.14785866384E+04  0.25500000920E-02 0.  1.
</event>
<event>
 5   0  0.9078515E-09  0.3889655E+04  0.7818609E-02  0.8027184E-01
       -2   -1    0    0    0  501  0.00000000000E+00  0.00000000000E+00  0.18730171159E+04  0.18730171159E+04  0.25500000920E-02 0.  1.
        2   -1    0    0  501    0  0.00000000000E+00  0.00000000000E+00 -0.20193906145E+04  0.20193906145E+04  0.25500000920E-02 0. -1.
    10030    2    1    2    0    0  0.00000000000E+00  0.00000000000E+00 -0.14637349852E+03  0.38924077304E+04  0.38896545783E+04 0.  0.
        3    1    3    3  502    0  0.26975800959E+03  0.79255566316E+03  0.16834586410E+04  0.18801454383E+04  0.10100000352E+00 0.  1.
       -3    1    3    3    0  502 -0.26975800959E+03 -0.79255566316E+03 -0.18298321396E+04  0.20122622921E+04  0.10100000352E+00 0. -1.
</event>
<event>
 5   0  0.6335942E-09  0.3877084E+04  0.7818609E-02  0.8029812E-01
        2   -1    0    0  501    0  0.00000000000E+00  0.00000000000E+00  0.19486594840E+04  0.19486594840E+04  0.25500000920E-02 0. -1.
       -2   -1    0    0    0  501  0.00000000000E+00  0.00000000000E+00 -0.19284767585E+04  0.19284767585E+04  0.25500000920E-02 0.  1.
    10030    2    1    2    0    0  0.00000000000E+00  0.00000000000E+00  0.20182725431E+02  0.38771362425E+04  0.38770837108E+04 0.  0.
        2    1    3    3  502    0 -0.46793031866E+03 -0.14503286199E+04  0.12082447492E+04  0.19448051992E+04  0.25500000920E-02 0. -1.
       -2    1    3    3    0  502  0.46793031866E+03  0.14503286199E+04 -0.11880620237E+04  0.19323310433E+04  0.25500000920E-02 0.  1.
</event>
<event>
 5   0  0.9078515E-09  0.3900324E+04  0.7818609E-02  0.8024962E-01
       -2   -1    0    0    0  501  0.00000000000E+00  0.00000000000E+00  0.16918338089E+04  0.16918338089E+04  0.25500000920E-02 0.  1.
        2   -1    0    0  501    0  0.00000000000E+00  0.00000000000E+00 -0.22479349619E+04  0.22479349619E+04  0.25500000920E-02 0. -1.
    10030    2    1    2    0    0  0.00000000000E+00  0.00000000000E+00 -0.55610115297E+03  0.39397687708E+04  0.39003242782E+04 0.  0.
        3    1    3    3  502    0  0.18642405285E+04 -0.39696258055E+03 -0.69472722684E+03  0.20286985898E+04  0.10100000352E+00 0. -1.
       -3    1    3    3    0  502 -0.18642405285E+04  0.39696258055E+03  0.13862607387E+03  0.19110701810E+04  0.10100000352E+00 0.  1.
</event>
<event>
 5   0  0.9078515E-09  0.3900915E+04  0.7818609E-02  0.8024839E-01
       -2   -1    0    0    0  501  0.00000000000E+00  0.00000000000E+00  0.17445999369E+04  0.17445999369E+04  0.25500000920E-02 0.  1.
        2   -1    0    0  501    0  0.00000000000E+00  0.00000000000E+00 -0.21806053955E+04  0.21806053955E+04  0.25500000920E-02 0. -1.
    10030    2    1    2    0    0  0.00000000000E+00  0.00000000000E+00 -0.43600545861E+03  0.39252053324E+04  0.39009147827E+04 0.  0.
        3    1    3    3  502    0  0.30840565205E+02 -0.19327944566E+04 -0.47969615691E+03  0.19916711488E+04  0.10100000352E+00 0. -1.
       -3    1    3    3    0  502 -0.30840565205E+02  0.19327944566E+04  0.43690698295E+02  0.19335341836E+04  0.10100000352E+00 0.  1.
</event>
<event>
 5   0  0.6335942E-09  0.3899326E+04  0.7818609E-02  0.8025169E-01
        2   -1    0    0  501    0  0.00000000000E+00  0.00000000000E+00  0.19282813846E+04  0.19282813846E+04  0.25500000920E-02 0. -1.
       -2   -1    0    0    0  501  0.00000000000E+00  0.00000000000E+00 -0.19712815013E+04  0.19712815013E+04  0.25500000920E-02 0.  1.
    10030    2    1    2    0    0  0.00000000000E+00  0.00000000000E+00 -0.43000116637E+02  0.38995628859E+04  0.38993257996E+04 0.  0.
        2    1    3    3  502    0 -0.12625714427E+04  0.11220996687E+04  0.95220749076E+03  0.19390444605E+04  0.25500000920E-02 0. -1.
       -2    1    3    3    0  502  0.12625714427E+04 -0.11220996687E+04 -0.99520760740E+03  0.19605184254E+04  0.25500000920E-02 0.  1.
</event>
<event>
 5   0  0.9434114E-09  0.3902080E+04  0.7818609E-02  0.8024597E-01
       -2   -1    0    0    0  501  0.00000000000E+00  0.00000000000E+00  0.21290290266E+04  0.21290290266E+04  0.25500000920E-02 0. -1.
        2   -1    0    0  501    0  0.00000000000E+00  0.00000000000E+00 -0.17879310143E+04  0.17879310143E+04  0.25500000920E-02 0.  1.
    10030    2    1    2    0    0  0.00000000000E+00  0.00000000000E+00  0.34109801228E+03  0.39169600410E+04  0.39020799721E+04 0.  0.
        4    1    3    3  502    0 -0.12306727103E+04  0.83074361834E+03 -0.10999254851E+04  0.18478441398E+04  0.12699999809E+01 0.  1.
       -4    1    3    3    0  502  0.12306727103E+04 -0.83074361834E+03  0.14410234974E+04  0.20691159011E+04  0.12699999809E+01 0. -1.
</event>
<event>
 5   0  0.2929054E-09  0.3896848E+04  0.7818609E-02  0.8025685E-01
        1   -1    0    0  501    0  0.00000000000E+00  0.00000000000E+00  0.21512689652E+04  0.21512689652E+04  0.50400001928E-02 0.  1.
       -1   -1    0    0    0  501  0.00000000000E+00  0.00000000000E+00 -0.17647053139E+04  0.17647053140E+04  0.50400001928E-02 0. -1.
    10030    2    1    2    0    0  0.00000000000E+00  0.00000000000E+00  0.38656365128E+03  0.39159742792E+04  0.38968478414E+04 0.  0.
        1    1    3    3  502    0 -0.40193137692E+03  0.67706503859E+02  0.21079478049E+04  0.21469925363E+04  0.50400001928E-02 0.  1.
       -1    1    3    3    0  502  0.40193137692E+03 -0.67706503859E+02 -0.17213841536E+04  0.17689817429E+04  0.50400001928E-02 0. -1.
</event>
<event>
 5   0  0.6335942E-09  0.3900740E+04  0.7818609E-02  0.8024875E-01
        2   -1    0    0  501    0  0.00000000000E+00  0.00000000000E+00  0.15360076810E+04  0.15360076810E+04  0.25500000920E-02 0. -1.
       -2   -1    0    0    0  501  0.00000000000E+00  0.00000000000E+00 -0.24765132247E+04  0.24765132247E+04  0.25500000920E-02 0.  1.
    10030    2    1    2    0    0  0.00000000000E+00  0.00000000000E+00 -0.94050554369E+03  0.40125209058E+04  0.39007401018E+04 0.  0.
        2    1    3    3  502    0 -0.15628659829E+04 -0.11406923143E+04 -0.72267064906E+03  0.20654253565E+04  0.25500000920E-02 0.  1.
       -2    1    3    3    0  502  0.15628659829E+04  0.11406923143E+04 -0.21783489463E+03  0.19470955492E+04  0.25500000920E-02 0. -1.
</event>
<event>
 5   0  0.2904500E-09  0.3901040E+04  0.7818609E-02  0.8024813E-01
       -1   -1    0    0    0  501  0.00000000000E+00  0.00000000000E+00  0.19920664991E+04  0.19920664991E+04  0.50400001928E-02 0.  1.
        1   -1    0    0  501    0  0.00000000000E+00  0.00000000000E+00 -0.19098395387E+04  0.19098395387E+04  0.50400001928E-02 0. -1.
    10030    2    1    2    0    0  0.00000000000E+00  0.00000000000E+00  0.82226960368E+02  0.39019060378E+04  0.39010395351E+04 0.  0.
        5    1    3    3  502    0 -0.47673266322E+03  0.11378277067E+04 -0.14700428590E+04  0.19191076102E+04  0.46999998093E+01 0. -1.
       -5    1    3    3    0  502  0.47673266322E+03 -0.11378277067E+04  0.15522698194E+04  0.19827984276E+04  0.46999998093E+01 0.  1.
</event>
<event>
 5   0  0.2904500E-09  0.3899776E+04  0.7818609E-02  0.8025076E-01
        1   -1    0    0  501    0  0.00000000000E+00  0.00000000000E+00  0.12709060538E+04  0.12709060538E+04  0.50400001928E-02 0.  1.
       -1   -1    0    0    0  501  0.00000000000E+00  0.00000000000E+00 -0.29916162272E+04  0.29916162272E+04  0.50400001928E-02 0. -1.
    10030    2    1    2    0    0  0.00000000000E+00  0.00000000000E+00 -0.17207101734E+04  0.42625222810E+04  0.38997759802E+04 0.  0.
        4    1    3    3  502    0  0.20074807513E+03 -0.17218628432E+04  0.11540392839E+03  0.17373632666E+04  0.12699999809E+01 0. -1.
       -4    1    3    3    0  502 -0.20074807513E+03  0.17218628432E+04 -0.18361141017E+04  0.25251590144E+04  0.12699999809E+01 0.  1.
</event>
<event>
 5   0  0.2904500E-09  0.3899955E+04  0.7818609E-02  0.8025039E-01
       -1   -1    0    0    0  501  0.00000000000E+00  0.00000000000E+00  0.16949344567E+04  0.16949344567E+04  0.50400001928E-02 0. -1.
        1   -1    0    0  501    0  0.00000000000E+00  0.00000000000E+00 -0.22433973545E+04  0.22433973545E+04  0.50400001928E-02 0.  1.
    10030    2    1    2    0    0  0.00000000000E+00  0.00000000000E+00 -0.54846289788E+03  0.39383318112E+04  0.38999546029E+04 0.  0.
        5    1    3    3  502    0  0.10833295259E+04  0.86028283710E+03 -0.16620549511E+04  0.21624380158E+04  0.46999998093E+01 0.  1.
       -5    1    3    3    0  502 -0.10833295259E+04 -0.86028283710E+03  0.11135920533E+04  0.17758937954E+04  0.46999998093E+01 0. -1.
</event>
<event>
 5   0  0.9277261E-09  0.3900821E+04  0.7818609E-02  0.8024859E-01
        2   -1    0    0  501    0  0.00000000000E+00  0.00000000000E+00  0.23066029327E+04  0.23066029327E+04  0.25500000920E-02 0. -1.
       -2   -1    0    0    0  501  0.00000000000E+00  0.00000000000E+00 -0.16492220930E+04  0.16492220930E+04  0.25500000920E-02 0.  1.
    10030    2    1    2    0    0  0.00000000000E+00  0.00000000000E+00  0.65738083978E+03  0.39558250257E+04  0.39008206913E+04 0.  0.
        1    1    3    3  502    0  0.11866133131E+04 -0.15121907819E+04  0.66400125183E+03  0.20336346226E+04  0.50400001928E-02 0.  1.
       -1    1    3    3    0  502 -0.11866133131E+04  0.15121907819E+04 -0.66204120485E+01  0.19221904031E+04  0.50400001928E-02 0. -1.
</event>
<event>
 5   0  0.9078515E-09  0.3896945E+04  0.7818609E-02  0.8025665E-01
       -2   -1    0    0    0  501  0.00000000000E+00  0.00000000000E+00  0.17213562426E+04  0.17213562426E+04  0.25500000920E-02 0. -1.
        2   -1    0    0  501    0  0.00000000000E+00  0.00000000000E+00 -0.22055542100E+04  0.22055542100E+04  0.25500000920E-02 0.  1.
    10030    2    1    2    0    0  0.00000000000E+00  0.00000000000E+00 -0.48419796735E+03  0.39269104526E+04  0.38969447046E+04 0.  0.
        3    1    3    3  502    0  0.15058994060E+04  0.10113785836E+04 -0.95885237212E+03  0.20518327276E+04  0.10100000352E+00 0.  1.
       -3    1    3    3    0  502 -0.15058994060E+04 -0.10113785836E+04  0.47465440477E+03  0.18750777250E+04  0.10100000352E+00 0. -1.
</event>
<event>
 5   0  0.9368546E-09  0.3890611E+04  0.7818609E-02  0.8026985E-01
        2   -1    0    0  501    0  0.00000000000E+00  0.00000000000E+00  0.18712192988E+04  0.18712192988E+04  0.25500000920E-02 0. -1.
       -2   -1    0    0    0  501  0.00000000000E+00  0.00000000000E+00 -0.20223251480E+04  0.20223251480E+04  0.25500000920E-02 0.  1.
    10030    2    1    2    0    0  0.00000000000E+00  0.00000000000E+00 -0.15110584923E+03  0.38935444469E+04  0.38906111836E+04 0.  0.
        5    1    3    3  502    0 -0.14260260822E+04 -0.10313919233E+03 -0.13956394216E+04  0.19980038952E+04  0.46999998093E+01 0.  1.
       -5    1    3    3    0  502  0.14260260822E+04  0.10313919233E+03  0.12445335724E+04  0.18955405516E+04  0.46999998093E+01 0. -1.
</event>
<event>
 5   0  0.2904500E-09  0.3907813E+04  0.7818609E-02  0.8023406E-01
       -1   -1    0    0    0  501  0.00000000000E+00  0.00000000000E+00  0.23704385498E+04  0.23704385499E+04  0.50400001928E-02 0. -1.
        1   -1    0    0  501    0  0.00000000000E+00  0.00000000000E+00 -0.16105674824E+04  0.16105674824E+04  0.50400001928E-02 0.  1.
    10030    2    1    2    0    0  0.00000000000E+00  0.00000000000E+00  0.75987106747E+03  0.39810060322E+04  0.39078133258E+04 0.  0.
        5    1    3    3  502    0  0.12452872971E+04  0.78247796103E+03 -0.93051575826E+03  0.17403717644E+04  0.46999998093E+01 0.  1.
       -5    1    3    3    0  502 -0.12452872971E+04 -0.78247796103E+03  0.16903868257E+04  0.22406342679E+04  0.46999998093E+01 0. -1.
</event>
<event>
 5   0  0.9277261E-09  0.3899051E+04  0.7818609E-02  0.8025227E-01
        2   -1    0    0  501    0  0.00000000000E+00  0.00000000000E+00  0.20678124661E+04  0.20678124661E+04  0.25500000920E-02 0.  1.
       -2   -1    0    0    0  501  0.00000000000E+00  0.00000000000E+00 -0.18380047384E+04  0.18380047384E+04  0.25500000920E-02 0. -1.
    10030    2    1    2    0    0  0.00000000000E+00  0.00000000000E+00  0.22980772771E+03  0.39058172046E+04  0.38990507106E+04 0.  0.
        1    1    3    3  502    0  0.15633513098E+03  0.10317001603E+04 -0.15347093101E+04  0.18558498217E+04  0.50400001928E-02 0. -1.
       -1    1    3    3    0  502 -0.15633513098E+03 -0.10317001603E+04  0.17645170378E+04  0.20499673829E+04  0.50400001928E-02 0.  1.
</event>
<event>
 5   0  0.9434114E-09  0.3901556E+04  0.7818609E-02  0.8024706E-01
        2   -1    0    0  501    0  0.00000000000E+00  0.00000000000E+00  0.17109538013E+04  0.17109538013E+04  0.25500000920E-02 0. -1.
       -2   -1    0    0    0  501  0.00000000000E+00  0.00000000000E+00 -0.22242178360E+04  0.22242178360E+04  0.25500000920E-02 0.  1.
    10030    2    1    2    0    0  0.00000000000E+00  0.00000000000E+00 -0.51326403473E+03  0.39351716373E+04  0.39015555674E+04 0.  0.
        4    1    3    3  502    0  0.14694327597E+04 -0.34025603051E+03  0.99117141020E+03  0.18048349450E+04  0.12699999809E+01 0. -1.
       -4    1    3    3    0  502 -0.14694327597E+04  0.34025603051E+03 -0.15044354449E+04  0.21303366923E+04  0.12699999809E+01 0.  1.
</event>
<event>
 5   0  0.9368546E-09  0.3898991E+04  0.7818609E-02  0.8025239E-01
       -2   -1    0    0    0  501  0.00000000000E+00  0.00000000000E+00  0.22547259848E+04  0.22547259848E+04  0.25500000920E-02 0. -1.
        2   -1    0    0  501    0  0.00000000000E+00  0.00000000000E+00 -0.16855854016E+04  0.16855854016E+04  0.25500000920E-02 0.  1.
    10030    2    1    2    0    0  0.00000000000E+00  0.00000000000E+00  0.56914058322E+03  0.39403113865E+04  0.38989912566E+04 0.  0.
        5    1    3    3  502    0 -0.24321031483E+03 -0.14784455026E+04 -0.97586771996E+03  0.17880973850E+04  0.46999998093E+01 0.  1.
       -5    1    3    3    0  502  0.24321031483E+03  0.14784455026E+04  0.15450083032E+04  0.21522140015E+04  0.46999998093E+01 0. -1.
</event>
<event>
 5   0  0.2904500E-09  0.3900237E+04  0.7818609E-02  0.8024980E-01
       -1   -1    0    0    0  501  0.00000000000E+00  0.00000000000E+00  0.17646241645E+04  0.17646241645E+04  0.50400001928E-02 0. -1.
        1   -1    0    0  501    0  0.00000000000E+00  0.00000000000E+00 -0.21551120275E+04  0.21551120275E+04  0.50400001928E-02 0.  1.
    10030    2    1    2    0    0  0.00000000000E+00  0.00000000000E+00 -0.39048786301E+03  0.39197361920E+04  0.39002373061E+04 0.  0.
        5    1    3    3  502    0 -0.45797324915E+02 -0.25784119065E+03 -0.21373545720E+04  0.21533430128E+04  0.46999998093E+01 0.  1.
       -5    1    3    3    0  502  0.45797324915E+02  0.25784119065E+03  0.17468667090E+04  0.17663931792E+04  0.46999998093E+01 0. -1.
</event>
<event>
 5   0  0.9078515E-09  0.3895442E+04  0.7818609E-02  0.8025978E-01
        2   -1    0    0  501    0  0.00000000000E+00  0.00000000000E+00  0.24378540275E+04  0.24378540275E+04  0.25500000920E-02 0.  1.
       -2   -1    0    0    0  501  0.00000000000E+00  0.00000000000E+00 -0.15561296607E+04  0.15561296607E+04  0.25500000920E-02 0. -1.
    10030    2    1    2    0    0  0.00000000000E+00  0.00000000000E+00  0.88172436681E+03  0.39939836883E+04  0.38954419317E+04 0.  0.
        3    1    3    3  502    0 -0.55477439337E+02  0.62353651064E+03 -0.14501755786E+04  0.15795204162E+04  0.10100000352E+00 0. -1.
       -3    1    3    3    0  502  0.55477439337E+02 -0.62353651064E+03  0.23318999454E+04  0.24144632720E+04  0.10100000352E+00 0.  1.
</event>
<event>
 5   0  0.9277261E-09  0.3900128E+04  0.7818609E-02  0.8025003E-01
        2   -1    0    0  501    0  0.00000000000E+00  0.00000000000E+00  0.18309142820E+04  0.18309142820E+04  0.25500000920E-02 0. -1.
       -2   -1    0    0    0  501  0.00000000000E+00  0.00000000000E+00 -0.20769676473E+04  0.20769676473E+04  0.25500000920E-02 0.  1.
    10030    2    1    2    0    0  0.00000000000E+00  0.00000000000E+00 -0.24605336530E+03  0.39078819294E+04  0.39001280640E+04 0.  0.
        1    1    3    3  502    0  0.17043251286E+03  0.93081387701E+03 -0.18314936840E+04  0.20615117825E+04  0.50400001928E-02 0.  1.
       -1    1    3    3    0  502 -0.17043251286E+03 -0.93081387701E+03  0.15854403187E+04  0.18463701468E+04  0.50400001928E-02 0. -1.
</event>
<event>
 5   0  0.6335942E-09  0.3914858E+04  0.7818609E-02  0.8021946E-01
        2   -1    0    0  501    0  0.00000000000E+00  0.00000000000E+00  0.14805361492E+04  0.14805361492E+04  0.25500000920E-02 0. -1.
       -2   -1    0    0    0  501  0.00000000000E+00  0.00000000000E+00 -0.25879327445E+04  0.25879327445E+04  0.25500000920E-02 0.  1.
    10030    2    1    2    0    0  0.00000000000E+00  0.00000000000E+00 -0.11073965954E+04  0.40684688937E+04  0.39148578415E+04 0.  0.
        2    1    3    3  502    0 -0.92353435923E+03 -0.77386986593E+03  0.10494715966E+04  0.15978676147E+04  0.25500000920E-02 0. -1.
       -2    1    3    3    0  502  0.92353435923E+03  0.77386986593E+03 -0.21568681920E+04  0.24706012790E+04  0.25500000920E-02 0.  1.
</event>
<event>
 5   0  0.9434114E-09  0.3899630E+04  0.7818609E-02  0.8025106E-01
        2   -1    0    0  501    0  0.00000000000E+00  0.00000000000E+00  0.12892158758E+04  0.12892158758E+04  0.25500000920E-02 0.  1.
       -2   -1    0    0    0  501  0.00000000000E+00  0.00000000000E+00 -0.29489077716E+04  0.29489077716E+04  0.25500000920E-02 0. -1.
    10030    2    1    2    0    0  0.00000000000E+00  0.00000000000E+00 -0.16596918958E+04  0.42381236475E+04  0.38996300930E+04 0.  0.
        4    1    3    3  502    0 -0.16409675836E+04  0.57463157241E+03 -0.17889450263E+04  0.24946546804E+04  0.12699999809E+01 0. -1.
       -4    1    3    3    0  502  0.16409675836E+04 -0.57463157241E+03  0.12925313055E+03  0.17434689670E+04  0.12699999809E+01 0.  1.
</event>
<event>
 5   0  0.9078515E-09  0.3899468E+04  0.7818609E-02  0.8025140E-01
       -2   -1    0    0    0  501  0.00000000000E+00  0.00000000000E+00  0.12851640075E+04  0.12851640075E+04  0.25500000920E-02 0. -1.
        2   -1    0    0  501    0  0.00000000000E+00  0.00000000000E+00 -0.29579589509E+04  0.29579589509E+04  0.25500000920E-02 0.  1.
    10030    2    1    2    0    0  0.00000000000E+00  0.00000000000E+00 -0.16727949434E+04  0.42431229584E+04  0.38994678506E+04 0.  0.
        3    1    3    3  502    0 -0.82411380615E+03  0.17443127610E+04 -0.52926016226E+03  0.20004766690E+04  0.10100000352E+00 0.  1.
       -3    1    3    3    0  502  0.82411380615E+03 -0.17443127610E+04 -0.11435347812E+04  0.22426462894E+04  0.10100000352E+00 0. -1.
</event>
<event>
 5   0  0.6335942E-09  0.3904944E+04  0.7818609E-02  0.8024002E-01
        2   -1    0    0  501    0  0.00000000000E+00  0.00000000000E+00  0.16507052731E+04  0.16507052731E+04  0.25500000920E-02 0. -1.
       -2   -1    0    0    0  501  0.00000000000E+00  0.00000000000E+00 -0.23094046828E+04  0.23094046828E+04  0.25500000920E-02 0.  1.
    10030    2    1    2    0    0  0.00000000000E+00  0.00000000000E+00 -0.65869940963E+03  0.39601099559E+04  0.39049437833E+04 0.  0.
        2    1    3    3  502    0 -0.17443748709E+04 -0.46009361387E+03  0.42793699694E+03  0.18540927423E+04  0.25500000920E-02 0. -1.
       -2    1    3    3    0  502  0.17443748709E+04  0.46009361387E+03 -0.10866364066E+04  0.21060172136E+04  0.25500000920E-02 0.  1.
</event>
<event>
 5   0  0.9277261E-09  0.3900779E+04  0.7818609E-02  0.8024867E-01
        2   -1    0    0  501    0  0.00000000000E+00  0.00000000000E+00  0.17914996661E+04  0.17914996661E+04  0.25500000920E-02 0. -1.
       -2   -1    0    0    0  501  0.00000000000E+00  0.00000000000E+00 -0.21233715562E+04  0.21233715562E+04  0.25500000920E-02 0.  1.
    10030    2    1    2    0    0  0.00000000000E+00  0.00000000000E+00 -0.33187189007E+03  0.39148712222E+04  0.39007791190E+04 0.  0.
        1    1    3    3  502    0 -0.79331731677E+03  0.15659746673E+04 -0.10189419874E+04  0.20297467323E+04  0.50400001928E-02 0.  1.
       -1    1    3    3    0  502  0.79331731677E+03 -0.15659746673E+04  0.68707009734E+03  0.18851244899E+04  0.50400001928E-02 0. -1.
</event>
<event>
 5   0  0.6335942E-09  0.3899642E+04  0.7818609E-02  0.8025104E-01
       -2   -1    0    0    0  501  0.00000000000E+00  0.00000000000E+00  0.15988290279E+04  0.15988290279E+04  0.25500000920E-02 0. -1.
        2   -1    0    0  501    0  0.00000000000E+00  0.00000000000E+00 -0.23778662668E+04  0.23778662668E+04  0.25500000920E-02 0.  1.
    10030    2    1    2    0    0  0.00000000000E+00  0.00000000000E+00 -0.77903723893E+03  0.39766952948E+04  0.38996418358E+04 0.  0.
        2    1    3    3  502    0  0.13868710174E+04 -0.13395102524E+04 -0.68525346826E+03  0.20462822999E+04  0.25500000920E-02 0.  1.
       -2    1    3    3    0  502 -0.13868710174E+04  0.13395102524E+04 -0.93783770663E+02  0.19304129949E+04  0.25500000920E-02 0. -1.
</event>
<event>
 5   0  0.2904500E-09  0.3901324E+04  0.7818609E-02  0.8024754E-01
       -1   -1    0    0    0  501  0.00000000000E+00  0.00000000000E+00  0.13206928085E+04  0.13206928085E+04  0.50400001928E-02 0.  1.
        1   -1    0    0  501    0  0.00000000000E+00  0.00000000000E+00 -0.28811260814E+04  0.28811260814E+04  0.50400001928E-02 0. -1.
    10030    2    1    2    0    0  0.00000000000E+00  0.00000000000E+00 -0.15604332730E+04  0.42018188899E+04  0.39013241322E+04 0.  0.
        4    1    3    3  502    0 -0.19271880917E+04  0.29616930163E+03 -0.84218704487E+03  0.21239234514E+04  0.12699999809E+01 0.  1.
       -4    1    3    3    0  502  0.19271880917E+04 -0.29616930163E+03 -0.71824622808E+03  0.20778954385E+04  0.12699999809E+01 0. -1.
</event>
<event>
 5   0  0.2904500E-09  0.3900415E+04  0.7818609E-02  0.8024943E-01
        1   -1    0    0  501    0  0.00000000000E+00  0.00000000000E+00  0.13543470872E+04  0.13543470872E+04  0.50400001928E-02 0.  1.
       -1   -1    0    0    0  501  0.00000000000E+00  0.00000000000E+00 -0.28082236062E+04  0.28082236062E+04  0.50400001928E-02 0. -1.
    10030    2    1    2    0    0  0.00000000000E+00  0.00000000000E+00 -0.14538765190E+04  0.41625706934E+04  0.39004150863E+04 0.  0.
        2    1    3    3  502    0 -0.10324650652E+04  0.69580869157E+03 -0.23288858956E+04  0.26408035446E+04  0.25500000920E-02 0. -1.
       -2    1    3    3    0  502  0.10324650652E+04 -0.69580869157E+03  0.87500937662E+03  0.15217671489E+04  0.25500000920E-02 0.  1.
</event>
<event>
 5   0  0.2904500E-09  0.3899961E+04  0.7818609E-02  0.8025037E-01
        1   -1    0    0  501    0  0.00000000000E+00  0.00000000000E+00  0.24598366066E+04  0.24598366066E+04  0.50400001928E-02 0. -1.
       -1   -1    0    0    0  501  0.00000000000E+00  0.00000000000E+00 -0.15458034856E+04  0.15458034856E+04  0.50400001928E-02 0.  1.
    10030    2    1    2    0    0  0.00000000000E+00  0.00000000000E+00  0.91403312104E+03  0.40056400922E+04  0.38999610257E+04 0.  0.
        2    1    3    3  502    0  0.38510312719E+03  0.15575275034E+04 -0.68126865409E+03  0.17430786906E+04  0.25500000920E-02 0. -1.
       -2    1    3    3    0  502 -0.38510312719E+03 -0.15575275034E+04  0.15953017751E+04  0.22625614017E+04  0.25500000920E-02 0.  1.
</event>
<event>
 5   0  0.2904500E-09  0.3902966E+04  0.7818609E-02  0.8024413E-01
        1   -1    0    0  501    0  0.00000000000E+00  0.00000000000E+00  0.15355923243E+04  0.15355923243E+04  0.50400001928E-02 0.  1.
       -1   -1    0    0    0  501  0.00000000000E+00  0.00000000000E+00 -0.24800108341E+04  0.24800108341E+04  0.50400001928E-02 0. -1.
    10030    2    1    2    0    0  0.00000000000E+00  0.00000000000E+00 -0.94441850979E+03  0.40156031584E+04  0.39029658472E+04 0.  0.
        5    1    3    3  502    0 -0.10256263052E+04 -0.99461117116E+03  0.89547845721E+03  0.16861389198E+04  0.46999998093E+01 0.  1.
       -5    1    3    3    0  502  0.10256263052E+04  0.99461117116E+03 -0.18398969670E+04  0.23294642386E+04  0.46999998093E+01 0. -1.
</event>
<event>
 5   0  0.9277261E-09  0.3900508E+04  0.7818609E-02  0.8024923E-01
       -2   -1    0    0    0  501  0.00000000000E+00  0.00000000000E+00  0.27250712576E+04  0.27250712576E+04  0.25500000920E-02 0. -1.
        2   -1    0    0  501    0  0.00000000000E+00  0.00000000000E+00 -0.13957401385E+04  0.13957401385E+04  0.25500000920E-02 0.  1.
    10030    2    1    2    0    0  0.00000000000E+00  0.00000000000E+00  0.13293311191E+04  0.41208113961E+04  0.39005083436E+04 0.  0.
        1    1    3    3  502    0  0.15870669216E+04 -0.95047193434E+03  0.13170481240E+04  0.22708575633E+04  0.50400001928E-02 0. -1.
       -1    1    3    3    0  502 -0.15870669216E+04  0.95047193434E+03  0.12282995047E+02  0.18499538328E+04  0.50400001928E-02 0.  1.
</event>
<event>
 5   0  0.2904500E-09  0.3901517E+04  0.7818609E-02  0.8024714E-01
        3   -1    0    0  501    0  0.00000000000E+00  0.00000000000E+00  0.17945735395E+04  0.17945735423E+04  0.10100000352E+00 0. -1.
       -3   -1    0    0    0  501  0.00000000000E+00  0.00000000000E+00 -0.21205359949E+04  0.21205359973E+04  0.10100000352E+00 0.  1.
    10030    2    1    2    0    0  0.00000000000E+00  0.00000000000E+00 -0.32596245546E+03  0.39151095396E+04  0.39015165237E+04 0.  0.
        4    1    3    3  502    0  0.38062947244E+03  0.68633899077E+03 -0.19551251000E+04  0.21067642903E+04  0.12699999809E+01 0.  1.
       -4    1    3    3    0  502 -0.38062947244E+03 -0.68633899077E+03  0.16291626445E+04  0.18083452493E+04  0.12699999809E+01 0. -1.
</event>
<event>
 5   0  0.9277261E-09  0.3900100E+04  0.7818609E-02  0.8025009E-01
       -2   -1    0    0    0  501  0.00000000000E+00  0.00000000000E+00  0.21560529269E+04  0.21560529269E+04  0.25500000920E-02 0. -1.
        2   -1    0    0  501    0  0.00000000000E+00  0.00000000000E+00 -0.17637294790E+04  0.17637294790E+04  0.25500000920E-02 0.  1.
    10030    2    1    2    0    0  0.00000000000E+00  0.00000000000E+00  0.39232344787E+03  0.39197824060E+04  0.39000995401E+04 0.  0.
        1    1    3    3  502    0  0.11218786204E+04 -0.12329191965E+04 -0.82087047476E+03  0.18580984152E+04  0.50400001928E-02 0.  1.
       -1    1    3    3    0  502 -0.11218786204E+04  0.12329191965E+04  0.12131939226E+04  0.20616839908E+04  0.50400001928E-02 0. -1.
</event>
<event>
 5   0  0.2904500E-09  0.3899611E+04  0.7818609E-02  0.8025110E-01
       -1   -1    0    0    0  501  0.00000000000E+00  0.00000000000E+00  0.27001008772E+04  0.27001008772E+04  0.50400001928E-02 0. -1.
        1   -1    0    0  501    0  0.00000000000E+00  0.00000000000E+00 -0.14079996231E+04  0.14079996231E+04  0.50400001928E-02 0.  1.
    10030    2    1    2    0    0  0.00000000000E+00  0.00000000000E+00  0.12921012542E+04  0.41081005003E+04  0.38996107588E+04 0.  0.
        3    1    3    3  502    0 -0.16613137563E+04  0.21202190558E+03 -0.40573955534E+03  0.17232357013E+04  0.10100000352E+00 0.  1.
       -3    1    3    3    0  502  0.16613137563E+04 -0.21202190558E+03  0.16978408095E+04  0.23848647991E+04  0.10100000352E+00 0. -1.
</event>
<event>
 5   0  0.2904500E-09  0.3900962E+04  0.7818609E-02  0.8024829E-01
        1   -1    0    0  501    0  0.00000000000E+00  0.00000000000E+00  0.29184685675E+04  0.29184685675E+04  0.50400001928E-02 0. -1.
       -1   -1    0    0    0  501  0.00000000000E+00  0.00000000000E+00 -0.13035519619E+04  0.13035519619E+04  0.50400001928E-02 0.  1.
    10030    2    1    2    0    0  0.00000000000E+00  0.00000000000E+00  0.16149166056E+04  0.42220205295E+04  0.39009616389E+04 0.  0.
        2    1    3    3  502    0 -0.16912402143E+04 -0.24416623413E+03  0.18253203975E+04  0.25003410099E+04  0.25500000920E-02 0. -1.
       -2    1    3    3    0  502  0.16912402143E+04  0.24416623413E+03 -0.21040379191E+03  0.17216795195E+04  0.25500000920E-02 0.  1.
</event>
<event>
 5   0  0.2904500E-09  0.3895773E+04  0.7818609E-02  0.8025909E-01
       -1   -1    0    0    0  501  0.00000000000E+00  0.00000000000E+00  0.20246168117E+04  0.20246168117E+04  0.50400001928E-02 0. -1.
        1   -1    0    0  501    0  0.00000000000E+00  0.00000000000E+00 -0.18740643074E+04  0.18740643074E+04  0.50400001928E-02 0.  1.
    10030    2    1    2    0    0  0.00000000000E+00  0.00000000000E+00  0.15055250437E+03  0.38986811191E+04  0.38957731469E+04 0.  0.
        5    1    3    3  502    0  0.16577635421E+04  0.88349357424E+03 -0.44037446651E+03  0.19294280546E+04  0.46999998093E+01 0.  1.
       -5    1    3    3    0  502 -0.16577635421E+04 -0.88349357424E+03  0.59092697088E+03  0.19692530645E+04  0.46999998093E+01 0. -1.
</event>
<event>
 5   0  0.6335942E-09  0.3897514E+04  0.7818609E-02  0.8025546E-01
        2   -1    0    0  501    0  0.00000000000E+00  0.00000000000E+00  0.30860600416E+04  0.30860600416E+04  0.25500000920E-02 0.  1.
       -2   -1    0    0    0  501  0.00000000000E+00  0.00000000000E+00 -0.12305832832E+04  0.12305832832E+04  0.25500000920E-02 0. -1.
    10030    2    1    2    0    0  0.00000000000E+00  0.00000000000E+00  0.18554767584E+04  0.43166433248E+04  0.38975140272E+04 0.  0.
        2    1    3    3  502    0  0.43477183681E+03 -0.85941531500E+03 -0.94855997736E+03  0.13518088861E+04  0.25500000920E-02 0. -1.
       -2    1    3    3    0  502 -0.43477183681E+03  0.85941531500E+03  0.28040367357E+04  0.29648344387E+04  0.25500000920E-02 0.  1.
</event>
<event>
 5   0  0.6335942E-09  0.3899915E+04  0.7818609E-02  0.8025047E-01
       -2   -1    0    0    0  501  0.00000000000E+00  0.00000000000E+00  0.17543243182E+04  0.17543243182E+04  0.25500000920E-02 0.  1.
        2   -1    0    0  501    0  0.00000000000E+00  0.00000000000E+00 -0.21674062685E+04  0.21674062685E+04  0.25500000920E-02 0. -1.
    10030    2    1    2    0    0  0.00000000000E+00  0.00000000000E+00 -0.41308195033E+03  0.39217305868E+04  0.38999146269E+04 0.  0.
        2    1    3    3  502    0  0.19392749055E+04 -0.20252062868E+03 -0.18335205231E+03  0.19584227683E+04  0.25500000920E-02 0.  1.
       -2    1    3    3    0  502 -0.19392749055E+04  0.20252062868E+03 -0.22972989801E+03  0.19633078185E+04  0.25500000920E-02 0. -1.
</event>
<event>
 5   0  0.9078515E-09  0.3898707E+04  0.7818609E-02  0.8025298E-01
       -2   -1    0    0    0  501  0.00000000000E+00  0.00000000000E+00  0.15462624752E+04  0.15462624752E+04  0.25500000920E-02 0. -1.
        2   -1    0    0  501    0  0.00000000000E+00  0.00000000000E+00 -0.24575254501E+04  0.24575254501E+04  0.25500000920E-02 0.  1.
    10030    2    1    2    0    0  0.00000000000E+00  0.00000000000E+00 -0.91126297491E+03  0.40037879252E+04  0.38987071628E+04 0.  0.
        3    1    3    3  502    0  0.12339821332E+04 -0.44998985714E+03 -0.19348628972E+04  0.23385673430E+04  0.10100000352E+00 0.  1.
       -3    1    3    3    0  502 -0.12339821332E+04  0.44998985714E+03  0.10235999223E+04  0.16652205823E+04  0.10100000352E+00 0. -1.
</event>
<event>
 5   0  0.2904500E-09  0.3900061E+04  0.7818609E-02  0.8025017E-01
        1   -1    0    0  501    0  0.00000000000E+00  0.00000000000E+00  0.16481529613E+04  0.16481529613E+04  0.50400001928E-02 0.  1.
       -1   -1    0    0    0  501  0.00000000000E+00  0.00000000000E+00 -0.23071998752E+04  0.23071998752E+04  0.50400001928E-02 0. -1.
    10030    2    1    2    0    0  0.00000000000E+00  0.00000000000E+00 -0.65904691392E+03  0.39553528365E+04  0.39000606696E+04 0.  0.
        4    1    3    3  502    0 -0.18184697518E+04  0.32836776555E+03  0.30217064255E+03  0.18724225853E+04  0.12699999809E+01 0. -1.
       -4    1    3    3    0  502  0.18184697518E+04 -0.32836776555E+03 -0.96121755647E+03  0.20829302512E+04  0.12699999809E+01 0.  1.
</event>
<event>
 5   0  0.6335942E-09  0.3899288E+04  0.7818609E-02  0.8025177E-01
        2   -1    0    0  501    0  0.00000000000E+00  0.00000000000E+00  0.21100387655E+04  0.21100387655E+04  0.25500000920E-02 0.  1.
       -2   -1    0    0    0  501  0.00000000000E+00  0.00000000000E+00 -0.18014418195E+04  0.18014418195E+04  0.25500000920E-02 0. -1.
    10030    2    1    2    0    0  0.00000000000E+00  0.00000000000E+00  0.30859694601E+03  0.39114805851E+04  0.38992881776E+04 0.  0.
        2    1    3    3  502    0  0.15134309254E+04 -0.22444984645E+03 -0.10578926938E+04  0.18601042581E+04  0.25500000920E-02 0. -1.
       -2    1    3    3    0  502 -0.15134309254E+04  0.22444984645E+03  0.13664896398E+04  0.20513763270E+04  0.25500000920E-02 0.  1.
</event>
<event>
 5   0  0.2904500E-09  0.3896252E+04  0.7818609E-02  0.8025809E-01
        1   -1    0    0  501    0  0.00000000000E+00  0.00000000000E+00  0.16462347663E+04  0.16462347663E+04  0.50400001928E-02 0.  1.
       -1   -1    0    0    0  501  0.00000000000E+00  0.00000000000E+00 -0.23053794385E+04  0.23053794385E+04  0.50400001928E-02 0. -1.
    10030    2    1    2    0    0  0.00000000000E+00  0.00000000000E+00 -0.65914467223E+03  0.39516142048E+04  0.38962524462E+04 0.  0.
        4    1    3    3  502    0 -0.58357783631E+03 -0.13499392955E+04  0.96619423585E+03  0.17596681809E+04  0.12699999809E+01 0.  1.
       -4    1    3    3    0  502  0.58357783631E+03  0.13499392955E+04 -0.16253389081E+04  0.21919460239E+04  0.12699999809E+01 0. -1.
</event>
<event>
 5   0  0.9277261E-09  0.3911773E+04  0.7818609E-02  0.8022585E-01
       -2   -1    0    0    0  501  0.00000000000E+00  0.00000000000E+00  0.30546904532E+04  0.30546904532E+04  0.25500000920E-02 0.  1.
        2   -1    0    0  501    0  0.00000000000E+00  0.00000000000E+00 -0.12523337391E+04  0.12523337391E+04  0.25500000920E-02 0. -1.
    10030    2    1    2    0    0  0.00000000000E+00  0.00000000000E+00  0.18023567141E+04  0.43070241924E+04  0.39117729572E+04 0.  0.
        1    1    3    3  502    0 -0.99812181551E+03  0.13449576112E+04 -0.21100093416E+03  0.16880993835E+04  0.50400001928E-02 0. -1.
       -1    1    3    3    0  502  0.99812181551E+03 -0.13449576112E+04  0.20133576483E+04  0.26189248088E+04  0.50400001928E-02 0.  1.
</event>
<event>
 5   0  0.9078515E-09  0.3906127E+04  0.7818609E-02  0.8023756E-01
        2   -1    0    0  501    0  0.00000000000E+00  0.00000000000E+00  0.23434736508E+04  0.23434736508E+04  0.25500000920E-02 0. -1.
       -2   -1    0    0    0  501  0.00000000000E+00  0.00000000000E+00 -0.16276932046E+04  0.16276932046E+04  0.25500000920E-02 0.  1.
    10030    2    1    2    0    0  0.00000000000E+00  0.00000000000E+00  0.71578044624E+03  0.39711668554E+04  0.39061265399E+04 0.  0.
        3    1    3    3  502    0  0.92002714989E+03 -0.60254286119E+03 -0.12829692115E+04  0.16898277616E+04  0.10100000352E+00 0.  1.
       -3    1    3    3    0  502 -0.92002714989E+03  0.60254286119E+03  0.19987496577E+04  0.22813390937E+04  0.10100000352E+00 0. -1.
</event>
<event>
 5   0  0.2904500E-09  0.3899365E+04  0.7818609E-02  0.8025161E-01
       -1   -1    0    0    0  501  0.00000000000E+00  0.00000000000E+00  0.15336075004E+04  0.15336075004E+04  0.50400001928E-02 0. -1.
        1   -1    0    0  501    0  0.00000000000E+00  0.00000000000E+00 -0.24786411372E+04  0.24786411372E+04  0.50400001928E-02 0.  1.
    10030    2    1    2    0    0  0.00000000000E+00  0.00000000000E+00 -0.94503363676E+03  0.40122486376E+04  0.38993654042E+04 0.  0.
        4    1    3    3  502    0 -0.60936438606E+03 -0.18403976720E+04 -0.25946600070E+03  0.19559429349E+04  0.12699999809E+01 0. -1.
       -4    1    3    3    0  502  0.60936438606E+03  0.18403976720E+04 -0.68556763606E+03  0.20563057027E+04  0.12699999809E+01 0.  1.
</event>
<event>
 5   0  0.2904500E-09  0.3898208E+04  0.7818609E-02  0.8025402E-01
       -1   -1    0    0    0  501  0.00000000000E+00  0.00000000000E+00  0.16281299154E+04  0.16281299154E+04  0.50400001928E-02 0.  1.
        1   -1    0    0  501    0  0.00000000000E+00  0.00000000000E+00 -0.23333561608E+04  0.23333561608E+04  0.50400001928E-02 0. -1.
    10030    2    1    2    0    0  0.00000000000E+00  0.00000000000E+00 -0.70522624541E+03  0.39614860762E+04  0.38982082904E+04 0.  0.
        4    1    3    3  502    0 -0.28000355067E+03 -0.78772322221E+03  0.14366764411E+04  0.16622125834E+04  0.12699999809E+01 0.  1.
       -4    1    3    3    0  502  0.28000355067E+03  0.78772322221E+03 -0.21419026865E+04  0.22992734928E+04  0.12699999809E+01 0. -1.
</event>
<event>
 5   0  0.2904500E-09  0.3899293E+04  0.7818609E-02  0.8025176E-01
       -1   -1    0    0    0  501  0.00000000000E+00  0.00000000000E+00  0.22529777399E+04  0.22529777399E+04  0.50400001928E-02 0.  1.
        1   -1    0    0  501    0  0.00000000000E+00  0.00000000000E+00 -0.16871548249E+04  0.16871548249E+04  0.50400001928E-02 0. -1.
    10030    2    1    2    0    0  0.00000000000E+00  0.00000000000E+00  0.56582291501E+03  0.39401325648E+04  0.38992934048E+04 0.  0.
        4    1    3    3  502    0 -0.15629802472E+04  0.11314251263E+04  0.53775529243E+00  0.19295159941E+04  0.12699999809E+01 0. -1.
       -4    1    3    3    0  502  0.15629802472E+04 -0.11314251263E+04  0.56528515972E+03  0.20106165707E+04  0.12699999809E+01 0.  1.
</event>
<event>
 5   0  0.6335942E-09  0.3905594E+04  0.7818609E-02  0.8023867E-01
        2   -1    0    0  501    0  0.00000000000E+00  0.00000000000E+00  0.17351291124E+04  0.17351291124E+04  0.25500000920E-02 0.  1.
       -2   -1    0    0    0  501  0.00000000000E+00  0.00000000000E+00 -0.21977704111E+04  0.21977704111E+04  0.25500000920E-02 0. -1.
    10030    2    1    2    0    0  0.00000000000E+00  0.00000000000E+00 -0.46264129869E+03  0.39328995234E+04  0.39055936412E+04 0.  0.
        2    1    3    3  502    0 -0.17932089443E+04 -0.58581370703E+03  0.27682545676E+03  0.19066746841E+04  0.25500000920E-02 0.  1.
       -2    1    3    3    0  502  0.17932089443E+04  0.58581370703E+03 -0.73946675545E+03  0.20262248394E+04  0.25500000920E-02 0. -1.
</event>
<event>
 5   0  0.2929054E-09  0.3898778E+04  0.7818609E-02  0.8025283E-01
        1   -1    0    0  501    0  0.00000000000E+00  0.00000000000E+00  0.18790867916E+04  0.18790867916E+04  0.50400001928E-02 0. -1.
       -1   -1    0    0    0  501  0.00000000000E+00  0.00000000000E+00 -0.20223216594E+04  0.20223216594E+04  0.50400001928E-02 0.  1.
    10030    2    1    2    0    0  0.00000000000E+00  0.00000000000E+00 -0.14323486777E+03  0.39014084510E+04  0.38987782284E+04 0.  0.
        1    1    3    3  502    0 -0.18632170520E+04  0.48094061897E+03 -0.38365508760E+03  0.19621602606E+04  0.50400001928E-02 0.  1.
       -1    1    3    3    0  502  0.18632170520E+04 -0.48094061897E+03  0.24042021983E+03  0.19392481904E+04  0.50400001928E-02 0. -1.
</event>
<event>
 5   0  0.9434114E-09  0.3898210E+04  0.7818609E-02  0.8025402E-01
       -2   -1    0    0    0  501  0.00000000000E+00  0.00000000000E+00  0.18050627618E+04  0.18050627618E+04  0.25500000920E-02 0. -1.
        2   -1    0    0  501    0  0.00000000000E+00  0.00000000000E+00 -0.21046416525E+04  0.21046416525E+04  0.25500000920E-02 0.  1.
    10030    2    1    2    0    0  0.00000000000E+00  0.00000000000E+00 -0.29957889073E+03  0.39097044142E+04  0.38982099860E+04 0.  0.
        4    1    3    3  502    0 -0.12258272732E+04  0.12322504417E+04  0.73480614375E+03  0.18870705701E+04  0.12699999809E+01 0. -1.
       -4    1    3    3    0  502  0.12258272732E+04 -0.12322504417E+04 -0.10343850345E+04  0.20226338441E+04  0.12699999809E+01 0.  1.
</event>
<event>
 5   0  0.2904500E-09  0.3900361E+04  0.7818609E-02  0.8024954E-01
        1   -1    0    0  501    0  0.00000000000E+00  0.00000000000E+00  0.23810992509E+04  0.23810992509E+04  0.50400001928E-02 0. -1.
       -1   -1    0    0    0  501  0.00000000000E+00  0.00000000000E+00 -0.15972473468E+04  0.15972473468E+04  0.50400001928E-02 0.  1.
    10030    2    1    2    0    0  0.00000000000E+00  0.00000000000E+00  0.78385190413E+03  0.39783465977E+04  0.39003612453E+04 0.  0.
        5    1    3    3  502    0  0.10571482744E+04  0.28720080406E+03  0.20376089390E+04  0.23134215038E+04  0.46999998093E+01 0. -1.
       -5    1    3    3    0  502 -0.10571482744E+04 -0.28720080406E+03 -0.12537570349E+04  0.16649250939E+04  0.46999998093E+01 0.  1.
</event>
<event>
 5   0  0.2904500E-09  0.3901735E+04  0.7818609E-02  0.8024669E-01
       -1   -1    0    0    0  501  0.00000000000E+00  0.00000000000E+00  0.21141726072E+04  0.21141726072E+04  0.50400001928E-02 0. -1.
        1   -1    0    0  501    0  0.00000000000E+00  0.00000000000E+00 -0.18001763261E+04  0.18001763261E+04  0.50400001928E-02 0.  1.
    10030    2    1    2    0    0  0.00000000000E+00  0.00000000000E+00  0.31399628114E+03  0.39143489333E+04  0.39017347305E+04 0.  0.
        5    1    3    3  502    0  0.14330324909E+04 -0.29535533682E+03 -0.11375396081E+04  0.18533308784E+04  0.46999998093E+01 0.  1.
       -5    1    3    3    0  502 -0.14330324909E+04  0.29535533682E+03  0.14515358892E+04  0.20610180549E+04  0.46999998093E+01 0. -1.
</event>
<event>
 5   0  0.9078515E-09  0.3899990E+04  0.7818609E-02  0.8025031E-01
        2   -1    0    0  501    0  0.00000000000E+00  0.00000000000E+00  0.22951211197E+04  0.22951211197E+04  0.25500000920E-02 0. -1.
       -2   -1    0    0    0  501  0.00000000000E+00  0.00000000000E+00 -0.16567666007E+04  0.16567666007E+04  0.25500000920E-02 0.  1.
    10030    2    1    2    0    0  0.00000000000E+00  0.00000000000E+00  0.63835451903E+03  0.39518877205E+04  0.38999897517E+04 0.  0.
        3    1    3    3  502    0 -0.10562828241E+04  0.86864626895E+02  0.19777853931E+04  0.22438613903E+04  0.10100000352E+00 0. -1.
       -3    1    3    3    0  502  0.10562828241E+04 -0.86864626895E+02 -0.13394308740E+04  0.17080263301E+04  0.10100000352E+00 0.  1.
</event>
<event>
 5   0  0.2929054E-09  0.3900383E+04  0.7818609E-02  0.8024950E-01
       -1   -1    0    0    0  501  0.00000000000E+00  0.00000000000E+00  0.15308496837E+04  0.15308496837E+04  0.50400001928E-02 0.  1.
        1   -1    0    0  501    0  0.00000000000E+00  0.00000000000E+00 -0.24844023958E+04  0.24844023959E+04  0.50400001928E-02 0. -1.
    10030    2    1    2    0    0  0.00000000000E+00  0.00000000000E+00 -0.95355271213E+03  0.40152520796E+04  0.39003828642E+04 0.  0.
        1    1    3    3  502    0 -0.91674635640E+03  0.84125306421E+03  0.10691543420E+04  0.16404943179E+04  0.50400001928E-02 0.  1.
       -1    1    3    3    0  502  0.91674635640E+03 -0.84125306421E+03 -0.20227070541E+04  0.23747577617E+04  0.50400001928E-02 0. -1.
</event>
<event>
 5   0  0.2904500E-09  0.3899826E+04  0.7818609E-02  0.8025065E-01
       -1   -1    0    0    0  501  0.00000000000E+00  0.00000000000E+00  0.17253374908E+04  0.17253374908E+04  0.50400001928E-02 0. -1.
        1   -1    0    0  501    0  0.00000000000E+00  0.00000000000E+00 -0.22037197330E+04  0.22037197330E+04  0.50400001928E-02 0.  1.
    10030    2    1    2    0    0  0.00000000000E+00  0.00000000000E+00 -0.47838224215E+03  0.39290572238E+04  0.38998257780E+04 0.  0.
        5    1    3    3  502    0  0.14972818258E+04 -0.99419049972E+03  0.52269843714E+03  0.18717647720E+04  0.46999998093E+01 0. -1.
       -5    1    3    3    0  502 -0.14972818258E+04  0.99419049972E+03 -0.10010806793E+04  0.20572924518E+04  0.46999998093E+01 0.  1.
</event>
<event>
 5   0  0.2904500E-09  0.3899585E+04  0.7818609E-02  0.8025116E-01
        3   -1    0    0  501    0  0.00000000000E+00  0.00000000000E+00  0.31348777616E+04  0.31348777632E+04  0.10100000352E+00 0.  1.
       -3   -1    0    0    0  501  0.00000000000E+00  0.00000000000E+00 -0.12127075151E+04  0.12127075193E+04  0.10100000352E+00 0. -1.
    10030    2    1    2    0    0  0.00000000000E+00  0.00000000000E+00  0.19221702465E+04  0.43475852825E+04  0.38995845076E+04 0.  0.
        3    1    3    3  502    0 -0.72060298929E+03  0.51048213913E+03  0.28991340019E+04  0.30306498732E+04  0.10100000352E+00 0.  1.
       -3    1    3    3    0  502  0.72060298929E+03 -0.51048213913E+03 -0.97696375546E+03  0.13169354093E+04  0.10100000352E+00 0. -1.
</event>
<event>
 5   0  0.9078515E-09  0.3899900E+04  0.7818609E-02  0.8025050E-01
        2   -1    0    0  501    0  0.00000000000E+00  0.00000000000E+00  0.20951231087E+04  0.20951231087E+04  0.25500000920E-02 0.  1.
       -2   -1    0    0    0  501  0.00000000000E+00  0.00000000000E+00 -0.18148364129E+04  0.18148364129E+04  0.25500000920E-02 0. -1.
    10030    2    1    2    0    0  0.00000000000E+00  0.00000000000E+00  0.28028669582E+03  0.39099595217E+04  0.38999003615E+04 0.  0.
        3    1    3    3  502    0  0.22588046392E+03 -0.13013774816E+04 -0.12980253007E+04  0.18518841824E+04  0.10100000352E+00 0. -1.
       -3    1    3    3    0  502 -0.22588046392E+03  0.13013774816E+04  0.15783119965E+04  0.20580753393E+04  0.10100000352E+00 0.  1.
</event>
<event>
 5   0  0.2929054E-09  0.3900440E+04  0.7818609E-02  0.8024938E-01
       -1   -1    0    0    0  501  0.00000000000E+00  0.00000000000E+00  0.15720826327E+04  0.15720826327E+04  0.50400001928E-02 0. -1.
        1   -1    0    0  501    0  0.00000000000E+00  0.00000000000E+00 -0.24193113688E+04  0.24193113688E+04  0.50400001928E-02 0.  1.
    10030    2    1    2    0    0  0.00000000000E+00  0.00000000000E+00 -0.84722873607E+03  0.39913940016E+04  0.39004396604E+04 0.  0.
        1    1    3    3  502    0  0.17010755599E+04  0.93262878762E+03 -0.62802952905E+03  0.20390869539E+04  0.50400001928E-02 0.  1.
       -1    1    3    3    0  502 -0.17010755599E+04 -0.93262878762E+03 -0.21919920702E+03  0.19523070477E+04  0.50400001928E-02 0. -1.
</event>
<event>
 5   0  0.2904500E-09  0.3895729E+04  0.7818609E-02  0.8025918E-01
        1   -1    0    0  501    0  0.00000000000E+00  0.00000000000E+00  0.11950282650E+04  0.11950282651E+04  0.50400001928E-02 0.  1.
       -1   -1    0    0    0  501  0.00000000000E+00  0.00000000000E+00 -0.31749682395E+04  0.31749682395E+04  0.50400001928E-02 0. -1.
    10030    2    1    2    0    0  0.00000000000E+00  0.00000000000E+00 -0.19799399744E+04  0.43699965045E+04  0.38957293473E+04 0.  0.
        5    1    3    3  502    0 -0.18083357666E+04  0.71759349301E+03 -0.88275114943E+03  0.21364199839E+04  0.46999998093E+01 0. -1.
       -5    1    3    3    0  502  0.18083357666E+04 -0.71759349301E+03 -0.10971888250E+04  0.22335765206E+04  0.46999998093E+01 0.  1.
</event>
<event>
 5   0  0.2929054E-09  0.3899500E+04  0.7818609E-02  0.8025133E-01
       -1   -1    0    0    0  501  0.00000000000E+00  0.00000000000E+00  0.17136505787E+04  0.17136505787E+04  0.50400001928E-02 0. -1.
        1   -1    0    0  501    0  0.00000000000E+00  0.00000000000E+00 -0.22183782918E+04  0.22183782918E+04  0.50400001928E-02 0.  1.
    10030    2    1    2    0    0  0.00000000000E+00  0.00000000000E+00 -0.50472771304E+03  0.39320288705E+04  0.38995000929E+04 0.  0.
        1    1    3    3  502    0  0.14097623666E+04  0.12732046993E+04 -0.69539796383E+03  0.20228837002E+04  0.50400001928E-02 0.  1.
       -1    1    3    3    0  502 -0.14097623666E+04 -0.12732046993E+04  0.19067025079E+03  0.19091451703E+04  0.50400001928E-02 0. -1.
</event>
<event>
 5   0  0.6335942E-09  0.3897749E+04  0.7818609E-02  0.8025497E-01
       -2   -1    0    0    0  501  0.00000000000E+00  0.00000000000E+00  0.21793809149E+04  0.21793809149E+04  0.25500000920E-02 0.  1.
        2   -1    0    0  501    0  0.00000000000E+00  0.00000000000E+00 -0.17427483570E+04  0.17427483570E+04  0.25500000920E-02 0. -1.
    10030    2    1    2    0    0  0.00000000000E+00  0.00000000000E+00  0.43663255790E+03  0.39221292720E+04  0.38977493551E+04 0.  0.
        2    1    3    3  502    0 -0.67888948212E+03 -0.10983554892E+03  0.20532235476E+04  0.21653363972E+04  0.25500000920E-02 0.  1.
       -2    1    3    3    0  502  0.67888948212E+03  0.10983554892E+03 -0.16165909897E+04  0.17567928747E+04  0.25500000920E-02 0. -1.
</event>
<event>
 5   0  0.9368546E-09  0.3898419E+04  0.7818609E-02  0.8025358E-01
       -2   -1    0    0    0  501  0.00000000000E+00  0.00000000000E+00  0.17667323090E+04  0.17667323090E+04  0.25500000920E-02 0.  1.
        2   -1    0    0  501    0  0.00000000000E+00  0.00000000000E+00 -0.21505334295E+04  0.21505334295E+04  0.25500000920E-02 0. -1.
    10030    2    1    2    0    0  0.00000000000E+00  0.00000000000E+00 -0.38380112044E+03  0.39172657385E+04  0.38984185981E+04 0.  0.
        5    1    3    3  502    0  0.64601047467E+03  0.59932870289E+03  0.15551453827E+04  0.17874629167E+04  0.46999998093E+01 0.  1.
       -5    1    3    3    0  502 -0.64601047467E+03 -0.59932870289E+03 -0.19389465031E+04  0.21298028217E+04  0.46999998093E+01 0. -1.
</event>
<event>
 5   0  0.2904500E-09  0.3886570E+04  0.7818609E-02  0.8027828E-01
        1   -1    0    0  501    0  0.00000000000E+00  0.00000000000E+00  0.21446246581E+04  0.21446246581E+04  0.50400001928E-02 0. -1.
       -1   -1    0    0    0  501  0.00000000000E+00  0.00000000000E+00 -0.17608471882E+04  0.17608471882E+04  0.50400001928E-02 0.  1.
    10030    2    1    2    0    0  0.00000000000E+00  0.00000000000E+00  0.38377746993E+03  0.39054718462E+04  0.38865698495E+04 0.  0.
        5    1    3    3  502    0 -0.28114438718E+03  0.69486929715E+03  0.19934966613E+04  0.21297738225E+04  0.46999998093E+01 0. -1.
       -5    1    3    3    0  502  0.28114438718E+03 -0.69486929715E+03 -0.16097191913E+04  0.17756980237E+04  0.46999998093E+01 0.  1.
</event>
<event>
 5   0  0.9434114E-09  0.3898884E+04  0.7818609E-02  0.8025261E-01
        2   -1    0    0  501    0  0.00000000000E+00  0.00000000000E+00  0.15369931553E+04  0.15369931553E+04  0.25500000920E-02 0.  1.
       -2   -1    0    0    0  501  0.00000000000E+00  0.00000000000E+00 -0.24725707834E+04  0.24725707834E+04  0.25500000920E-02 0. -1.
    10030    2    1    2    0    0  0.00000000000E+00  0.00000000000E+00 -0.93557762811E+03  0.40095639387E+04  0.38988841327E+04 0.  0.
        4    1    3    3  502    0  0.51810532267E+03 -0.34656710518E+03  0.14317465332E+04  0.15615510341E+04  0.12699999809E+01 0.  1.
       -4    1    3    3    0  502 -0.51810532267E+03  0.34656710518E+03 -0.23673241613E+04  0.24480129046E+04  0.12699999809E+01 0. -1.
</event>
<event>
 5   0  0.9434114E-09  0.3899319E+04  0.7818609E-02  0.8025171E-01
        2   -1    0    0  501    0  0.00000000000E+00  0.00000000000E+00  0.21450594597E+04  0.21450594597E+04  0.25500000920E-02 0. -1.
       -2   -1    0    0    0  501  0.00000000000E+00  0.00000000000E+00 -0.17720586695E+04  0.17720586695E+04  0.25500000920E-02 0.  1.
    10030    2    1    2    0    0  0.00000000000E+00  0.00000000000E+00  0.37300079019E+03  0.39171181292E+04  0.38993185108E+04 0.  0.
        4    1    3    3  502    0  0.15296147750E+03 -0.25067650114E+03 -0.17497142013E+04  0.17741863828E+04  0.12699999809E+01 0.  1.
       -4    1    3    3    0  502 -0.15296147750E+03  0.25067650114E+03  0.21227149915E+04  0.21429317464E+04  0.12699999809E+01 0. -1.
</event>
<event>
 5   0  0.9434114E-09  0.3900039E+04  0.7818609E-02  0.8025021E-01
        2   -1    0    0  501    0  0.00000000000E+00  0.00000000000E+00  0.18397880826E+04  0.18397880826E+04  0.25500000920E-02 0. -1.
       -2   -1    0    0    0  501  0.00000000000E+00  0.00000000000E+00 -0.20668556549E+04  0.20668556549E+04  0.25500000920E-02 0.  1.
    10030    2    1    2    0    0  0.00000000000E+00  0.00000000000E+00 -0.22706757233E+03  0.39066437375E+04  0.39000391804E+04 0.  0.
        4    1    3    3  502    0  0.29529602162E+01 -0.18530893403E+04  0.49464014398E+03  0.19179727079E+04  0.12699999809E+01 0. -1.
       -4    1    3    3    0  502 -0.29529602162E+01  0.18530893403E+04 -0.72170771631E+03  0.19886710296E+04  0.12699999809E+01 0.  1.
</event>
<event>
 5   0  0.6335942E-09  0.3898547E+04  0.7818609E-02  0.8025331E-01
       -2   -1    0    0    0  501  0.00000000000E+00  0.00000000000E+00  0.17150588291E+04  0.17150588291E+04  0.25500000920E-02 0.  1.
        2   -1    0    0  501    0  0.00000000000E+00  0.00000000000E+00 -0.22154735370E+04  0.22154735370E+04  0.25500000920E-02 0. -1.
    10030    2    1    2    0    0  0.00000000000E+00  0.00000000000E+00 -0.50041470792E+03  0.39305323661E+04  0.38985471398E+04 0.  0.
        2    1    3    3  502    0 -0.62634793647E+03 -0.18387391887E+04 -0.86412428470E+02  0.19444126746E+04  0.25500000920E-02 0.  1.
       -2    1    3    3    0  502  0.62634793647E+03  0.18387391887E+04 -0.41400227945E+03  0.19861196915E+04  0.25500000920E-02 0. -1.
</event>
<event>
 5   0  0.9277261E-09  0.3898976E+04  0.7818609E-02  0.8025242E-01
        2   -1    0    0  501    0  0.00000000000E+00  0.00000000000E+00  0.22782492969E+04  0.22782492969E+04  0.25500000920E-02 0. -1.
       -2   -1    0    0    0  501  0.00000000000E+00  0.00000000000E+00 -0.16681681740E+04  0.16681681740E+04  0.25500000920E-02 0.  1.
    10030    2    1    2    0    0  0.00000000000E+00  0.00000000000E+00  0.61008112288E+03  0.39464174709E+04  0.38989757473E+04 0.  0.
        1    1    3    3  502    0 -0.67039503798E+03  0.14987475271E+04 -0.75885766608E+03  0.18087395098E+04  0.50400001928E-02 0.  1.
       -1    1    3    3    0  502  0.67039503798E+03 -0.14987475271E+04  0.13689387890E+04  0.21376779610E+04  0.50400001928E-02 0. -1.
</event>
<event>
 5   0  0.2904500E-09  0.3894271E+04  0.7818609E-02  0.8026222E-01
       -1   -1    0    0    0  501  0.00000000000E+00  0.00000000000E+00  0.20252843610E+04  0.20252843610E+04  0.50400001928E-02 0. -1.
        1   -1    0    0  501    0  0.00000000000E+00  0.00000000000E+00 -0.18720016830E+04  0.18720016830E+04  0.50400001928E-02 0.  1.
    10030    2    1    2    0    0  0.00000000000E+00  0.00000000000E+00  0.15328267807E+03  0.38972860440E+04  0.38942705260E+04 0.  0.
        3    1    3    3  502    0  0.13840532113E+04 -0.13628215232E+04  0.21257702462E+03  0.19539894568E+04  0.10100000352E+00 0.  1.
       -3    1    3    3    0  502 -0.13840532113E+04  0.13628215232E+04 -0.59294346554E+02  0.19432965871E+04  0.10100000352E+00 0. -1.
</event>
<event>
 5   0  0.2904500E-09  0.3897396E+04  0.7818609E-02  0.8025571E-01
        1   -1    0    0  501    0  0.00000000000E+00  0.00000000000E+00  0.24053305865E+04  0.24053305865E+04  0.50400001928E-02 0.  1.
       -1   -1    0    0    0  501  0.00000000000E+00  0.00000000000E+00 -0.15787538096E+04  0.15787538096E+04  0.50400001928E-02 0. -1.
    10030    2    1    2    0    0  0.00000000000E+00  0.00000000000E+00  0.82657677686E+03  0.39840843961E+04  0.38973964781E+04 0.  0.
        4    1    3    3  502    0  0.16754715579E+03 -0.14826018499E+04 -0.86808472773E+03  0.17261961077E+04  0.12699999809E+01 0. -1.
       -4    1    3    3    0  502 -0.16754715579E+03  0.14826018499E+04  0.16946615046E+04  0.22578882884E+04  0.12699999809E+01 0.  1.
</event>
<event>
 5   0  0.9078515E-09  0.3903185E+04  0.7818609E-02  0.8024367E-01
        2   -1    0    0  501    0  0.00000000000E+00  0.00000000000E+00  0.14333639768E+04  0.14333639768E+04  0.25500000920E-02 0.  1.
       -2   -1    0    0    0  501  0.00000000000E+00  0.00000000000E+00 -0.26571843692E+04  0.26571843692E+04  0.25500000920E-02 0. -1.
    10030    2    1    2    0    0  0.00000000000E+00  0.00000000000E+00 -0.12238203923E+04  0.40905483460E+04  0.39031845227E+04 0.  0.
        3    1    3    3  502    0  0.70488960537E+03 -0.68083887579E+02  0.12939593644E+04  0.14750713943E+04  0.10100000352E+00 0.  1.
       -3    1    3    3    0  502 -0.70488960537E+03  0.68083887579E+02 -0.25177797567E+04  0.26154769517E+04  0.10100000352E+00 0. -1.
</event>
<event>
 5   0  0.6335942E-09  0.3900603E+04  0.7818609E-02  0.8024904E-01
       -2   -1    0    0    0  501  0.00000000000E+00  0.00000000000E+00  0.10993273415E+04  0.10993273415E+04  0.25500000920E-02 0. -1.
        2   -1    0    0  501    0  0.00000000000E+00  0.00000000000E+00 -0.34600022647E+04  0.34600022647E+04  0.25500000920E-02 0.  1.
    10030    2    1    2    0    0  0.00000000000E+00  0.00000000000E+00 -0.23606749232E+04  0.45593296062E+04  0.39006025644E+04 0.  0.
        2    1    3    3  502    0 -0.13577841580E+04  0.11792570940E+04 -0.29827959423E+03  0.18229634746E+04  0.25500000920E-02 0. -1.
       -2    1    3    3    0  502  0.13577841580E+04 -0.11792570940E+04 -0.20623953290E+04  0.27363661316E+04  0.25500000920E-02 0.  1.
</event>
<event>
 5   0  0.2929054E-09  0.3898712E+04  0.7818609E-02  0.8025297E-01
       -1   -1    0    0    0  501  0.00000000000E+00  0.00000000000E+00  0.24341617576E+04  0.24341617576E+04  0.50400001928E-02 0.  1.
        1   -1    0    0  501    0  0.00000000000E+00  0.00000000000E+00 -0.15611077990E+04  0.15611077990E+04  0.50400001928E-02 0. -1.
    10030    2    1    2    0    0  0.00000000000E+00  0.00000000000E+00  0.87305395861E+03  0.39952695566E+04  0.38987120457E+04 0.  0.
        1    1    3    3  502    0 -0.21016326577E+02  0.12484709133E+04  0.19705540530E+04  0.23328533137E+04  0.50400001928E-02 0.  1.
       -1    1    3    3    0  502  0.21016326577E+02 -0.12484709133E+04 -0.10975000944E+04  0.16624162429E+04  0.50400001928E-02 0. -1.
</event>
<event>
 5   0  0.9434114E-09  0.3898694E+04  0.7818609E-02  0.8025301E-01
       -2   -1    0    0    0  501  0.00000000000E+00  0.00000000000E+00  0.17532854782E+04  0.17532854782E+04  0.25500000920E-02 0. -1.
        2   -1    0    0  501    0  0.00000000000E+00  0.00000000000E+00 -0.21673330698E+04  0.21673330698E+04  0.25500000920E-02 0.  1.
    10030    2    1    2    0    0  0.00000000000E+00  0.00000000000E+00 -0.41404759162E+03  0.39206185480E+04  0.38986939340E+04 0.  0.
        4    1    3    3  502    0 -0.47214572837E+03 -0.18482763438E+03  0.16858122757E+04  0.17604111694E+04  0.12699999809E+01 0. -1.
       -4    1    3    3    0  502  0.47214572837E+03  0.18482763438E+03 -0.20998598674E+04  0.21602073786E+04  0.12699999809E+01 0.  1.
</event>
<event>
 5   0  0.2904500E-09  0.3900578E+04  0.7818609E-02  0.8024909E-01
        1   -1    0    0  501    0  0.00000000000E+00  0.00000000000E+00  0.22640055594E+04  0.22640055594E+04  0.50400001928E-02 0. -1.
       -1   -1    0    0    0  501  0.00000000000E+00  0.00000000000E+00 -0.16800436389E+04  0.16800436389E+04  0.50400001928E-02 0.  1.
    10030    2    1    2    0    0  0.00000000000E+00  0.00000000000E+00  0.58396192056E+03  0.39440491983E+04  0.39005784896E+04 0.  0.
        2    1    3    3  502    0  0.85811416140E+02  0.19141808877E+04 -0.75631071245E+02  0.19175954029E+04  0.25500000920E-02 0.  1.
       -2    1    3    3    0  502 -0.85811416140E+02 -0.19141808877E+04  0.65959299180E+03  0.20264537954E+04  0.25500000920E-02 0. -1.
</event>
<event>
 5   0  0.9078515E-09  0.3914475E+04  0.7818609E-02  0.8022025E-01
        2   -1    0    0  501    0  0.00000000000E+00  0.00000000000E+00  0.20385522639E+04  0.20385522639E+04  0.25500000920E-02 0. -1.
       -2   -1    0    0    0  501  0.00000000000E+00  0.00000000000E+00 -0.18791659718E+04  0.18791659718E+04  0.25500000920E-02 0.  1.
    10030    2    1    2    0    0  0.00000000000E+00  0.00000000000E+00  0.15938629211E+03  0.39177182357E+04  0.39144747009E+04 0.  0.
        3    1    3    3  502    0  0.45172872817E+03 -0.13431663030E+04  0.14308575248E+04  0.20138291457E+04  0.10100000352E+00 0. -1.
       -3    1    3    3    0  502 -0.45172872817E+03  0.13431663030E+04 -0.12714712327E+04  0.19038890901E+04  0.10100000352E+00 0.  1.
</event>
<event>
 5   0  0.9368546E-09  0.3901638E+04  0.7818609E-02  0.8024689E-01
       -2   -1    0    0    0  501  0.00000000000E+00  0.00000000000E+00  0.32146101651E+04  0.32146101651E+04  0.25500000920E-02 0. -1.
        2   -1    0    0  501    0  0.00000000000E+00  0.00000000000E+00 -0.11838744957E+04  0.11838744957E+04  0.25500000920E-02 0.  1.
    10030    2    1    2    0    0  0.00000000000E+00  0.00000000000E+00  0.20307356693E+04  0.43984846608E+04  0.39016381114E+04 0.  0.
        5    1    3    3  502    0 -0.57766345756E+03  0.17688900439E+04  0.16756154699E+04  0.25040719540E+04  0.46999998093E+01 0. -1.
       -5    1    3    3    0  502  0.57766345756E+03 -0.17688900439E+04  0.35512019942E+03  0.18944127068E+04  0.46999998093E+01 0.  1.
</event>
<event>
 5   0  0.2929054E-09  0.3897469E+04  0.7818609E-02  0.8025556E-01
       -1   -1    0    0    0  501  0.00000000000E+00  0.00000000000E+00  0.22076045850E+04  0.22076045851E+04  0.50400001928E-02 0. -1.
        1   -1    0    0  501    0  0.00000000000E+00  0.00000000000E+00 -0.17202205733E+04  0.17202205733E+04  0.50400001928E-02 0.  1.
    10030    2    1    2    0    0  0.00000000000E+00  0.00000000000E+00  0.48738401178E+03  0.39278251583E+04  0.38974693455E+04 0.  0.
        1    1    3    3  502    0 -0.50428765159E+03 -0.81376318142E+03  0.19542777874E+04  0.21761705405E+04  0.50400001928E-02 0. -1.
       -1    1    3    3    0  502  0.50428765159E+03  0.81376318142E+03 -0.14668937756E+04  0.17516546178E+04  0.50400001928E-02 0.  1.
</event>
<event>
 5   0  0.2904500E-09  0.3898769E+04  0.7818609E-02  0.8025285E-01
        1   -1    0    0  501    0  0.00000000000E+00  0.00000000000E+00  0.25908296979E+04  0.25908296979E+04  0.50400001928E-02 0. -1.
       -1   -1    0    0    0  501  0.00000000000E+00  0.00000000000E+00 -0.14667500926E+04  0.14667500926E+04  0.50400001928E-02 0.  1.
    10030    2    1    2    0    0  0.00000000000E+00  0.00000000000E+00  0.11240796052E+04  0.40575797905E+04  0.38987688823E+04 0.  0.
        5    1    3    3  502    0 -0.16888718753E+04  0.33569327421E+02 -0.45055842818E+03  0.17482677421E+04  0.46999998093E+01 0.  1.
       -5    1    3    3    0  502  0.16888718753E+04 -0.33569327421E+02  0.15746380334E+04  0.23093120484E+04  0.46999998093E+01 0. -1.
</event>
<event>
 5   0  0.9434114E-09  0.3900039E+04  0.7818609E-02  0.8025021E-01
       -2   -1    0    0    0  501  0.00000000000E+00  0.00000000000E+00  0.13798451557E+04  0.13798451557E+04  0.25500000920E-02 0.  1.
        2   -1    0    0  501    0  0.00000000000E+00  0.00000000000E+00 -0.27557996290E+04  0.27557996290E+04  0.25500000920E-02 0. -1.
    10030    2    1    2    0    0  0.00000000000E+00  0.00000000000E+00 -0.13759544732E+04  0.41356447847E+04  0.39000393681E+04 0.  0.
        4    1    3    3  502    0  0.10888093542E+04 -0.46911350708E+03  0.95377805396E+03  0.15216003028E+04  0.12699999809E+01 0.  1.
       -4    1    3    3    0  502 -0.10888093542E+04  0.46911350708E+03 -0.23297325272E+04  0.26140444819E+04  0.12699999809E+01 0. -1.
</event>
<event>
 5   0  0.2904500E-09  0.3898818E+04  0.7818609E-02  0.8025275E-01
        1   -1    0    0  501    0  0.00000000000E+00  0.00000000000E+00  0.26845604683E+04  0.26845604683E+04  0.50400001928E-02 0.  1.
       -1   -1    0    0    0  501  0.00000000000E+00  0.00000000000E+00 -0.14155745415E+04  0.14155745415E+04  0.50400001928E-02 0. -1.
    10030    2    1    2    0    0  0.00000000000E+00  0.00000000000E+00  0.12689859268E+04  0.41001350099E+04  0.38988180025E+04 0.  0.
        3    1    3    3  502    0 -0.65194106692E+03  0.29999794544E+03 -0.12716000402E+04  0.14601344440E+04  0.10100000352E+00 0. -1.
       -3    1    3    3    0  502  0.65194106692E+03 -0.29999794544E+03  0.25405859670E+04  0.26400005659E+04  0.10100000352E+00 0.  1.
</event>
<event>
 5   0  0.6335942E-09  0.3910832E+04  0.7818609E-02  0.8022780E-01
        2   -1    0    0  501    0  0.00000000000E+00  0.00000000000E+00  0.19909344916E+04  0.19909344916E+04  0.25500000920E-02 0. -1.
       -2   -1    0    0    0  501  0.00000000000E+00  0.00000000000E+00 -0.19205310605E+04  0.19205310605E+04  0.25500000920E-02 0.  1.
    10030    2    1    2    0    0  0.00000000000E+00  0.00000000000E+00  0.70403431018E+02  0.39114655521E+04  0.39108318964E+04 0.  0.
        2    1    3    3  502    0 -0.48338597964E+03 -0.94687312758E+02  0.19278676577E+04  0.19897993361E+04  0.25500000920E-02 0. -1.
       -2    1    3    3    0  502  0.48338597964E+03  0.94687312758E+02 -0.18574642266E+04  0.19216662160E+04  0.25500000920E-02 0.  1.
</event>
<event>
 5   0  0.2904500E-09  0.3898859E+04  0.7818609E-02  0.8025267E-01
       -1   -1    0    0    0  501  0.00000000000E+00  0.00000000000E+00  0.12057677354E+04  0.12057677354E+04  0.50400001928E-02 0.  1.
        1   -1    0    0  501    0  0.00000000000E+00  0.00000000000E+00 -0.31517471751E+04  0.31517471751E+04  0.50400001928E-02 0. -1.
    10030    2    1    2    0    0  0.00000000000E+00  0.00000000000E+00 -0.19459794397E+04  0.43575149106E+04  0.38988588351E+04 0.  0.
        4    1    3    3  502    0 -0.10569215840E+04 -0.74076459736E+03 -0.26058355419E+04  0.29079539040E+04  0.12699999809E+01 0. -1.
       -4    1    3    3    0  502  0.10569215840E+04  0.74076459736E+03  0.65985610218E+03  0.14495610066E+04  0.12699999809E+01 0.  1.
</event>
<event>
 5   0  0.2904500E-09  0.3903513E+04  0.7818609E-02  0.8024299E-01
        1   -1    0    0  501    0  0.00000000000E+00  0.00000000000E+00  0.15318696411E+04  0.15318696411E+04  0.50400001928E-02 0.  1.
       -1   -1    0    0    0  501  0.00000000000E+00  0.00000000000E+00 -0.24867347260E+04  0.24867347260E+04  0.50400001928E-02 0. -1.
    10030    2    1    2    0    0  0.00000000000E+00  0.00000000000E+00 -0.95486508495E+03  0.40186043671E+04  0.39035129984E+04 0.  0.
        5    1    3    3  502    0 -0.86446100366E+03 -0.15775860696E+04 -0.12568959109E+04  0.21945113476E+04  0.46999998093E+01 0.  1.
       -5    1    3    3    0  502  0.86446100366E+03  0.15775860696E+04  0.30203082594E+03  0.18240930195E+04  0.46999998093E+01 0. -1.
</event>
<event>
 5   0  0.9368546E-09  0.3899000E+04  0.7818609E-02  0.8025237E-01
       -2   -1    0    0    0  501  0.00000000000E+00  0.00000000000E+00  0.16524847889E+04  0.16524847889E+04  0.25500000920E-02 0.  1.
        2   -1    0    0  501    0  0.00000000000E+00  0.00000000000E+00 -0.22998997450E+04  0.22998997450E+04  0.25500000920E-02 0. -1.
    10030    2    1    2    0    0  0.00000000000E+00  0.00000000000E+00 -0.64741495605E+03  0.39523845339E+04  0.38989995356E+04 0.  0.
        5    1    3    3  502    0  0.37303621459E+03  0.17464452775E+04  0.46885453271E+03  0.18463677281E+04  0.46999998093E+01 0.  1.
       -5    1    3    3    0  502 -0.37303621459E+03 -0.17464452775E+04 -0.11162694888E+04  0.21060168058E+04  0.46999998093E+01 0. -1.
</event>
<event>
 5   0  0.2904500E-09  0.3899970E+04  0.7818609E-02  0.8025035E-01
        1   -1    0    0  501    0  0.00000000000E+00  0.00000000000E+00  0.21654994898E+04  0.21654994898E+04  0.50400001928E-02 0. -1.
       -1   -1    0    0    0  501  0.00000000000E+00  0.00000000000E+00 -0.17559190675E+04  0.17559190676E+04  0.50400001928E-02 0.  1.
    10030    2    1    2    0    0  0.00000000000E+00  0.00000000000E+00  0.40958042228E+03  0.39214185574E+04  0.38999701768E+04 0.  0.
        5    1    3    3  502    0 -0.66978242992E+03 -0.10680953481E+04 -0.12910011113E+04  0.18044783555E+04  0.46999998093E+01 0.  1.
       -5    1    3    3    0  502  0.66978242992E+03  0.10680953481E+04  0.17005815336E+04  0.21169402019E+04  0.46999998093E+01 0. -1.
</event>
<event>
 5   0  0.9368546E-09  0.3899549E+04  0.7818609E-02  0.8025123E-01
        2   -1    0    0  501    0  0.00000000000E+00  0.00000000000E+00  0.19842189312E+04  0.19842189312E+04  0.25500000920E-02 0.  1.
       -2   -1    0    0    0  501  0.00000000000E+00  0.00000000000E+00 -0.19159278493E+04  0.19159278493E+04  0.25500000920E-02 0. -1.
    10030    2    1    2    0    0  0.00000000000E+00  0.00000000000E+00  0.68291081865E+02  0.39001467805E+04  0.38995488505E+04 0.  0.
        5    1    3    3  502    0 -0.13022636585E+04  0.65191247966E+03 -0.12624782136E+04  0.19273696706E+04  0.46999998093E+01 0. -1.
       -5    1    3    3    0  502  0.13022636585E+04 -0.65191247966E+03  0.13307692954E+04  0.19727771098E+04  0.46999998093E+01 0.  1.
</event>
<event>
 5   0  0.9434114E-09  0.3897667E+04  0.7818609E-02  0.8025515E-01
       -2   -1    0    0    0  501  0.00000000000E+00  0.00000000000E+00  0.12267187509E+04  0.12267187509E+04  0.25500000920E-02 0. -1.
        2   -1    0    0  501    0  0.00000000000E+00  0.00000000000E+00 -0.30960253168E+04  0.30960253168E+04  0.25500000920E-02 0.  1.
    10030    2    1    2    0    0  0.00000000000E+00  0.00000000000E+00 -0.18693065658E+04  0.43227440677E+04  0.38976671533E+04 0.  0.
        4    1    3    3  502    0 -0.19728608360E+03 -0.19296079987E+04 -0.11440331938E+04  0.22519152712E+04  0.12699999809E+01 0. -1.
       -4    1    3    3    0  502  0.19728608360E+03  0.19296079987E+04 -0.72527337207E+03  0.20708287965E+04  0.12699999809E+01 0.  1.
</event>
<event>
 5   0  0.2904500E-09  0.3900979E+04  0.7818609E-02  0.8024826E-01
       -1   -1    0    0    0  501  0.00000000000E+00  0.00000000000E+00  0.20590539953E+04  0.20590539953E+04  0.50400001928E-02 0. -1.
        1   -1    0    0  501    0  0.00000000000E+00  0.00000000000E+00 -0.18476493580E+04  0.18476493580E+04  0.50400001928E-02 0.  1.
    10030    2    1    2    0    0  0.00000000000E+00  0.00000000000E+00  0.21140463732E+03  0.39067033533E+04  0.39009792579E+04 0.  0.
        4    1    3    3  502    0  0.13192451011E+04  0.50987025045E+03  0.14508160849E+04  0.20261402307E+04  0.12699999809E+01 0.  1.
       -4    1    3    3    0  502 -0.13192451011E+04 -0.50987025045E+03 -0.12394114476E+04  0.18805631227E+04  0.12699999809E+01 0. -1.
</event>
<event>
 5   0  0.9434114E-09  0.3898378E+04  0.7818609E-02  0.8025367E-01
       -2   -1    0    0    0  501  0.00000000000E+00  0.00000000000E+00  0.19983591232E+04  0.19983591232E+04  0.25500000920E-02 0. -1.
        2   -1    0    0  501    0  0.00000000000E+00  0.00000000000E+00 -0.19012285208E+04  0.19012285208E+04  0.25500000920E-02 0.  1.
    10030    2    1    2    0    0  0.00000000000E+00  0.00000000000E+00  0.97130602397E+02  0.38995876440E+04  0.38983777958E+04 0.  0.
        4    1    3    3  502    0  0.19226192791E+04  0.15236884670E+03  0.33088433643E+03  0.19568258009E+04  0.12699999809E+01 0.  1.
       -4    1    3    3    0  502 -0.19226192791E+04 -0.15236884670E+03 -0.23375373403E+03  0.19427618431E+04  0.12699999809E+01 0. -1.
</event>
<event>
 5   0  0.9434114E-09  0.3898269E+04  0.7818609E-02  0.8025389E-01
        2   -1    0    0  501    0  0.00000000000E+00  0.00000000000E+00  0.16104506402E+04  0.16104506402E+04  0.25500000920E-02 0. -1.
       -2   -1    0    0    0  501  0.00000000000E+00  0.00000000000E+00 -0.23590453657E+04  0.23590453657E+04  0.25500000920E-02 0.  1.
    10030    2    1    2    0    0  0.00000000000E+00  0.00000000000E+00 -0.74859472543E+03  0.39694960059E+04  0.38982694209E+04 0.  0.
        4    1    3    3  502    0  0.65339708209E+03  0.86066733604E+03  0.12775159244E+04  0.16732377477E+04  0.12699999809E+01 0. -1.
       -4    1    3    3    0  502 -0.65339708209E+03 -0.86066733604E+03 -0.20261106498E+04  0.22962582582E+04  0.12699999809E+01 0.  1.
</event>
<event>
 5   0  0.2904500E-09  0.3898455E+04  0.7818609E-02  0.8025351E-01
       -1   -1    0    0    0  501  0.00000000000E+00  0.00000000000E+00  0.17177696235E+04  0.17177696235E+04  0.50400001928E-02 0.  1.
        1   -1    0    0  501    0  0.00000000000E+00  0.00000000000E+00 -0.22118730206E+04  0.22118730206E+04  0.50400001928E-02 0. -1.
    10030    2    1    2    0    0  0.00000000000E+00  0.00000000000E+00 -0.49410339706E+03  0.39296426441E+04  0.38984552253E+04 0.  0.
        4    1    3    3  502    0 -0.11721018861E+04 -0.15457227360E+04 -0.54724186556E+02  0.19406385437E+04  0.12699999809E+01 0. -1.
       -4    1    3    3    0  502  0.11721018861E+04  0.15457227360E+04 -0.43937921050E+03  0.19890041004E+04  0.12699999809E+01 0.  1.
</event>
<event>
 5   0  0.2904500E-09  0.3899636E+04  0.7818609E-02  0.8025105E-01
       -1   -1    0    0    0  501  0.00000000000E+00  0.00000000000E+00  0.14582141926E+04  0.14582141926E+04  0.50400001928E-02 0.  1.
        1   -1    0    0  501    0  0.00000000000E+00  0.00000000000E+00 -0.26071548402E+04  0.26071548402E+04  0.50400001928E-02 0. -1.
    10030    2    1    2    0    0  0.00000000000E+00  0.00000000000E+00 -0.11489406476E+04  0.40653690328E+04  0.38996359781E+04 0.  0.
        3    1    3    3  502    0 -0.15967604111E+04  0.35981586981E+03  0.53012624088E+03  0.17205072252E+04  0.10100000352E+00 0. -1.
       -3    1    3    3    0  502  0.15967604111E+04 -0.35981586981E+03 -0.16790668885E+04  0.23448618076E+04  0.10100000352E+00 0.  1.
</event>
<event>
 5   0  0.9434114E-09  0.3897827E+04  0.7818609E-02  0.8025481E-01
        2   -1    0    0  501    0  0.00000000000E+00  0.00000000000E+00  0.14307709293E+04  0.14307709293E+04  0.25500000920E-02 0.  1.
       -2   -1    0    0    0  501  0.00000000000E+00  0.00000000000E+00 -0.26546978163E+04  0.26546978163E+04  0.25500000920E-02 0. -1.
    10030    2    1    2    0    0  0.00000000000E+00  0.00000000000E+00 -0.12239268870E+04  0.40854687456E+04  0.38978273238E+04 0.  0.
        4    1    3    3  502    0 -0.82093661890E+03 -0.55327588487E+03 -0.23715316430E+04  0.25698667444E+04  0.12699999809E+01 0. -1.
       -4    1    3    3    0  502  0.82093661890E+03  0.55327588487E+03  0.11476047560E+04  0.15156020012E+04  0.12699999809E+01 0.  1.
</event>
<event>
 5   0  0.2904500E-09  0.3893801E+04  0.7818609E-02  0.8026320E-01
       -1   -1    0    0    0  501  0.00000000000E+00  0.00000000000E+00  0.24559363347E+04  0.24559363347E+04  0.50400001928E-02 0.  1.
        1   -1    0    0  501    0  0.00000000000E+00  0.00000000000E+00 -0.15433709645E+04  0.15433709645E+04  0.50400001928E-02 0. -1.
    10030    2    1    2    0    0  0.00000000000E+00  0.00000000000E+00  0.91256537024E+03  0.39993072992E+04  0.38938006264E+04 0.  0.
        4    1    3    3  502    0  0.37843668794E+03  0.28016136758E+02  0.24175844053E+04  0.24471851586E+04  0.12699999809E+01 0.  1.
       -4    1    3    3    0  502 -0.37843668794E+03 -0.28016136758E+02 -0.15050190351E+04  0.15521221406E+04  0.12699999809E+01 0. -1.
</event>
<event>
 5   0  0.2929054E-09  0.3899831E+04  0.7818609E-02  0.8025064E-01
       -1   -1    0    0    0  501  0.00000000000E+00  0.00000000000E+00  0.23465618429E+04  0.23465618429E+04  0.50400001928E-02 0. -1.
        1   -1    0    0  501    0  0.00000000000E+00  0.00000000000E+00 -0.16203153144E+04  0.16203153144E+04  0.50400001928E-02 0.  1.
    10030    2    1    2    0    0  0.00000000000E+00  0.00000000000E+00  0.72624652849E+03  0.39668771573E+04  0.38998308118E+04 0.  0.
        1    1    3    3  502    0 -0.44557743589E+03  0.11308747250E+03 -0.15644066975E+04  0.16305509323E+04  0.50400001928E-02 0.  1.
       -1    1    3    3    0  502  0.44557743589E+03 -0.11308747250E+03  0.22906532259E+04  0.23363262249E+04  0.50400001928E-02 0. -1.
</event>
<event>
 5   0  0.2904500E-09  0.3903637E+04  0.7818609E-02  0.8024273E-01
       -1   -1    0    0    0  501  0.00000000000E+00  0.00000000000E+00  0.22826724976E+04  0.22826724976E+04  0.50400001928E-02 0.  1.
        1   -1    0    0  501    0  0.00000000000E+00  0.00000000000E+00 -0.16689187033E+04  0.16689187034E+04  0.50400001928E-02 0. -1.
    10030    2    1    2    0    0  0.00000000000E+00  0.00000000000E+00  0.61375379422E+03  0.39515912009E+04  0.39036366761E+04 0.  0.
        5    1    3    3  502    0  0.37003412527E+01 -0.14538645918E+02 -0.16688546106E+04  0.16689286581E+04  0.46999998093E+01 0. -1.
       -5    1    3    3    0  502 -0.37003412527E+01  0.14538645918E+02  0.22826084048E+04  0.22826625428E+04  0.46999998093E+01 0.  1.
</event>
<event>
 5   0  0.9434114E-09  0.3899732E+04  0.7818609E-02  0.8025085E-01
        2   -1    0    0  501    0  0.00000000000E+00  0.00000000000E+00  0.22057792143E+04  0.22057792143E+04  0.25500000920E-02 0. -1.
       -2   -1    0    0    0  501  0.00000000000E+00  0.00000000000E+00 -0.17236439922E+04  0.17236439922E+04  0.25500000920E-02 0.  1.
    10030    2    1    2    0    0  0.00000000000E+00  0.00000000000E+00  0.48213522208E+03  0.39294232065E+04  0.38997323451E+04 0.  0.
        4    1    3    3  502    0  0.13930423159E+04  0.21738323585E+02  0.16156154010E+04  0.21333668661E+04  0.12699999809E+01 0. -1.
       -4    1    3    3    0  502 -0.13930423159E+04 -0.21738323585E+02 -0.11334801790E+04  0.17960563403E+04  0.12699999809E+01 0.  1.
</event>
<event>
 5   0  0.6335942E-09  0.3900150E+04  0.7818609E-02  0.8024998E-01
        2   -1    0    0  501    0  0.00000000000E+00  0.00000000000E+00  0.19532273066E+04  0.19532273066E+04  0.25500000920E-02 0.  1.
       -2   -1    0    0    0  501  0.00000000000E+00  0.00000000000E+00 -0.19469281682E+04  0.19469281682E+04  0.25500000920E-02 0. -1.
    10030    2    1    2    0    0  0.00000000000E+00  0.00000000000E+00  0.62991384304E+01  0.39001554748E+04  0.39001503879E+04 0.  0.
        2    1    3    3  502    0 -0.11249104893E+03  0.65882072310E+02 -0.19425658401E+04  0.19469352138E+04  0.25500000920E-02 0. -1.
       -2    1    3    3    0  502  0.11249104893E+03 -0.65882072310E+02  0.19488649785E+04  0.19532202610E+04  0.25500000920E-02 0.  1.
</event>
<event>
 5   0  0.2904500E-09  0.3899814E+04  0.7818609E-02  0.8025068E-01
       -1   -1    0    0    0  501  0.00000000000E+00  0.00000000000E+00  0.21054311524E+04  0.21054311524E+04  0.50400001928E-02 0. -1.
        1   -1    0    0  501    0  0.00000000000E+00  0.00000000000E+00 -0.18058706954E+04  0.18058706954E+04  0.50400001928E-02 0.  1.
    10030    2    1    2    0    0  0.00000000000E+00  0.00000000000E+00  0.29956045700E+03  0.39113018478E+04  0.38998135439E+04 0.  0.
        5    1    3    3  502    0 -0.10667488249E+04 -0.16059933207E+04  0.44209503665E+03  0.19780388553E+04  0.46999998093E+01 0.  1.
       -5    1    3    3    0  502  0.10667488249E+04  0.16059933207E+04 -0.14253457965E+03  0.19332629925E+04  0.46999998093E+01 0. -1.
</event>
<event>
 5   0  0.2929054E-09  0.3899018E+04  0.7818609E-02  0.8025233E-01
        1   -1    0    0  501    0  0.00000000000E+00  0.00000000000E+00  0.19220188011E+04  0.19220188011E+04  0.50400001928E-02 0. -1.
       -1   -1    0    0    0  501  0.00000000000E+00  0.00000000000E+00 -0.19773924025E+04  0.19773924025E+04  0.50400001928E-02 0.  1.
    10030    2    1    2    0    0  0.00000000000E+00  0.00000000000E+00 -0.55373601358E+02  0.38994112037E+04  0.38990180173E+04 0.  0.
        1    1    3    3  502    0 -0.48448868433E+03  0.10110524466E+04 -0.16227235015E+04  0.19723559256E+04  0.50400001928E-02 0.  1.
       -1    1    3    3    0  502  0.48448868433E+03 -0.10110524466E+04  0.15673499002E+04  0.19270552780E+04  0.50400001928E-02 0. -1.
</event>
<event>
 5   0  0.9078515E-09  0.3899403E+04  0.7818609E-02  0.8025153E-01
       -2   -1    0    0    0  501  0.00000000000E+00  0.00000000000E+00  0.22014885696E+04  0.22014885696E+04  0.25500000920E-02 0. -1.
        2   -1    0    0  501    0  0.00000000000E+00  0.00000000000E+00 -0.17267116198E+04  0.17267116198E+04  0.25500000920E-02 0.  1.
    10030    2    1    2    0    0  0.00000000000E+00  0.00000000000E+00  0.47477694974E+03  0.39282001894E+04  0.38994029768E+04 0.  0.
        3    1    3    3  502    0  0.12910265037E+04  0.72086531070E+03  0.15175761527E+04  0.21188283599E+04  0.10100000352E+00 0. -1.
       -3    1    3    3    0  502 -0.12910265037E+04 -0.72086531070E+03 -0.10427992029E+04  0.18093718295E+04  0.10100000352E+00 0.  1.
</event>
<event>
 5   0  0.9434114E-09  0.3903590E+04  0.7818609E-02  0.8024283E-01
       -2   -1    0    0    0  501  0.00000000000E+00  0.00000000000E+00  0.21721821117E+04  0.21721821117E+04  0.25500000920E-02 0.  1.
        2   -1    0    0  501    0  0.00000000000E+00  0.00000000000E+00 -0.17537683510E+04  0.17537683510E+04  0.25500000920E-02 0. -1.
    10030    2    1    2    0    0  0.00000000000E+00  0.00000000000E+00  0.41841376066E+03  0.39259504627E+04  0.39035902654E+04 0.  0.
        4    1    3    3  502    0  0.14050273321E+04 -0.91715267561E+03 -0.79361641147E+03  0.18560979111E+04  0.12699999809E+01 0. -1.
       -4    1    3    3    0  502 -0.14050273321E+04  0.91715267561E+03  0.12120301721E+04  0.20698525516E+04  0.12699999809E+01 0.  1.
</event>
<event>
 5   0  0.6335942E-09  0.3901929E+04  0.7818609E-02  0.8024628E-01
       -2   -1    0    0    0  501  0.00000000000E+00  0.00000000000E+00  0.28988753651E+04  0.28988753651E+04  0.25500000920E-02 0.  1.
        2   -1    0    0  501    0  0.00000000000E+00  0.00000000000E+00 -0.13130132919E+04  0.13130132919E+04  0.25500000920E-02 0. -1.
    10030    2    1    2    0    0  0.00000000000E+00  0.00000000000E+00  0.15858620733E+04  0.42118886570E+04  0.39019286953E+04 0.  0.
        2    1    3    3  502    0 -0.11376118441E+04 -0.19692275989E+03 -0.90467900903E+03  0.14667594863E+04  0.25500000920E-02 0. -1.
       -2    1    3    3    0  502  0.11376118441E+04  0.19692275989E+03  0.24905410823E+04  0.27451291707E+04  0.25500000920E-02 0.  1.
</event>
<event>
 5   0  0.2904500E-09  0.3899950E+04  0.7818609E-02  0.8025040E-01
       -1   -1    0    0    0  501  0.00000000000E+00  0.00000000000E+00  0.32442875925E+04  0.32442875925E+04  0.50400001928E-02 0. -1.
        1   -1    0    0  501    0  0.00000000000E+00  0.00000000000E+00 -0.11720298541E+04  0.11720298541E+04  0.50400001928E-02 0.  1.
    10030    2    1    2    0    0  0.00000000000E+00  0.00000000000E+00  0.20722577384E+04  0.44163174466E+04  0.38999496990E+04 0.  0.
        3    1    3    3  502    0 -0.53374902069E+03 -0.11583208587E+04 -0.63423631714E+03  0.14243773885E+04  0.10100000352E+00 0.  1.
       -3    1    3    3    0  502  0.53374902069E+03  0.11583208587E+04  0.27064940555E+04  0.29919400581E+04  0.10100000352E+00 0. -1.
</event>
<event>
 5   0  0.2904500E-09  0.3896323E+04  0.7818609E-02  0.8025794E-01
        1   -1    0    0  501    0  0.00000000000E+00  0.00000000000E+00  0.30128614790E+04  0.30128614790E+04  0.50400001928E-02 0. -1.
       -1   -1    0    0    0  501  0.00000000000E+00  0.00000000000E+00 -0.12597106926E+04  0.12597106927E+04  0.50400001928E-02 0.  1.
    10030    2    1    2    0    0  0.00000000000E+00  0.00000000000E+00  0.17531507864E+04  0.42725721717E+04  0.38963233031E+04 0.  0.
        3    1    3    3  502    0 -0.69981613097E+03  0.88123298373E+03  0.26204309960E+04  0.28518367421E+04  0.10100000352E+00 0. -1.
       -3    1    3    3    0  502  0.69981613097E+03 -0.88123298373E+03 -0.86728020958E+03  0.14207354296E+04  0.10100000352E+00 0.  1.
</event>
<event>
 5   0  0.2929054E-09  0.3898631E+04  0.7818609E-02  0.8025314E-01
       -1   -1    0    0    0  501  0.00000000000E+00  0.00000000000E+00  0.17005162363E+04  0.17005162364E+04  0.50400001928E-02 0.  1.
        1   -1    0    0  501    0  0.00000000000E+00  0.00000000000E+00 -0.22345156156E+04  0.22345156156E+04  0.50400001928E-02 0. -1.
    10030    2    1    2    0    0  0.00000000000E+00  0.00000000000E+00 -0.53399937930E+03  0.39350318520E+04  0.38986305723E+04 0.  0.
        1    1    3    3  502    0  0.62631732884E+03 -0.11102697293E+04 -0.17555091626E+04  0.21695125462E+04  0.50400001928E-02 0. -1.
       -1    1    3    3    0  502 -0.62631732884E+03  0.11102697293E+04  0.12215097833E+04  0.17655193058E+04  0.50400001928E-02 0.  1.
</event>
<event>
 5   0  0.9368546E-09  0.3899452E+04  0.7818609E-02  0.8025143E-01
        2   -1    0    0  501    0  0.00000000000E+00  0.00000000000E+00  0.20162379821E+04  0.20162379821E+04  0.25500000920E-02 0. -1.
       -2   -1    0    0    0  501  0.00000000000E+00  0.00000000000E+00 -0.18854082472E+04  0.18854082472E+04  0.25500000920E-02 0.  1.
    10030    2    1    2    0    0  0.00000000000E+00  0.00000000000E+00  0.13082973491E+03  0.39016462294E+04  0.38994521256E+04 0.  0.
        5    1    3    3  502    0 -0.92358301933E+02  0.19086276410E+04  0.45295708838E+03  0.19638181540E+04  0.46999998093E+01 0.  1.
       -5    1    3    3    0  502  0.92358301933E+02 -0.19086276410E+04 -0.32212735347E+03  0.19378280754E+04  0.46999998093E+01 0. -1.
</event>
<event>
 5   0  0.9277261E-09  0.3900994E+04  0.7818609E-02  0.8024823E-01
        2   -1    0    0  501    0  0.00000000000E+00  0.00000000000E+00  0.25633689016E+04  0.25633689016E+04  0.25500000920E-02 0. -1.
       -2   -1    0    0    0  501  0.00000000000E+00  0.00000000000E+00 -0.14841555672E+04  0.14841555672E+04  0.25500000920E-02 0.  1.
    10030    2    1    2    0    0  0.00000000000E+00  0.00000000000E+00  0.10792133344E+04  0.40475244688E+04  0.39009938355E+04 0.  0.
        1    1    3    3  502    0 -0.58377745932E+03  0.10156266626E+04 -0.10785065806E+04  0.15923159499E+04  0.50400001928E-02 0.  1.
       -1    1    3    3    0  502  0.58377745932E+03 -0.10156266626E+04  0.21577199150E+04  0.24552085190E+04  0.50400001928E-02 0. -1.
</event>
<event>
 5   0  0.9277261E-09  0.3900301E+04  0.7818609E-02  0.8024967E-01
        2   -1    0    0  501    0  0.00000000000E+00  0.00000000000E+00  0.23200872614E+04  0.23200872614E+04  0.25500000920E-02 0. -1.
       -2   -1    0    0    0  501  0.00000000000E+00  0.00000000000E+00 -0.16392003035E+04  0.16392003035E+04  0.25500000920E-02 0.  1.
    10030    2    1    2    0    0  0.00000000000E+00  0.00000000000E+00  0.68088695792E+03  0.39592875649E+04  0.39003013951E+04 0.  0.
        1    1    3    3  502    0 -0.13625515310E+04 -0.12725518718E+04  0.92106643117E+03  0.20794947251E+04  0.50400001928E-02 0. -1.
       -1    1    3    3    0  502  0.13625515310E+04  0.12725518718E+04 -0.24017947325E+03  0.18797928398E+04  0.50400001928E-02 0.  1.
</event>
<event>
 5   0  0.2904500E-09  0.3901308E+04  0.7818609E-02  0.8024757E-01
       -1   -1    0    0    0  501  0.00000000000E+00  0.00000000000E+00  0.22738264382E+04  0.22738264382E+04  0.50400001928E-02 0.  1.
        1   -1    0    0  501    0  0.00000000000E+00  0.00000000000E+00 -0.16734134451E+04  0.16734134451E+04  0.50400001928E-02 0. -1.
    10030    2    1    2    0    0  0.00000000000E+00  0.00000000000E+00  0.60041299309E+03  0.39472398833E+04  0.39013083618E+04 0.  0.
        3    1    3    3  502    0 -0.52539801971E+03 -0.44357700278E+03  0.21471427468E+04  0.22545566353E+04  0.10100000352E+00 0.  1.
       -3    1    3    3    0  502  0.52539801971E+03  0.44357700278E+03 -0.15467297537E+04  0.16926832479E+04  0.10100000352E+00 0. -1.
</event>
<event>
 5   0  0.6335942E-09  0.3899581E+04  0.7818609E-02  0.8025116E-01
       -2   -1    0    0    0  501  0.00000000000E+00  0.00000000000E+00  0.15896635582E+04  0.15896635582E+04  0.25500000920E-02 0. -1.
        2   -1    0    0  501    0  0.00000000000E+00  0.00000000000E+00 -0.23915018594E+04  0.23915018594E+04  0.25500000920E-02 0.  1.
    10030    2    1    2    0    0  0.00000000000E+00  0.00000000000E+00 -0.80183830120E+03  0.39811654176E+04  0.38995811853E+04 0.  0.
        2    1    3    3  502    0  0.13535077664E+03  0.43486054035E+03 -0.23364361558E+04  0.23804111898E+04  0.25500000920E-02 0.  1.
       -2    1    3    3    0  502 -0.13535077664E+03 -0.43486054035E+03  0.15345978546E+04  0.16007542278E+04  0.25500000920E-02 0. -1.
</event>
<event>
 5   0  0.9434114E-09  0.3898314E+04  0.7818609E-02  0.8025380E-01
        2   -1    0    0  501    0  0.00000000000E+00  0.00000000000E+00  0.29954528170E+04  0.29954528170E+04  0.25500000920E-02 0.  1.
       -2   -1    0    0    0  501  0.00000000000E+00  0.00000000000E+00 -0.12683264573E+04  0.12683264573E+04  0.25500000920E-02 0. -1.
    10030    2    1    2    0    0  0.00000000000E+00  0.00000000000E+00  0.17271263596E+04  0.42637792743E+04  0.38983135120E+04 0.  0.
        4    1    3    3  502    0 -0.21451624898E+03  0.11502077055E+04  0.25686258279E+04  0.28225582799E+04  0.12699999809E+01 0.  1.
       -4    1    3    3    0  502  0.21451624898E+03 -0.11502077055E+04 -0.84149946821E+03  0.14412209944E+04  0.12699999809E+01 0. -1.
</event>
<event>
 5   0  0.9434114E-09  0.3885662E+04  0.7818609E-02  0.8028018E-01
       -2   -1    0    0    0  501  0.00000000000E+00  0.00000000000E+00  0.19697496640E+04  0.19697496640E+04  0.25500000920E-02 0. -1.
        2   -1    0    0  501    0  0.00000000000E+00  0.00000000000E+00 -0.19162797880E+04  0.19162797880E+04  0.25500000920E-02 0.  1.
    10030    2    1    2    0    0  0.00000000000E+00  0.00000000000E+00  0.53469875995E+02  0.38860294520E+04  0.38856615748E+04 0.  0.
        4    1    3    3  502    0  0.12646501208E+04  0.14729531119E+04  0.10196876788E+03  0.19440499069E+04  0.12699999809E+01 0. -1.
       -4    1    3    3    0  502 -0.12646501208E+04 -0.14729531119E+04 -0.48498891884E+02  0.19419795451E+04  0.12699999809E+01 0.  1.
</event>
<event>
 5   0  0.2904500E-09  0.3900674E+04  0.7818609E-02  0.8024889E-01
        1   -1    0    0  501    0  0.00000000000E+00  0.00000000000E+00  0.23691861120E+04  0.23691861120E+04  0.50400001928E-02 0.  1.
       -1   -1    0    0    0  501  0.00000000000E+00  0.00000000000E+00 -0.16055364495E+04  0.16055364495E+04  0.50400001928E-02 0. -1.
    10030    2    1    2    0    0  0.00000000000E+00  0.00000000000E+00  0.76364966245E+03  0.39747225615E+04  0.39006741255E+04 0.  0.
        5    1    3    3  502    0  0.38300421357E+03  0.71474863237E+03 -0.14256102652E+04  0.16401050434E+04  0.46999998093E+01 0. -1.
       -5    1    3    3    0  502 -0.38300421357E+03 -0.71474863237E+03  0.21892599276E+04  0.23346175181E+04  0.46999998093E+01 0.  1.
</event>
<event>
 5   0  0.9277261E-09  0.3899180E+04  0.7818609E-02  0.8025200E-01
       -2   -1    0    0    0  501  0.00000000000E+00  0.00000000000E+00  0.18473655542E+04  0.18473655542E+04  0.25500000920E-02 0.  1.
        2   -1    0    0  501    0  0.00000000000E+00  0.00000000000E+00 -0.20574707021E+04  0.20574707021E+04  0.25500000920E-02 0. -1.
    10030    2    1    2    0    0  0.00000000000E+00  0.00000000000E+00 -0.21010514787E+03  0.39048362563E+04  0.38991796593E+04 0.  0.
        1    1    3    3  502    0 -0.17313630959E+03 -0.14674973102E+02 -0.20497009608E+04  0.20570526404E+04  0.50400001928E-02 0. -1.
       -1    1    3    3    0  502  0.17313630959E+03  0.14674973102E+02  0.18395958129E+04  0.18477836160E+04  0.50400001928E-02 0.  1.
</event>
<event>
 5   0  0.9078515E-09  0.3899062E+04  0.7818609E-02  0.8025224E-01
       -2   -1    0    0    0  501  0.00000000000E+00  0.00000000000E+00  0.18167804580E+04  0.18167804580E+04  0.25500000920E-02 0.  1.
        2   -1    0    0  501    0  0.00000000000E+00  0.00000000000E+00 -0.20919817327E+04  0.20919817327E+04  0.25500000920E-02 0. -1.
    10030    2    1    2    0    0  0.00000000000E+00  0.00000000000E+00 -0.27520127468E+03  0.39087621907E+04  0.38990622106E+04 0.  0.
        3    1    3    3  502    0  0.12985392630E+04  0.13466169628E+04  0.41248118282E+03  0.19156518991E+04  0.10100000352E+00 0.  1.
       -3    1    3    3    0  502 -0.12985392630E+04 -0.13466169628E+04 -0.68768245750E+03  0.19931102916E+04  0.10100000352E+00 0. -1.
</event>
<event>
 5   0  0.2904500E-09  0.3902685E+04  0.7818609E-02  0.8024471E-01
        1   -1    0    0  501    0  0.00000000000E+00  0.00000000000E+00  0.11965610561E+04  0.11965610561E+04  0.50400001928E-02 0.  1.
       -1   -1    0    0    0  501  0.00000000000E+00  0.00000000000E+00 -0.31822346702E+04  0.31822346702E+04  0.50400001928E-02 0. -1.
    10030    2    1    2    0    0  0.00000000000E+00  0.00000000000E+00 -0.19856736141E+04  0.43787957264E+04  0.39026852693E+04 0.  0.
        4    1    3    3  502    0 -0.68005285318E+03  0.14293008304E+04 -0.22732711112E+04  0.27700425818E+04  0.12699999809E+01 0. -1.
       -4    1    3    3    0  502  0.68005285318E+03 -0.14293008304E+04  0.28759749708E+03  0.16087531446E+04  0.12699999809E+01 0.  1.
</event>
<event>
 5   0  0.9368546E-09  0.3899998E+04  0.7818609E-02  0.8025030E-01
        2   -1    0    0  501    0  0.00000000000E+00  0.00000000000E+00  0.10655261638E+04  0.10655261638E+04  0.25500000920E-02 0. -1.
       -2   -1    0    0    0  501  0.00000000000E+00  0.00000000000E+00 -0.35686552677E+04  0.35686552677E+04  0.25500000920E-02 0.  1.
    10030    2    1    2    0    0  0.00000000000E+00  0.00000000000E+00 -0.25031291040E+04  0.46341814315E+04  0.38999977216E+04 0.  0.
        5    1    3    3  502    0 -0.82873104168E+03 -0.95035616887E+03 -0.30190280944E+04  0.32717769961E+04  0.46999998093E+01 0.  1.
       -5    1    3    3    0  502  0.82873104168E+03  0.95035616887E+03  0.51589899048E+03  0.13624044354E+04  0.46999998093E+01 0. -1.
</event>
<event>
 5   0  0.6335942E-09  0.3889687E+04  0.7818609E-02  0.8027178E-01
        2   -1    0    0  501    0  0.00000000000E+00  0.00000000000E+00  0.35300850481E+04  0.35300850481E+04  0.25500000920E-02 0. -1.
       -2   -1    0    0    0  501  0.00000000000E+00  0.00000000000E+00 -0.10714800273E+04  0.10714800273E+04  0.25500000920E-02 0.  1.
    10030    2    1    2    0    0  0.00000000000E+00  0.00000000000E+00  0.24586050209E+04  0.46015650754E+04  0.38896866833E+04 0.  0.
        2    1    3    3  502    0 -0.37141426286E+03  0.19086948767E+04  0.12727844020E+04  0.23240148066E+04  0.25500000920E-02 0.  1.
       -2    1    3    3    0  502  0.37141426286E+03 -0.19086948767E+04  0.11858206188E+04  0.22775502688E+04  0.25500000920E-02 0. -1.
</event>
<event>
 5   0  0.6335942E-09  0.3900118E+04  0.7818609E-02  0.8025005E-01
        2   -1    0    0  501    0  0.00000000000E+00  0.00000000000E+00  0.23756468652E+04  0.23756468652E+04  0.25500000920E-02 0.  1.
       -2   -1    0    0    0  501  0.00000000000E+00  0.00000000000E+00 -0.16007132069E+04  0.16007132069E+04  0.25500000920E-02 0. -1.
    10030    2    1    2    0    0  0.00000000000E+00  0.00000000000E+00  0.77493365827E+03  0.39763600721E+04  0.39001175942E+04 0.  0.
        2    1    3    3  502    0 -0.51922606805E+03  0.16456327460E+04 -0.53859917831E+03  0.18077034932E+04  0.25500000920E-02 0. -1.
       -2    1    3    3    0  502  0.51922606805E+03 -0.16456327460E+04  0.13135328366E+04  0.21686565789E+04  0.25500000920E-02 0.  1.
</event>
<event>
 5   0  0.2904500E-09  0.3900757E+04  0.7818609E-02  0.8024872E-01
       -1   -1    0    0    0  501  0.00000000000E+00  0.00000000000E+00  0.31326765719E+04  0.31326765719E+04  0.50400001928E-02 0. -1.
        1   -1    0    0  501    0  0.00000000000E+00  0.00000000000E+00 -0.12142897765E+04  0.12142897765E+04  0.50400001928E-02 0.  1.
    10030    2    1    2    0    0  0.00000000000E+00  0.00000000000E+00  0.19183867954E+04  0.43469663484E+04  0.39007574313E+04 0.  0.
        3    1    3    3  502    0 -0.47055902101E+02 -0.15867332532E+03  0.31248370782E+04  0.31292168761E+04  0.10100000352E+00 0. -1.
       -3    1    3    3    0  502  0.47055902101E+02  0.15867332532E+03 -0.12064502829E+04  0.12177494723E+04  0.10100000352E+00 0.  1.
</event>
<event>
 5   0  0.2904500E-09  0.3902719E+04  0.7818609E-02  0.8024464E-01
       -1   -1    0    0    0  501  0.00000000000E+00  0.00000000000E+00  0.21113385333E+04  0.21113385333E+04  0.50400001928E-02 0.  1.
        1   -1    0    0  501    0  0.00000000000E+00  0.00000000000E+00 -0.18035024331E+04  0.18035024331E+04  0.50400001928E-02 0. -1.
    10030    2    1    2    0    0  0.00000000000E+00  0.00000000000E+00  0.30783610015E+03  0.39148409664E+04  0.39027191454E+04 0.  0.
        2    1    3    3  502    0 -0.62102517337E+03 -0.18440110552E+03  0.20003220805E+04  0.21026089649E+04  0.25500000920E-02 0.  1.
       -2    1    3    3    0  502  0.62102517337E+03  0.18440110552E+03 -0.16924859803E+04  0.18122320015E+04  0.25500000920E-02 0. -1.
</event>
<event>
 5   0  0.9434114E-09  0.3900259E+04  0.7818609E-02  0.8024975E-01
       -2   -1    0    0    0  501  0.00000000000E+00  0.00000000000E+00  0.24479617893E+04  0.24479617893E+04  0.25500000920E-02 0. -1.
        2   -1    0    0  501    0  0.00000000000E+00  0.00000000000E+00 -0.15535397064E+04  0.15535397064E+04  0.25500000920E-02 0.  1.
    10030    2    1    2    0    0  0.00000000000E+00  0.00000000000E+00  0.89442208289E+03  0.40015014957E+04  0.39002593962E+04 0.  0.
        4    1    3    3  502    0  0.12959275253E+04 -0.34574739243E+02 -0.10474445525E+04  0.16666629133E+04  0.12699999809E+01 0.  1.
       -4    1    3    3    0  502 -0.12959275253E+04  0.34574739243E+02  0.19418666353E+04  0.23348385824E+04  0.12699999809E+01 0. -1.
</event>
<event>
 5   0  0.9368546E-09  0.3899110E+04  0.7818609E-02  0.8025214E-01
        2   -1    0    0  501    0  0.00000000000E+00  0.00000000000E+00  0.15341382834E+04  0.15341382834E+04  0.25500000920E-02 0. -1.
       -2   -1    0    0    0  501  0.00000000000E+00  0.00000000000E+00 -0.24774593891E+04  0.24774593891E+04  0.25500000920E-02 0.  1.
    10030    2    1    2    0    0  0.00000000000E+00  0.00000000000E+00 -0.94332110566E+03  0.40115976725E+04  0.38991103059E+04 0.  0.
        5    1    3    3  502    0  0.66040163040E+03 -0.16811667940E+04  0.28318908234E+03  0.18282970899E+04  0.46999998093E+01 0. -1.
       -5    1    3    3    0  502 -0.66040163040E+03  0.16811667940E+04 -0.12265101880E+04  0.21833005826E+04  0.46999998093E+01 0.  1.
</event>
<event>
 5   0  0.2904500E-09  0.3901030E+04  0.7818609E-02  0.8024815E-01
       -1   -1    0    0    0  501  0.00000000000E+00  0.00000000000E+00  0.14561181014E+04  0.14561181014E+04  0.50400001928E-02 0.  1.
        1   -1    0    0  501    0  0.00000000000E+00  0.00000000000E+00 -0.26127747826E+04  0.26127747826E+04  0.50400001928E-02 0. -1.
    10030    2    1    2    0    0  0.00000000000E+00  0.00000000000E+00 -0.11566566812E+04  0.40688928840E+04  0.39010299439E+04 0.  0.
        5    1    3    3  502    0 -0.18285814120E+04 -0.55420200313E+03 -0.16949670553E+03  0.19182286266E+04  0.46999998093E+01 0.  1.
       -5    1    3    3    0  502  0.18285814120E+04  0.55420200313E+03 -0.98715997567E+03  0.21506642574E+04  0.46999998093E+01 0. -1.
</event>
<event>
 5   0  0.9078515E-09  0.3906782E+04  0.7818609E-02  0.8023620E-01
       -2   -1    0    0    0  501  0.00000000000E+00  0.00000000000E+00  0.20016181048E+04  0.20016181048E+04  0.25500000920E-02 0. -1.
        2   -1    0    0  501    0  0.00000000000E+00  0.00000000000E+00 -0.19063263646E+04  0.19063263646E+04  0.25500000920E-02 0.  1.
    10030    2    1    2    0    0  0.00000000000E+00  0.00000000000E+00  0.95291740193E+02  0.39079444693E+04  0.39067824945E+04 0.  0.
        3    1    3    3  502    0 -0.18710512649E+04 -0.47412606838E+03  0.34791674665E+03  0.19612940722E+04  0.10100000352E+00 0. -1.
       -3    1    3    3    0  502  0.18710512649E+04  0.47412606838E+03 -0.25262500646E+03  0.19466503972E+04  0.10100000352E+00 0.  1.
</event>
<event>
 5   0  0.9368546E-09  0.3899175E+04  0.7818609E-02  0.8025201E-01
        2   -1    0    0  501    0  0.00000000000E+00  0.00000000000E+00  0.17541088660E+04  0.17541088660E+04  0.25500000920E-02 0.  1.
       -2   -1    0    0    0  501  0.00000000000E+00  0.00000000000E+00 -0.21668507048E+04  0.21668507048E+04  0.25500000920E-02 0. -1.
    10030    2    1    2    0    0  0.00000000000E+00  0.00000000000E+00 -0.41274183878E+03  0.39209595708E+04  0.38991753141E+04 0.  0.
        5    1    3    3  502    0 -0.60617334905E+03  0.17914590330E+04  0.26966412792E+03  0.19103697097E+04  0.46999998093E+01 0. -1.
       -5    1    3    3    0  502  0.60617334905E+03 -0.17914590330E+04 -0.68240596670E+03  0.20105898611E+04  0.46999998093E+01 0.  1.
</event>
<event>
 5   0  0.2904500E-09  0.3900853E+04  0.7818609E-02  0.8024852E-01
        1   -1    0    0  501    0  0.00000000000E+00  0.00000000000E+00  0.30392113691E+04  0.30392113691E+04  0.50400001928E-02 0.  1.
       -1   -1    0    0    0  501  0.00000000000E+00  0.00000000000E+00 -0.12516942546E+04  0.12516942546E+04  0.50400001928E-02 0. -1.
    10030    2    1    2    0    0  0.00000000000E+00  0.00000000000E+00  0.17875171145E+04  0.42909056237E+04  0.39008529371E+04 0.  0.
        3    1    3    3  502    0 -0.10424724548E+04 -0.85724883426E+03 -0.65505897601E+03  0.15002421988E+04  0.10100000352E+00 0. -1.
       -3    1    3    3    0  502  0.10424724548E+04  0.85724883426E+03  0.24425760905E+04  0.27906634249E+04  0.10100000352E+00 0.  1.
</event>
<event>
 5   0  0.2904500E-09  0.3898143E+04  0.7818609E-02  0.8025416E-01
        1   -1    0    0  501    0  0.00000000000E+00  0.00000000000E+00  0.20619781964E+04  0.20619781964E+04  0.50400001928E-02 0. -1.
       -1   -1    0    0    0  501  0.00000000000E+00  0.00000000000E+00 -0.18423472007E+04  0.18423472008E+04  0.50400001928E-02 0.  1.
    10030    2    1    2    0    0  0.00000000000E+00  0.00000000000E+00  0.21963099561E+03  0.39043253971E+04  0.38981430236E+04 0.  0.
        3    1    3    3  502    0  0.77008784874E+03  0.15484402079E+04 -0.79059713722E+03  0.19015115608E+04  0.10100000352E+00 0.  1.
       -3    1    3    3    0  502 -0.77008784874E+03 -0.15484402079E+04  0.10102281328E+04  0.20028138363E+04  0.10100000352E+00 0. -1.
</event>
<event>
 5   0  0.6335942E-09  0.3896532E+04  0.7818609E-02  0.8025751E-01
       -2   -1    0    0    0  501  0.00000000000E+00  0.00000000000E+00  0.15855970740E+04  0.15855970740E+04  0.25500000920E-02 0.  1.
        2   -1    0    0  501    0  0.00000000000E+00  0.00000000000E+00 -0.23938867019E+04  0.23938867019E+04  0.25500000920E-02 0. -1.
    10030    2    1    2    0    0  0.00000000000E+00  0.00000000000E+00 -0.80828962783E+03  0.39794837759E+04  0.38965316629E+04 0.  0.
        2    1    3    3  502    0  0.12171452726E+04 -0.13768346373E+04 -0.10649300634E+04  0.21239567493E+04  0.25500000920E-02 0. -1.
       -2    1    3    3    0  502 -0.12171452726E+04  0.13768346373E+04  0.25664043560E+03  0.18555270266E+04  0.25500000920E-02 0.  1.
</event>
<event>
 5   0  0.9277261E-09  0.3900154E+04  0.7818609E-02  0.8024997E-01
        2   -1    0    0  501    0  0.00000000000E+00  0.00000000000E+00  0.20840364248E+04  0.20840364248E+04  0.25500000920E-02 0. -1.
       -2   -1    0    0    0  501  0.00000000000E+00  0.00000000000E+00 -0.18247287385E+04  0.18247287385E+04  0.25500000920E-02 0.  1.
    10030    2    1    2    0    0  0.00000000000E+00  0.00000000000E+00  0.25930768632E+03  0.39087651633E+04  0.39001544361E+04 0.  0.
        1    1    3    3  502    0  0.15978832817E+04 -0.84568920812E+02  0.12467529115E+04  0.20284909925E+04  0.50400001928E-02 0. -1.
       -1    1    3    3    0  502 -0.15978832817E+04  0.84568920812E+02 -0.98744522519E+03  0.18802741708E+04  0.50400001928E-02 0.  1.
</event>
<event>
 5   0  0.2929054E-09  0.3897993E+04  0.7818609E-02  0.8025447E-01
        1   -1    0    0  501    0  0.00000000000E+00  0.00000000000E+00  0.17791243500E+04  0.17791243500E+04  0.50400001928E-02 0.  1.
       -1   -1    0    0    0  501  0.00000000000E+00  0.00000000000E+00 -0.21350886684E+04  0.21350886684E+04  0.50400001928E-02 0. -1.
    10030    2    1    2    0    0  0.00000000000E+00  0.00000000000E+00 -0.35596431843E+03  0.39142130185E+04  0.38979934528E+04 0.  0.
        1    1    3    3  502    0 -0.93999637750E+03 -0.62402708288E+03 -0.17738038652E+04  0.21022328943E+04  0.50400001928E-02 0. -1.
       -1    1    3    3    0  502  0.93999637750E+03  0.62402708288E+03  0.14178395468E+04  0.18119801241E+04  0.50400001928E-02 0.  1.
</event>
<event>
 5   0  0.9434114E-09  0.3900329E+04  0.7818609E-02  0.8024961E-01
       -2   -1    0    0    0  501  0.00000000000E+00  0.00000000000E+00  0.19191471134E+04  0.19191471134E+04  0.25500000920E-02 0.  1.
        2   -1    0    0  501    0  0.00000000000E+00  0.00000000000E+00 -0.19816830029E+04  0.19816830029E+04  0.25500000920E-02 0. -1.
    10030    2    1    2    0    0  0.00000000000E+00  0.00000000000E+00 -0.62535889540E+02  0.39008301163E+04  0.39003288142E+04 0.  0.
        4    1    3    3  502    0 -0.18674700050E+02  0.14517206273E+04  0.12709355312E+04  0.19295388728E+04  0.12699999809E+01 0.  1.
       -4    1    3    3    0  502  0.18674700050E+02 -0.14517206273E+04 -0.13334714208E+04  0.19712912436E+04  0.12699999809E+01 0. -1.
</event>
<event>
 5   0  0.9277261E-09  0.3898734E+04  0.7818609E-02  0.8025292E-01
        2   -1    0    0  501    0  0.00000000000E+00  0.00000000000E+00  0.20371031932E+04  0.20371031932E+04  0.25500000920E-02 0. -1.
       -2   -1    0    0    0  501  0.00000000000E+00  0.00000000000E+00 -0.18654099346E+04  0.18654099346E+04  0.25500000920E-02 0.  1.
    10030    2    1    2    0    0  0.00000000000E+00  0.00000000000E+00  0.17169325853E+03  0.39025131278E+04  0.38987344277E+04 0.  0.
        1    1    3    3  502    0  0.13291419930E+04 -0.13860075198E+04  0.42142855799E+03  0.19660206795E+04  0.50400001928E-02 0.  1.
       -1    1    3    3    0  502 -0.13291419930E+04  0.13860075198E+04 -0.24973529947E+03  0.19364924483E+04  0.50400001928E-02 0. -1.
</event>
<event>
 5   0  0.9368546E-09  0.3898722E+04  0.7818609E-02  0.8025295E-01
        2   -1    0    0  501    0  0.00000000000E+00  0.00000000000E+00  0.16742690923E+04  0.16742690923E+04  0.25500000920E-02 0.  1.
       -2   -1    0    0    0  501  0.00000000000E+00  0.00000000000E+00 -0.22696522498E+04  0.22696522498E+04  0.25500000920E-02 0. -1.
    10030    2    1    2    0    0  0.00000000000E+00  0.00000000000E+00 -0.59538315752E+03  0.39439213422E+04  0.38987221559E+04 0.  0.
        5    1    3    3  502    0  0.13582987874E+04 -0.10683072709E+04  0.61483654094E+03  0.18342033919E+04  0.46999998093E+01 0.  1.
       -5    1    3    3    0  502 -0.13582987874E+04  0.10683072709E+04 -0.12102196985E+04  0.21097179502E+04  0.46999998093E+01 0. -1.
</event>
<event>
 5   0  0.9277261E-09  0.3899834E+04  0.7818609E-02  0.8025064E-01
        2   -1    0    0  501    0  0.00000000000E+00  0.00000000000E+00  0.24756463643E+04  0.24756463643E+04  0.25500000920E-02 0.  1.
       -2   -1    0    0    0  501  0.00000000000E+00  0.00000000000E+00 -0.15358318675E+04  0.15358318675E+04  0.25500000920E-02 0. -1.
    10030    2    1    2    0    0  0.00000000000E+00  0.00000000000E+00  0.93981449687E+03  0.40114782318E+04  0.38998341395E+04 0.  0.
        1    1    3    3  502    0  0.81613706818E+03  0.41705999478E+03  0.22402705573E+04  0.24205022048E+04  0.50400001928E-02 0.  1.
       -1    1    3    3    0  502 -0.81613706818E+03 -0.41705999478E+03 -0.13004560605E+04  0.15909760270E+04  0.50400001928E-02 0. -1.
</event>
<event>
 5   0  0.2904500E-09  0.3895239E+04  0.7818609E-02  0.8026020E-01
       -1   -1    0    0    0  501  0.00000000000E+00  0.00000000000E+00  0.23783441984E+04  0.23783441984E+04  0.50400001928E-02 0. -1.
        1   -1    0    0  501    0  0.00000000000E+00  0.00000000000E+00 -0.15948999884E+04  0.15948999884E+04  0.50400001928E-02 0.  1.
    10030    2    1    2    0    0  0.00000000000E+00  0.00000000000E+00  0.78344420998E+03  0.39732441867E+04  0.38952387009E+04 0.  0.
        4    1    3    3  502    0 -0.55233434088E+03  0.36485912213E+03 -0.14766311950E+04  0.16182202267E+04  0.12699999809E+01 0.  1.
       -4    1    3    3    0  502  0.55233434088E+03 -0.36485912213E+03  0.22600754050E+04  0.23550239600E+04  0.12699999809E+01 0. -1.
</event>
<event>
 5   0  0.2929054E-09  0.3899116E+04  0.7818609E-02  0.8025213E-01
        1   -1    0    0  501    0  0.00000000000E+00  0.00000000000E+00  0.13296190394E+04  0.13296190394E+04  0.50400001928E-02 0.  1.
       -1   -1    0    0    0  501  0.00000000000E+00  0.00000000000E+00 -0.28585450228E+04  0.28585450228E+04  0.50400001928E-02 0. -1.
    10030    2    1    2    0    0  0.00000000000E+00  0.00000000000E+00 -0.15289259835E+04  0.41881640622E+04  0.38991157394E+04 0.  0.
        1    1    3    3  502    0  0.17103905246E+04  0.47239456646E+03 -0.16319090290E+04  0.24107508067E+04  0.50400001928E-02 0.  1.
       -1    1    3    3    0  502 -0.17103905246E+04 -0.47239456646E+03  0.10298304553E+03  0.17774132555E+04  0.50400001928E-02 0. -1.
</event>
<event>
 5   0  0.2929054E-09  0.3896674E+04  0.7818609E-02  0.8025721E-01
       -1   -1    0    0    0  501  0.00000000000E+00  0.00000000000E+00  0.11915933178E+04  0.11915933178E+04  0.50400001928E-02 0.  1.
        1   -1    0    0  501    0  0.00000000000E+00  0.00000000000E+00 -0.31856653460E+04  0.31856653461E+04  0.50400001928E-02 0. -1.
    10030    2    1    2    0    0  0.00000000000E+00  0.00000000000E+00 -0.19940720282E+04  0.43772586639E+04  0.38966742431E+04 0.  0.
        1    1    3    3  502    0 -0.18917186101E+04  0.37316215579E+03 -0.13111037259E+04  0.23317037278E+04  0.50400001928E-02 0.  1.
       -1    1    3    3    0  502  0.18917186101E+04 -0.37316215579E+03 -0.68296830232E+03  0.20455549360E+04  0.50400001928E-02 0. -1.
</event>
<event>
 5   0  0.9078515E-09  0.3899349E+04  0.7818609E-02  0.8025165E-01
       -2   -1    0    0    0  501  0.00000000000E+00  0.00000000000E+00  0.13936014437E+04  0.13936014437E+04  0.25500000920E-02 0.  1.
        2   -1    0    0  501    0  0.00000000000E+00  0.00000000000E+00 -0.27276315656E+04  0.27276315656E+04  0.25500000920E-02 0. -1.
    10030    2    1    2    0    0  0.00000000000E+00  0.00000000000E+00 -0.13340301219E+04  0.41212330093E+04  0.38993493240E+04 0.  0.
        3    1    3    3  502    0  0.64115131932E+03  0.69519639689E+02 -0.26116366389E+04  0.26900843738E+04  0.10100000352E+00 0. -1.
       -3    1    3    3    0  502 -0.64115131932E+03 -0.69519639689E+02  0.12776065169E+04  0.14311486355E+04  0.10100000352E+00 0.  1.
</event>
<event>
 5   0  0.9434114E-09  0.3897401E+04  0.7818609E-02  0.8025570E-01
        2   -1    0    0  501    0  0.00000000000E+00  0.00000000000E+00  0.23485173865E+04  0.23485173865E+04  0.25500000920E-02 0. -1.
       -2   -1    0    0    0  501  0.00000000000E+00  0.00000000000E+00 -0.16169489840E+04  0.16169489840E+04  0.25500000920E-02 0.  1.
    10030    2    1    2    0    0  0.00000000000E+00  0.00000000000E+00  0.73156840246E+03  0.39654663705E+04  0.38974005707E+04 0.  0.
        4    1    3    3  502    0  0.65469859436E+03 -0.36367982824E+03  0.21962413934E+04  0.23204247753E+04  0.12699999809E+01 0. -1.
       -4    1    3    3    0  502 -0.65469859436E+03  0.36367982824E+03 -0.14646729909E+04  0.16450415952E+04  0.12699999809E+01 0.  1.
</event>
<event>
 5   0  0.2904500E-09  0.3899878E+04  0.7818609E-02  0.8025055E-01
        1   -1    0    0  501    0  0.00000000000E+00  0.00000000000E+00  0.16570721828E+04  0.16570721828E+04  0.50400001928E-02 0. -1.
       -1   -1    0    0    0  501  0.00000000000E+00  0.00000000000E+00 -0.22945667633E+04  0.22945667633E+04  0.50400001928E-02 0.  1.
    10030    2    1    2    0    0  0.00000000000E+00  0.00000000000E+00 -0.63749458048E+03  0.39516389460E+04  0.38998783340E+04 0.  0.
        3    1    3    3  502    0  0.51101531430E+03  0.18324813923E+03 -0.22164487842E+04  0.22819644509E+04  0.10100000352E+00 0.  1.
       -3    1    3    3    0  502 -0.51101531430E+03 -0.18324813923E+03  0.15789542037E+04  0.16696744951E+04  0.10100000352E+00 0. -1.
</event>
<event>
 5   0  0.2904500E-09  0.3902451E+04  0.7818609E-02  0.8024520E-01
       -1   -1    0    0    0  501  0.00000000000E+00  0.00000000000E+00  0.23656965189E+04  0.23656965189E+04  0.50400001928E-02 0. -1.
        1   -1    0    0  501    0  0.00000000000E+00  0.00000000000E+00 -0.16093697247E+04  0.16093697247E+04  0.50400001928E-02 0.  1.
    10030    2    1    2    0    0  0.00000000000E+00  0.00000000000E+00  0.75632679426E+03  0.39750662436E+04  0.39024506943E+04 0.  0.
        3    1    3    3  502    0 -0.26309505828E+03  0.90603597828E+03 -0.13615875488E+04  0.16565146745E+04  0.10100000352E+00 0.  1.
       -3    1    3    3    0  502  0.26309505828E+03 -0.90603597828E+03  0.21179143431E+04  0.23185515691E+04  0.10100000352E+00 0. -1.
</event>
<event>
 5   0  0.9434114E-09  0.3903942E+04  0.7818609E-02  0.8024210E-01
       -2   -1    0    0    0  501  0.00000000000E+00  0.00000000000E+00  0.17971672654E+04  0.17971672654E+04  0.25500000920E-02 0.  1.
        2   -1    0    0  501    0  0.00000000000E+00  0.00000000000E+00 -0.21201093400E+04  0.21201093400E+04  0.25500000920E-02 0. -1.
    10030    2    1    2    0    0  0.00000000000E+00  0.00000000000E+00 -0.32294207465E+03  0.39172766054E+04  0.39039421639E+04 0.  0.
        4    1    3    3  502    0 -0.95114783252E+03 -0.14181975512E+04 -0.11103346258E+04  0.20368630508E+04  0.12699999809E+01 0. -1.
       -4    1    3    3    0  502  0.95114783252E+03  0.14181975512E+04  0.78739255119E+03  0.18804135545E+04  0.12699999809E+01 0.  1.
</event>
<event>
 5   0  0.2929054E-09  0.3907135E+04  0.7818609E-02  0.8023547E-01
       -1   -1    0    0    0  501  0.00000000000E+00  0.00000000000E+00  0.15801333833E+04  0.15801333833E+04  0.50400001928E-02 0.  1.
        1   -1    0    0  501    0  0.00000000000E+00  0.00000000000E+00 -0.24152551667E+04  0.24152551667E+04  0.50400001928E-02 0. -1.
    10030    2    1    2    0    0  0.00000000000E+00  0.00000000000E+00 -0.83512178344E+03  0.39953885500E+04  0.39071346627E+04 0.  0.
        1    1    3    3  502    0  0.63211961127E+03 -0.49224866708E+03 -0.22395305323E+04  0.23785249543E+04  0.50400001928E-02 0. -1.
       -1    1    3    3    0  502 -0.63211961127E+03  0.49224866708E+03  0.14044087488E+04  0.16168635957E+04  0.50400001928E-02 0.  1.
</event>
<event>
 5   0  0.2904500E-09  0.3899888E+04  0.7818609E-02  0.8025052E-01
       -1   -1    0    0    0  501  0.00000000000E+00  0.00000000000E+00  0.15552581398E+04  0.15552581398E+04  0.50400001928E-02 0.  1.
        1   -1    0    0  501    0  0.00000000000E+00  0.00000000000E+00 -0.24447913834E+04  0.24447913834E+04  0.50400001928E-02 0. -1.
    10030    2    1    2    0    0  0.00000000000E+00  0.00000000000E+00 -0.88953324359E+03  0.40000495232E+04  0.38998880493E+04 0.  0.
        2    1    3    3  502    0  0.22521376351E+03 -0.76181827397E+03  0.13817540462E+04  0.15938420769E+04  0.25500000920E-02 0.  1.
       -2    1    3    3    0  502 -0.22521376351E+03  0.76181827397E+03 -0.22712872898E+04  0.24062074463E+04  0.25500000920E-02 0. -1.
</event>
<event>
 5   0  0.2904500E-09  0.3905038E+04  0.7818609E-02  0.8023982E-01
        1   -1    0    0  501    0  0.00000000000E+00  0.00000000000E+00  0.23380391098E+04  0.23380391098E+04  0.50400001928E-02 0. -1.
       -1   -1    0    0    0  501  0.00000000000E+00  0.00000000000E+00 -0.16305674109E+04  0.16305674109E+04  0.50400001928E-02 0.  1.
    10030    2    1    2    0    0  0.00000000000E+00  0.00000000000E+00  0.70747169890E+03  0.39686065207E+04  0.39050379655E+04 0.  0.
        4    1    3    3  502    0  0.51177415737E+03 -0.74491096329E+03  0.21126682798E+04  0.22978629212E+04  0.12699999809E+01 0. -1.
       -4    1    3    3    0  502 -0.51177415737E+03  0.74491096329E+03 -0.14051965809E+04  0.16707435995E+04  0.12699999809E+01 0.  1.
</event>
<event>
 5   0  0.2904500E-09  0.3900917E+04  0.7818609E-02  0.8024838E-01
        1   -1    0    0  501    0  0.00000000000E+00  0.00000000000E+00  0.19564464981E+04  0.19564464981E+04  0.50400001928E-02 0. -1.
       -1   -1    0    0    0  501  0.00000000000E+00  0.00000000000E+00 -0.19444891967E+04  0.19444891967E+04  0.50400001928E-02 0.  1.
    10030    2    1    2    0    0  0.00000000000E+00  0.00000000000E+00  0.11957301397E+02  0.39009356948E+04  0.39009173687E+04 0.  0.
        2    1    3    3  502    0  0.16333704142E+04  0.10654067931E+04 -0.30056705739E+02  0.19503573904E+04  0.25500000920E-02 0. -1.
       -2    1    3    3    0  502 -0.16333704142E+04 -0.10654067931E+04  0.42014007136E+02  0.19505783044E+04  0.25500000920E-02 0.  1.
</event>
<event>
 5   0  0.2904500E-09  0.3900894E+04  0.7818609E-02  0.8024843E-01
       -1   -1    0    0    0  501  0.00000000000E+00  0.00000000000E+00  0.16811302472E+04  0.16811302472E+04  0.50400001928E-02 0. -1.
        1   -1    0    0  501    0  0.00000000000E+00  0.00000000000E+00 -0.22629077784E+04  0.22629077784E+04  0.50400001928E-02 0.  1.
    10030    2    1    2    0    0  0.00000000000E+00  0.00000000000E+00 -0.58177753115E+03  0.39440380256E+04  0.39008935965E+04 0.  0.
        4    1    3    3  502    0  0.81815865366E+03  0.31388066679E+03  0.14708922882E+04  0.17121420478E+04  0.12699999809E+01 0. -1.
       -4    1    3    3    0  502 -0.81815865366E+03 -0.31388066679E+03 -0.20526698193E+04  0.22318959778E+04  0.12699999809E+01 0.  1.
</event>
<event>
 5   0  0.2904500E-09  0.3899838E+04  0.7818609E-02  0.8025063E-01
        1   -1    0    0  501    0  0.00000000000E+00  0.00000000000E+00  0.18583721981E+04  0.18583721981E+04  0.50400001928E-02 0.  1.
       -1   -1    0    0    0  501  0.00000000000E+00  0.00000000000E+00 -0.20459760427E+04  0.20459760427E+04  0.50400001928E-02 0. -1.
    10030    2    1    2    0    0  0.00000000000E+00  0.00000000000E+00 -0.18760384461E+03  0.39043482409E+04  0.38998384561E+04 0.  0.
        3    1    3    3  502    0  0.29170506558E+03  0.12370703371E+04 -0.15742783910E+04  0.20233109813E+04  0.10100000352E+00 0. -1.
       -3    1    3    3    0  502 -0.29170506558E+03 -0.12370703371E+04  0.13866745464E+04  0.18810372596E+04  0.10100000352E+00 0.  1.
</event>
<event>
 5   0  0.2904500E-09  0.3901518E+04  0.7818609E-02  0.8024713E-01
       -1   -1    0    0    0  501  0.00000000000E+00  0.00000000000E+00  0.15708335750E+04  0.15708335750E+04  0.50400001928E-02 0. -1.
        1   -1    0    0  501    0  0.00000000000E+00  0.00000000000E+00 -0.24225746799E+04  0.24225746799E+04  0.50400001928E-02 0.  1.
    10030    2    1    2    0    0  0.00000000000E+00  0.00000000000E+00 -0.85174110495E+03  0.39934082549E+04  0.39015184967E+04 0.  0.
        4    1    3    3  502    0 -0.84971047277E+03  0.60513129319E+03  0.12613672582E+04  0.16368386428E+04  0.12699999809E+01 0. -1.
       -4    1    3    3    0  502  0.84971047277E+03 -0.60513129319E+03 -0.21131083631E+04  0.23565696121E+04  0.12699999809E+01 0.  1.
</event>
<event>
 5   0  0.9078515E-09  0.3898973E+04  0.7818609E-02  0.8025243E-01
        2   -1    0    0  501    0  0.00000000000E+00  0.00000000000E+00  0.30331495667E+04  0.30331495667E+04  0.25500000920E-02 0. -1.
       -2   -1    0    0    0  501  0.00000000000E+00  0.00000000000E+00 -0.12529873514E+04  0.12529873514E+04  0.25500000920E-02 0.  1.
    10030    2    1    2    0    0  0.00000000000E+00  0.00000000000E+00  0.17801622152E+04  0.42861369181E+04  0.38989732197E+04 0.  0.
        3    1    3    3  502    0  0.13786569243E+04 -0.13783237263E+04  0.89577443824E+03  0.21454330713E+04  0.10100000352E+00 0.  1.
       -3    1    3    3    0  502 -0.13786569243E+04  0.13783237263E+04  0.88438777698E+03  0.21407038468E+04  0.10100000352E+00 0. -1.
</event>
<event>
 5   0  0.2904500E-09  0.3900536E+04  0.7818609E-02  0.8024918E-01
       -1   -1    0    0    0  501  0.00000000000E+00  0.00000000000E+00  0.27569302260E+04  0.27569302260E+04  0.50400001928E-02 0.  1.
        1   -1    0    0  501    0  0.00000000000E+00  0.00000000000E+00 -0.13796303684E+04  0.13796303684E+04  0.50400001928E-02 0. -1.
    10030    2    1    2    0    0  0.00000000000E+00  0.00000000000E+00  0.13772998575E+04  0.41365605944E+04  0.39005356880E+04 0.  0.
        2    1    3    3  502    0  0.17876810689E+04 -0.36114795226E+03  0.14213341928E+04  0.23122331922E+04  0.25500000920E-02 0.  1.
       -2    1    3    3    0  502 -0.17876810689E+04  0.36114795226E+03 -0.44034335235E+02  0.18243274022E+04  0.25500000920E-02 0. -1.
</event>
<event>
 5   0  0.2904500E-09  0.3900863E+04  0.7818609E-02  0.8024850E-01
       -1   -1    0    0    0  501  0.00000000000E+00  0.00000000000E+00  0.17861310081E+04  0.17861310081E+04  0.50400001928E-02 0.  1.
        1   -1    0    0  501    0  0.00000000000E+00  0.00000000000E+00 -0.21298450157E+04  0.21298450157E+04  0.50400001928E-02 0. -1.
    10030    2    1    2    0    0  0.00000000000E+00  0.00000000000E+00 -0.34371400759E+03  0.39159760238E+04  0.39008625840E+04 0.  0.
        3    1    3    3  502    0  0.13002658916E+03  0.80815588113E+03  0.16053577534E+04  0.18019978825E+04  0.10100000352E+00 0.  1.
       -3    1    3    3    0  502 -0.13002658916E+03 -0.80815588113E+03 -0.19490717610E+04  0.21139781412E+04  0.10100000352E+00 0. -1.
</event>
<event>
 5   0  0.9368546E-09  0.3898710E+04  0.7818609E-02  0.8025298E-01
       -2   -1    0    0    0  501  0.00000000000E+00  0.00000000000E+00  0.21411850731E+04  0.21411850731E+04  0.25500000920E-02 0. -1.
        2   -1    0    0  501    0  0.00000000000E+00  0.00000000000E+00 -0.17747106615E+04  0.17747106615E+04  0.25500000920E-02 0.  1.
    10030    2    1    2    0    0  0.00000000000E+00  0.00000000000E+00  0.36647441161E+03  0.39158957345E+04  0.38987095185E+04 0.  0.
        5    1    3    3  502    0  0.93857208971E+03  0.16496183217E+04 -0.26347463098E+03  0.19161417344E+04  0.46999998093E+01 0. -1.
       -5    1    3    3    0  502 -0.93857208971E+03 -0.16496183217E+04  0.62994904259E+03  0.19997540002E+04  0.46999998093E+01 0.  1.
</event>
<event>
 5   0  0.9277261E-09  0.3901897E+04  0.7818609E-02  0.8024635E-01
        2   -1    0    0  501    0  0.00000000000E+00  0.00000000000E+00  0.28405927995E+04  0.28405927995E+04  0.25500000920E-02 0. -1.
       -2   -1    0    0    0  501  0.00000000000E+00  0.00000000000E+00 -0.13399317227E+04  0.13399317227E+04  0.25500000920E-02 0.  1.
    10030    2    1    2    0    0  0.00000000000E+00  0.00000000000E+00  0.15006610769E+04  0.41805245222E+04  0.39018971812E+04 0.  0.
        1    1    3    3  502    0  0.73230182805E+03 -0.16825592869E+04  0.14601565901E+04  0.23450648155E+04  0.50400001928E-02 0. -1.
       -1    1    3    3    0  502 -0.73230182805E+03  0.16825592869E+04  0.40504486766E+02  0.18354597067E+04  0.50400001928E-02 0.  1.
</event>
<event>
 5   0  0.2929054E-09  0.3898402E+04  0.7818609E-02  0.8025362E-01
        1   -1    0    0  501    0  0.00000000000E+00  0.00000000000E+00  0.18730601902E+04  0.18730601902E+04  0.50400001928E-02 0.  1.
       -1   -1    0    0    0  501  0.00000000000E+00  0.00000000000E+00 -0.20284366473E+04  0.20284366473E+04  0.50400001928E-02 0. -1.
    10030    2    1    2    0    0  0.00000000000E+00  0.00000000000E+00 -0.15537645709E+03  0.39014968375E+04  0.38984016891E+04 0.  0.
        1    1    3    3  502    0  0.64540108070E+03  0.16548193831E+04  0.72570324650E+03  0.19187534880E+04  0.50400001928E-02 0.  1.
       -1    1    3    3    0  502 -0.64540108070E+03 -0.16548193831E+04 -0.88107970359E+03  0.19827433495E+04  0.50400001928E-02 0. -1.
</event>
<event>
 5   0  0.6335942E-09  0.3898746E+04  0.7818609E-02  0.8025290E-01
       -2   -1    0    0    0  501  0.00000000000E+00  0.00000000000E+00  0.29250880051E+04  0.29250880051E+04  0.25500000920E-02 0. -1.
        2   -1    0    0  501    0  0.00000000000E+00  0.00000000000E+00 -0.12991253333E+04  0.12991253333E+04  0.25500000920E-02 0.  1.
    10030    2    1    2    0    0  0.00000000000E+00  0.00000000000E+00  0.16259626718E+04  0.42242133384E+04  0.38987464290E+04 0.  0.
        2    1    3    3  502    0 -0.11068075439E+03  0.12403447009E+04 -0.81200398405E+03  0.14866256007E+04  0.25500000920E-02 0.  1.
       -2    1    3    3    0  502  0.11068075439E+03 -0.12403447009E+04  0.24379666558E+04  0.27375877377E+04  0.25500000920E-02 0. -1.
</event>
<event>
 5   0  0.2904500E-09  0.3899813E+04  0.7818609E-02  0.8025068E-01
        1   -1    0    0  501    0  0.00000000000E+00  0.00000000000E+00  0.20190147360E+04  0.20190147360E+04  0.50400001928E-02 0. -1.
       -1   -1    0    0    0  501  0.00000000000E+00  0.00000000000E+00 -0.18831637754E+04  0.18831637755E+04  0.50400001928E-02 0.  1.
    10030    2    1    2    0    0  0.00000000000E+00  0.00000000000E+00  0.13585096059E+03  0.39021785115E+04  0.38998130278E+04 0.  0.
        5    1    3    3  502    0  0.11227287197E+04 -0.15758758249E+04  0.30933709053E+03  0.19594937916E+04  0.46999998093E+01 0.  1.
       -5    1    3    3    0  502 -0.11227287197E+04  0.15758758249E+04 -0.17348612993E+03  0.19426847199E+04  0.46999998093E+01 0. -1.
</event>
<event>
 5   0  0.2904500E-09  0.3900516E+04  0.7818609E-02  0.8024922E-01
       -1   -1    0    0    0  501  0.00000000000E+00  0.00000000000E+00  0.17636809691E+04  0.17636809691E+04  0.50400001928E-02 0. -1.
        1   -1    0    0  501    0  0.00000000000E+00  0.00000000000E+00 -0.21565729076E+04  0.21565729076E+04  0.50400001928E-02 0.  1.
    10030    2    1    2    0    0  0.00000000000E+00  0.00000000000E+00 -0.39289193854E+03  0.39202538767E+04  0.39005161687E+04 0.  0.
        4    1    3    3  502    0  0.18178165660E+04 -0.12084793486E+03 -0.89598791878E+03  0.20302357632E+04  0.12699999809E+01 0.  1.
       -4    1    3    3    0  502 -0.18178165660E+04  0.12084793486E+03  0.50309598025E+03  0.18900181134E+04  0.12699999809E+01 0. -1.
</event>
<event>
 5   0  0.2904500E-09  0.3908743E+04  0.7818609E-02  0.8023213E-01
        1   -1    0    0  501    0  0.00000000000E+00  0.00000000000E+00  0.19456890478E+04  0.19456890478E+04  0.50400001928E-02 0.  1.
       -1   -1    0    0    0  501  0.00000000000E+00  0.00000000000E+00 -0.19630926810E+04  0.19630926810E+04  0.50400001928E-02 0. -1.
    10030    2    1    2    0    0  0.00000000000E+00  0.00000000000E+00 -0.17403633195E+02  0.39087817288E+04  0.39087429842E+04 0.  0.
        3    1    3    3  502    0 -0.49043932159E+03  0.98696384708E+03 -0.16227003288E+04  0.19615771030E+04  0.10100000352E+00 0. -1.
       -3    1    3    3    0  502  0.49043932159E+03 -0.98696384708E+03  0.16052966956E+04  0.19472046258E+04  0.10100000352E+00 0.  1.
</event>
<event>
 5   0  0.2904500E-09  0.3900016E+04  0.7818609E-02  0.8025026E-01
        3   -1    0    0  501    0  0.00000000000E+00  0.00000000000E+00  0.15055869749E+04  0.15055869782E+04  0.10100000352E+00 0. -1.
       -3   -1    0    0    0  501  0.00000000000E+00  0.00000000000E+00 -0.25256133339E+04  0.25256133359E+04  0.10100000352E+00 0.  1.
    10030    2    1    2    0    0  0.00000000000E+00  0.00000000000E+00 -0.10200263590E+04  0.40312003141E+04  0.39000156666E+04 0.  0.
        3    1    3    3  502    0 -0.37706169581E+03 -0.17130126092E+04 -0.13906954109E+04  0.22384417476E+04  0.10100000352E+00 0.  1.
       -3    1    3    3    0  502  0.37706169581E+03  0.17130126092E+04  0.37066905184E+03  0.17927585665E+04  0.10100000352E+00 0. -1.
</event>
<event>
 5   0  0.9078515E-09  0.3901273E+04  0.7818609E-02  0.8024765E-01
       -2   -1    0    0    0  501  0.00000000000E+00  0.00000000000E+00  0.17203648172E+04  0.17203648172E+04  0.25500000920E-02 0.  1.
        2   -1    0    0  501    0  0.00000000000E+00  0.00000000000E+00 -0.22117296327E+04  0.22117296327E+04  0.25500000920E-02 0. -1.
    10030    2    1    2    0    0  0.00000000000E+00  0.00000000000E+00 -0.49136481547E+03  0.39320944498E+04  0.39012725335E+04 0.  0.
        3    1    3    3  502    0 -0.14111712840E+04 -0.51349324972E+03 -0.15004687639E+04  0.21228486126E+04  0.10100000352E+00 0. -1.
       -3    1    3    3    0  502  0.14111712840E+04  0.51349324972E+03  0.10091039485E+04  0.18092458372E+04  0.10100000352E+00 0.  1.
</event>
<event>
 5   0  0.6335942E-09  0.3900837E+04  0.7818609E-02  0.8024855E-01
        2   -1    0    0  501    0  0.00000000000E+00  0.00000000000E+00  0.28531114633E+04  0.28531114633E+04  0.25500000920E-02 0.  1.
       -2   -1    0    0    0  501  0.00000000000E+00  0.00000000000E+00 -0.13333278477E+04  0.13333278477E+04  0.25500000920E-02 0. -1.
    10030    2    1    2    0    0  0.00000000000E+00  0.00000000000E+00  0.15197836156E+04  0.41864393109E+04  0.39008373288E+04 0.  0.
        2    1    3    3  502    0 -0.83004055824E+03 -0.11297057511E+04 -0.69546547754E+03  0.15648880608E+04  0.25500000920E-02 0. -1.
       -2    1    3    3    0  502  0.83004055824E+03  0.11297057511E+04  0.22152490932E+04  0.26215512501E+04  0.25500000920E-02 0.  1.
</event>
<event>
 5   0  0.2904500E-09  0.3902414E+04  0.7818609E-02  0.8024527E-01
       -1   -1    0    0    0  501  0.00000000000E+00  0.00000000000E+00  0.32330263248E+04  0.32330263248E+04  0.50400001928E-02 0. -1.
        1   -1    0    0  501    0  0.00000000000E+00  0.00000000000E+00 -0.11775989101E+04  0.11775989102E+04  0.50400001928E-02 0.  1.
    10030    2    1    2    0    0  0.00000000000E+00  0.00000000000E+00  0.20554274147E+04  0.44106252350E+04  0.39024137539E+04 0.  0.
        4    1    3    3  502    0 -0.16784110124E+04 -0.29289470676E+03 -0.47108213296E+02  0.17044270686E+04  0.12699999809E+01 0.  1.
       -4    1    3    3    0  502  0.16784110124E+04  0.29289470676E+03  0.21025356280E+04  0.27061981663E+04  0.12699999809E+01 0. -1.
</event>
<event>
 5   0  0.2904500E-09  0.3896187E+04  0.7818609E-02  0.8025823E-01
        1   -1    0    0  501    0  0.00000000000E+00  0.00000000000E+00  0.15866756219E+04  0.15866756219E+04  0.50400001928E-02 0. -1.
       -1   -1    0    0    0  501  0.00000000000E+00  0.00000000000E+00 -0.23918356612E+04  0.23918356612E+04  0.50400001928E-02 0.  1.
    10030    2    1    2    0    0  0.00000000000E+00  0.00000000000E+00 -0.80516003928E+03  0.39785112831E+04  0.38961865126E+04 0.  0.
        5    1    3    3  502    0  0.48327508595E+03  0.14231812922E+04  0.86298041219E+03  0.17331350440E+04  0.46999998093E+01 0. -1.
       -5    1    3    3    0  502 -0.48327508595E+03 -0.14231812922E+04 -0.16681404515E+04  0.22453762391E+04  0.46999998093E+01 0.  1.
</event>
<event>
 5   0  0.9277261E-09  0.3899714E+04  0.7818609E-02  0.8025089E-01
       -2   -1    0    0    0  501  0.00000000000E+00  0.00000000000E+00  0.21245396751E+04  0.21245396751E+04  0.25500000920E-02 0. -1.
        2   -1    0    0  501    0  0.00000000000E+00  0.00000000000E+00 -0.17895370856E+04  0.17895370856E+04  0.25500000920E-02 0.  1.
    10030    2    1    2    0    0  0.00000000000E+00  0.00000000000E+00  0.33500258955E+03  0.39140767607E+04  0.38997141118E+04 0.  0.
        1    1    3    3  502    0  0.12887124168E+04  0.96752265541E+03 -0.93429523630E+03  0.18627365274E+04  0.50400001928E-02 0.  1.
       -1    1    3    3    0  502 -0.12887124168E+04 -0.96752265541E+03  0.12692978259E+04  0.20513402333E+04  0.50400001928E-02 0. -1.
</event>
<event>
 5   0  0.2904500E-09  0.3901180E+04  0.7818609E-02  0.8024784E-01
       -1   -1    0    0    0  501  0.00000000000E+00  0.00000000000E+00  0.20263830896E+04  0.20263830896E+04  0.50400001928E-02 0.  1.
        1   -1    0    0  501    0  0.00000000000E+00  0.00000000000E+00 -0.18776322179E+04  0.18776322179E+04  0.50400001928E-02 0. -1.
    10030    2    1    2    0    0  0.00000000000E+00  0.00000000000E+00  0.14875087176E+03  0.39040153075E+04  0.39011804239E+04 0.  0.
        2    1    3    3  502    0 -0.18562266732E+04  0.49388012504E+03 -0.26544036246E+03  0.19390599852E+04  0.25500000920E-02 0.  1.
       -2    1    3    3    0  502  0.18562266732E+04 -0.49388012504E+03  0.41419123422E+03  0.19649553223E+04  0.25500000920E-02 0. -1.
</event>
<event>
 5   0  0.9078515E-09  0.3904073E+04  0.7818609E-02  0.8024183E-01
        2   -1    0    0  501    0  0.00000000000E+00  0.00000000000E+00  0.26136532385E+04  0.26136532385E+04  0.25500000920E-02 0. -1.
       -2   -1    0    0    0  501  0.00000000000E+00  0.00000000000E+00 -0.14579005320E+04  0.14579005320E+04  0.25500000920E-02 0.  1.
    10030    2    1    2    0    0  0.00000000000E+00  0.00000000000E+00  0.11557527065E+04  0.40715537705E+04  0.39040729742E+04 0.  0.
        3    1    3    3  502    0 -0.71931480711E+03 -0.91489990400E+03 -0.10565133463E+04  0.15718384418E+04  0.10100000352E+00 0.  1.
       -3    1    3    3    0  502  0.71931480711E+03  0.91489990400E+03  0.22122660528E+04  0.24997153287E+04  0.10100000352E+00 0. -1.
</event>
<event>
 5   0  0.2904500E-09  0.3900017E+04  0.7818609E-02  0.8025026E-01
       -1   -1    0    0    0  501  0.00000000000E+00  0.00000000000E+00  0.29475664394E+04  0.29475664394E+04  0.50400001928E-02 0.  1.
        1   -1    0    0  501    0  0.00000000000E+00  0.00000000000E+00 -0.12900583788E+04  0.12900583788E+04  0.50400001928E-02 0. -1.
    10030    2    1    2    0    0  0.00000000000E+00  0.00000000000E+00  0.16575080606E+04  0.42376248182E+04  0.39000168114E+04 0.  0.
        5    1    3    3  502    0 -0.16570642194E+04 -0.71529561657E+02  0.19429647976E+04  0.25546257261E+04  0.46999998093E+01 0.  1.
       -5    1    3    3    0  502  0.16570642194E+04  0.71529561657E+02 -0.28545673698E+03  0.16829990922E+04  0.46999998093E+01 0. -1.
</event>
<event>
 5   0  0.2904500E-09  0.3899315E+04  0.7818609E-02  0.8025172E-01
        1   -1    0    0  501    0  0.00000000000E+00  0.00000000000E+00  0.25263364211E+04  0.25263364211E+04  0.50400001928E-02 0. -1.
       -1   -1    0    0    0  501  0.00000000000E+00  0.00000000000E+00 -0.15046151147E+04  0.15046151147E+04  0.50400001928E-02 0.  1.
    10030    2    1    2    0    0  0.00000000000E+00  0.00000000000E+00  0.10217213064E+04  0.40309515358E+04  0.38993147931E+04 0.  0.
        2    1    3    3  502    0  0.73258719624E+03  0.74463770861E+03 -0.11909196620E+04  0.15841271914E+04  0.25500000920E-02 0.  1.
       -2    1    3    3    0  502 -0.73258719624E+03 -0.74463770861E+03  0.22126409684E+04  0.24468243444E+04  0.25500000920E-02 0. -1.
</event>
<event>
 5   0  0.9078515E-09  0.3900918E+04  0.7818609E-02  0.8024838E-01
       -2   -1    0    0    0  501  0.00000000000E+00  0.00000000000E+00  0.20994758199E+04  0.20994758199E+04  0.25500000920E-02 0. -1.
        2   -1    0    0  501    0  0.00000000000E+00  0.00000000000E+00 -0.18120187133E+04  0.18120187133E+04  0.25500000920E-02 0.  1.
    10030    2    1    2    0    0  0.00000000000E+00  0.00000000000E+00  0.28745710654E+03  0.39114945332E+04  0.39009175710E+04 0.  0.
        3    1    3    3  502    0  0.30425033930E+03  0.97036030665E+03  0.18126096975E+04  0.20783939278E+04  0.10100000352E+00 0. -1.
       -3    1    3    3    0  502 -0.30425033930E+03 -0.97036030665E+03 -0.15251525909E+04  0.18331006054E+04  0.10100000352E+00 0.  1.
</event>
<event>
 5   0  0.2929054E-09  0.3901031E+04  0.7818609E-02  0.8024815E-01
       -1   -1    0    0    0  501  0.00000000000E+00  0.00000000000E+00  0.15842357551E+04  0.15842357552E+04  0.50400001928E-02 0.  1.
        1   -1    0    0  501    0  0.00000000000E+00  0.00000000000E+00 -0.24014806816E+04  0.24014806816E+04  0.50400001928E-02 0. -1.
    10030    2    1    2    0    0  0.00000000000E+00  0.00000000000E+00 -0.81724492643E+03  0.39857164367E+04  0.39010314334E+04 0.  0.
        1    1    3    3  502    0  0.34305603108E+03  0.10376144726E+04  0.12420549317E+04  0.16543976812E+04  0.50400001928E-02 0.  1.
       -1    1    3    3    0  502 -0.34305603108E+03 -0.10376144726E+04 -0.20592998581E+04  0.23313187555E+04  0.50400001928E-02 0. -1.
</event>
<event>
 5   0  0.2929054E-09  0.3902587E+04  0.7818609E-02  0.8024491E-01
       -1   -1    0    0    0  501  0.00000000000E+00  0.00000000000E+00  0.16698880634E+04  0.16698880634E+04  0.50400001928E-02 0.  1.
        1   -1    0    0  501    0  0.00000000000E+00  0.00000000000E+00 -0.22801204207E+04  0.22801204207E+04  0.50400001928E-02 0. -1.
    10030    2    1    2    0    0  0.00000000000E+00  0.00000000000E+00 -0.61023235736E+03  0.39500084841E+04  0.39025867697E+04 0.  0.
        1    1    3    3  502    0 -0.15816030464E+03 -0.36676712864E+03 -0.22383022308E+04  0.22736599757E+04  0.50400001928E-02 0. -1.
       -1    1    3    3    0  502  0.15816030464E+03  0.36676712864E+03  0.16280698735E+04  0.16763485084E+04  0.50400001928E-02 0.  1.
</event>
<event>
 5   0  0.9078515E-09  0.3898763E+04  0.7818609E-02  0.8025286E-01
        2   -1    0    0  501    0  0.00000000000E+00  0.00000000000E+00  0.23627926171E+04  0.23627926171E+04  0.25500000920E-02 0.  1.
       -2   -1    0    0    0  501  0.00000000000E+00  0.00000000000E+00 -0.16083038736E+04  0.16083038736E+04  0.25500000920E-02 0. -1.
    10030    2    1    2    0    0  0.00000000000E+00  0.00000000000E+00  0.75448874350E+03  0.39710964906E+04  0.38987631467E+04 0.  0.
        3    1    3    3  502    0  0.77896617447E+03 -0.14019729605E+04 -0.75136188736E+03  0.17711186236E+04  0.10100000352E+00 0. -1.
       -3    1    3    3    0  502 -0.77896617447E+03  0.14019729605E+04  0.15058506309E+04  0.21999778670E+04  0.10100000352E+00 0.  1.
</event>
<event>
 5   0  0.2904500E-09  0.3900496E+04  0.7818609E-02  0.8024926E-01
       -1   -1    0    0    0  501  0.00000000000E+00  0.00000000000E+00  0.19704352769E+04  0.19704352769E+04  0.50400001928E-02 0. -1.
        1   -1    0    0  501    0  0.00000000000E+00  0.00000000000E+00 -0.19302673104E+04  0.19302673104E+04  0.50400001928E-02 0.  1.
    10030    2    1    2    0    0  0.00000000000E+00  0.00000000000E+00  0.40167966504E+02  0.39007025873E+04  0.39004957645E+04 0.  0.
        2    1    3    3  502    0 -0.10612691960E+04  0.42070484855E+03 -0.15611962185E+04  0.19340678655E+04  0.25500000920E-02 0.  1.
       -2    1    3    3    0  502  0.10612691960E+04 -0.42070484855E+03  0.16013641850E+04  0.19666347218E+04  0.25500000920E-02 0. -1.
</event>
<event>
 5   0  0.2929054E-09  0.3900772E+04  0.7818609E-02  0.8024869E-01
        1   -1    0    0  501    0  0.00000000000E+00  0.00000000000E+00  0.20044537805E+04  0.20044537805E+04  0.50400001928E-02 0.  1.
       -1   -1    0    0    0  501  0.00000000000E+00  0.00000000000E+00 -0.18977761974E+04  0.18977761974E+04  0.50400001928E-02 0. -1.
    10030    2    1    2    0    0  0.00000000000E+00  0.00000000000E+00  0.10667758316E+03  0.39022299779E+04  0.39007715511E+04 0.  0.
        1    1    3    3  502    0 -0.15197204735E+04 -0.12213528549E+04  0.10581371420E+03  0.19525495271E+04  0.50400001928E-02 0. -1.
       -1    1    3    3    0  502  0.15197204735E+04  0.12213528549E+04  0.86386896243E+00  0.19496804508E+04  0.50400001928E-02 0.  1.
</event>
<event>
 5   0  0.9078515E-09  0.3900616E+04  0.7818609E-02  0.8024901E-01
       -2   -1    0    0    0  501  0.00000000000E+00  0.00000000000E+00  0.19578935284E+04  0.19578935284E+04  0.25500000920E-02 0. -1.
        2   -1    0    0  501    0  0.00000000000E+00  0.00000000000E+00 -0.19427516939E+04  0.19427516939E+04  0.25500000920E-02 0.  1.
    10030    2    1    2    0    0  0.00000000000E+00  0.00000000000E+00  0.15141834475E+02  0.39006452223E+04  0.39006158328E+04 0.  0.
        3    1    3    3  502    0  0.75960718511E+03  0.40829357516E+03 -0.17417261847E+04  0.19435320507E+04  0.10100000352E+00 0.  1.
       -3    1    3    3    0  502 -0.75960718511E+03 -0.40829357516E+03  0.17568680192E+04  0.19571131716E+04  0.10100000352E+00 0. -1.
</event>
<event>
 5   0  0.2904500E-09  0.3901749E+04  0.7818609E-02  0.8024666E-01
        1   -1    0    0  501    0  0.00000000000E+00  0.00000000000E+00  0.21950293797E+04  0.21950293797E+04  0.50400001928E-02 0.  1.
       -1   -1    0    0    0  501  0.00000000000E+00  0.00000000000E+00 -0.17338768084E+04  0.17338768084E+04  0.50400001928E-02 0. -1.
    10030    2    1    2    0    0  0.00000000000E+00  0.00000000000E+00  0.46115257133E+03  0.39289061881E+04  0.39017486004E+04 0.  0.
        5    1    3    3  502    0  0.93006085357E+03  0.40490105936E+03  0.19085875513E+04  0.21614084737E+04  0.46999998093E+01 0.  1.
       -5    1    3    3    0  502 -0.93006085357E+03 -0.40490105936E+03 -0.14474349799E+04  0.17674977144E+04  0.46999998093E+01 0. -1.
</event>
<event>
 5   0  0.9277261E-09  0.3899746E+04  0.7818609E-02  0.8025082E-01
       -2   -1    0    0    0  501  0.00000000000E+00  0.00000000000E+00  0.15882802209E+04  0.15882802209E+04  0.25500000920E-02 0. -1.
        2   -1    0    0  501    0  0.00000000000E+00  0.00000000000E+00 -0.23937865373E+04  0.23937865373E+04  0.25500000920E-02 0.  1.
    10030    2    1    2    0    0  0.00000000000E+00  0.00000000000E+00 -0.80550631644E+03  0.39820667582E+04  0.38997455354E+04 0.  0.
        1    1    3    3  502    0 -0.56300187375E+03 -0.15768397326E+04 -0.14231521934E+04  0.21974432456E+04  0.50400001928E-02 0.  1.
       -1    1    3    3    0  502  0.56300187375E+03  0.15768397326E+04  0.61764587693E+03  0.17846235125E+04  0.50400001928E-02 0. -1.
</event>
<event>
 5   0  0.2904500E-09  0.3901314E+04  0.7818609E-02  0.8024756E-01
       -1   -1    0    0    0  501  0.00000000000E+00  0.00000000000E+00  0.12718513435E+04  0.12718513435E+04  0.50400001928E-02 0.  1.
        1   -1    0    0  501    0  0.00000000000E+00  0.00000000000E+00 -0.29917510601E+04  0.29917510601E+04  0.50400001928E-02 0. -1.
    10030    2    1    2    0    0  0.00000000000E+00  0.00000000000E+00 -0.17198997165E+04  0.42636024036E+04  0.39013139352E+04 0.  0.
        2    1    3    3  502    0  0.68674374033E+03  0.13892356708E+04 -0.21546444965E+04  0.26540696336E+04  0.25500000920E-02 0. -1.
       -2    1    3    3    0  502 -0.68674374033E+03 -0.13892356708E+04  0.43474477992E+03  0.16095327700E+04  0.25500000920E-02 0.  1.
</event>
<event>
 5   0  0.2904500E-09  0.3900642E+04  0.7818609E-02  0.8024896E-01
        1   -1    0    0  501    0  0.00000000000E+00  0.00000000000E+00  0.22960272010E+04  0.22960272010E+04  0.50400001928E-02 0.  1.
       -1   -1    0    0    0  501  0.00000000000E+00  0.00000000000E+00 -0.16566668176E+04  0.16566668176E+04  0.50400001928E-02 0. -1.
    10030    2    1    2    0    0  0.00000000000E+00  0.00000000000E+00  0.63936038337E+03  0.39526940186E+04  0.39006420375E+04 0.  0.
        2    1    3    3  502    0 -0.22843194245E+03 -0.37011952838E+03  0.22462562900E+04  0.22879766034E+04  0.25500000920E-02 0.  1.
       -2    1    3    3    0  502  0.22843194245E+03  0.37011952838E+03 -0.16068959066E+04  0.16647174151E+04  0.25500000920E-02 0. -1.
</event>
<event>
 5   0  0.2904500E-09  0.3900165E+04  0.7818609E-02  0.8024995E-01
       -1   -1    0    0    0  501  0.00000000000E+00  0.00000000000E+00  0.13900724213E+04  0.13900724213E+04  0.50400001928E-02 0. -1.
        1   -1    0    0  501    0  0.00000000000E+00  0.00000000000E+00 -0.27357000509E+04  0.27357000509E+04  0.50400001928E-02 0.  1.
    10030    2    1    2    0    0  0.00000000000E+00  0.00000000000E+00 -0.13456276296E+04  0.41257724722E+04  0.39001647113E+04 0.  0.
        4    1    3    3  502    0 -0.82905202138E+03 -0.37858300671E+03 -0.24965371135E+04  0.26576966567E+04  0.12699999809E+01 0.  1.
       -4    1    3    3    0  502  0.82905202138E+03  0.37858300671E+03  0.11509094839E+04  0.14680758155E+04  0.12699999809E+01 0. -1.
</event>
<event>
 5   0  0.2904500E-09  0.3901078E+04  0.7818609E-02  0.8024805E-01
        1   -1    0    0  501    0  0.00000000000E+00  0.00000000000E+00  0.22352789434E+04  0.22352789434E+04  0.50400001928E-02 0.  1.
       -1   -1    0    0    0  501  0.00000000000E+00  0.00000000000E+00 -0.17020709393E+04  0.17020709393E+04  0.50400001928E-02 0. -1.
    10030    2    1    2    0    0  0.00000000000E+00  0.00000000000E+00  0.53320800406E+03  0.39373498827E+04  0.39010784820E+04 0.  0.
        4    1    3    3  502    0 -0.18274434760E+04  0.63360259605E+03  0.52113883949E+03  0.20031448301E+04  0.12699999809E+01 0.  1.
       -4    1    3    3    0  502  0.18274434760E+04 -0.63360259605E+03  0.12069164567E+02  0.19342050525E+04  0.12699999809E+01 0. -1.
</event>
<event>
 5   0  0.6335942E-09  0.3900872E+04  0.7818609E-02  0.8024848E-01
        2   -1    0    0  501    0  0.00000000000E+00  0.00000000000E+00  0.14785655033E+04  0.14785655033E+04  0.25500000920E-02 0.  1.
       -2   -1    0    0    0  501  0.00000000000E+00  0.00000000000E+00 -0.25728991531E+04  0.25728991531E+04  0.25500000920E-02 0. -1.
    10030    2    1    2    0    0  0.00000000000E+00  0.00000000000E+00 -0.10943336498E+04  0.40514646564E+04  0.39008716622E+04 0.  0.
        2    1    3    3  502    0  0.25187569628E+03 -0.49061574243E+03  0.13959003349E+04  0.15008940396E+04  0.25500000920E-02 0.  1.
       -2    1    3    3    0  502 -0.25187569628E+03  0.49061574243E+03 -0.24902339847E+04  0.25505706168E+04  0.25500000920E-02 0. -1.
</event>
<event>
 5   0  0.9277261E-09  0.3903862E+04  0.7818609E-02  0.8024226E-01
        2   -1    0    0  501    0  0.00000000000E+00  0.00000000000E+00  0.16889794887E+04  0.16889794887E+04  0.25500000920E-02 0. -1.
       -2   -1    0    0    0  501  0.00000000000E+00  0.00000000000E+00 -0.22558204387E+04  0.22558204387E+04  0.25500000920E-02 0.  1.
    10030    2    1    2    0    0  0.00000000000E+00  0.00000000000E+00 -0.56684095002E+03  0.39447999273E+04  0.39038619089E+04 0.  0.
        1    1    3    3  502    0  0.86800952026E+03 -0.56955945727E+03  0.13868486607E+04  0.17323936361E+04  0.50400001928E-02 0. -1.
       -1    1    3    3    0  502 -0.86800952026E+03  0.56955945727E+03 -0.19536896107E+04  0.22124062913E+04  0.50400001928E-02 0.  1.
</event>
<event>
 5   0  0.9277261E-09  0.3899192E+04  0.7818609E-02  0.8025197E-01
        2   -1    0    0  501    0  0.00000000000E+00  0.00000000000E+00  0.13414902991E+04  0.13414902991E+04  0.25500000920E-02 0.  1.
       -2   -1    0    0    0  501  0.00000000000E+00  0.00000000000E+00 -0.28333596395E+04  0.28333596395E+04  0.25500000920E-02 0. -1.
    10030    2    1    2    0    0  0.00000000000E+00  0.00000000000E+00 -0.14918693404E+04  0.41748499385E+04  0.38991919522E+04 0.  0.
        1    1    3    3  502    0 -0.24302571209E+03  0.15382012218E+04 -0.20018024048E+04  0.25362053078E+04  0.50400001928E-02 0. -1.
       -1    1    3    3    0  502  0.24302571209E+03 -0.15382012218E+04  0.50993306440E+03  0.16386446307E+04  0.50400001928E-02 0.  1.
</event>
<event>
 5   0  0.9277261E-09  0.3901349E+04  0.7818609E-02  0.8024749E-01
       -2   -1    0    0    0  501  0.00000000000E+00  0.00000000000E+00  0.31760717579E+04  0.31760717579E+04  0.25500000920E-02 0. -1.
        2   -1    0    0  501    0  0.00000000000E+00  0.00000000000E+00 -0.11980620207E+04  0.11980620207E+04  0.25500000920E-02 0.  1.
    10030    2    1    2    0    0  0.00000000000E+00  0.00000000000E+00  0.19780097371E+04  0.43741337786E+04  0.39013489709E+04 0.  0.
        1    1    3    3  502    0 -0.17103374916E+04  0.93775620587E+03  0.10138211147E+04  0.21982889458E+04  0.50400001928E-02 0.  1.
       -1    1    3    3    0  502  0.17103374916E+04 -0.93775620587E+03  0.96418862245E+03  0.21758448328E+04  0.50400001928E-02 0. -1.
</event>
<event>
 5   0  0.9434114E-09  0.3874834E+04  0.7818609E-02  0.8030284E-01
        2   -1    0    0  501    0  0.00000000000E+00  0.00000000000E+00  0.18070714935E+04  0.18070714936E+04  0.25500000920E-02 0. -1.
       -2   -1    0    0    0  501  0.00000000000E+00  0.00000000000E+00 -0.20771641007E+04  0.20771641007E+04  0.25500000920E-02 0.  1.
    10030    2    1    2    0    0  0.00000000000E+00  0.00000000000E+00 -0.27009260719E+03  0.38842355943E+04  0.38748336913E+04 0.  0.
        4    1    3    3  502    0 -0.16430260008E+03  0.76391518172E+03  0.16421120003E+04  0.18185420490E+04  0.12699999809E+01 0. -1.
       -4    1    3    3    0  502  0.16430260008E+03 -0.76391518172E+03 -0.19122046075E+04  0.20656935453E+04  0.12699999809E+01 0.  1.
</event>
<event>
 5   0  0.2904500E-09  0.3899908E+04  0.7818609E-02  0.8025048E-01
       -1   -1    0    0    0  501  0.00000000000E+00  0.00000000000E+00  0.15978768373E+04  0.15978768373E+04  0.50400001928E-02 0. -1.
        1   -1    0    0  501    0  0.00000000000E+00  0.00000000000E+00 -0.23796079069E+04  0.23796079070E+04  0.50400001928E-02 0.  1.
    10030    2    1    2    0    0  0.00000000000E+00  0.00000000000E+00 -0.78173106967E+03  0.39774847442E+04  0.38999078740E+04 0.  0.
        3    1    3    3  502    0  0.13791848977E+04 -0.13254280251E+03 -0.17902382631E+04  0.22637737576E+04  0.10100000352E+00 0.  1.
       -3    1    3    3    0  502 -0.13791848977E+04  0.13254280251E+03  0.10085071935E+04  0.17137109867E+04  0.10100000352E+00 0. -1.
</event>
<event>
 5   0  0.2929054E-09  0.3899349E+04  0.7818609E-02  0.8025165E-01
        1   -1    0    0  501    0  0.00000000000E+00  0.00000000000E+00  0.19462923988E+04  0.19462923988E+04  0.50400001928E-02 0. -1.
       -1   -1    0    0    0  501  0.00000000000E+00  0.00000000000E+00 -0.19530624750E+04  0.19530624750E+04  0.50400001928E-02 0.  1.
    10030    2    1    2    0    0  0.00000000000E+00  0.00000000000E+00 -0.67700762057E+01  0.38993548739E+04  0.38993489967E+04 0.  0.
        1    1    3    3  502    0 -0.62238259657E+03 -0.31898053702E+03  0.18165413214E+04  0.19465176732E+04  0.50400001928E-02 0. -1.
       -1    1    3    3    0  502  0.62238259657E+03  0.31898053702E+03 -0.18233113976E+04  0.19528372007E+04  0.50400001928E-02 0.  1.
</event>
<event>
 5   0  0.2904500E-09  0.3902494E+04  0.7818609E-02  0.8024511E-01
       -1   -1    0    0    0  501  0.00000000000E+00  0.00000000000E+00  0.16195894927E+04  0.16195894927E+04  0.50400001928E-02 0.  1.
        1   -1    0    0  501    0  0.00000000000E+00  0.00000000000E+00 -0.23508210039E+04  0.23508210039E+04  0.50400001928E-02 0. -1.
    10030    2    1    2    0    0  0.00000000000E+00  0.00000000000E+00 -0.73123151122E+03  0.39704104966E+04  0.39024940729E+04 0.  0.
        5    1    3    3  502    0 -0.89554284598E+03 -0.80111244721E+03  0.11985288880E+04  0.16971363314E+04  0.46999998093E+01 0.  1.
       -5    1    3    3    0  502  0.89554284598E+03  0.80111244721E+03 -0.19297603992E+04  0.22732741652E+04  0.46999998093E+01 0. -1.
</event>
<event>
 5   0  0.2904500E-09  0.3897929E+04  0.7818609E-02  0.8025460E-01
        1   -1    0    0  501    0  0.00000000000E+00  0.00000000000E+00  0.17289594883E+04  0.17289594883E+04  0.50400001928E-02 0. -1.
       -1   -1    0    0    0  501  0.00000000000E+00  0.00000000000E+00 -0.21969649676E+04  0.21969649676E+04  0.50400001928E-02 0.  1.
    10030    2    1    2    0    0  0.00000000000E+00  0.00000000000E+00 -0.46800547938E+03  0.39259244559E+04  0.38979294125E+04 0.  0.
        4    1    3    3  502    0  0.98094154049E+03 -0.15528101958E+04  0.42259652379E+03  0.18846896946E+04  0.12699999809E+01 0. -1.
       -4    1    3    3    0  502 -0.98094154049E+03  0.15528101958E+04 -0.89060200317E+03  0.20412347614E+04  0.12699999809E+01 0.  1.
</event>
<event>
 5   0  0.2904500E-09  0.3901386E+04  0.7818609E-02  0.8024741E-01
       -1   -1    0    0    0  501  0.00000000000E+00  0.00000000000E+00  0.24643891156E+04  0.24643891156E+04  0.50400001928E-02 0.  1.
        1   -1    0    0  501    0  0.00000000000E+00  0.00000000000E+00 -0.15440759174E+04  0.15440759174E+04  0.50400001928E-02 0. -1.
    10030    2    1    2    0    0  0.00000000000E+00  0.00000000000E+00  0.92031319814E+03  0.40084650330E+04  0.39013863610E+04 0.  0.
        4    1    3    3  502    0  0.83509121218E+03 -0.76280590597E+03 -0.11727889092E+04  0.16293206012E+04  0.12699999809E+01 0. -1.
       -4    1    3    3    0  502 -0.83509121218E+03  0.76280590597E+03  0.20931021074E+04  0.23791444318E+04  0.12699999809E+01 0.  1.
</event>
<event>
 5   0  0.2904500E-09  0.3901859E+04  0.7818609E-02  0.8024643E-01
       -1   -1    0    0    0  501  0.00000000000E+00  0.00000000000E+00  0.17207587605E+04  0.17207587605E+04  0.50400001928E-02 0.  1.
        1   -1    0    0  501    0  0.00000000000E+00  0.00000000000E+00 -0.22118885466E+04  0.22118885466E+04  0.50400001928E-02 0. -1.
    10030    2    1    2    0    0  0.00000000000E+00  0.00000000000E+00 -0.49112978613E+03  0.39326473071E+04  0.39018593484E+04 0.  0.
        3    1    3    3  502    0 -0.76748506300E+03  0.36131817654E+03  0.15251535683E+04  0.17451869710E+04  0.10100000352E+00 0.  1.
       -3    1    3    3    0  502  0.76748506300E+03 -0.36131817654E+03 -0.20162833544E+04  0.21874603361E+04  0.10100000352E+00 0. -1.
</event>
<event>
 5   0  0.9434114E-09  0.3900348E+04  0.7818609E-02  0.8024957E-01
        2   -1    0    0  501    0  0.00000000000E+00  0.00000000000E+00  0.16917212004E+04  0.16917212004E+04  0.25500000920E-02 0. -1.
       -2   -1    0    0    0  501  0.00000000000E+00  0.00000000000E+00 -0.22481118140E+04  0.22481118140E+04  0.25500000920E-02 0.  1.
    10030    2    1    2    0    0  0.00000000000E+00  0.00000000000E+00 -0.55639061362E+03  0.39398330144E+04  0.39003478904E+04 0.  0.
        4    1    3    3  502    0 -0.77174822217E+03 -0.17519017367E+04  0.97621934808E+02  0.19168428909E+04  0.12699999809E+01 0. -1.
       -4    1    3    3    0  502  0.77174822217E+03  0.17519017367E+04 -0.65401254843E+03  0.20229901235E+04  0.12699999809E+01 0.  1.
</event>
<event>
 5   0  0.2904500E-09  0.3900832E+04  0.7818609E-02  0.8024856E-01
       -1   -1    0    0    0  501  0.00000000000E+00  0.00000000000E+00  0.25302905775E+04  0.25302905775E+04  0.50400001928E-02 0. -1.
        1   -1    0    0  501    0  0.00000000000E+00  0.00000000000E+00 -0.15034330001E+04  0.15034330001E+04  0.50400001928E-02 0.  1.
    10030    2    1    2    0    0  0.00000000000E+00  0.00000000000E+00  0.10268575774E+04  0.40337235776E+04  0.39008318877E+04 0.  0.
        2    1    3    3  502    0  0.14650738102E+03 -0.11986364430E+04 -0.10703929377E+04  0.16136712107E+04  0.25500000920E-02 0.  1.
       -2    1    3    3    0  502 -0.14650738102E+03  0.11986364430E+04  0.20972505151E+04  0.24200523668E+04  0.25500000920E-02 0. -1.
</event>
<event>
 5   0  0.2904500E-09  0.3899659E+04  0.7818609E-02  0.8025100E-01
       -1   -1    0    0    0  501  0.00000000000E+00  0.00000000000E+00  0.21212625531E+04  0.21212625531E+04  0.50400001928E-02 0. -1.
        1   -1    0    0  501    0  0.00000000000E+00  0.00000000000E+00 -0.17922514816E+04  0.17922514816E+04  0.50400001928E-02 0.  1.
    10030    2    1    2    0    0  0.00000000000E+00  0.00000000000E+00  0.32901107149E+03  0.39135140346E+04  0.38996594485E+04 0.  0.
        3    1    3    3  502    0 -0.43039933223E+03  0.13046036012E+04 -0.12241017670E+04  0.18400161107E+04  0.10100000352E+00 0.  1.
       -3    1    3    3    0  502  0.43039933223E+03 -0.13046036012E+04  0.15531128385E+04  0.20734979240E+04  0.10100000352E+00 0. -1.
</event>
<event>
 5   0  0.9078515E-09  0.3913307E+04  0.7818609E-02  0.8022267E-01
        2   -1    0    0  501    0  0.00000000000E+00  0.00000000000E+00  0.12345768896E+04  0.12345768896E+04  0.25500000920E-02 0.  1.
       -2   -1    0    0    0  501  0.00000000000E+00  0.00000000000E+00 -0.31010562001E+04  0.31010562001E+04  0.25500000920E-02 0. -1.
    10030    2    1    2    0    0  0.00000000000E+00  0.00000000000E+00 -0.18664793105E+04  0.43356330897E+04  0.39133066928E+04 0.  0.
        3    1    3    3  502    0  0.64022464692E+03  0.10057435698E+04  0.78567499072E+03  0.14278280457E+04  0.10100000352E+00 0.  1.
       -3    1    3    3    0  502 -0.64022464692E+03 -0.10057435698E+04 -0.26521543012E+04  0.29078050441E+04  0.10100000352E+00 0. -1.
</event>
<event>
 5   0  0.2904500E-09  0.3902118E+04  0.7818609E-02  0.8024589E-01
       -1   -1    0    0    0  501  0.00000000000E+00  0.00000000000E+00  0.23631932597E+04  0.23631932598E+04  0.50400001928E-02 0. -1.
        1   -1    0    0  501    0  0.00000000000E+00  0.00000000000E+00 -0.16108002070E+04  0.16108002070E+04  0.50400001928E-02 0.  1.
    10030    2    1    2    0    0  0.00000000000E+00  0.00000000000E+00  0.75239305280E+03  0.39739934667E+04  0.39021184974E+04 0.  0.
        2    1    3    3  502    0 -0.78269271301E+03 -0.14076592552E+04 -0.74523071644E+03  0.17746777968E+04  0.25500000920E-02 0.  1.
       -2    1    3    3    0  502  0.78269271301E+03  0.14076592552E+04  0.14976237692E+04  0.21993156699E+04  0.25500000920E-02 0. -1.
</event>
<event>
 5   0  0.2904500E-09  0.3899492E+04  0.7818609E-02  0.8025135E-01
        1   -1    0    0  501    0  0.00000000000E+00  0.00000000000E+00  0.15908511123E+04  0.15908511123E+04  0.50400001928E-02 0. -1.
       -1   -1    0    0    0  501  0.00000000000E+00  0.00000000000E+00 -0.23896067573E+04  0.23896067573E+04  0.50400001928E-02 0.  1.
    10030    2    1    2    0    0  0.00000000000E+00  0.00000000000E+00 -0.79875564503E+03  0.39804578696E+04  0.38994915401E+04 0.  0.
        3    1    3    3  502    0 -0.63997010202E+03 -0.40727778379E+02  0.14801265918E+04  0.16130701229E+04  0.10100000352E+00 0. -1.
       -3    1    3    3    0  502  0.63997010202E+03  0.40727778379E+02 -0.22788822369E+04  0.23673877467E+04  0.10100000352E+00 0.  1.
</event>
<event>
 5   0  0.2904500E-09  0.3899275E+04  0.7818609E-02  0.8025180E-01
       -1   -1    0    0    0  501  0.00000000000E+00  0.00000000000E+00  0.14819417603E+04  0.14819417603E+04  0.50400001928E-02 0.  1.
        1   -1    0    0  501    0  0.00000000000E+00  0.00000000000E+00 -0.25649368018E+04  0.25649368018E+04  0.50400001928E-02 0. -1.
    10030    2    1    2    0    0  0.00000000000E+00  0.00000000000E+00 -0.10829950415E+04  0.40468785621E+04  0.38992752963E+04 0.  0.
        5    1    3    3  502    0  0.24023078497E+03 -0.42642746676E+03 -0.25001328366E+04  0.25475944546E+04  0.46999998093E+01 0. -1.
       -5    1    3    3    0  502 -0.24023078497E+03  0.42642746676E+03  0.14171377951E+04  0.14992841075E+04  0.46999998093E+01 0.  1.
</event>
<event>
 5   0  0.6335942E-09  0.3870017E+04  0.7818609E-02  0.8031294E-01
        2   -1    0    0  501    0  0.00000000000E+00  0.00000000000E+00  0.11830846136E+04  0.11830846136E+04  0.25500000920E-02 0. -1.
       -2   -1    0    0    0  501  0.00000000000E+00  0.00000000000E+00 -0.31648275749E+04  0.31648275749E+04  0.25500000920E-02 0.  1.
    10030    2    1    2    0    0  0.00000000000E+00  0.00000000000E+00 -0.19817429612E+04  0.43479121885E+04  0.38700174721E+04 0.  0.
        2    1    3    3  502    0  0.94269855602E+03 -0.36529060932E+03 -0.28445019003E+04  0.30188257415E+04  0.25500000920E-02 0.  1.
       -2    1    3    3    0  502 -0.94269855602E+03  0.36529060932E+03  0.86275893904E+03  0.13290864470E+04  0.25500000920E-02 0. -1.
</event>
<event>
 5   0  0.6335942E-09  0.3898082E+04  0.7818609E-02  0.8025428E-01
       -2   -1    0    0    0  501  0.00000000000E+00  0.00000000000E+00  0.19594368542E+04  0.19594368542E+04  0.25500000920E-02 0.  1.
        2   -1    0    0  501    0  0.00000000000E+00  0.00000000000E+00 -0.19387005398E+04  0.19387005399E+04  0.25500000920E-02 0. -1.
    10030    2    1    2    0    0  0.00000000000E+00  0.00000000000E+00  0.20736314352E+02  0.38981373941E+04  0.38980822398E+04 0.  0.
        2    1    3    3  502    0 -0.23435739494E+03 -0.83423357087E+03 -0.17354779122E+04  0.19397815916E+04  0.25500000920E-02 0. -1.
       -2    1    3    3    0  502  0.23435739494E+03  0.83423357087E+03  0.17562142266E+04  0.19583558024E+04  0.25500000920E-02 0.  1.
</event>
<event>
 5   0  0.9078515E-09  0.3900322E+04  0.7818609E-02  0.8024962E-01
        2   -1    0    0  501    0  0.00000000000E+00  0.00000000000E+00  0.14071991329E+04  0.14071991329E+04  0.25500000920E-02 0.  1.
       -2   -1    0    0    0  501  0.00000000000E+00  0.00000000000E+00 -0.27026223120E+04  0.27026223120E+04  0.25500000920E-02 0. -1.
    10030    2    1    2    0    0  0.00000000000E+00  0.00000000000E+00 -0.12954231791E+04  0.41098214449E+04  0.39003219221E+04 0.  0.
        3    1    3    3  502    0 -0.83611317624E+03 -0.73715917357E+03 -0.23338633763E+04  0.25863888261E+04  0.10100000352E+00 0. -1.
       -3    1    3    3    0  502  0.83611317624E+03  0.73715917357E+03  0.10384401972E+04  0.15234326188E+04  0.10100000352E+00 0.  1.
</event>
<event>
 5   0  0.9434114E-09  0.3902295E+04  0.7818609E-02  0.8024552E-01
       -2   -1    0    0    0  501  0.00000000000E+00  0.00000000000E+00  0.20829831349E+04  0.20829831349E+04  0.25500000920E-02 0. -1.
        2   -1    0    0  501    0  0.00000000000E+00  0.00000000000E+00 -0.18276559523E+04  0.18276559523E+04  0.25500000920E-02 0.  1.
    10030    2    1    2    0    0  0.00000000000E+00  0.00000000000E+00  0.25532718255E+03  0.39106390872E+04  0.39022949786E+04 0.  0.
        4    1    3    3  502    0 -0.25353100977E+03 -0.18651516084E+04  0.64248028001E+03  0.19889321301E+04  0.12699999809E+01 0. -1.
       -4    1    3    3    0  502  0.25353100977E+03  0.18651516084E+04 -0.38715309747E+03  0.19217069571E+04  0.12699999809E+01 0.  1.
</event>
<event>
 5   0  0.2929054E-09  0.3899953E+04  0.7818609E-02  0.8025039E-01
        1   -1    0    0  501    0  0.00000000000E+00  0.00000000000E+00  0.14501739226E+04  0.14501739226E+04  0.50400001928E-02 0. -1.
       -1   -1    0    0    0  501  0.00000000000E+00  0.00000000000E+00 -0.26220359073E+04  0.26220359073E+04  0.50400001928E-02 0.  1.
    10030    2    1    2    0    0  0.00000000000E+00  0.00000000000E+00 -0.11718619847E+04  0.40722098299E+04  0.38999528700E+04 0.  0.
        1    1    3    3  502    0  0.17711290946E+04 -0.71223782974E+03 -0.10012781330E+04  0.21556295821E+04  0.50400001928E-02 0.  1.
       -1    1    3    3    0  502 -0.17711290946E+04  0.71223782974E+03 -0.17058385163E+03  0.19165802478E+04  0.50400001928E-02 0. -1.
</event>
<event>
 5   0  0.9434114E-09  0.3899784E+04  0.7818609E-02  0.8025074E-01
       -2   -1    0    0    0  501  0.00000000000E+00  0.00000000000E+00  0.17409313647E+04  0.17409313647E+04  0.25500000920E-02 0.  1.
        2   -1    0    0  501    0  0.00000000000E+00  0.00000000000E+00 -0.21839332766E+04  0.21839332766E+04  0.25500000920E-02 0. -1.
    10030    2    1    2    0    0  0.00000000000E+00  0.00000000000E+00 -0.44300191197E+03  0.39248646413E+04  0.38997835528E+04 0.  0.
        4    1    3    3  502    0 -0.50371743399E+03 -0.24296523768E+03  0.16584829979E+04  0.17502373631E+04  0.12699999809E+01 0.  1.
       -4    1    3    3    0  502  0.50371743399E+03  0.24296523768E+03 -0.21014849098E+04  0.21746272782E+04  0.12699999809E+01 0. -1.
</event>
<event>
 5   0  0.2904500E-09  0.3900288E+04  0.7818609E-02  0.8024969E-01
        1   -1    0    0  501    0  0.00000000000E+00  0.00000000000E+00  0.22661662012E+04  0.22661662012E+04  0.50400001928E-02 0. -1.
       -1   -1    0    0    0  501  0.00000000000E+00  0.00000000000E+00 -0.16781917174E+04  0.16781917174E+04  0.50400001928E-02 0.  1.
    10030    2    1    2    0    0  0.00000000000E+00  0.00000000000E+00  0.58797448375E+03  0.39443579186E+04  0.39002878608E+04 0.  0.
        4    1    3    3  502    0  0.58551509521E+02 -0.63367325215E+03  0.21582068547E+04  0.22500730012E+04  0.12699999809E+01 0. -1.
       -4    1    3    3    0  502 -0.58551509521E+02  0.63367325215E+03 -0.15702323710E+04  0.16942849175E+04  0.12699999809E+01 0.  1.
</event>
<event>
 5   0  0.9434114E-09  0.3898115E+04  0.7818609E-02  0.8025421E-01
        2   -1    0    0  501    0  0.00000000000E+00  0.00000000000E+00  0.12741166791E+04  0.12741166791E+04  0.25500000920E-02 0.  1.
       -2   -1    0    0    0  501  0.00000000000E+00  0.00000000000E+00 -0.29815368423E+04  0.29815368423E+04  0.25500000920E-02 0. -1.
    10030    2    1    2    0    0  0.00000000000E+00  0.00000000000E+00 -0.17074201632E+04  0.42556535214E+04  0.38981153499E+04 0.  0.
        4    1    3    3  502    0 -0.11996670603E+04  0.18544439151E+03 -0.25184441383E+04  0.27957383942E+04  0.12699999809E+01 0. -1.
       -4    1    3    3    0  502  0.11996670603E+04 -0.18544439151E+03  0.81102397506E+03  0.14599151273E+04  0.12699999809E+01 0.  1.
</event>
<event>
 5   0  0.2904500E-09  0.3898275E+04  0.7818609E-02  0.8025388E-01
        1   -1    0    0  501    0  0.00000000000E+00  0.00000000000E+00  0.17680596807E+04  0.17680596807E+04  0.50400001928E-02 0.  1.
       -1   -1    0    0    0  501  0.00000000000E+00  0.00000000000E+00 -0.21487610223E+04  0.21487610223E+04  0.50400001928E-02 0. -1.
    10030    2    1    2    0    0  0.00000000000E+00  0.00000000000E+00 -0.38070134156E+03  0.39168207030E+04  0.38982753761E+04 0.  0.
        3    1    3    3  502    0  0.10966339421E+04 -0.10821137599E+03 -0.18057373554E+04  0.21154203156E+04  0.10100000352E+00 0. -1.
       -3    1    3    3    0  502 -0.10966339421E+04  0.10821137599E+03  0.14250360138E+04  0.18014003874E+04  0.10100000352E+00 0.  1.
</event>
<event>
 5   0  0.9277261E-09  0.3900140E+04  0.7818609E-02  0.8025000E-01
        2   -1    0    0  501    0  0.00000000000E+00  0.00000000000E+00  0.29955870304E+04  0.29955870304E+04  0.25500000920E-02 0. -1.
       -2   -1    0    0    0  501  0.00000000000E+00  0.00000000000E+00 -0.12694580644E+04  0.12694580644E+04  0.25500000920E-02 0.  1.
    10030    2    1    2    0    0  0.00000000000E+00  0.00000000000E+00  0.17261289660E+04  0.42650450948E+04  0.39001395428E+04 0.  0.
        1    1    3    3  502    0 -0.94655912914E+03  0.15722596976E+04  0.14197869423E+03  0.18406881027E+04  0.50400001928E-02 0.  1.
       -1    1    3    3    0  502  0.94655912914E+03 -0.15722596976E+04  0.15841502718E+04  0.24243569921E+04  0.50400001928E-02 0. -1.
</event>
<event>
 5   0  0.2904500E-09  0.3898767E+04  0.7818609E-02  0.8025286E-01
       -1   -1    0    0    0  501  0.00000000000E+00  0.00000000000E+00  0.36234023589E+04  0.36234023589E+04  0.50400001928E-02 0.  1.
        1   -1    0    0  501    0  0.00000000000E+00  0.00000000000E+00 -0.10487643378E+04  0.10487643378E+04  0.50400001928E-02 0. -1.
    10030    2    1    2    0    0  0.00000000000E+00  0.00000000000E+00  0.25746380211E+04  0.46721666967E+04  0.38987665616E+04 0.  0.
        5    1    3    3  502    0 -0.11633176014E+04  0.70365040078E+02 -0.58529119950E+03  0.13041652344E+04  0.46999998093E+01 0. -1.
       -5    1    3    3    0  502  0.11633176014E+04 -0.70365040078E+02  0.31599292206E+04  0.33680014623E+04  0.46999998093E+01 0.  1.
</event>
<event>
 5   0  0.9434114E-09  0.3898883E+04  0.7818609E-02  0.8025262E-01
        2   -1    0    0  501    0  0.00000000000E+00  0.00000000000E+00  0.28259528646E+04  0.28259528646E+04  0.25500000920E-02 0.  1.
       -2   -1    0    0    0  501  0.00000000000E+00  0.00000000000E+00 -0.13447928907E+04  0.13447928907E+04  0.25500000920E-02 0. -1.
    10030    2    1    2    0    0  0.00000000000E+00  0.00000000000E+00  0.14811599739E+04  0.41707457554E+04  0.38988825691E+04 0.  0.
        4    1    3    3  502    0 -0.65807707028E+03 -0.14334928097E+04  0.19660391311E+04  0.25205710749E+04  0.12699999809E+01 0.  1.
       -4    1    3    3    0  502  0.65807707028E+03  0.14334928097E+04 -0.48487915724E+03  0.16501746804E+04  0.12699999809E+01 0. -1.
</event>
<event>
 5   0  0.9277261E-09  0.3900904E+04  0.7818609E-02  0.8024841E-01
        2   -1    0    0  501    0  0.00000000000E+00  0.00000000000E+00  0.15669964830E+04  0.15669964830E+04  0.25500000920E-02 0.  1.
       -2   -1    0    0    0  501  0.00000000000E+00  0.00000000000E+00 -0.24277416005E+04  0.24277416005E+04  0.25500000920E-02 0. -1.
    10030    2    1    2    0    0  0.00000000000E+00  0.00000000000E+00 -0.86074511747E+03  0.39947380835E+04  0.39009037669E+04 0.  0.
        1    1    3    3  502    0 -0.13275453247E+04  0.11768200527E+04  0.39966801301E+03  0.18185204278E+04  0.50400001928E-02 0.  1.
       -1    1    3    3    0  502  0.13275453247E+04 -0.11768200527E+04 -0.12604131305E+04  0.21762176557E+04  0.50400001928E-02 0. -1.
</event>
<event>
 5   0  0.2904500E-09  0.3903366E+04  0.7818609E-02  0.8024330E-01
       -1   -1    0    0    0  501  0.00000000000E+00  0.00000000000E+00  0.15202384823E+04  0.15202384823E+04  0.50400001928E-02 0. -1.
        1   -1    0    0  501    0  0.00000000000E+00  0.00000000000E+00 -0.25055713679E+04  0.25055713679E+04  0.50400001928E-02 0.  1.
    10030    2    1    2    0    0  0.00000000000E+00  0.00000000000E+00 -0.98533288560E+03  0.40258098501E+04  0.39033657341E+04 0.  0.
        5    1    3    3  502    0  0.83288489536E+03  0.17004046045E+04 -0.45653643458E+01  0.18934402553E+04  0.46999998093E+01 0. -1.
       -5    1    3    3    0  502 -0.83288489536E+03 -0.17004046045E+04 -0.98076752126E+03  0.21323695948E+04  0.46999998093E+01 0.  1.
</event>
<event>
 5   0  0.2904500E-09  0.3900157E+04  0.7818609E-02  0.8024997E-01
       -1   -1    0    0    0  501  0.00000000000E+00  0.00000000000E+00  0.14663558183E+04  0.14663558183E+04  0.50400001928E-02 0. -1.
        1   -1    0    0  501    0  0.00000000000E+00  0.00000000000E+00 -0.25933713624E+04  0.25933713624E+04  0.50400001928E-02 0.  1.
    10030    2    1    2    0    0  0.00000000000E+00  0.00000000000E+00 -0.11270155441E+04  0.40597271807E+04  0.39001565027E+04 0.  0.
        4    1    3    3  502    0 -0.33031261174E+03  0.17679426514E+04  0.22103750134E+03  0.18120670048E+04  0.12699999809E+01 0.  1.
       -4    1    3    3    0  502  0.33031261174E+03 -0.17679426514E+04 -0.13480530455E+04  0.22476601759E+04  0.12699999809E+01 0. -1.
</event>
<event>
 5   0  0.2904500E-09  0.3892916E+04  0.7818609E-02  0.8026504E-01
        1   -1    0    0  501    0  0.00000000000E+00  0.00000000000E+00  0.22118104749E+04  0.22118104749E+04  0.50400001928E-02 0.  1.
       -1   -1    0    0    0  501  0.00000000000E+00  0.00000000000E+00 -0.17129401166E+04  0.17129401167E+04  0.50400001928E-02 0. -1.
    10030    2    1    2    0    0  0.00000000000E+00  0.00000000000E+00  0.49887035829E+03  0.39247505916E+04  0.38929160756E+04 0.  0.
        2    1    3    3  502    0 -0.15696514280E+04  0.41286423667E+03 -0.83379819019E+03  0.18246867965E+04  0.25500000920E-02 0. -1.
       -2    1    3    3    0  502  0.15696514280E+04 -0.41286423667E+03  0.13326685485E+04  0.21000637951E+04  0.25500000920E-02 0.  1.
</event>
<event>
 5   0  0.9434114E-09  0.3899932E+04  0.7818609E-02  0.8025043E-01
        2   -1    0    0  501    0  0.00000000000E+00  0.00000000000E+00  0.24087319910E+04  0.24087319910E+04  0.25500000920E-02 0. -1.
       -2   -1    0    0    0  501  0.00000000000E+00  0.00000000000E+00 -0.15785763027E+04  0.15785763027E+04  0.25500000920E-02 0.  1.
    10030    2    1    2    0    0  0.00000000000E+00  0.00000000000E+00  0.83015568836E+03  0.39873082937E+04  0.38999319176E+04 0.  0.
        4    1    3    3  502    0 -0.76639013059E+03 -0.15926466920E+04 -0.42708092510E+03  0.18183170921E+04  0.12699999809E+01 0.  1.
       -4    1    3    3    0  502  0.76639013059E+03  0.15926466920E+04  0.12572366135E+04  0.21689912017E+04  0.12699999809E+01 0. -1.
</event>
<event>
 5   0  0.9277261E-09  0.3896044E+04  0.7818609E-02  0.8025852E-01
       -2   -1    0    0    0  501  0.00000000000E+00  0.00000000000E+00  0.20675682152E+04  0.20675682152E+04  0.25500000920E-02 0.  1.
        2   -1    0    0  501    0  0.00000000000E+00  0.00000000000E+00 -0.18353883706E+04  0.18353883706E+04  0.25500000920E-02 0. -1.
    10030    2    1    2    0    0  0.00000000000E+00  0.00000000000E+00  0.23217984456E+03  0.39029565858E+04  0.38960444852E+04 0.  0.
        1    1    3    3  502    0 -0.40469431292E+02  0.18020657158E+04  0.85612376450E+03  0.19955015708E+04  0.50400001928E-02 0.  1.
       -1    1    3    3    0  502  0.40469431292E+02 -0.18020657158E+04 -0.62394391994E+03  0.19074550150E+04  0.50400001928E-02 0. -1.
</event>
<event>
 5   0  0.2904500E-09  0.3881441E+04  0.7818609E-02  0.8028900E-01
        1   -1    0    0  501    0  0.00000000000E+00  0.00000000000E+00  0.18120775872E+04  0.18120775872E+04  0.50400001928E-02 0. -1.
       -1   -1    0    0    0  501  0.00000000000E+00  0.00000000000E+00 -0.20784962515E+04  0.20784962515E+04  0.50400001928E-02 0.  1.
    10030    2    1    2    0    0  0.00000000000E+00  0.00000000000E+00 -0.26641866433E+03  0.38905738387E+04  0.38814412130E+04 0.  0.
        4    1    3    3  502    0 -0.11613077525E+04  0.97975469559E+01 -0.16917514631E+04  0.20520127470E+04  0.12699999809E+01 0.  1.
       -4    1    3    3    0  502  0.11613077525E+04 -0.97975469559E+01  0.14253327988E+04  0.18385610918E+04  0.12699999809E+01 0. -1.
</event>
<event>
 5   0  0.9078515E-09  0.3901235E+04  0.7818609E-02  0.8024772E-01
       -2   -1    0    0    0  501  0.00000000000E+00  0.00000000000E+00  0.19412522683E+04  0.19412522683E+04  0.25500000920E-02 0. -1.
        2   -1    0    0  501    0  0.00000000000E+00  0.00000000000E+00 -0.19600280765E+04  0.19600280765E+04  0.25500000920E-02 0.  1.
    10030    2    1    2    0    0  0.00000000000E+00  0.00000000000E+00 -0.18775808228E+02  0.39012803448E+04  0.39012351631E+04 0.  0.
        3    1    3    3  502    0  0.52851493249E+03 -0.16564783973E+04  0.87473783927E+03  0.19463851141E+04  0.10100000352E+00 0. -1.
       -3    1    3    3    0  502 -0.52851493249E+03  0.16564783973E+04 -0.89351364749E+03  0.19548952307E+04  0.10100000352E+00 0.  1.
</event>
<event>
 5   0  0.2904500E-09  0.3899926E+04  0.7818609E-02  0.8025045E-01
       -1   -1    0    0    0  501  0.00000000000E+00  0.00000000000E+00  0.24624807830E+04  0.24624807830E+04  0.50400001928E-02 0.  1.
        1   -1    0    0  501    0  0.00000000000E+00  0.00000000000E+00 -0.15441159223E+04  0.15441159223E+04  0.50400001928E-02 0. -1.
    10030    2    1    2    0    0  0.00000000000E+00  0.00000000000E+00  0.91836486069E+03  0.40065967053E+04  0.38999260430E+04 0.  0.
        2    1    3    3  502    0 -0.12537475045E+04  0.82862568558E+03  0.17356863550E+04  0.22958899048E+04  0.25500000920E-02 0.  1.
       -2    1    3    3    0  502  0.12537475045E+04 -0.82862568558E+03 -0.81732149436E+03  0.17107068004E+04  0.25500000920E-02 0. -1.
</event>
<event>
 5   0  0.2904500E-09  0.3898533E+04  0.7818609E-02  0.8025334E-01
       -1   -1    0    0    0  501  0.00000000000E+00  0.00000000000E+00  0.14045079239E+04  0.14045079239E+04  0.50400001928E-02 0.  1.
        1   -1    0    0  501    0  0.00000000000E+00  0.00000000000E+00 -0.27053169299E+04  0.27053169299E+04  0.50400001928E-02 0. -1.
    10030    2    1    2    0    0  0.00000000000E+00  0.00000000000E+00 -0.13008090060E+04  0.41098248539E+04  0.38985325777E+04 0.  0.
        3    1    3    3  502    0  0.71088174850E+03 -0.16453524558E+04 -0.14581577974E+04  0.23105760616E+04  0.10100000352E+00 0. -1.
       -3    1    3    3    0  502 -0.71088174850E+03  0.16453524558E+04  0.15734879140E+03  0.17992487923E+04  0.10100000352E+00 0.  1.
</event>
<event>
 5   0  0.2904500E-09  0.3901056E+04  0.7818609E-02  0.8024810E-01
        3   -1    0    0  501    0  0.00000000000E+00  0.00000000000E+00  0.36233167369E+04  0.36233167383E+04  0.10100000352E+00 0. -1.
       -3   -1    0    0    0  501  0.00000000000E+00  0.00000000000E+00 -0.10500213534E+04  0.10500213583E+04  0.10100000352E+00 0.  1.
    10030    2    1    2    0    0  0.00000000000E+00  0.00000000000E+00  0.25732953834E+04  0.46733380965E+04  0.39010562460E+04 0.  0.
        3    1    3    3  502    0  0.96850353203E+03  0.14301620490E+04  0.20105036688E+03  0.17389030560E+04  0.10100000352E+00 0.  1.
       -3    1    3    3    0  502 -0.96850353203E+03 -0.14301620490E+04  0.23722450166E+04  0.29344350405E+04  0.10100000352E+00 0. -1.
</event>
<event>
 5   0  0.2904500E-09  0.3899495E+04  0.7818609E-02  0.8025134E-01
       -1   -1    0    0    0  501  0.00000000000E+00  0.00000000000E+00  0.13395212436E+04  0.13395212436E+04  0.50400001928E-02 0.  1.
        1   -1    0    0  501    0  0.00000000000E+00  0.00000000000E+00 -0.28379662127E+04  0.28379662127E+04  0.50400001928E-02 0. -1.
    10030    2    1    2    0    0  0.00000000000E+00  0.00000000000E+00 -0.14984449690E+04  0.41774874563E+04  0.38994953676E+04 0.  0.
        2    1    3    3  502    0 -0.14600259733E+04  0.80248765321E+03  0.33582681728E+03  0.16995416816E+04  0.25500000920E-02 0.  1.
       -2    1    3    3    0  502  0.14600259733E+04 -0.80248765321E+03 -0.18342717863E+04  0.24779457747E+04  0.25500000920E-02 0. -1.
</event>
<event>
 5   0  0.6335942E-09  0.3899042E+04  0.7818609E-02  0.8025229E-01
       -2   -1    0    0    0  501  0.00000000000E+00  0.00000000000E+00  0.17405603719E+04  0.17405603719E+04  0.25500000920E-02 0.  1.
        2   -1    0    0  501    0  0.00000000000E+00  0.00000000000E+00 -0.21835675550E+04  0.21835675550E+04  0.25500000920E-02 0. -1.
    10030    2    1    2    0    0  0.00000000000E+00  0.00000000000E+00 -0.44300718310E+03  0.39241279268E+04  0.38990415004E+04 0.  0.
        2    1    3    3  502    0 -0.15916429982E+04 -0.11255804172E+04 -0.24092661902E+03  0.19642566903E+04  0.25500000920E-02 0. -1.
       -2    1    3    3    0  502  0.15916429982E+04  0.11255804172E+04 -0.20208056408E+03  0.19598712366E+04  0.25500000920E-02 0.  1.
</event>
<event>
 5   0  0.2929054E-09  0.3896763E+04  0.7818609E-02  0.8025703E-01
       -1   -1    0    0    0  501  0.00000000000E+00  0.00000000000E+00  0.28827505276E+04  0.28827505276E+04  0.50400001928E-02 0. -1.
        1   -1    0    0  501    0  0.00000000000E+00  0.00000000000E+00 -0.13168642744E+04  0.13168642744E+04  0.50400001928E-02 0.  1.
    10030    2    1    2    0    0  0.00000000000E+00  0.00000000000E+00  0.15658862532E+04  0.41996148020E+04  0.38967633656E+04 0.  0.
        1    1    3    3  502    0 -0.87742956458E+03  0.86224866416E+03 -0.84538813103E+03  0.14926608763E+04  0.50400001928E-02 0.  1.
       -1    1    3    3    0  502  0.87742956458E+03 -0.86224866416E+03  0.24112743843E+04  0.27069539257E+04  0.50400001928E-02 0. -1.
</event>
<event>
 5   0  0.2904500E-09  0.3899792E+04  0.7818609E-02  0.8025072E-01
        1   -1    0    0  501    0  0.00000000000E+00  0.00000000000E+00  0.19544140198E+04  0.19544140198E+04  0.50400001928E-02 0.  1.
       -1   -1    0    0    0  501  0.00000000000E+00  0.00000000000E+00 -0.19453886282E+04  0.19453886282E+04  0.50400001928E-02 0. -1.
    10030    2    1    2    0    0  0.00000000000E+00  0.00000000000E+00  0.90253915993E+01  0.38998026480E+04  0.38997922042E+04 0.  0.
        3    1    3    3  502    0 -0.17564735067E+04  0.10320950148E+03  0.84489784583E+03  0.19518462442E+04  0.10100000352E+00 0.  1.
       -3    1    3    3    0  502  0.17564735067E+04 -0.10320950148E+03 -0.83587245423E+03  0.19479564038E+04  0.10100000352E+00 0. -1.
</event>
<event>
 5   0  0.6335942E-09  0.3880572E+04  0.7818609E-02  0.8029082E-01
        2   -1    0    0  501    0  0.00000000000E+00  0.00000000000E+00  0.26744316150E+04  0.26744316150E+04  0.25500000920E-02 0. -1.
       -2   -1    0    0    0  501  0.00000000000E+00  0.00000000000E+00 -0.14076675297E+04  0.14076675297E+04  0.25500000920E-02 0.  1.
    10030    2    1    2    0    0  0.00000000000E+00  0.00000000000E+00  0.12667640853E+04  0.40820991447E+04  0.38805724036E+04 0.  0.
        2    1    3    3  502    0  0.18286370512E+04  0.49782534485E+03  0.19589077239E+03  0.19052865227E+04  0.25500000920E-02 0. -1.
       -2    1    3    3    0  502 -0.18286370512E+04 -0.49782534485E+03  0.10708733129E+04  0.21768126220E+04  0.25500000920E-02 0.  1.
</event>
<event>
 5   0  0.6335942E-09  0.3899378E+04  0.7818609E-02  0.8025158E-01
       -2   -1    0    0    0  501  0.00000000000E+00  0.00000000000E+00  0.15943070648E+04  0.15943070648E+04  0.25500000920E-02 0.  1.
        2   -1    0    0  501    0  0.00000000000E+00  0.00000000000E+00 -0.23842885466E+04  0.23842885466E+04  0.25500000920E-02 0. -1.
    10030    2    1    2    0    0  0.00000000000E+00  0.00000000000E+00 -0.78998148179E+03  0.39785956114E+04  0.38993784501E+04 0.  0.
        2    1    3    3  502    0  0.15884377439E+04 -0.48048021087E+03  0.64917245846E+03  0.17819709818E+04  0.25500000920E-02 0.  1.
       -2    1    3    3    0  502 -0.15884377439E+04  0.48048021087E+03 -0.14391539402E+04  0.21966246295E+04  0.25500000920E-02 0. -1.
</event>
<event>
 5   0  0.2904500E-09  0.3898377E+04  0.7818609E-02  0.8025367E-01
        1   -1    0    0  501    0  0.00000000000E+00  0.00000000000E+00  0.16345852958E+04  0.16345852958E+04  0.50400001928E-02 0.  1.
       -1   -1    0    0    0  501  0.00000000000E+00  0.00000000000E+00 -0.23243425149E+04  0.23243425149E+04  0.50400001928E-02 0. -1.
    10030    2    1    2    0    0  0.00000000000E+00  0.00000000000E+00 -0.68975721911E+03  0.39589278107E+04  0.38983771481E+04 0.  0.
        5    1    3    3  502    0  0.19032451684E+04  0.86885715696E+02 -0.76288174607E+03  0.20522918766E+04  0.46999998093E+01 0. -1.
       -5    1    3    3    0  502 -0.19032451684E+04 -0.86885715696E+02  0.73124526961E+02  0.19066359340E+04  0.46999998093E+01 0.  1.
</event>
<event>
 5   0  0.9434114E-09  0.3900246E+04  0.7818609E-02  0.8024978E-01
        2   -1    0    0  501    0  0.00000000000E+00  0.00000000000E+00  0.13251669208E+04  0.13251669208E+04  0.25500000920E-02 0.  1.
       -2   -1    0    0    0  501  0.00000000000E+00  0.00000000000E+00 -0.28698116490E+04  0.28698116490E+04  0.25500000920E-02 0. -1.
    10030    2    1    2    0    0  0.00000000000E+00  0.00000000000E+00 -0.15446447282E+04  0.41949785698E+04  0.39002458723E+04 0.  0.
        4    1    3    3  502    0 -0.10452147361E+04  0.47894418820E+02  0.99770075954E+03  0.14457441470E+04  0.12699999809E+01 0.  1.
       -4    1    3    3    0  502  0.10452147361E+04 -0.47894418820E+02 -0.25423454877E+04  0.27492344228E+04  0.12699999809E+01 0. -1.
</event>
<event>
 5   0  0.2904500E-09  0.3900498E+04  0.7818609E-02  0.8024926E-01
       -1   -1    0    0    0  501  0.00000000000E+00  0.00000000000E+00  0.15832989979E+04  0.15832989979E+04  0.50400001928E-02 0. -1.
        1   -1    0    0  501    0  0.00000000000E+00  0.00000000000E+00 -0.24022443432E+04  0.24022443432E+04  0.50400001928E-02 0.  1.
    10030    2    1    2    0    0  0.00000000000E+00  0.00000000000E+00 -0.81894534526E+03  0.39855433411E+04  0.39004979483E+04 0.  0.
        2    1    3    3  502    0  0.30624089263E+03  0.61979757030E+03  0.14538946524E+04  0.16098888697E+04  0.25500000920E-02 0. -1.
       -2    1    3    3    0  502 -0.30624089263E+03 -0.61979757030E+03 -0.22728399977E+04  0.23756544714E+04  0.25500000920E-02 0.  1.
</event>
<event>
 5   0  0.9078515E-09  0.3900250E+04  0.7818609E-02  0.8024977E-01
        2   -1    0    0  501    0  0.00000000000E+00  0.00000000000E+00  0.18068121453E+04  0.18068121453E+04  0.25500000920E-02 0. -1.
       -2   -1    0    0    0  501  0.00000000000E+00  0.00000000000E+00 -0.21048055853E+04  0.21048055853E+04  0.25500000920E-02 0.  1.
    10030    2    1    2    0    0  0.00000000000E+00  0.00000000000E+00 -0.29799344004E+03  0.39116177306E+04  0.39002503997E+04 0.  0.
        3    1    3    3  502    0 -0.83649801058E+03 -0.11478031344E+04 -0.14892325257E+04  0.20579102223E+04  0.10100000352E+00 0.  1.
       -3    1    3    3    0  502  0.83649801058E+03  0.11478031344E+04  0.11912390857E+04  0.18537075084E+04  0.10100000352E+00 0. -1.
</event>
<event>
 5   0  0.2904500E-09  0.3897233E+04  0.7818609E-02  0.8025605E-01
       -1   -1    0    0    0  501  0.00000000000E+00  0.00000000000E+00  0.15636492693E+04  0.15636492693E+04  0.50400001928E-02 0.  1.
        1   -1    0    0  501    0  0.00000000000E+00  0.00000000000E+00 -0.24283614644E+04  0.24283614644E+04  0.50400001928E-02 0. -1.
    10030    2    1    2    0    0  0.00000000000E+00  0.00000000000E+00 -0.86471219514E+03  0.39920107337E+04  0.38972326743E+04 0.  0.
        2    1    3    3  502    0  0.14431049742E+04  0.12665477793E+04 -0.77271751886E+03  0.20697312888E+04  0.25500000920E-02 0. -1.
       -2    1    3    3    0  502 -0.14431049742E+04 -0.12665477793E+04 -0.91994676276E+02  0.19222794449E+04  0.25500000920E-02 0.  1.
</event>
<event>
 5   0  0.9277261E-09  0.3900487E+04  0.7818609E-02  0.8024928E-01
       -2   -1    0    0    0  501  0.00000000000E+00  0.00000000000E+00  0.29120365814E+04  0.29120365814E+04  0.25500000920E-02 0. -1.
        2   -1    0    0  501    0  0.00000000000E+00  0.00000000000E+00 -0.13061136125E+04  0.13061136125E+04  0.25500000920E-02 0.  1.
    10030    2    1    2    0    0  0.00000000000E+00  0.00000000000E+00  0.16059229689E+04  0.42181501939E+04  0.39004874665E+04 0.  0.
        1    1    3    3  502    0  0.39898454017E+03 -0.18025167628E+04  0.12311786686E+03  0.18502468356E+04  0.50400001928E-02 0.  1.
       -1    1    3    3    0  502 -0.39898454017E+03  0.18025167628E+04  0.14828051021E+04  0.23679033583E+04  0.50400001928E-02 0. -1.
</event>
<event>
 5   0  0.9368546E-09  0.3901224E+04  0.7818609E-02  0.8024775E-01
        2   -1    0    0  501    0  0.00000000000E+00  0.00000000000E+00  0.20656449224E+04  0.20656449224E+04  0.25500000920E-02 0.  1.
       -2   -1    0    0    0  501  0.00000000000E+00  0.00000000000E+00 -0.18419855628E+04  0.18419855628E+04  0.25500000920E-02 0. -1.
    10030    2    1    2    0    0  0.00000000000E+00  0.00000000000E+00  0.22365935963E+03  0.39076304852E+04  0.39012244872E+04 0.  0.
        5    1    3    3  502    0  0.46433939083E+03  0.77886290188E+03 -0.16180347144E+04  0.18548037408E+04  0.46999998093E+01 0. -1.
       -5    1    3    3    0  502 -0.46433939083E+03 -0.77886290188E+03  0.18416940741E+04  0.20528267443E+04  0.46999998093E+01 0.  1.
</event>
<event>
 5   0  0.6335942E-09  0.3901245E+04  0.7818609E-02  0.8024770E-01
        2   -1    0    0  501    0  0.00000000000E+00  0.00000000000E+00  0.30154434330E+04  0.30154434330E+04  0.25500000920E-02 0.  1.
       -2   -1    0    0    0  501  0.00000000000E+00  0.00000000000E+00 -0.12618137247E+04  0.12618137247E+04  0.25500000920E-02 0. -1.
    10030    2    1    2    0    0  0.00000000000E+00  0.00000000000E+00  0.17536297083E+04  0.42772571577E+04  0.39012448833E+04 0.  0.
        2    1    3    3  502    0  0.55652776264E+03  0.18090669131E+04  0.13939561995E+04  0.23506510019E+04  0.25500000920E-02 0.  1.
       -2    1    3    3    0  502 -0.55652776264E+03 -0.18090669131E+04  0.35967350874E+03  0.19266061558E+04  0.25500000920E-02 0. -1.
</event>
<event>
 5   0  0.2904500E-09  0.3900100E+04  0.7818609E-02  0.8025008E-01
       -1   -1    0    0    0  501  0.00000000000E+00  0.00000000000E+00  0.19093031087E+04  0.19093031088E+04  0.50400001928E-02 0. -1.
        1   -1    0    0  501    0  0.00000000000E+00  0.00000000000E+00 -0.19916666116E+04  0.19916666116E+04  0.50400001928E-02 0.  1.
    10030    2    1    2    0    0  0.00000000000E+00  0.00000000000E+00 -0.82363502887E+02  0.39009697204E+04  0.39001001286E+04 0.  0.
        5    1    3    3  502    0 -0.18722394478E+04  0.49546314012E+03 -0.26906777709E+03  0.19552963539E+04  0.46999998093E+01 0.  1.
       -5    1    3    3    0  502  0.18722394478E+04 -0.49546314012E+03  0.18670427420E+03  0.19456733665E+04  0.46999998093E+01 0. -1.
</event>
<event>
 5   0  0.6335942E-09  0.3899569E+04  0.7818609E-02  0.8025119E-01
        2   -1    0    0  501    0  0.00000000000E+00  0.00000000000E+00  0.28962275268E+04  0.28962275268E+04  0.25500000920E-02 0.  1.
       -2   -1    0    0    0  501  0.00000000000E+00  0.00000000000E+00 -0.13126248286E+04  0.13126248286E+04  0.25500000920E-02 0. -1.
    10030    2    1    2    0    0  0.00000000000E+00  0.00000000000E+00  0.15836026982E+04  0.42088523555E+04  0.38995692896E+04 0.  0.
        2    1    3    3  502    0 -0.14002737299E+04  0.12838692550E+04  0.31816483686E+03  0.19262179643E+04  0.25500000920E-02 0.  1.
       -2    1    3    3    0  502  0.14002737299E+04 -0.12838692550E+04  0.12654378614E+04  0.22826343911E+04  0.25500000920E-02 0. -1.
</event>
<event>
 5   0  0.9078515E-09  0.3901179E+04  0.7818609E-02  0.8024784E-01
        2   -1    0    0  501    0  0.00000000000E+00  0.00000000000E+00  0.20858302093E+04  0.20858302093E+04  0.25500000920E-02 0. -1.
       -2   -1    0    0    0  501  0.00000000000E+00  0.00000000000E+00 -0.18241177873E+04  0.18241177873E+04  0.25500000920E-02 0.  1.
    10030    2    1    2    0    0  0.00000000000E+00  0.00000000000E+00  0.26171242198E+03  0.39099479966E+04  0.39011793017E+04 0.  0.
        3    1    3    3  502    0  0.11482222418E+04  0.95345511127E+03 -0.11278763362E+04  0.18707207182E+04  0.10100000352E+00 0.  1.
       -3    1    3    3    0  502 -0.11482222418E+04 -0.95345511127E+03  0.13895887581E+04  0.20392272783E+04  0.10100000352E+00 0. -1.
</event>
<event>
 5   0  0.2904500E-09  0.3895667E+04  0.7818609E-02  0.8025931E-01
        1   -1    0    0  501    0  0.00000000000E+00  0.00000000000E+00  0.27918581951E+04  0.27918581951E+04  0.50400001928E-02 0. -1.
       -1   -1    0    0    0  501  0.00000000000E+00  0.00000000000E+00 -0.13589711855E+04  0.13589711855E+04  0.50400001928E-02 0.  1.
    10030    2    1    2    0    0  0.00000000000E+00  0.00000000000E+00  0.14328870096E+04  0.41508293806E+04  0.38956667420E+04 0.  0.
        4    1    3    3  502    0  0.22449192350E+03  0.74595748316E+03 -0.11857645567E+04  0.14187629778E+04  0.12699999809E+01 0.  1.
       -4    1    3    3    0  502 -0.22449192350E+03 -0.74595748316E+03  0.26186515663E+04  0.27320664027E+04  0.12699999809E+01 0. -1.
</event>
<event>
 5   0  0.9368546E-09  0.3899348E+04  0.7818609E-02  0.8025165E-01
       -2   -1    0    0    0  501  0.00000000000E+00  0.00000000000E+00  0.34945173229E+04  0.34945173229E+04  0.25500000920E-02 0. -1.
        2   -1    0    0  501    0  0.00000000000E+00  0.00000000000E+00 -0.10877694913E+04  0.10877694913E+04  0.25500000920E-02 0.  1.
    10030    2    1    2    0    0  0.00000000000E+00  0.00000000000E+00  0.24067478316E+04  0.45822868142E+04  0.38993483203E+04 0.  0.
        5    1    3    3  502    0  0.99009462553E+02  0.16751856989E+04  0.23697618396E+04  0.29037636381E+04  0.46999998093E+01 0. -1.
       -5    1    3    3    0  502 -0.99009462553E+02 -0.16751856989E+04  0.36985992037E+02  0.16785231762E+04  0.46999998093E+01 0.  1.
</event>
<event>
 5   0  0.9078515E-09  0.3905346E+04  0.7818609E-02  0.8023918E-01
       -2   -1    0    0    0  501  0.00000000000E+00  0.00000000000E+00  0.17000286023E+04  0.17000286023E+04  0.25500000920E-02 0.  1.
        2   -1    0    0  501    0  0.00000000000E+00  0.00000000000E+00 -0.22428636880E+04  0.22428636880E+04  0.25500000920E-02 0. -1.
    10030    2    1    2    0    0  0.00000000000E+00  0.00000000000E+00 -0.54283508575E+03  0.39428922903E+04  0.39053462948E+04 0.  0.
        3    1    3    3  502    0  0.13417116045E+04  0.10248289485E+04 -0.12619039386E+04  0.21078107039E+04  0.10100000352E+00 0. -1.
       -3    1    3    3    0  502 -0.13417116045E+04 -0.10248289485E+04  0.71906885282E+03  0.18350815863E+04  0.10100000352E+00 0.  1.
</event>
<event>
 5   0  0.2904500E-09  0.3899575E+04  0.7818609E-02  0.8025118E-01
       -1   -1    0    0    0  501  0.00000000000E+00  0.00000000000E+00  0.13891612104E+04  0.13891612104E+04  0.50400001928E-02 0. -1.
        1   -1    0    0  501    0  0.00000000000E+00  0.00000000000E+00 -0.27366670187E+04  0.27366670187E+04  0.50400001928E-02 0.  1.
    10030    2    1    2    0    0  0.00000000000E+00  0.00000000000E+00 -0.13475058082E+04  0.41258282291E+04  0.38995751914E+04 0.  0.
        3    1    3    3  502    0 -0.11302498235E+04  0.10054615540E+04  0.62776386424E+03  0.16378354861E+04  0.10100000352E+00 0. -1.
       -3    1    3    3    0  502  0.11302498235E+04 -0.10054615540E+04 -0.19752696725E+04  0.24879927430E+04  0.10100000352E+00 0.  1.
</event>
<event>
 5   0  0.9434114E-09  0.3898646E+04  0.7818609E-02  0.8025311E-01
       -2   -1    0    0    0  501  0.00000000000E+00  0.00000000000E+00  0.15866058291E+04  0.15866058291E+04  0.25500000920E-02 0.  1.
        2   -1    0    0  501    0  0.00000000000E+00  0.00000000000E+00 -0.23949613168E+04  0.23949613168E+04  0.25500000920E-02 0. -1.
    10030    2    1    2    0    0  0.00000000000E+00  0.00000000000E+00 -0.80835548777E+03  0.39815671459E+04  0.38986457062E+04 0.  0.
        4    1    3    3  502    0  0.15818181060E+04 -0.72388787301E+03  0.49413051740E+03  0.18084050305E+04  0.12699999809E+01 0.  1.
       -4    1    3    3    0  502 -0.15818181060E+04  0.72388787301E+03 -0.13024860052E+04  0.21731621154E+04  0.12699999809E+01 0. -1.
</event>
<event>
 5   0  0.2929054E-09  0.3902709E+04  0.7818609E-02  0.8024466E-01
        1   -1    0    0  501    0  0.00000000000E+00  0.00000000000E+00  0.11468511597E+04  0.11468511597E+04  0.50400001928E-02 0.  1.
       -1   -1    0    0    0  501  0.00000000000E+00  0.00000000000E+00 -0.33202076500E+04  0.33202076500E+04  0.50400001928E-02 0. -1.
    10030    2    1    2    0    0  0.00000000000E+00  0.00000000000E+00 -0.21733564902E+04  0.44670588097E+04  0.39027087998E+04 0.  0.
        1    1    3    3  502    0  0.18465091125E+03  0.14546789816E+04  0.38697400298E+03  0.15165539151E+04  0.50400001928E-02 0.  1.
       -1    1    3    3    0  502 -0.18465091125E+03 -0.14546789816E+04 -0.25603304932E+04  0.29505048946E+04  0.50400001928E-02 0. -1.
</event>
<event>
 5   0  0.9434114E-09  0.3901714E+04  0.7818609E-02  0.8024673E-01
        2   -1    0    0  501    0  0.00000000000E+00  0.00000000000E+00  0.27670306183E+04  0.27670306183E+04  0.25500000920E-02 0.  1.
       -2   -1    0    0    0  501  0.00000000000E+00  0.00000000000E+00 -0.13754248576E+04  0.13754248576E+04  0.25500000920E-02 0. -1.
    10030    2    1    2    0    0  0.00000000000E+00  0.00000000000E+00  0.13916057607E+04  0.41424554759E+04  0.39017138256E+04 0.  0.
        4    1    3    3  502    0  0.22713317460E+03 -0.16270796842E+04  0.18127932566E+04  0.24464665912E+04  0.12699999809E+01 0. -1.
       -4    1    3    3    0  502 -0.22713317460E+03  0.16270796842E+04 -0.42118749591E+03  0.16959888848E+04  0.12699999809E+01 0.  1.
</event>
<event>
 5   0  0.9277261E-09  0.3899772E+04  0.7818609E-02  0.8025077E-01
       -2   -1    0    0    0  501  0.00000000000E+00  0.00000000000E+00  0.17667485839E+04  0.17667485839E+04  0.25500000920E-02 0. -1.
        2   -1    0    0  501    0  0.00000000000E+00  0.00000000000E+00 -0.21520069561E+04  0.21520069561E+04  0.25500000920E-02 0.  1.
    10030    2    1    2    0    0  0.00000000000E+00  0.00000000000E+00 -0.38525837211E+03  0.39187555400E+04  0.38997719124E+04 0.  0.
        1    1    3    3  502    0 -0.11872244884E+04 -0.15461333949E+04 -0.14741257164E+03  0.19549324610E+04  0.50400001928E-02 0.  1.
       -1    1    3    3    0  502  0.11872244884E+04  0.15461333949E+04 -0.23784580047E+03  0.19638230790E+04  0.50400001928E-02 0. -1.
</event>
<event>
 5   0  0.9078515E-09  0.3901454E+04  0.7818609E-02  0.8024727E-01
        2   -1    0    0  501    0  0.00000000000E+00  0.00000000000E+00  0.22668742562E+04  0.22668742562E+04  0.25500000920E-02 0.  1.
       -2   -1    0    0    0  501  0.00000000000E+00  0.00000000000E+00 -0.16786705958E+04  0.16786705958E+04  0.25500000920E-02 0. -1.
    10030    2    1    2    0    0  0.00000000000E+00  0.00000000000E+00  0.58820366046E+03  0.39455448520E+04  0.39014536564E+04 0.  0.
        3    1    3    3  502    0  0.18659744784E+03  0.13360154990E+04 -0.11309285775E+04  0.17603282304E+04  0.10100000352E+00 0. -1.
       -3    1    3    3    0  502 -0.18659744784E+03 -0.13360154990E+04  0.17191322380E+04  0.21852166216E+04  0.10100000352E+00 0.  1.
</event>
<event>
 5   0  0.9078515E-09  0.3901747E+04  0.7818609E-02  0.8024666E-01
       -2   -1    0    0    0  501  0.00000000000E+00  0.00000000000E+00  0.36690200239E+04  0.36690200239E+04  0.25500000920E-02 0. -1.
        2   -1    0    0  501    0  0.00000000000E+00  0.00000000000E+00 -0.10373089156E+04  0.10373089156E+04  0.25500000920E-02 0.  1.
    10030    2    1    2    0    0  0.00000000000E+00  0.00000000000E+00  0.26317111083E+04  0.47063289396E+04  0.39017468818E+04 0.  0.
        3    1    3    3  502    0 -0.20114284882E+03  0.95115702294E+03 -0.72429898931E+03  0.12123395416E+04  0.10100000352E+00 0.  1.
       -3    1    3    3    0  502  0.20114284882E+03 -0.95115702294E+03  0.33560100976E+04  0.34939893980E+04  0.10100000352E+00 0. -1.
</event>
<event>
 5   0  0.2904500E-09  0.3904388E+04  0.7818609E-02  0.8024117E-01
       -1   -1    0    0    0  501  0.00000000000E+00  0.00000000000E+00  0.30165796998E+04  0.30165796998E+04  0.50400001928E-02 0. -1.
        1   -1    0    0  501    0  0.00000000000E+00  0.00000000000E+00 -0.12633715560E+04  0.12633715560E+04  0.50400001928E-02 0.  1.
    10030    2    1    2    0    0  0.00000000000E+00  0.00000000000E+00  0.17532081437E+04  0.42799512558E+04  0.39043877826E+04 0.  0.
        2    1    3    3  502    0 -0.40124956014E+03 -0.13389077310E+04  0.23705571111E+04  0.27519476991E+04  0.25500000920E-02 0. -1.
       -2    1    3    3    0  502  0.40124956014E+03  0.13389077310E+04 -0.61734896736E+03  0.15280035567E+04  0.25500000920E-02 0.  1.
</event>
<event>
 5   0  0.2904500E-09  0.3901024E+04  0.7818609E-02  0.8024816E-01
       -1   -1    0    0    0  501  0.00000000000E+00  0.00000000000E+00  0.18000668525E+04  0.18000668525E+04  0.50400001928E-02 0.  1.
        1   -1    0    0  501    0  0.00000000000E+00  0.00000000000E+00 -0.21135311195E+04  0.21135311195E+04  0.50400001928E-02 0. -1.
    10030    2    1    2    0    0  0.00000000000E+00  0.00000000000E+00 -0.31346426697E+03  0.39135979720E+04  0.39010241270E+04 0.  0.
        3    1    3    3  502    0 -0.12640765499E+02 -0.18204310728E+04 -0.85925219734E+03  0.20130681629E+04  0.10100000352E+00 0. -1.
       -3    1    3    3    0  502  0.12640765499E+02  0.18204310728E+04  0.54578793037E+03  0.19005298090E+04  0.10100000352E+00 0.  1.
</event>
<event>
 5   0  0.2904500E-09  0.3900161E+04  0.7818609E-02  0.8024996E-01
       -1   -1    0    0    0  501  0.00000000000E+00  0.00000000000E+00  0.16094338469E+04  0.16094338469E+04  0.50400001928E-02 0. -1.
        1   -1    0    0  501    0  0.00000000000E+00  0.00000000000E+00 -0.23628265554E+04  0.23628265554E+04  0.50400001928E-02 0.  1.
    10030    2    1    2    0    0  0.00000000000E+00  0.00000000000E+00 -0.75339270846E+03  0.39722604024E+04  0.39001605263E+04 0.  0.
        5    1    3    3  502    0  0.93900548827E+03 -0.16968843745E+04 -0.58453510433E+03  0.20255496206E+04  0.46999998093E+01 0. -1.
       -5    1    3    3    0  502 -0.93900548827E+03  0.16968843745E+04 -0.16885760413E+03  0.19467107818E+04  0.46999998093E+01 0.  1.
</event>
<event>
 5   0  0.2904500E-09  0.3901264E+04  0.7818609E-02  0.8024766E-01
        1   -1    0    0  501    0  0.00000000000E+00  0.00000000000E+00  0.17726962824E+04  0.17726962824E+04  0.50400001928E-02 0.  1.
       -1   -1    0    0    0  501  0.00000000000E+00  0.00000000000E+00 -0.21464278144E+04  0.21464278144E+04  0.50400001928E-02 0. -1.
    10030    2    1    2    0    0  0.00000000000E+00  0.00000000000E+00 -0.37373153198E+03  0.39191240968E+04  0.39012636963E+04 0.  0.
        2    1    3    3  502    0  0.13221106924E+04 -0.12274628893E+04 -0.93209941140E+03  0.20306282625E+04  0.25500000920E-02 0. -1.
       -2    1    3    3    0  502 -0.13221106924E+04  0.12274628893E+04  0.55836787942E+03  0.18884958344E+04  0.25500000920E-02 0.  1.
</event>
<event>
 5   0  0.2929054E-09  0.3901475E+04  0.7818609E-02  0.8024722E-01
        1   -1    0    0  501    0  0.00000000000E+00  0.00000000000E+00  0.14696113496E+04  0.14696113496E+04  0.50400001928E-02 0.  1.
       -1   -1    0    0    0  501  0.00000000000E+00  0.00000000000E+00 -0.25893766361E+04  0.25893766361E+04  0.50400001928E-02 0. -1.
    10030    2    1    2    0    0  0.00000000000E+00  0.00000000000E+00 -0.11197652865E+04  0.40589879857E+04  0.39014752557E+04 0.  0.
        1    1    3    3  502    0  0.16017638984E+04 -0.18586441410E+03 -0.17020128306E+04  0.23445769005E+04  0.50400001928E-02 0. -1.
       -1    1    3    3    0  502 -0.16017638984E+04  0.18586441410E+03  0.58224754407E+03  0.17144110852E+04  0.50400001928E-02 0.  1.
</event>
<event>
 5   0  0.9434114E-09  0.3900198E+04  0.7818609E-02  0.8024988E-01
        2   -1    0    0  501    0  0.00000000000E+00  0.00000000000E+00  0.24930310860E+04  0.24930310860E+04  0.25500000920E-02 0. -1.
       -2   -1    0    0    0  501  0.00000000000E+00  0.00000000000E+00 -0.15254066921E+04  0.15254066921E+04  0.25500000920E-02 0.  1.
    10030    2    1    2    0    0  0.00000000000E+00  0.00000000000E+00  0.96762439395E+03  0.40184377781E+04  0.39001980987E+04 0.  0.
        4    1    3    3  502    0  0.25273723587E+03  0.83580365505E+03  0.22803603402E+04  0.24418207867E+04  0.12699999809E+01 0. -1.
       -4    1    3    3    0  502 -0.25273723587E+03 -0.83580365505E+03 -0.13127359463E+04  0.15766169914E+04  0.12699999809E+01 0.  1.
</event>
<event>
 5   0  0.2904500E-09  0.3896908E+04  0.7818609E-02  0.8025673E-01
        1   -1    0    0  501    0  0.00000000000E+00  0.00000000000E+00  0.19089239053E+04  0.19089239053E+04  0.50400001928E-02 0. -1.
       -1   -1    0    0    0  501  0.00000000000E+00  0.00000000000E+00 -0.19888021880E+04  0.19888021880E+04  0.50400001928E-02 0.  1.
    10030    2    1    2    0    0  0.00000000000E+00  0.00000000000E+00 -0.79878282647E+02  0.38977260933E+04  0.38969075121E+04 0.  0.
        3    1    3    3  502    0  0.14720326210E+04 -0.11117647623E+03  0.12320322747E+04  0.19227958244E+04  0.10100000352E+00 0.  1.
       -3    1    3    3    0  502 -0.14720326210E+04  0.11117647623E+03 -0.13119105574E+04  0.19749302689E+04  0.10100000352E+00 0. -1.
</event>
<event>
 5   0  0.6335942E-09  0.3901192E+04  0.7818609E-02  0.8024781E-01
        2   -1    0    0  501    0  0.00000000000E+00  0.00000000000E+00  0.23478499761E+04  0.23478499761E+04  0.25500000920E-02 0.  1.
       -2   -1    0    0    0  501  0.00000000000E+00  0.00000000000E+00 -0.16205566267E+04  0.16205566267E+04  0.25500000920E-02 0. -1.
    10030    2    1    2    0    0  0.00000000000E+00  0.00000000000E+00  0.72729334935E+03  0.39684066028E+04  0.39011915294E+04 0.  0.
        2    1    3    3  502    0  0.74772541062E+03 -0.12376952732E+03  0.21919482144E+04  0.23192777239E+04  0.25500000920E-02 0.  1.
       -2    1    3    3    0  502 -0.74772541062E+03  0.12376952732E+03 -0.14646548651E+04  0.16491288790E+04  0.25500000920E-02 0. -1.
</event>
<event>
 5   0  0.2904500E-09  0.3900127E+04  0.7818609E-02  0.8025003E-01
       -1   -1    0    0    0  501  0.00000000000E+00  0.00000000000E+00  0.12740304912E+04  0.12740304913E+04  0.50400001928E-02 0. -1.
        1   -1    0    0  501    0  0.00000000000E+00  0.00000000000E+00 -0.29848161208E+04  0.29848161208E+04  0.50400001928E-02 0.  1.
    10030    2    1    2    0    0  0.00000000000E+00  0.00000000000E+00 -0.17107856295E+04  0.42588466120E+04  0.39001265357E+04 0.  0.
        5    1    3    3  502    0  0.83595307222E+02 -0.18300465013E+04 -0.15851945441E+04  0.24225858509E+04  0.46999998093E+01 0.  1.
       -5    1    3    3    0  502 -0.83595307222E+02  0.18300465013E+04 -0.12559108540E+03  0.18362607611E+04  0.46999998093E+01 0. -1.
</event>
<event>
 5   0  0.6335942E-09  0.3899148E+04  0.7818609E-02  0.8025206E-01
       -2   -1    0    0    0  501  0.00000000000E+00  0.00000000000E+00  0.12530497476E+04  0.12530497476E+04  0.25500000920E-02 0. -1.
        2   -1    0    0  501    0  0.00000000000E+00  0.00000000000E+00 -0.30332703125E+04  0.30332703125E+04  0.25500000920E-02 0.  1.
    10030    2    1    2    0    0  0.00000000000E+00  0.00000000000E+00 -0.17802205649E+04  0.42863200600E+04  0.38991479066E+04 0.  0.
        2    1    3    3  502    0  0.66674194647E+03 -0.16252421930E+04  0.39352370095E+02  0.17571299377E+04  0.25500000920E-02 0. -1.
       -2    1    3    3    0  502 -0.66674194647E+03  0.16252421930E+04 -0.18195729350E+04  0.25291901223E+04  0.25500000920E-02 0.  1.
</event>
<event>
 5   0  0.9434114E-09  0.3900427E+04  0.7818609E-02  0.8024940E-01
       -2   -1    0    0    0  501  0.00000000000E+00  0.00000000000E+00  0.14393036134E+04  0.14393036134E+04  0.25500000920E-02 0. -1.
        2   -1    0    0  501    0  0.00000000000E+00  0.00000000000E+00 -0.26424813468E+04  0.26424813468E+04  0.25500000920E-02 0.  1.
    10030    2    1    2    0    0  0.00000000000E+00  0.00000000000E+00 -0.12031777334E+04  0.40817849602E+04  0.39004271309E+04 0.  0.
        4    1    3    3  502    0  0.87325656625E+03  0.14649167580E+04  0.38831822669E+03  0.17490999961E+04  0.12699999809E+01 0. -1.
       -4    1    3    3    0  502 -0.87325656625E+03 -0.14649167580E+04 -0.15914959601E+04  0.23326849642E+04  0.12699999809E+01 0.  1.
</event>
<event>
 5   0  0.9277261E-09  0.3898621E+04  0.7818609E-02  0.8025316E-01
       -2   -1    0    0    0  501  0.00000000000E+00  0.00000000000E+00  0.18648124981E+04  0.18648124981E+04  0.25500000920E-02 0.  1.
        2   -1    0    0  501    0  0.00000000000E+00  0.00000000000E+00 -0.20376373823E+04  0.20376373823E+04  0.25500000920E-02 0. -1.
    10030    2    1    2    0    0  0.00000000000E+00  0.00000000000E+00 -0.17282488420E+03  0.39024498804E+04  0.38986211188E+04 0.  0.
        1    1    3    3  502    0  0.16242180185E+03 -0.60360242520E+03 -0.19345991832E+04  0.20330742065E+04  0.50400001928E-02 0. -1.
       -1    1    3    3    0  502 -0.16242180185E+03  0.60360242520E+03  0.17617742990E+04  0.18693756739E+04  0.50400001928E-02 0.  1.
</event>
<event>
 5   0  0.2904500E-09  0.3900520E+04  0.7818609E-02  0.8024921E-01
       -1   -1    0    0    0  501  0.00000000000E+00  0.00000000000E+00  0.17161101530E+04  0.17161101530E+04  0.50400001928E-02 0.  1.
        1   -1    0    0  501    0  0.00000000000E+00  0.00000000000E+00 -0.22163573703E+04  0.22163573703E+04  0.50400001928E-02 0. -1.
    10030    2    1    2    0    0  0.00000000000E+00  0.00000000000E+00 -0.50024721736E+03  0.39324675233E+04  0.39005196504E+04 0.  0.
        2    1    3    3  502    0 -0.18597211051E+04 -0.58098144624E+03 -0.33691797096E+03  0.19772748289E+04  0.25500000920E-02 0. -1.
       -2    1    3    3    0  502  0.18597211051E+04  0.58098144624E+03 -0.16332924640E+03  0.19551926945E+04  0.25500000920E-02 0.  1.
</event>
<event>
 5   0  0.9434114E-09  0.3898223E+04  0.7818609E-02  0.8025399E-01
       -2   -1    0    0    0  501  0.00000000000E+00  0.00000000000E+00  0.19924668284E+04  0.19924668284E+04  0.25500000920E-02 0. -1.
        2   -1    0    0  501    0  0.00000000000E+00  0.00000000000E+00 -0.19066998346E+04  0.19066998346E+04  0.25500000920E-02 0.  1.
    10030    2    1    2    0    0  0.00000000000E+00  0.00000000000E+00  0.85766993790E+02  0.38991666629E+04  0.38982232732E+04 0.  0.
        4    1    3    3  502    0 -0.35760806976E+03 -0.18620814214E+04 -0.40867210622E+03  0.19396508074E+04  0.12699999809E+01 0. -1.
       -4    1    3    3    0  502  0.35760806976E+03  0.18620814214E+04  0.49443910001E+03  0.19595158555E+04  0.12699999809E+01 0.  1.
</event>
<event>
 5   0  0.6335942E-09  0.3899770E+04  0.7818609E-02  0.8025077E-01
        2   -1    0    0  501    0  0.00000000000E+00  0.00000000000E+00  0.21766736861E+04  0.21766736861E+04  0.25500000920E-02 0. -1.
       -2   -1    0    0    0  501  0.00000000000E+00  0.00000000000E+00 -0.17467257047E+04  0.17467257047E+04  0.25500000920E-02 0.  1.
    10030    2    1    2    0    0  0.00000000000E+00  0.00000000000E+00  0.42994798145E+03  0.39233993908E+04  0.38997701872E+04 0.  0.
        2    1    3    3  502    0  0.88026243995E+03  0.10420778499E+04  0.16167085114E+04  0.21153095800E+04  0.25500000920E-02 0. -1.
       -2    1    3    3    0  502 -0.88026243995E+03 -0.10420778499E+04 -0.11867605300E+04  0.18080898108E+04  0.25500000920E-02 0.  1.
</event>
<event>
 5   0  0.9368546E-09  0.3903712E+04  0.7818609E-02  0.8024258E-01
        2   -1    0    0  501    0  0.00000000000E+00  0.00000000000E+00  0.18404211813E+04  0.18404211813E+04  0.25500000920E-02 0.  1.
       -2   -1    0    0    0  501  0.00000000000E+00  0.00000000000E+00 -0.20700384435E+04  0.20700384436E+04  0.25500000920E-02 0. -1.
    10030    2    1    2    0    0  0.00000000000E+00  0.00000000000E+00 -0.22961726223E+03  0.39104596249E+04  0.39037123857E+04 0.  0.
        5    1    3    3  502    0 -0.14851492431E+04 -0.80795385855E+03 -0.10918214219E+04  0.20125987725E+04  0.46999998093E+01 0. -1.
       -5    1    3    3    0  502  0.14851492431E+04  0.80795385855E+03  0.86220415966E+03  0.18978608523E+04  0.46999998093E+01 0.  1.
</event>
<event>
 5   0  0.9434114E-09  0.3899116E+04  0.7818609E-02  0.8025213E-01
        2   -1    0    0  501    0  0.00000000000E+00  0.00000000000E+00  0.22142136382E+04  0.22142136382E+04  0.25500000920E-02 0. -1.
       -2   -1    0    0    0  501  0.00000000000E+00  0.00000000000E+00 -0.17165353384E+04  0.17165353384E+04  0.25500000920E-02 0.  1.
    10030    2    1    2    0    0  0.00000000000E+00  0.00000000000E+00  0.49767829984E+03  0.39307489766E+04  0.38991157750E+04 0.  0.
        4    1    3    3  502    0  0.16523593920E+04  0.81729717381E+03  0.88842154153E+03  0.20463530191E+04  0.12699999809E+01 0. -1.
       -4    1    3    3    0  502 -0.16523593920E+04 -0.81729717381E+03 -0.39074324169E+03  0.18843959574E+04  0.12699999809E+01 0.  1.
</event>
<event>
 5   0  0.2904500E-09  0.3899182E+04  0.7818609E-02  0.8025199E-01
       -1   -1    0    0    0  501  0.00000000000E+00  0.00000000000E+00  0.28666429360E+04  0.28666429360E+04  0.50400001928E-02 0. -1.
        1   -1    0    0  501    0  0.00000000000E+00  0.00000000000E+00 -0.13259079246E+04  0.13259079246E+04  0.50400001928E-02 0.  1.
    10030    2    1    2    0    0  0.00000000000E+00  0.00000000000E+00  0.15407350113E+04  0.41925508606E+04  0.38991817531E+04 0.  0.
        3    1    3    3  502    0  0.19239449169E+04  0.66098523084E+02  0.11017286259E+04  0.22180484740E+04  0.10100000352E+00 0. -1.
       -3    1    3    3    0  502 -0.19239449169E+04 -0.66098523084E+02  0.43900638544E+03  0.19745023866E+04  0.10100000352E+00 0.  1.
</event>
<event>
 5   0  0.2904500E-09  0.3899831E+04  0.7818609E-02  0.8025064E-01
       -1   -1    0    0    0  501  0.00000000000E+00  0.00000000000E+00  0.25132060632E+04  0.25132060632E+04  0.50400001928E-02 0.  1.
        1   -1    0    0  501    0  0.00000000000E+00  0.00000000000E+00 -0.15128768378E+04  0.15128768378E+04  0.50400001928E-02 0. -1.
    10030    2    1    2    0    0  0.00000000000E+00  0.00000000000E+00  0.10003292254E+04  0.40260829010E+04  0.38998314023E+04 0.  0.
        5    1    3    3  502    0 -0.82940650289E+03 -0.14989365028E+04  0.14616715883E+04  0.22519395437E+04  0.46999998093E+01 0.  1.
       -5    1    3    3    0  502  0.82940650289E+03  0.14989365028E+04 -0.46134236283E+03  0.17741433573E+04  0.46999998093E+01 0. -1.
</event>
<event>
 5   0  0.2904500E-09  0.3899136E+04  0.7818609E-02  0.8025209E-01
        1   -1    0    0  501    0  0.00000000000E+00  0.00000000000E+00  0.12407193306E+04  0.12407193306E+04  0.50400001928E-02 0. -1.
       -1   -1    0    0    0  501  0.00000000000E+00  0.00000000000E+00 -0.30633970364E+04  0.30633970364E+04  0.50400001928E-02 0.  1.
    10030    2    1    2    0    0  0.00000000000E+00  0.00000000000E+00 -0.18226777058E+04  0.43041163670E+04  0.38991362738E+04 0.  0.
        3    1    3    3  502    0 -0.95144581974E+02 -0.17207592918E+04  0.94783957243E+02  0.17259921902E+04  0.10100000352E+00 0. -1.
       -3    1    3    3    0  502  0.95144581974E+02  0.17207592918E+04 -0.19174616630E+04  0.25781241768E+04  0.10100000352E+00 0.  1.
</event>
<event>
 5   0  0.9368546E-09  0.3898611E+04  0.7818609E-02  0.8025318E-01
       -2   -1    0    0    0  501  0.00000000000E+00  0.00000000000E+00  0.28040716056E+04  0.28040716056E+04  0.25500000920E-02 0. -1.
        2   -1    0    0  501    0  0.00000000000E+00  0.00000000000E+00 -0.13550977528E+04  0.13550977528E+04  0.25500000920E-02 0.  1.
    10030    2    1    2    0    0  0.00000000000E+00  0.00000000000E+00  0.14489738528E+04  0.41591693584E+04  0.38986105892E+04 0.  0.
        5    1    3    3  502    0  0.15586902806E+04  0.64896441579E+03  0.17638145436E+04  0.24416662422E+04  0.46999998093E+01 0.  1.
       -5    1    3    3    0  502 -0.15586902806E+04 -0.64896441579E+03 -0.31484069084E+03  0.17175031163E+04  0.46999998093E+01 0. -1.
</event>
<event>
 5   0  0.9277261E-09  0.3899647E+04  0.7818609E-02  0.8025103E-01
       -2   -1    0    0    0  501  0.00000000000E+00  0.00000000000E+00  0.16086462670E+04  0.16086462670E+04  0.25500000920E-02 0. -1.
        2   -1    0    0  501    0  0.00000000000E+00  0.00000000000E+00 -0.23633612823E+04  0.23633612823E+04  0.25500000920E-02 0.  1.
    10030    2    1    2    0    0  0.00000000000E+00  0.00000000000E+00 -0.75471501538E+03  0.39720075493E+04  0.38996473196E+04 0.  0.
        1    1    3    3  502    0 -0.84250264418E+03 -0.16536987673E+04 -0.98617944609E+03  0.21016850902E+04  0.50400001928E-02 0.  1.
       -1    1    3    3    0  502  0.84250264418E+03  0.16536987673E+04  0.23146443071E+03  0.18703224591E+04  0.50400001928E-02 0. -1.
</event>
<event>
 5   0  0.9368546E-09  0.3899986E+04  0.7818609E-02  0.8025032E-01
        2   -1    0    0  501    0  0.00000000000E+00  0.00000000000E+00  0.12304915028E+04  0.12304915028E+04  0.25500000920E-02 0. -1.
       -2   -1    0    0    0  501  0.00000000000E+00  0.00000000000E+00 -0.30902066265E+04  0.30902066265E+04  0.25500000920E-02 0.  1.
    10030    2    1    2    0    0  0.00000000000E+00  0.00000000000E+00 -0.18597151238E+04  0.43206981293E+04  0.38999861516E+04 0.  0.
        5    1    3    3  502    0 -0.45480673664E+03 -0.15498264531E+04 -0.21402535847E+04  0.26813277866E+04  0.46999998093E+01 0.  1.
       -5    1    3    3    0  502  0.45480673664E+03  0.15498264531E+04  0.28053846095E+03  0.16393703427E+04  0.46999998093E+01 0. -1.
</event>
<event>
 5   0  0.6335942E-09  0.3900172E+04  0.7818609E-02  0.8024993E-01
        2   -1    0    0  501    0  0.00000000000E+00  0.00000000000E+00  0.19707026380E+04  0.19707026380E+04  0.25500000920E-02 0.  1.
       -2   -1    0    0    0  501  0.00000000000E+00  0.00000000000E+00 -0.19296851438E+04  0.19296851438E+04  0.25500000920E-02 0. -1.
    10030    2    1    2    0    0  0.00000000000E+00  0.00000000000E+00  0.41017494182E+02  0.39003877818E+04  0.39001721005E+04 0.  0.
        2    1    3    3  502    0  0.18676058012E+04 -0.20940514510E+03  0.54114646897E+03  0.19556690529E+04  0.25500000920E-02 0.  1.
       -2    1    3    3    0  502 -0.18676058012E+04  0.20940514510E+03 -0.50012897479E+03  0.19447187290E+04  0.25500000920E-02 0. -1.
</event>
<event>
 5   0  0.2904500E-09  0.3910495E+04  0.7818609E-02  0.8022850E-01
        1   -1    0    0  501    0  0.00000000000E+00  0.00000000000E+00  0.23437583480E+04  0.23437583480E+04  0.50400001928E-02 0. -1.
       -1   -1    0    0    0  501  0.00000000000E+00  0.00000000000E+00 -0.16311380763E+04  0.16311380763E+04  0.50400001928E-02 0.  1.
    10030    2    1    2    0    0  0.00000000000E+00  0.00000000000E+00  0.71262027165E+03  0.39748964243E+04  0.39104953564E+04 0.  0.
        2    1    3    3  502    0  0.70132237294E+03  0.17969951079E+04  0.68086305199E+03  0.20456341276E+04  0.25500000920E-02 0.  1.
       -2    1    3    3    0  502 -0.70132237294E+03 -0.17969951079E+04  0.31757219663E+02  0.19292622967E+04  0.25500000920E-02 0. -1.
</event>
<event>
 5   0  0.9434114E-09  0.3900851E+04  0.7818609E-02  0.8024852E-01
       -2   -1    0    0    0  501  0.00000000000E+00  0.00000000000E+00  0.16948499532E+04  0.16948499532E+04  0.25500000920E-02 0.  1.
        2   -1    0    0  501    0  0.00000000000E+00  0.00000000000E+00 -0.22445405120E+04  0.22445405120E+04  0.25500000920E-02 0. -1.
    10030    2    1    2    0    0  0.00000000000E+00  0.00000000000E+00 -0.54969055886E+03  0.39393904652E+04  0.39008508721E+04 0.  0.
        4    1    3    3  502    0  0.52978352375E+03 -0.18605968874E+04 -0.52562592282E+03  0.20046884005E+04  0.12699999809E+01 0. -1.
       -4    1    3    3    0  502 -0.52978352375E+03  0.18605968874E+04 -0.24064636038E+02  0.19347020647E+04  0.12699999809E+01 0.  1.
</event>
<event>
 5   0  0.2904500E-09  0.3899545E+04  0.7818609E-02  0.8025124E-01
        3   -1    0    0  501    0  0.00000000000E+00  0.00000000000E+00  0.23421640573E+04  0.23421640594E+04  0.10100000352E+00 0. -1.
       -3   -1    0    0    0  501  0.00000000000E+00  0.00000000000E+00 -0.16231198209E+04  0.16231198241E+04  0.10100000352E+00 0.  1.
    10030    2    1    2    0    0  0.00000000000E+00  0.00000000000E+00  0.71904423633E+03  0.39652838835E+04  0.38995450585E+04 0.  0.
        4    1    3    3  502    0 -0.17601926561E+04  0.83747523625E+03  0.31440816008E+03  0.19744612081E+04  0.12699999809E+01 0.  1.
       -4    1    3    3    0  502  0.17601926561E+04 -0.83747523625E+03  0.40463607626E+03  0.19908226755E+04  0.12699999809E+01 0. -1.
</event>
<event>
 5   0  0.9368546E-09  0.3901040E+04  0.7818609E-02  0.8024813E-01
        2   -1    0    0  501    0  0.00000000000E+00  0.00000000000E+00  0.16090931822E+04  0.16090931822E+04  0.25500000920E-02 0.  1.
       -2   -1    0    0    0  501  0.00000000000E+00  0.00000000000E+00 -0.23643924215E+04  0.23643924215E+04  0.25500000920E-02 0. -1.
    10030    2    1    2    0    0  0.00000000000E+00  0.00000000000E+00 -0.75529923929E+03  0.39734856037E+04  0.39010397207E+04 0.  0.
        5    1    3    3  502    0  0.18073005663E+04  0.65460210075E+03 -0.71495870760E+03  0.20508601343E+04  0.46999998093E+01 0. -1.
       -5    1    3    3    0  502 -0.18073005663E+04 -0.65460210075E+03 -0.40340531695E+02  0.19226254694E+04  0.46999998093E+01 0.  1.
</event>
<event>
 5   0  0.2929054E-09  0.3886590E+04  0.7818609E-02  0.8027824E-01
        1   -1    0    0  501    0  0.00000000000E+00  0.00000000000E+00  0.26911823869E+04  0.26911823869E+04  0.50400001928E-02 0. -1.
       -1   -1    0    0    0  501  0.00000000000E+00  0.00000000000E+00 -0.14032475657E+04  0.14032475658E+04  0.50400001928E-02 0.  1.
    10030    2    1    2    0    0  0.00000000000E+00  0.00000000000E+00  0.12879348211E+04  0.40944299526E+04  0.38865898334E+04 0.  0.
        1    1    3    3  502    0 -0.20600406886E+03 -0.77109997778E+03  0.25105424471E+04  0.26343606873E+04  0.50400001928E-02 0. -1.
       -1    1    3    3    0  502  0.20600406886E+03  0.77109997778E+03 -0.12226076260E+04  0.14600692653E+04  0.50400001928E-02 0.  1.
</event>
<event>
 5   0  0.2904500E-09  0.3899087E+04  0.7818609E-02  0.8025219E-01
        1   -1    0    0  501    0  0.00000000000E+00  0.00000000000E+00  0.12531343597E+04  0.12531343598E+04  0.50400001928E-02 0. -1.
       -1   -1    0    0    0  501  0.00000000000E+00  0.00000000000E+00 -0.30329702317E+04  0.30329702317E+04  0.50400001928E-02 0.  1.
    10030    2    1    2    0    0  0.00000000000E+00  0.00000000000E+00 -0.17798358720E+04  0.42861045915E+04  0.38990866672E+04 0.  0.
        3    1    3    3  502    0 -0.29541415320E+03  0.12116578023E+04  0.75725976295E+03  0.14590498657E+04  0.10100000352E+00 0. -1.
       -3    1    3    3    0  502  0.29541415320E+03 -0.12116578023E+04 -0.25370956349E+04  0.28270547258E+04  0.10100000352E+00 0.  1.
</event>
<event>
 5   0  0.2904500E-09  0.3900209E+04  0.7818609E-02  0.8024986E-01
        1   -1    0    0  501    0  0.00000000000E+00  0.00000000000E+00  0.16082016418E+04  0.16082016418E+04  0.50400001928E-02 0.  1.
       -1   -1    0    0    0  501  0.00000000000E+00  0.00000000000E+00 -0.23646956839E+04  0.23646956839E+04  0.50400001928E-02 0. -1.
    10030    2    1    2    0    0  0.00000000000E+00  0.00000000000E+00 -0.75649404203E+03  0.39728973257E+04  0.39002089591E+04 0.  0.
        2    1    3    3  502    0  0.69478477442E+03  0.13164273753E+04 -0.16615682260E+04  0.22308105897E+04  0.25500000920E-02 0. -1.
       -2    1    3    3    0  502 -0.69478477442E+03 -0.13164273753E+04  0.90507418400E+03  0.17420867360E+04  0.25500000920E-02 0.  1.
</event>
<event>
 5   0  0.2904500E-09  0.3900203E+04  0.7818609E-02  0.8024987E-01
       -1   -1    0    0    0  501  0.00000000000E+00  0.00000000000E+00  0.16240068863E+04  0.16240068863E+04  0.50400001928E-02 0.  1.
        1   -1    0    0  501    0  0.00000000000E+00  0.00000000000E+00 -0.23416748707E+04  0.23416748707E+04  0.50400001928E-02 0. -1.
    10030    2    1    2    0    0  0.00000000000E+00  0.00000000000E+00 -0.71766798445E+03  0.39656817570E+04  0.39002031308E+04 0.  0.
        3    1    3    3  502    0 -0.12899172050E+04 -0.11432441395E+04 -0.12862892355E+04  0.21506821164E+04  0.10100000352E+00 0. -1.
       -3    1    3    3    0  502  0.12899172050E+04  0.11432441395E+04  0.56862125101E+03  0.18149996406E+04  0.10100000352E+00 0.  1.
</event>
<event>
 5   0  0.2904500E-09  0.3901768E+04  0.7818609E-02  0.8024662E-01
        1   -1    0    0  501    0  0.00000000000E+00  0.00000000000E+00  0.24938789102E+04  0.24938789102E+04  0.50400001928E-02 0. -1.
       -1   -1    0    0    0  501  0.00000000000E+00  0.00000000000E+00 -0.15261160530E+04  0.15261160531E+04  0.50400001928E-02 0.  1.
    10030    2    1    2    0    0  0.00000000000E+00  0.00000000000E+00  0.96776285714E+03  0.40199949632E+04  0.39017681321E+04 0.  0.
        4    1    3    3  502    0  0.20101343143E+02  0.17989241862E+04 -0.29357919468E+03  0.18228336864E+04  0.12699999809E+01 0.  1.
       -4    1    3    3    0  502 -0.20101343143E+02 -0.17989241862E+04  0.12613420518E+04  0.21971612768E+04  0.12699999809E+01 0. -1.
</event>
<event>
 5   0  0.9368546E-09  0.3901908E+04  0.7818609E-02  0.8024633E-01
        2   -1    0    0  501    0  0.00000000000E+00  0.00000000000E+00  0.21364175300E+04  0.21364175300E+04  0.25500000920E-02 0. -1.
       -2   -1    0    0    0  501  0.00000000000E+00  0.00000000000E+00 -0.17815904238E+04  0.17815904238E+04  0.25500000920E-02 0.  1.
    10030    2    1    2    0    0  0.00000000000E+00  0.00000000000E+00  0.35482710626E+03  0.39180079538E+04  0.39019077450E+04 0.  0.
        5    1    3    3  502    0  0.61717755783E+03  0.94269469876E+03 -0.14218344152E+04  0.18141710579E+04  0.46999998093E+01 0.  1.
       -5    1    3    3    0  502 -0.61717755783E+03 -0.94269469876E+03  0.17766615214E+04  0.21038368959E+04  0.46999998093E+01 0. -1.
</event>
<event>
 5   0  0.6335942E-09  0.3899587E+04  0.7818609E-02  0.8025115E-01
       -2   -1    0    0    0  501  0.00000000000E+00  0.00000000000E+00  0.10692855655E+04  0.10692855655E+04  0.25500000920E-02 0. -1.
        2   -1    0    0  501    0  0.00000000000E+00  0.00000000000E+00 -0.35553592157E+04  0.35553592157E+04  0.25500000920E-02 0.  1.
    10030    2    1    2    0    0  0.00000000000E+00  0.00000000000E+00 -0.24860736501E+04  0.46246447812E+04  0.38995867933E+04 0.  0.
        2    1    3    3  502    0 -0.19245788363E+04  0.23095450883E+02 -0.16126924063E+04  0.25110384096E+04  0.25500000920E-02 0. -1.
       -2    1    3    3    0  502  0.19245788363E+04 -0.23095450883E+02 -0.87338124383E+03  0.21136063716E+04  0.25500000920E-02 0.  1.
</event>
<event>
 5   0  0.2904500E-09  0.3889537E+04  0.7818609E-02  0.8027209E-01
        4   -1    0    0  501    0  0.00000000000E+00  0.00000000000E+00  0.14720648276E+04  0.14720653754E+04  0.12699999809E+01 0.  1.
       -4   -1    0    0    0  501  0.00000000000E+00  0.00000000000E+00 -0.25692634090E+04  0.25692637229E+04  0.12699999809E+01 0. -1.
    10030    2    1    2    0    0  0.00000000000E+00  0.00000000000E+00 -0.10971985814E+04  0.40413290983E+04  0.38895367531E+04 0.  0.
        2    1    3    3  502    0  0.90770983656E+03  0.28174574476E+01  0.12384583458E+04  0.15354882480E+04  0.25500000920E-02 0.  1.
       -2    1    3    3    0  502 -0.90770983656E+03 -0.28174574476E+01 -0.23356569272E+04  0.25058408503E+04  0.25500000920E-02 0. -1.
</event>
<event>
 5   0  0.2904500E-09  0.3899915E+04  0.7818609E-02  0.8025047E-01
        1   -1    0    0  501    0  0.00000000000E+00  0.00000000000E+00  0.14426476792E+04  0.14426476792E+04  0.50400001928E-02 0. -1.
       -1   -1    0    0    0  501  0.00000000000E+00  0.00000000000E+00 -0.26356635770E+04  0.26356635770E+04  0.50400001928E-02 0.  1.
    10030    2    1    2    0    0  0.00000000000E+00  0.00000000000E+00 -0.11930158978E+04  0.40783112562E+04  0.38999148413E+04 0.  0.
        5    1    3    3  502    0  0.17488608041E+04  0.85390264215E+03 -0.46994264179E+03  0.20021318665E+04  0.46999998093E+01 0.  1.
       -5    1    3    3    0  502 -0.17488608041E+04 -0.85390264215E+03 -0.72307325600E+03  0.20761793896E+04  0.46999998093E+01 0. -1.
</event>
<event>
 5   0  0.2904500E-09  0.3901413E+04  0.7818609E-02  0.8024735E-01
        1   -1    0    0  501    0  0.00000000000E+00  0.00000000000E+00  0.23363878419E+04  0.23363878419E+04  0.50400001928E-02 0.  1.
       -1   -1    0    0    0  501  0.00000000000E+00  0.00000000000E+00 -0.16286921665E+04  0.16286921665E+04  0.50400001928E-02 0. -1.
    10030    2    1    2    0    0  0.00000000000E+00  0.00000000000E+00  0.70769567536E+03  0.39650800084E+04  0.39014133726E+04 0.  0.
        5    1    3    3  502    0 -0.17474157987E+04  0.84436389244E+03  0.15359915652E+03  0.19467992057E+04  0.46999998093E+01 0.  1.
       -5    1    3    3    0  502  0.17474157987E+04 -0.84436389244E+03  0.55409651884E+03  0.20182808027E+04  0.46999998093E+01 0. -1.
</event>
<event>
 5   0  0.9277261E-09  0.3898565E+04  0.7818609E-02  0.8025328E-01
        2   -1    0    0  501    0  0.00000000000E+00  0.00000000000E+00  0.27798326038E+04  0.27798326038E+04  0.25500000920E-02 0.  1.
       -2   -1    0    0    0  501  0.00000000000E+00  0.00000000000E+00 -0.13668817153E+04  0.13668817153E+04  0.25500000920E-02 0. -1.
    10030    2    1    2    0    0  0.00000000000E+00  0.00000000000E+00  0.14129508886E+04  0.41467143191E+04  0.38985650476E+04 0.  0.
        1    1    3    3  502    0  0.42389203611E+03  0.11425634083E+04  0.23246828607E+04  0.26247449406E+04  0.50400001928E-02 0.  1.
       -1    1    3    3    0  502 -0.42389203611E+03 -0.11425634083E+04 -0.91173197211E+03  0.15219693785E+04  0.50400001928E-02 0. -1.
</event>
<event>
 5   0  0.9277261E-09  0.3899901E+04  0.7818609E-02  0.8025050E-01
       -2   -1    0    0    0  501  0.00000000000E+00  0.00000000000E+00  0.15725751235E+04  0.15725751235E+04  0.25500000920E-02 0.  1.
        2   -1    0    0  501    0  0.00000000000E+00  0.00000000000E+00 -0.24178857000E+04  0.24178857000E+04  0.25500000920E-02 0. -1.
    10030    2    1    2    0    0  0.00000000000E+00  0.00000000000E+00 -0.84531057645E+03  0.39904608235E+04  0.38999009748E+04 0.  0.
        1    1    3    3  502    0  0.34478958602E+03  0.68628301579E+03  0.14112933327E+04  0.16067399004E+04  0.50400001928E-02 0.  1.
       -1    1    3    3    0  502 -0.34478958602E+03 -0.68628301579E+03 -0.22566039092E+04  0.23837209231E+04  0.50400001928E-02 0. -1.
</event>
<event>
 5   0  0.6335942E-09  0.3901207E+04  0.7818609E-02  0.8024778E-01
        2   -1    0    0  501    0  0.00000000000E+00  0.00000000000E+00  0.24175425271E+04  0.24175425271E+04  0.25500000920E-02 0. -1.
       -2   -1    0    0    0  501  0.00000000000E+00  0.00000000000E+00 -0.15738523168E+04  0.15738523168E+04  0.25500000920E-02 0.  1.
    10030    2    1    2    0    0  0.00000000000E+00  0.00000000000E+00  0.84369021034E+03  0.39913948439E+04  0.39012074578E+04 0.  0.
        2    1    3    3  502    0 -0.14544767753E+04 -0.12375856675E+04  0.15506381519E+02  0.19098066453E+04  0.25500000920E-02 0.  1.
       -2    1    3    3    0  502  0.14544767753E+04  0.12375856675E+04  0.82818382882E+03  0.20815881986E+04  0.25500000920E-02 0. -1.
</event>
<event>
 5   0  0.9277261E-09  0.3898957E+04  0.7818609E-02  0.8025246E-01
       -2   -1    0    0    0  501  0.00000000000E+00  0.00000000000E+00  0.14957357280E+04  0.14957357280E+04  0.25500000920E-02 0.  1.
        2   -1    0    0  501    0  0.00000000000E+00  0.00000000000E+00 -0.25408679192E+04  0.25408679192E+04  0.25500000920E-02 0. -1.
    10030    2    1    2    0    0  0.00000000000E+00  0.00000000000E+00 -0.10451321912E+04  0.40366036472E+04  0.38989572590E+04 0.  0.
        1    1    3    3  502    0  0.11710111900E+04  0.82515839900E+03  0.84635138420E+03  0.16638702642E+04  0.50400001928E-02 0.  1.
       -1    1    3    3    0  502 -0.11710111900E+04 -0.82515839900E+03 -0.18914835754E+04  0.23727333830E+04  0.50400001928E-02 0. -1.
</event>
<event>
 5   0  0.9434114E-09  0.3902402E+04  0.7818609E-02  0.8024530E-01
       -2   -1    0    0    0  501  0.00000000000E+00  0.00000000000E+00  0.17742679972E+04  0.17742679972E+04  0.25500000920E-02 0.  1.
        2   -1    0    0  501    0  0.00000000000E+00  0.00000000000E+00 -0.21457785395E+04  0.21457785395E+04  0.25500000920E-02 0. -1.
    10030    2    1    2    0    0  0.00000000000E+00  0.00000000000E+00 -0.37151054234E+03  0.39200465367E+04  0.39024024353E+04 0.  0.
        4    1    3    3  502    0 -0.13244309355E+04  0.12986605059E+04 -0.79392485275E+03  0.20176606992E+04  0.12699999809E+01 0. -1.
       -4    1    3    3    0  502  0.13244309355E+04 -0.12986605059E+04  0.42241431040E+03  0.19023858375E+04  0.12699999809E+01 0.  1.
</event>
<event>
 5   0  0.9078515E-09  0.3901505E+04  0.7818609E-02  0.8024716E-01
        2   -1    0    0  501    0  0.00000000000E+00  0.00000000000E+00  0.31106675876E+04  0.31106675876E+04  0.25500000920E-02 0.  1.
       -2   -1    0    0    0  501  0.00000000000E+00  0.00000000000E+00 -0.12233502046E+04  0.12233502046E+04  0.25500000920E-02 0. -1.
    10030    2    1    2    0    0  0.00000000000E+00  0.00000000000E+00  0.18873173829E+04  0.43340177922E+04  0.39015052632E+04 0.  0.
        3    1    3    3  502    0 -0.26931387501E+03 -0.26666617529E+03 -0.11820586076E+04  0.12413312911E+04  0.10100000352E+00 0. -1.
       -3    1    3    3    0  502  0.26931387501E+03  0.26666617529E+03  0.30693759905E+04  0.30926865011E+04  0.10100000352E+00 0.  1.
</event>
<event>
 5   0  0.9368546E-09  0.3899498E+04  0.7818609E-02  0.8025134E-01
       -2   -1    0    0    0  501  0.00000000000E+00  0.00000000000E+00  0.27297119308E+04  0.27297119308E+04  0.25500000920E-02 0.  1.
        2   -1    0    0  501    0  0.00000000000E+00  0.00000000000E+00 -0.13926456137E+04  0.13926456137E+04  0.25500000920E-02 0. -1.
    10030    2    1    2    0    0  0.00000000000E+00  0.00000000000E+00  0.13370663170E+04  0.41223575445E+04  0.38994980944E+04 0.  0.
        5    1    3    3  502    0 -0.13749745844E+04 -0.10080789234E+04 -0.33142255881E+03  0.17368480722E+04  0.46999998093E+01 0. -1.
       -5    1    3    3    0  502  0.13749745844E+04  0.10080789234E+04  0.16684888759E+04  0.23855094723E+04  0.46999998093E+01 0.  1.
</event>
<event>
 5   0  0.2904500E-09  0.3902624E+04  0.7818609E-02  0.8024484E-01
        1   -1    0    0  501    0  0.00000000000E+00  0.00000000000E+00  0.20966518627E+04  0.20966518627E+04  0.50400001928E-02 0. -1.
       -1   -1    0    0    0  501  0.00000000000E+00  0.00000000000E+00 -0.18160470679E+04  0.18160470679E+04  0.50400001928E-02 0.  1.
    10030    2    1    2    0    0  0.00000000000E+00  0.00000000000E+00  0.28060479482E+03  0.39126989307E+04  0.39026239726E+04 0.  0.
        3    1    3    3  502    0 -0.42473590500E+03 -0.89715729321E+03 -0.15440127826E+04  0.18355563954E+04  0.10100000352E+00 0.  1.
       -3    1    3    3    0  502  0.42473590500E+03  0.89715729321E+03  0.18246175774E+04  0.20771425352E+04  0.10100000352E+00 0. -1.
</event>
<event>
 5   0  0.2929054E-09  0.3873024E+04  0.7818609E-02  0.8030663E-01
       -1   -1    0    0    0  501  0.00000000000E+00  0.00000000000E+00  0.15232376670E+04  0.15232376670E+04  0.50400001928E-02 0.  1.
        1   -1    0    0  501    0  0.00000000000E+00  0.00000000000E+00 -0.24619136981E+04  0.24619136981E+04  0.50400001928E-02 0. -1.
    10030    2    1    2    0    0  0.00000000000E+00  0.00000000000E+00 -0.93867603115E+03  0.39851513651E+04  0.38730244914E+04 0.  0.
        1    1    3    3  502    0 -0.17291898233E+04  0.82248827163E+03 -0.76665897801E+03  0.20626076676E+04  0.50400001928E-02 0.  1.
       -1    1    3    3    0  502  0.17291898233E+04 -0.82248827163E+03 -0.17201705314E+03  0.19225436974E+04  0.50400001928E-02 0. -1.
</event>
<event>
 5   0  0.2904500E-09  0.3870544E+04  0.7818609E-02  0.8031183E-01
       -1   -1    0    0    0  501  0.00000000000E+00  0.00000000000E+00  0.15465843389E+04  0.15465843389E+04  0.50400001928E-02 0.  1.
        1   -1    0    0  501    0  0.00000000000E+00  0.00000000000E+00 -0.24216452159E+04  0.24216452159E+04  0.50400001928E-02 0. -1.
    10030    2    1    2    0    0  0.00000000000E+00  0.00000000000E+00 -0.87506087692E+03  0.39682295548E+04  0.38705444399E+04 0.  0.
        3    1    3    3  502    0  0.79287166490E+03 -0.13957639076E+03  0.13667579520E+04  0.15862390599E+04  0.10100000352E+00 0.  1.
       -3    1    3    3    0  502 -0.79287166490E+03  0.13957639076E+03 -0.22418188289E+04  0.23819904949E+04  0.10100000352E+00 0. -1.
</event>
<event>
 5   0  0.2904500E-09  0.3883459E+04  0.7818609E-02  0.8028478E-01
        1   -1    0    0  501    0  0.00000000000E+00  0.00000000000E+00  0.18259365503E+04  0.18259365503E+04  0.50400001928E-02 0. -1.
       -1   -1    0    0    0  501  0.00000000000E+00  0.00000000000E+00 -0.20648654546E+04  0.20648654546E+04  0.50400001928E-02 0.  1.
    10030    2    1    2    0    0  0.00000000000E+00  0.00000000000E+00 -0.23892890426E+03  0.38908020049E+04  0.38834589247E+04 0.  0.
        4    1    3    3  502    0  0.56010902590E+03  0.14327361248E+04  0.10676205417E+04  0.18725037138E+04  0.12699999809E+01 0. -1.
       -4    1    3    3    0  502 -0.56010902590E+03 -0.14327361248E+04 -0.13065494460E+04  0.20182982911E+04  0.12699999809E+01 0.  1.
</event>
<event>
 5   0  0.2904500E-09  0.3899892E+04  0.7818609E-02  0.8025052E-01
       -1   -1    0    0    0  501  0.00000000000E+00  0.00000000000E+00  0.27450025546E+04  0.27450025546E+04  0.50400001928E-02 0. -1.
        1   -1    0    0  501    0  0.00000000000E+00  0.00000000000E+00 -0.13851680404E+04  0.13851680404E+04  0.50400001928E-02 0.  1.
    10030    2    1    2    0    0  0.00000000000E+00  0.00000000000E+00  0.13598345142E+04  0.41301705950E+04  0.38998922085E+04 0.  0.
        2    1    3    3  502    0 -0.17035714725E+04 -0.18139120143E+03  0.16661578047E+04  0.23897992300E+04  0.25500000920E-02 0.  1.
       -2    1    3    3    0  502  0.17035714725E+04  0.18139120143E+03 -0.30632329050E+03  0.17403713650E+04  0.25500000920E-02 0. -1.
</event>
<event>
 5   0  0.9434114E-09  0.3899879E+04  0.7818609E-02  0.8025054E-01
        2   -1    0    0  501    0  0.00000000000E+00  0.00000000000E+00  0.18336932400E+04  0.18336932400E+04  0.25500000920E-02 0. -1.
       -2   -1    0    0    0  501  0.00000000000E+00  0.00000000000E+00 -0.20735552825E+04  0.20735552825E+04  0.25500000920E-02 0.  1.
    10030    2    1    2    0    0  0.00000000000E+00  0.00000000000E+00 -0.23986204246E+03  0.39072485225E+04  0.38998791285E+04 0.  0.
        4    1    3    3  502    0 -0.32418262357E+03  0.19006580593E+04  0.17159521139E+03  0.19357277601E+04  0.12699999809E+01 0. -1.
       -4    1    3    3    0  502  0.32418262357E+03 -0.19006580593E+04 -0.41145725385E+03  0.19715207624E+04  0.12699999809E+01 0.  1.
</event>
<event>
 5   0  0.9078515E-09  0.3880857E+04  0.7818609E-02  0.8029022E-01
        2   -1    0    0  501    0  0.00000000000E+00  0.00000000000E+00  0.29316003761E+04  0.29316003761E+04  0.25500000920E-02 0.  1.
       -2   -1    0    0    0  501  0.00000000000E+00  0.00000000000E+00 -0.12843709176E+04  0.12843709176E+04  0.25500000920E-02 0. -1.
    10030    2    1    2    0    0  0.00000000000E+00  0.00000000000E+00  0.16472294585E+04  0.42159712937E+04  0.38808567431E+04 0.  0.
        3    1    3    3  502    0 -0.17868963274E+04 -0.70858994105E+03  0.53585672969E+03  0.19955552196E+04  0.10100000352E+00 0. -1.
       -3    1    3    3    0  502  0.17868963274E+04  0.70858994105E+03  0.11113727288E+04  0.22204160741E+04  0.10100000352E+00 0.  1.
</event>
<event>
 5   0  0.2904500E-09  0.3899296E+04  0.7818609E-02  0.8025176E-01
       -1   -1    0    0    0  501  0.00000000000E+00  0.00000000000E+00  0.13722358393E+04  0.13722358394E+04  0.50400001928E-02 0.  1.
        1   -1    0    0  501    0  0.00000000000E+00  0.00000000000E+00 -0.27700253015E+04  0.27700253015E+04  0.50400001928E-02 0. -1.
    10030    2    1    2    0    0  0.00000000000E+00  0.00000000000E+00 -0.13977894622E+04  0.41422611409E+04  0.38992963441E+04 0.  0.
        4    1    3    3  502    0 -0.12248815249E+04 -0.12966898353E+04  0.13715538418E+03  0.17890088014E+04  0.12699999809E+01 0. -1.
       -4    1    3    3    0  502  0.12248815249E+04  0.12966898353E+04 -0.15349448464E+04  0.23532523395E+04  0.12699999809E+01 0.  1.
</event>
<event>
 5   0  0.9277261E-09  0.3900566E+04  0.7818609E-02  0.8024911E-01
       -2   -1    0    0    0  501  0.00000000000E+00  0.00000000000E+00  0.14915417222E+04  0.14915417222E+04  0.25500000920E-02 0. -1.
        2   -1    0    0  501    0  0.00000000000E+00  0.00000000000E+00 -0.25501159424E+04  0.25501159424E+04  0.25500000920E-02 0.  1.
    10030    2    1    2    0    0  0.00000000000E+00  0.00000000000E+00 -0.10585742202E+04  0.40416576646E+04  0.39005662791E+04 0.  0.
        1    1    3    3  502    0  0.15590706595E+04 -0.10668952467E+04 -0.27371610180E+02  0.18893692053E+04  0.50400001928E-02 0. -1.
       -1    1    3    3    0  502 -0.15590706595E+04  0.10668952467E+04 -0.10312026100E+04  0.21522884593E+04  0.50400001928E-02 0.  1.
</event>
<event>
 5   0  0.9277261E-09  0.3900893E+04  0.7818609E-02  0.8024844E-01
       -2   -1    0    0    0  501  0.00000000000E+00  0.00000000000E+00  0.15871915751E+04  0.15871915751E+04  0.25500000920E-02 0. -1.
        2   -1    0    0  501    0  0.00000000000E+00  0.00000000000E+00 -0.23968381093E+04  0.23968381093E+04  0.25500000920E-02 0.  1.
    10030    2    1    2    0    0  0.00000000000E+00  0.00000000000E+00 -0.80964653420E+03  0.39840296845E+04  0.39008928486E+04 0.  0.
        1    1    3    3  502    0 -0.15113085245E+04 -0.10707142162E+04 -0.10292109047E+04  0.21189047820E+04  0.50400001928E-02 0. -1.
       -1    1    3    3    0  502  0.15113085245E+04  0.10707142162E+04  0.21956437045E+03  0.18651249025E+04  0.50400001928E-02 0.  1.
</event>
<event>
 5   0  0.6335942E-09  0.3900487E+04  0.7818609E-02  0.8024928E-01
       -2   -1    0    0    0  501  0.00000000000E+00  0.00000000000E+00  0.23279282736E+04  0.23279282736E+04  0.25500000920E-02 0.  1.
        2   -1    0    0  501    0  0.00000000000E+00  0.00000000000E+00 -0.16338347757E+04  0.16338347757E+04  0.25500000920E-02 0. -1.
    10030    2    1    2    0    0  0.00000000000E+00  0.00000000000E+00  0.69409349788E+03  0.39617630493E+04  0.39004872356E+04 0.  0.
        2    1    3    3  502    0 -0.13639711083E+03  0.19128887335E+04  0.70716233793E+03  0.20439731043E+04  0.25500000920E-02 0.  1.
       -2    1    3    3    0  502  0.13639711083E+03 -0.19128887335E+04 -0.13068840058E+02  0.19177899451E+04  0.25500000920E-02 0. -1.
</event>
<event>
 5   0  0.9368546E-09  0.3899692E+04  0.7818609E-02  0.8025093E-01
       -2   -1    0    0    0  501  0.00000000000E+00  0.00000000000E+00  0.15115214161E+04  0.15115214161E+04  0.25500000920E-02 0.  1.
        2   -1    0    0  501    0  0.00000000000E+00  0.00000000000E+00 -0.25152792876E+04  0.25152792876E+04  0.25500000920E-02 0. -1.
    10030    2    1    2    0    0  0.00000000000E+00  0.00000000000E+00 -0.10037578715E+04  0.40268007036E+04  0.38996915317E+04 0.  0.
        5    1    3    3  502    0  0.16269373201E+04  0.83839306137E+03  0.19238143120E+03  0.18403425425E+04  0.46999998093E+01 0. -1.
       -5    1    3    3    0  502 -0.16269373201E+04 -0.83839306137E+03 -0.11961393027E+04  0.21864581611E+04  0.46999998093E+01 0.  1.
</event>
<event>
 5   0  0.2904500E-09  0.3902122E+04  0.7818609E-02  0.8024588E-01
       -1   -1    0    0    0  501  0.00000000000E+00  0.00000000000E+00  0.16002961384E+04  0.16002961384E+04  0.50400001928E-02 0.  1.
        1   -1    0    0  501    0  0.00000000000E+00  0.00000000000E+00 -0.23787086987E+04  0.23787086987E+04  0.50400001928E-02 0. -1.
    10030    2    1    2    0    0  0.00000000000E+00  0.00000000000E+00 -0.77841256025E+03  0.39790048371E+04  0.39021216510E+04 0.  0.
        4    1    3    3  502    0 -0.37889721718E+03  0.10196012737E+04  0.12624250413E+04  0.16663938479E+04  0.12699999809E+01 0.  1.
       -4    1    3    3    0  502  0.37889721718E+03 -0.10196012737E+04 -0.20408376015E+04  0.23126109892E+04  0.12699999809E+01 0. -1.
</event>
<event>
 5   0  0.9078515E-09  0.3900029E+04  0.7818609E-02  0.8025023E-01
        2   -1    0    0  501    0  0.00000000000E+00  0.00000000000E+00  0.13425206799E+04  0.13425206799E+04  0.25500000920E-02 0.  1.
       -2   -1    0    0    0  501  0.00000000000E+00  0.00000000000E+00 -0.28324001840E+04  0.28324001840E+04  0.25500000920E-02 0. -1.
    10030    2    1    2    0    0  0.00000000000E+00  0.00000000000E+00 -0.14898795041E+04  0.41749208640E+04  0.39000286260E+04 0.  0.
        3    1    3    3  502    0  0.12673317408E+04 -0.89948932391E+03  0.51593716377E+03  0.16374986877E+04  0.10100000352E+00 0.  1.
       -3    1    3    3    0  502 -0.12673317408E+04  0.89948932391E+03 -0.20058166679E+04  0.25374221762E+04  0.10100000352E+00 0. -1.
</event>
<event>
 5   0  0.9368546E-09  0.3900343E+04  0.7818609E-02  0.8024958E-01
        2   -1    0    0  501    0  0.00000000000E+00  0.00000000000E+00  0.20011778198E+04  0.20011778198E+04  0.25500000920E-02 0.  1.
       -2   -1    0    0    0  501  0.00000000000E+00  0.00000000000E+00 -0.19004652073E+04  0.19004652073E+04  0.25500000920E-02 0. -1.
    10030    2    1    2    0    0  0.00000000000E+00  0.00000000000E+00  0.10071261246E+03  0.39016430271E+04  0.39003429696E+04 0.  0.
        5    1    3    3  502    0 -0.13824782556E+04  0.12348061190E+04 -0.55577837454E+03  0.19351754366E+04  0.46999998093E+01 0.  1.
       -5    1    3    3    0  502  0.13824782556E+04 -0.12348061190E+04  0.65649098700E+03  0.19664675906E+04  0.46999998093E+01 0. -1.
</event>
<event>
 5   0  0.2904500E-09  0.3899746E+04  0.7818609E-02  0.8025082E-01
        1   -1    0    0  501    0  0.00000000000E+00  0.00000000000E+00  0.18015614066E+04  0.18015614066E+04  0.50400001928E-02 0.  1.
       -1   -1    0    0    0  501  0.00000000000E+00  0.00000000000E+00 -0.21103946484E+04  0.21103946484E+04  0.50400001928E-02 0. -1.
    10030    2    1    2    0    0  0.00000000000E+00  0.00000000000E+00 -0.30883324183E+03  0.39119560550E+04  0.38997464283E+04 0.  0.
        5    1    3    3  502    0 -0.35875670192E+03  0.22233945710E+03  0.17551826532E+04  0.18052228232E+04  0.46999998093E+01 0.  1.
       -5    1    3    3    0  502  0.35875670192E+03 -0.22233945710E+03 -0.20640158950E+04  0.21067332318E+04  0.46999998093E+01 0. -1.
</event>
<event>
 5   0  0.2904500E-09  0.3900142E+04  0.7818609E-02  0.8025000E-01
        1   -1    0    0  501    0  0.00000000000E+00  0.00000000000E+00  0.20161211324E+04  0.20161211324E+04  0.50400001928E-02 0.  1.
       -1   -1    0    0    0  501  0.00000000000E+00  0.00000000000E+00 -0.18861844072E+04  0.18861844072E+04  0.50400001928E-02 0. -1.
    10030    2    1    2    0    0  0.00000000000E+00  0.00000000000E+00  0.12993672518E+03  0.39023055396E+04  0.39001416604E+04 0.  0.
        4    1    3    3  502    0  0.75109058595E+03 -0.12895868509E+04 -0.11909584486E+04  0.19093336412E+04  0.12699999809E+01 0. -1.
       -4    1    3    3    0  502 -0.75109058595E+03  0.12895868509E+04  0.13208951738E+04  0.19929718983E+04  0.12699999809E+01 0.  1.
</event>
<event>
 5   0  0.2904500E-09  0.3900014E+04  0.7818609E-02  0.8025026E-01
       -1   -1    0    0    0  501  0.00000000000E+00  0.00000000000E+00  0.15842365509E+04  0.15842365509E+04  0.50400001928E-02 0.  1.
        1   -1    0    0  501    0  0.00000000000E+00  0.00000000000E+00 -0.24002269710E+04  0.24002269710E+04  0.50400001928E-02 0. -1.
    10030    2    1    2    0    0  0.00000000000E+00  0.00000000000E+00 -0.81599042009E+03  0.39844635219E+04  0.39000139989E+04 0.  0.
        3    1    3    3  502    0 -0.64177720238E+03  0.15509291163E+04  0.60610510875E+03  0.17845510680E+04  0.10100000352E+00 0.  1.
       -3    1    3    3    0  502  0.64177720238E+03 -0.15509291163E+04 -0.14220955288E+04  0.21999124539E+04  0.10100000352E+00 0. -1.
</event>
<event>
 5   0  0.2904500E-09  0.3900538E+04  0.7818609E-02  0.8024917E-01
       -3   -1    0    0    0  501  0.00000000000E+00  0.00000000000E+00  0.16697428578E+04  0.16697428609E+04  0.10100000352E+00 0. -1.
        3   -1    0    0  501    0  0.00000000000E+00  0.00000000000E+00 -0.22779252323E+04  0.22779252345E+04  0.10100000352E+00 0.  1.
    10030    2    1    2    0    0  0.00000000000E+00  0.00000000000E+00 -0.60818237446E+03  0.39476680954E+04  0.39005381156E+04 0.  0.
        5    1    3    3  502    0  0.46960615384E+03  0.10420883470E+04  0.12952077891E+04  0.17274441726E+04  0.46999998093E+01 0. -1.
       -5    1    3    3    0  502 -0.46960615384E+03 -0.10420883470E+04 -0.19033901635E+04  0.22202239228E+04  0.46999998093E+01 0.  1.
</event>
<event>
 5   0  0.2904500E-09  0.3901612E+04  0.7818609E-02  0.8024694E-01
        1   -1    0    0  501    0  0.00000000000E+00  0.00000000000E+00  0.19359508096E+04  0.19359508096E+04  0.50400001928E-02 0.  1.
       -1   -1    0    0    0  501  0.00000000000E+00  0.00000000000E+00 -0.19657750127E+04  0.19657750127E+04  0.50400001928E-02 0. -1.
    10030    2    1    2    0    0  0.00000000000E+00  0.00000000000E+00 -0.29824203128E+02  0.39017258223E+04  0.39016118348E+04 0.  0.
        5    1    3    3  502    0 -0.29548165970E+03  0.96043085835E+02 -0.19408676256E+04  0.19655846244E+04  0.46999998093E+01 0. -1.
       -5    1    3    3    0  502  0.29548165970E+03 -0.96043085835E+02  0.19110434225E+04  0.19361411979E+04  0.46999998093E+01 0.  1.
</event>
<event>
 5   0  0.2904500E-09  0.3893601E+04  0.7818609E-02  0.8026361E-01
        1   -1    0    0  501    0  0.00000000000E+00  0.00000000000E+00  0.20464087370E+04  0.20464087370E+04  0.50400001928E-02 0. -1.
       -1   -1    0    0    0  501  0.00000000000E+00  0.00000000000E+00 -0.18520403181E+04  0.18520403181E+04  0.50400001928E-02 0.  1.
    10030    2    1    2    0    0  0.00000000000E+00  0.00000000000E+00  0.19436841885E+03  0.38984490551E+04  0.38936006412E+04 0.  0.
        4    1    3    3  502    0  0.95561175581E+03  0.16581491672E+04 -0.26015989883E+03  0.19314081066E+04  0.12699999809E+01 0.  1.
       -4    1    3    3    0  502 -0.95561175581E+03 -0.16581491672E+04  0.45452831767E+03  0.19670409485E+04  0.12699999809E+01 0. -1.
</event>
<event>
 5   0  0.2904500E-09  0.3899950E+04  0.7818609E-02  0.8025040E-01
       -1   -1    0    0    0  501  0.00000000000E+00  0.00000000000E+00  0.15409811166E+04  0.15409811166E+04  0.50400001928E-02 0.  1.
        1   -1    0    0  501    0  0.00000000000E+00  0.00000000000E+00 -0.24675205565E+04  0.24675205565E+04  0.50400001928E-02 0. -1.
    10030    2    1    2    0    0  0.00000000000E+00  0.00000000000E+00 -0.92653943991E+03  0.40085016732E+04  0.38999500420E+04 0.  0.
        5    1    3    3  502    0 -0.24527247157E+03 -0.30501457376E+03 -0.24267255936E+04  0.24580910626E+04  0.46999998093E+01 0. -1.
       -5    1    3    3    0  502  0.24527247157E+03  0.30501457376E+03  0.15001861537E+04  0.15504106105E+04  0.46999998093E+01 0.  1.
</event>
<event>
 5   0  0.9434114E-09  0.3899046E+04  0.7818609E-02  0.8025228E-01
       -2   -1    0    0    0  501  0.00000000000E+00  0.00000000000E+00  0.14369015086E+04  0.14369015086E+04  0.25500000920E-02 0.  1.
        2   -1    0    0  501    0  0.00000000000E+00  0.00000000000E+00 -0.26450245962E+04  0.26450245962E+04  0.25500000920E-02 0. -1.
    10030    2    1    2    0    0  0.00000000000E+00  0.00000000000E+00 -0.12081230876E+04  0.40819261049E+04  0.38990459514E+04 0.  0.
        4    1    3    3  502    0  0.89718999491E+03 -0.11527413564E+04 -0.19556933172E+04  0.24410039913E+04  0.12699999809E+01 0. -1.
       -4    1    3    3    0  502 -0.89718999491E+03  0.11527413564E+04  0.74757022965E+03  0.16409221136E+04  0.12699999809E+01 0.  1.
</event>
<event>
 5   0  0.2929054E-09  0.3899935E+04  0.7818609E-02  0.8025043E-01
       -1   -1    0    0    0  501  0.00000000000E+00  0.00000000000E+00  0.19035337266E+04  0.19035337266E+04  0.50400001928E-02 0.  1.
        1   -1    0    0  501    0  0.00000000000E+00  0.00000000000E+00 -0.19975341171E+04  0.19975341171E+04  0.50400001928E-02 0. -1.
    10030    2    1    2    0    0  0.00000000000E+00  0.00000000000E+00 -0.94000390493E+02  0.39010678436E+04  0.38999351594E+04 0.  0.
        1    1    3    3  502    0 -0.10438749546E+04  0.16364208599E+04  0.13966967956E+03  0.19460359121E+04  0.50400001928E-02 0. -1.
       -1    1    3    3    0  502  0.10438749546E+04 -0.16364208599E+04 -0.23367007005E+03  0.19550319316E+04  0.50400001928E-02 0.  1.
</event>
<event>
 5   0  0.9434114E-09  0.3899348E+04  0.7818609E-02  0.8025165E-01
        2   -1    0    0  501    0  0.00000000000E+00  0.00000000000E+00  0.18503898775E+04  0.18503898776E+04  0.25500000920E-02 0.  1.
       -2   -1    0    0    0  501  0.00000000000E+00  0.00000000000E+00 -0.20542852717E+04  0.20542852717E+04  0.25500000920E-02 0. -1.
    10030    2    1    2    0    0  0.00000000000E+00  0.00000000000E+00 -0.20389539418E+03  0.39046751493E+04  0.38993479826E+04 0.  0.
        4    1    3    3  502    0  0.98753862631E+03  0.16735703260E+04 -0.26077360534E+03  0.19606311893E+04  0.12699999809E+01 0. -1.
       -4    1    3    3    0  502 -0.98753862631E+03 -0.16735703260E+04  0.56878211156E+02  0.19440439600E+04  0.12699999809E+01 0.  1.
</event>
<event>
 5   0  0.9368546E-09  0.3903469E+04  0.7818609E-02  0.8024308E-01
       -2   -1    0    0    0  501  0.00000000000E+00  0.00000000000E+00  0.19677323691E+04  0.19677323691E+04  0.25500000920E-02 0. -1.
        2   -1    0    0  501    0  0.00000000000E+00  0.00000000000E+00 -0.19358670127E+04  0.19358670127E+04  0.25500000920E-02 0.  1.
    10030    2    1    2    0    0  0.00000000000E+00  0.00000000000E+00  0.31865356429E+02  0.39035993818E+04  0.39034693201E+04 0.  0.
        5    1    3    3  502    0 -0.70747590239E+03  0.21971115319E+03  0.18216647256E+04  0.19665400087E+04  0.46999998093E+01 0. -1.
       -5    1    3    3    0  502  0.70747590239E+03 -0.21971115319E+03 -0.17897993692E+04  0.19370593732E+04  0.46999998093E+01 0.  1.
</event>
<event>
 5   0  0.9368546E-09  0.3899785E+04  0.7818609E-02  0.8025074E-01
       -2   -1    0    0    0  501  0.00000000000E+00  0.00000000000E+00  0.13993311920E+04  0.13993311920E+04  0.25500000920E-02 0.  1.
        2   -1    0    0  501    0  0.00000000000E+00  0.00000000000E+00 -0.27170698499E+04  0.27170698499E+04  0.25500000920E-02 0. -1.
    10030    2    1    2    0    0  0.00000000000E+00  0.00000000000E+00 -0.13177386579E+04  0.41164010419E+04  0.38997849129E+04 0.  0.
        5    1    3    3  502    0  0.70666846406E+03  0.49455255119E+03 -0.25047455663E+04  0.26491007882E+04  0.46999998093E+01 0. -1.
       -5    1    3    3    0  502 -0.70666846406E+03 -0.49455255119E+03  0.11870069084E+04  0.14673002537E+04  0.46999998093E+01 0.  1.
</event>
<event>
 5   0  0.2929054E-09  0.3901095E+04  0.7818609E-02  0.8024801E-01
       -1   -1    0    0    0  501  0.00000000000E+00  0.00000000000E+00  0.13559198241E+04  0.13559198241E+04  0.50400001928E-02 0.  1.
        1   -1    0    0  501    0  0.00000000000E+00  0.00000000000E+00 -0.28059446499E+04  0.28059446499E+04  0.50400001928E-02 0. -1.
    10030    2    1    2    0    0  0.00000000000E+00  0.00000000000E+00 -0.14500248258E+04  0.41618644741E+04  0.39010952187E+04 0.  0.
        1    1    3    3  502    0  0.17393327426E+04  0.45040176586E+03  0.85014541026E+02  0.17987127654E+04  0.50400001928E-02 0.  1.
       -1    1    3    3    0  502 -0.17393327426E+04 -0.45040176586E+03 -0.15350393668E+04  0.23631517086E+04  0.50400001928E-02 0. -1.
</event>
<event>
 5   0  0.6335942E-09  0.3899392E+04  0.7818609E-02  0.8025156E-01
       -2   -1    0    0    0  501  0.00000000000E+00  0.00000000000E+00  0.16587959021E+04  0.16587959021E+04  0.25500000920E-02 0.  1.
        2   -1    0    0  501    0  0.00000000000E+00  0.00000000000E+00 -0.22916112917E+04  0.22916112917E+04  0.25500000920E-02 0. -1.
    10030    2    1    2    0    0  0.00000000000E+00  0.00000000000E+00 -0.63281538962E+03  0.39504071939E+04  0.38993924757E+04 0.  0.
        2    1    3    3  502    0 -0.98156221815E+03 -0.97704326802E+03 -0.17066722772E+04  0.21979099612E+04  0.25500000920E-02 0. -1.
       -2    1    3    3    0  502  0.98156221815E+03  0.97704326802E+03  0.10738568875E+04  0.17524972327E+04  0.25500000920E-02 0.  1.
</event>
<event>
 5   0  0.2904500E-09  0.3897453E+04  0.7818609E-02  0.8025559E-01
        1   -1    0    0  501    0  0.00000000000E+00  0.00000000000E+00  0.26985868796E+04  0.26985868797E+04  0.50400001928E-02 0. -1.
       -1   -1    0    0    0  501  0.00000000000E+00  0.00000000000E+00 -0.14072311176E+04  0.14072311176E+04  0.50400001928E-02 0.  1.
    10030    2    1    2    0    0  0.00000000000E+00  0.00000000000E+00  0.12913557620E+04  0.41058179973E+04  0.38974532355E+04 0.  0.
        3    1    3    3  502    0  0.76034768958E+03 -0.11530602999E+04  0.20938942593E+04  0.25083998572E+04  0.10100000352E+00 0. -1.
       -3    1    3    3    0  502 -0.76034768958E+03  0.11530602999E+04 -0.80253849730E+03  0.15974181401E+04  0.10100000352E+00 0.  1.
</event>
<event>
 5   0  0.2904500E-09  0.3900178E+04  0.7818609E-02  0.8024992E-01
        1   -1    0    0  501    0  0.00000000000E+00  0.00000000000E+00  0.19708239112E+04  0.19708239112E+04  0.50400001928E-02 0. -1.
       -1   -1    0    0    0  501  0.00000000000E+00  0.00000000000E+00 -0.19295717926E+04  0.19295717926E+04  0.50400001928E-02 0.  1.
    10030    2    1    2    0    0  0.00000000000E+00  0.00000000000E+00  0.41252118603E+02  0.39003957039E+04  0.39001775485E+04 0.  0.
        3    1    3    3  502    0 -0.51754462606E+03 -0.18179522437E+04  0.50028130268E+03  0.19552708744E+04  0.10100000352E+00 0. -1.
       -3    1    3    3    0  502  0.51754462606E+03  0.18179522437E+04 -0.45902918408E+03  0.19451248295E+04  0.10100000352E+00 0.  1.
</event>
<event>
 5   0  0.6335942E-09  0.3900097E+04  0.7818609E-02  0.8025009E-01
       -2   -1    0    0    0  501  0.00000000000E+00  0.00000000000E+00  0.23042521547E+04  0.23042521547E+04  0.25500000920E-02 0. -1.
        2   -1    0    0  501    0  0.00000000000E+00  0.00000000000E+00 -0.16502924955E+04  0.16502924955E+04  0.25500000920E-02 0.  1.
    10030    2    1    2    0    0  0.00000000000E+00  0.00000000000E+00  0.65395965925E+03  0.39545446502E+04  0.39000974545E+04 0.  0.
        2    1    3    3  502    0  0.11501381070E+04  0.42779534248E+03  0.18636781592E+04  0.22313948107E+04  0.25500000920E-02 0. -1.
       -2    1    3    3    0  502 -0.11501381070E+04 -0.42779534248E+03 -0.12097185000E+04  0.17231498395E+04  0.25500000920E-02 0.  1.
</event>
<event>
 5   0  0.2904500E-09  0.3892273E+04  0.7818609E-02  0.8026638E-01
       -1   -1    0    0    0  501  0.00000000000E+00  0.00000000000E+00  0.27384655090E+04  0.27384655090E+04  0.50400001928E-02 0. -1.
        1   -1    0    0  501    0  0.00000000000E+00  0.00000000000E+00 -0.13830543143E+04  0.13830543143E+04  0.50400001928E-02 0.  1.
    10030    2    1    2    0    0  0.00000000000E+00  0.00000000000E+00  0.13554111946E+04  0.41215198233E+04  0.38922726199E+04 0.  0.
        3    1    3    3  502    0  0.89893132529E+02  0.19298723003E+04  0.92594584333E+03  0.21423966920E+04  0.10100000352E+00 0. -1.
       -3    1    3    3    0  502 -0.89893132529E+02 -0.19298723003E+04  0.42946535132E+03  0.19791231313E+04  0.10100000352E+00 0.  1.
</event>
<event>
 5   0  0.9277261E-09  0.3900590E+04  0.7818609E-02  0.8024906E-01
        2   -1    0    0  501    0  0.00000000000E+00  0.00000000000E+00  0.12087737103E+04  0.12087737103E+04  0.25500000920E-02 0. -1.
       -2   -1    0    0    0  501  0.00000000000E+00  0.00000000000E+00 -0.31467025359E+04  0.31467025359E+04  0.25500000920E-02 0.  1.
    10030    2    1    2    0    0  0.00000000000E+00  0.00000000000E+00 -0.19379288256E+04  0.43554762463E+04  0.39005903654E+04 0.  0.
        1    1    3    3  502    0  0.12615635073E+04  0.13670843628E+04 -0.16231064931E+04  0.24687925847E+04  0.50400001928E-02 0.  1.
       -1    1    3    3    0  502 -0.12615635073E+04 -0.13670843628E+04 -0.31482233243E+03  0.18866836616E+04  0.50400001928E-02 0. -1.
</event>
<event>
 5   0  0.9078515E-09  0.3901747E+04  0.7818609E-02  0.8024666E-01
        2   -1    0    0  501    0  0.00000000000E+00  0.00000000000E+00  0.28918958609E+04  0.28918958609E+04  0.25500000920E-02 0.  1.
       -2   -1    0    0    0  501  0.00000000000E+00  0.00000000000E+00 -0.13160596087E+04  0.13160596087E+04  0.25500000920E-02 0. -1.
    10030    2    1    2    0    0  0.00000000000E+00  0.00000000000E+00  0.15758362522E+04  0.42079554695E+04  0.39017469600E+04 0.  0.
        3    1    3    3  502    0 -0.17017386456E+04  0.77326119646E+03  0.13903821341E+04  0.23295943392E+04  0.10100000352E+00 0.  1.
       -3    1    3    3    0  502  0.17017386456E+04 -0.77326119646E+03  0.18545411805E+03  0.18783611304E+04  0.10100000352E+00 0. -1.
</event>
<event>
 5   0  0.6335942E-09  0.3899718E+04  0.7818609E-02  0.8025088E-01
       -2   -1    0    0    0  501  0.00000000000E+00  0.00000000000E+00  0.29490535978E+04  0.29490535978E+04  0.25500000920E-02 0.  1.
        2   -1    0    0  501    0  0.00000000000E+00  0.00000000000E+00 -0.12892105073E+04  0.12892105073E+04  0.25500000920E-02 0. -1.
    10030    2    1    2    0    0  0.00000000000E+00  0.00000000000E+00  0.16598430904E+04  0.42382641051E+04  0.38997183924E+04 0.  0.
        2    1    3    3  502    0 -0.74677862182E+02  0.19484241253E+04  0.82537119549E+03  0.21173499865E+04  0.25500000920E-02 0. -1.
       -2    1    3    3    0  502  0.74677862182E+02 -0.19484241253E+04  0.83447189495E+03  0.21209141186E+04  0.25500000920E-02 0.  1.
</event>
<event>
 5   0  0.2904500E-09  0.3900058E+04  0.7818609E-02  0.8025017E-01
       -1   -1    0    0    0  501  0.00000000000E+00  0.00000000000E+00  0.28791165415E+04  0.28791165415E+04  0.50400001928E-02 0.  1.
        1   -1    0    0  501    0  0.00000000000E+00  0.00000000000E+00 -0.13207566211E+04  0.13207566211E+04  0.50400001928E-02 0. -1.
    10030    2    1    2    0    0  0.00000000000E+00  0.00000000000E+00  0.15583599204E+04  0.41998731625E+04  0.39000575560E+04 0.  0.
        4    1    3    3  502    0  0.15893428910E+04  0.76463492380E+02  0.19931158536E+04  0.25503666226E+04  0.12699999809E+01 0.  1.
       -4    1    3    3    0  502 -0.15893428910E+04 -0.76463492380E+02 -0.43475593323E+03  0.16495065399E+04  0.12699999809E+01 0. -1.
</event>
<event>
 5   0  0.9434114E-09  0.3900084E+04  0.7818609E-02  0.8025012E-01
        2   -1    0    0  501    0  0.00000000000E+00  0.00000000000E+00  0.27496010019E+04  0.27496010019E+04  0.25500000920E-02 0.  1.
       -2   -1    0    0    0  501  0.00000000000E+00  0.00000000000E+00 -0.13829871706E+04  0.13829871706E+04  0.25500000920E-02 0. -1.
    10030    2    1    2    0    0  0.00000000000E+00  0.00000000000E+00  0.13666138313E+04  0.41325881725E+04  0.39000835427E+04 0.  0.
        4    1    3    3  502    0  0.79460522924E+03  0.97318052498E+03 -0.89697119672E+03  0.15437087631E+04  0.12699999809E+01 0. -1.
       -4    1    3    3    0  502 -0.79460522924E+03 -0.97318052498E+03  0.22635850281E+04  0.25888794095E+04  0.12699999809E+01 0.  1.
</event>
<event>
 5   0  0.6335942E-09  0.3902192E+04  0.7818609E-02  0.8024573E-01
       -2   -1    0    0    0  501  0.00000000000E+00  0.00000000000E+00  0.13969712065E+04  0.13969712065E+04  0.25500000920E-02 0.  1.
        2   -1    0    0  501    0  0.00000000000E+00  0.00000000000E+00 -0.27250211287E+04  0.27250211287E+04  0.25500000920E-02 0. -1.
    10030    2    1    2    0    0  0.00000000000E+00  0.00000000000E+00 -0.13280499223E+04  0.41219923352E+04  0.39021922320E+04 0.  0.
        2    1    3    3  502    0  0.16184279814E+04  0.76222297396E+03 -0.14866612386E+04  0.23260383985E+04  0.25500000920E-02 0. -1.
       -2    1    3    3    0  502 -0.16184279814E+04 -0.76222297396E+03  0.15861131630E+03  0.17959539367E+04  0.25500000920E-02 0.  1.
</event>
<event>
 5   0  0.9434114E-09  0.3900545E+04  0.7818609E-02  0.8024916E-01
       -2   -1    0    0    0  501  0.00000000000E+00  0.00000000000E+00  0.22889663847E+04  0.22889663847E+04  0.25500000920E-02 0. -1.
        2   -1    0    0  501    0  0.00000000000E+00  0.00000000000E+00 -0.16616941149E+04  0.16616941149E+04  0.25500000920E-02 0.  1.
    10030    2    1    2    0    0  0.00000000000E+00  0.00000000000E+00  0.62727226981E+03  0.39506604996E+04  0.39005445623E+04 0.  0.
        4    1    3    3  502    0 -0.10377982235E+04  0.80605893754E+03  0.17732643248E+04  0.22070849875E+04  0.12699999809E+01 0. -1.
       -4    1    3    3    0  502  0.10377982235E+04 -0.80605893754E+03 -0.11459920550E+04  0.17435755121E+04  0.12699999809E+01 0.  1.
</event>
<event>
 5   0  0.9078515E-09  0.3897901E+04  0.7818609E-02  0.8025466E-01
        2   -1    0    0  501    0  0.00000000000E+00  0.00000000000E+00  0.26138400551E+04  0.26138400551E+04  0.25500000920E-02 0. -1.
       -2   -1    0    0    0  501  0.00000000000E+00  0.00000000000E+00 -0.14531906554E+04  0.14531906554E+04  0.25500000920E-02 0.  1.
    10030    2    1    2    0    0  0.00000000000E+00  0.00000000000E+00  0.11606493997E+04  0.40670307105E+04  0.38979009443E+04 0.  0.
        3    1    3    3  502    0 -0.91566818036E+02  0.19192281133E+04  0.92096699326E+03  0.21307278677E+04  0.10100000352E+00 0. -1.
       -3    1    3    3    0  502  0.91566818036E+02 -0.19192281133E+04  0.23968240641E+03  0.19363028429E+04  0.10100000352E+00 0.  1.
</event>
<event>
 5   0  0.9368546E-09  0.3900537E+04  0.7818609E-02  0.8024918E-01
       -2   -1    0    0    0  501  0.00000000000E+00  0.00000000000E+00  0.16125443328E+04  0.16125443328E+04  0.25500000920E-02 0.  1.
        2   -1    0    0  501    0  0.00000000000E+00  0.00000000000E+00 -0.23587241025E+04  0.23587241025E+04  0.25500000920E-02 0. -1.
    10030    2    1    2    0    0  0.00000000000E+00  0.00000000000E+00 -0.74617976974E+03  0.39712684353E+04  0.39005369805E+04 0.  0.
        5    1    3    3  502    0 -0.33543665746E+03 -0.18940784080E+04 -0.45582460489E+02  0.19240973514E+04  0.46999998093E+01 0. -1.
       -5    1    3    3    0  502  0.33543665746E+03  0.18940784080E+04 -0.70059730925E+03  0.20471710839E+04  0.46999998093E+01 0.  1.
</event>
<event>
 5   0  0.9277261E-09  0.3898992E+04  0.7818609E-02  0.8025239E-01
        2   -1    0    0  501    0  0.00000000000E+00  0.00000000000E+00  0.12637893200E+04  0.12637893200E+04  0.25500000920E-02 0.  1.
       -2   -1    0    0    0  501  0.00000000000E+00  0.00000000000E+00 -0.30072528788E+04  0.30072528788E+04  0.25500000920E-02 0. -1.
    10030    2    1    2    0    0  0.00000000000E+00  0.00000000000E+00 -0.17434635589E+04  0.42710421988E+04  0.38989917008E+04 0.  0.
        1    1    3    3  502    0  0.19419571965E+04 -0.14587520625E+03 -0.77340738583E+03  0.20953845264E+04  0.50400001928E-02 0. -1.
       -1    1    3    3    0  502 -0.19419571965E+04  0.14587520625E+03 -0.97005617303E+03  0.21756576725E+04  0.50400001928E-02 0.  1.
</event>
<event>
 5   0  0.6335942E-09  0.3897609E+04  0.7818609E-02  0.8025527E-01
        2   -1    0    0  501    0  0.00000000000E+00  0.00000000000E+00  0.19863487821E+04  0.19863487821E+04  0.25500000920E-02 0.  1.
       -2   -1    0    0    0  501  0.00000000000E+00  0.00000000000E+00 -0.19119702719E+04  0.19119702719E+04  0.25500000920E-02 0. -1.
    10030    2    1    2    0    0  0.00000000000E+00  0.00000000000E+00  0.74378510192E+02  0.38983190540E+04  0.38976094319E+04 0.  0.
        2    1    3    3  502    0 -0.65444643934E+03 -0.13054495975E+04 -0.12535266263E+04  0.19245331372E+04  0.25500000920E-02 0. -1.
       -2    1    3    3    0  502  0.65444643934E+03  0.13054495975E+04  0.13279051365E+04  0.19737859167E+04  0.25500000920E-02 0.  1.
</event>
<event>
 5   0  0.2929054E-09  0.3899495E+04  0.7818609E-02  0.8025134E-01
       -1   -1    0    0    0  501  0.00000000000E+00  0.00000000000E+00  0.18743415848E+04  0.18743415849E+04  0.50400001928E-02 0. -1.
        1   -1    0    0  501    0  0.00000000000E+00  0.00000000000E+00 -0.20281874024E+04  0.20281874024E+04  0.50400001928E-02 0.  1.
    10030    2    1    2    0    0  0.00000000000E+00  0.00000000000E+00 -0.15384581754E+03  0.39025289872E+04  0.38994953469E+04 0.  0.
        1    1    3    3  502    0  0.13805894259E+04  0.11403126253E+04 -0.84899955440E+03  0.19817013624E+04  0.50400001928E-02 0.  1.
       -1    1    3    3    0  502 -0.13805894259E+04 -0.11403126253E+04  0.69515373686E+03  0.19208276248E+04  0.50400001928E-02 0. -1.
</event>
<event>
 5   0  0.9368546E-09  0.3900950E+04  0.7818609E-02  0.8024832E-01
        2   -1    0    0  501    0  0.00000000000E+00  0.00000000000E+00  0.16860318950E+04  0.16860318950E+04  0.25500000920E-02 0. -1.
       -2   -1    0    0    0  501  0.00000000000E+00  0.00000000000E+00 -0.22563946653E+04  0.22563946653E+04  0.25500000920E-02 0.  1.
    10030    2    1    2    0    0  0.00000000000E+00  0.00000000000E+00 -0.57036277030E+03  0.39424265603E+04  0.39009503321E+04 0.  0.
        5    1    3    3  502    0 -0.59904321199E+03  0.16737716793E+04 -0.10961890463E+04  0.20885442106E+04  0.46999998093E+01 0.  1.
       -5    1    3    3    0  502  0.59904321199E+03 -0.16737716793E+04  0.52582627602E+03  0.18538823498E+04  0.46999998093E+01 0. -1.
</event>
<event>
 5   0  0.2904500E-09  0.3902100E+04  0.7818609E-02  0.8024593E-01
        1   -1    0    0  501    0  0.00000000000E+00  0.00000000000E+00  0.17296198637E+04  0.17296198637E+04  0.50400001928E-02 0.  1.
       -1   -1    0    0    0  501  0.00000000000E+00  0.00000000000E+00 -0.22008281186E+04  0.22008281186E+04  0.50400001928E-02 0. -1.
    10030    2    1    2    0    0  0.00000000000E+00  0.00000000000E+00 -0.47120825492E+03  0.39304479824E+04  0.39020999632E+04 0.  0.
        5    1    3    3  502    0 -0.81477643670E+03  0.17119389305E+03 -0.20129073880E+04  0.21782989311E+04  0.46999998093E+01 0. -1.
       -5    1    3    3    0  502  0.81477643670E+03 -0.17119389305E+03  0.15416991331E+04  0.17521490512E+04  0.46999998093E+01 0.  1.
</event>
<event>
 5   0  0.2904500E-09  0.3900144E+04  0.7818609E-02  0.8024999E-01
        1   -1    0    0  501    0  0.00000000000E+00  0.00000000000E+00  0.24612322934E+04  0.24612322934E+04  0.50400001928E-02 0. -1.
       -1   -1    0    0    0  501  0.00000000000E+00  0.00000000000E+00 -0.15450718931E+04  0.15450718931E+04  0.50400001928E-02 0.  1.
    10030    2    1    2    0    0  0.00000000000E+00  0.00000000000E+00  0.91616040031E+03  0.40063041865E+04  0.39001440173E+04 0.  0.
        5    1    3    3  502    0 -0.17811021057E+04 -0.78772002121E+03  0.56044821310E+03  0.20265615787E+04  0.46999998093E+01 0.  1.
       -5    1    3    3    0  502  0.17811021057E+04  0.78772002121E+03  0.35571218721E+03  0.19797426078E+04  0.46999998093E+01 0. -1.
</event>
<event>
 5   0  0.2929054E-09  0.3899340E+04  0.7818609E-02  0.8025166E-01
        1   -1    0    0  501    0  0.00000000000E+00  0.00000000000E+00  0.24066544092E+04  0.24066544092E+04  0.50400001928E-02 0.  1.
       -1   -1    0    0    0  501  0.00000000000E+00  0.00000000000E+00 -0.15794596470E+04  0.15794596470E+04  0.50400001928E-02 0. -1.
    10030    2    1    2    0    0  0.00000000000E+00  0.00000000000E+00  0.82719476223E+03  0.39861140562E+04  0.38993402127E+04 0.  0.
        1    1    3    3  502    0 -0.64568164182E+03 -0.17818263814E+04  0.88138696536E+03  0.20901322970E+04  0.50400001928E-02 0.  1.
       -1    1    3    3    0  502  0.64568164182E+03  0.17818263814E+04 -0.54192203133E+02  0.18959817592E+04  0.50400001928E-02 0. -1.
</event>
<event>
 5   0  0.6335942E-09  0.3904835E+04  0.7818609E-02  0.8024024E-01
       -2   -1    0    0    0  501  0.00000000000E+00  0.00000000000E+00  0.18776210034E+04  0.18776210034E+04  0.25500000920E-02 0.  1.
        2   -1    0    0  501    0  0.00000000000E+00  0.00000000000E+00 -0.20301933476E+04  0.20301933476E+04  0.25500000920E-02 0. -1.
    10030    2    1    2    0    0  0.00000000000E+00  0.00000000000E+00 -0.15257234423E+03  0.39078143510E+04  0.39048347829E+04 0.  0.
        2    1    3    3  502    0 -0.14935278863E+04  0.20576824370E+03 -0.13177840798E+04  0.20023788349E+04  0.25500000920E-02 0. -1.
       -2    1    3    3    0  502  0.14935278863E+04 -0.20576824370E+03  0.11652117356E+04  0.19054355161E+04  0.25500000920E-02 0.  1.
</event>
<event>
 5   0  0.2929054E-09  0.3900121E+04  0.7818609E-02  0.8025004E-01
        1   -1    0    0  501    0  0.00000000000E+00  0.00000000000E+00  0.18296031771E+04  0.18296031771E+04  0.50400001928E-02 0.  1.
       -1   -1    0    0    0  501  0.00000000000E+00  0.00000000000E+00 -0.20784481087E+04  0.20784481087E+04  0.50400001928E-02 0. -1.
    10030    2    1    2    0    0  0.00000000000E+00  0.00000000000E+00 -0.24884493156E+03  0.39080512858E+04  0.39001206459E+04 0.  0.
        1    1    3    3  502    0 -0.46907252479E+03  0.15256905064E+04 -0.12469569709E+04  0.20255029603E+04  0.50400001928E-02 0. -1.
       -1    1    3    3    0  502  0.46907252479E+03 -0.15256905064E+04  0.99811203939E+03  0.18825483255E+04  0.50400001928E-02 0.  1.
</event>
<event>
 5   0  0.9078515E-09  0.3897112E+04  0.7818609E-02  0.8025630E-01
       -2   -1    0    0    0  501  0.00000000000E+00  0.00000000000E+00  0.18207107223E+04  0.18207107223E+04  0.25500000920E-02 0. -1.
        2   -1    0    0  501    0  0.00000000000E+00  0.00000000000E+00 -0.20853781723E+04  0.20853781723E+04  0.25500000920E-02 0.  1.
    10030    2    1    2    0    0  0.00000000000E+00  0.00000000000E+00 -0.26466744996E+03  0.39060888946E+04  0.38971119555E+04 0.  0.
        3    1    3    3  502    0 -0.90646593253E+03 -0.71019557739E+03  0.14431688016E+04  0.18462920801E+04  0.10100000352E+00 0. -1.
       -3    1    3    3    0  502  0.90646593253E+03  0.71019557739E+03 -0.17078362515E+04  0.20597968145E+04  0.10100000352E+00 0.  1.
</event>
<event>
 5   0  0.9368546E-09  0.3901116E+04  0.7818609E-02  0.8024797E-01
       -2   -1    0    0    0  501  0.00000000000E+00  0.00000000000E+00  0.13160635574E+04  0.13160635574E+04  0.25500000920E-02 0. -1.
        2   -1    0    0  501    0  0.00000000000E+00  0.00000000000E+00 -0.28909526190E+04  0.28909526190E+04  0.25500000920E-02 0.  1.
    10030    2    1    2    0    0  0.00000000000E+00  0.00000000000E+00 -0.15748890616E+04  0.42070161765E+04  0.39011164495E+04 0.  0.
        5    1    3    3  502    0  0.13444376831E+04  0.76619377475E+03  0.49314114571E+03  0.16241231061E+04  0.46999998093E+01 0. -1.
       -5    1    3    3    0  502 -0.13444376831E+04 -0.76619377475E+03 -0.20680302073E+04  0.25828930703E+04  0.46999998093E+01 0.  1.
</event>
<event>
 5   0  0.9368546E-09  0.3899054E+04  0.7818609E-02  0.8025226E-01
       -2   -1    0    0    0  501  0.00000000000E+00  0.00000000000E+00  0.17426381922E+04  0.17426381922E+04  0.25500000920E-02 0. -1.
        2   -1    0    0  501    0  0.00000000000E+00  0.00000000000E+00 -0.21809777004E+04  0.21809777004E+04  0.25500000920E-02 0.  1.
    10030    2    1    2    0    0  0.00000000000E+00  0.00000000000E+00 -0.43833950817E+03  0.39236158926E+04  0.38990537504E+04 0.  0.
        5    1    3    3  502    0 -0.37763527224E+03 -0.18644091833E+04 -0.64847527260E+03  0.20097692083E+04  0.46999998093E+01 0. -1.
       -5    1    3    3    0  502  0.37763527224E+03  0.18644091833E+04  0.21013576443E+03  0.19138466843E+04  0.46999998093E+01 0.  1.
</event>
<event>
 5   0  0.6335942E-09  0.3899514E+04  0.7818609E-02  0.8025130E-01
        2   -1    0    0  501    0  0.00000000000E+00  0.00000000000E+00  0.27199914773E+04  0.27199914773E+04  0.25500000920E-02 0.  1.
       -2   -1    0    0    0  501  0.00000000000E+00  0.00000000000E+00 -0.13976338754E+04  0.13976338754E+04  0.25500000920E-02 0. -1.
    10030    2    1    2    0    0  0.00000000000E+00  0.00000000000E+00  0.13223576018E+04  0.41176253527E+04  0.38995139336E+04 0.  0.
        2    1    3    3  502    0  0.27799536514E+03 -0.77680823389E+03  0.25265793013E+04  0.26578779921E+04  0.25500000920E-02 0.  1.
       -2    1    3    3    0  502 -0.27799536514E+03  0.77680823389E+03 -0.12042216995E+04  0.14597473606E+04  0.25500000920E-02 0. -1.
</event>
<event>
 5   0  0.2904500E-09  0.3898725E+04  0.7818609E-02  0.8025294E-01
       -1   -1    0    0    0  501  0.00000000000E+00  0.00000000000E+00  0.23176681890E+04  0.23176681890E+04  0.50400001928E-02 0.  1.
        1   -1    0    0  501    0  0.00000000000E+00  0.00000000000E+00 -0.16395849354E+04  0.16395849354E+04  0.50400001928E-02 0. -1.
    10030    2    1    2    0    0  0.00000000000E+00  0.00000000000E+00  0.67808325362E+03  0.39572531244E+04  0.38987248418E+04 0.  0.
        4    1    3    3  502    0 -0.11091434373E+04 -0.22133070300E+03  0.19505874618E+04  0.22547681708E+04  0.12699999809E+01 0.  1.
       -4    1    3    3    0  502  0.11091434373E+04  0.22133070300E+03 -0.12725042082E+04  0.17024849537E+04  0.12699999809E+01 0. -1.
</event>
<event>
 5   0  0.9434114E-09  0.3899978E+04  0.7818609E-02  0.8025034E-01
       -2   -1    0    0    0  501  0.00000000000E+00  0.00000000000E+00  0.21452985621E+04  0.21452985621E+04  0.25500000920E-02 0. -1.
        2   -1    0    0  501    0  0.00000000000E+00  0.00000000000E+00 -0.17724603394E+04  0.17724603394E+04  0.25500000920E-02 0.  1.
    10030    2    1    2    0    0  0.00000000000E+00  0.00000000000E+00  0.37283822277E+03  0.39177589015E+04  0.38999777525E+04 0.  0.
        4    1    3    3  502    0 -0.75561441275E+03 -0.58295517110E+03 -0.15218235969E+04  0.17963124854E+04  0.12699999809E+01 0.  1.
       -4    1    3    3    0  502  0.75561441275E+03  0.58295517110E+03  0.18946618197E+04  0.21214464161E+04  0.12699999809E+01 0. -1.
</event>
<event>
 5   0  0.9078515E-09  0.3896560E+04  0.7818609E-02  0.8025745E-01
       -2   -1    0    0    0  501  0.00000000000E+00  0.00000000000E+00  0.29919434297E+04  0.29919434297E+04  0.25500000920E-02 0.  1.
        2   -1    0    0  501    0  0.00000000000E+00  0.00000000000E+00 -0.12686718273E+04  0.12686718273E+04  0.25500000920E-02 0. -1.
    10030    2    1    2    0    0  0.00000000000E+00  0.00000000000E+00  0.17232716024E+04  0.42606152569E+04  0.38965596816E+04 0.  0.
        3    1    3    3  502    0  0.67072892871E+03  0.84472332773E+02 -0.11363158854E+04  0.13222052308E+04  0.10100000352E+00 0. -1.
       -3    1    3    3    0  502 -0.67072892871E+03 -0.84472332773E+02  0.28595874878E+04  0.29384100261E+04  0.10100000352E+00 0.  1.
</event>
<event>
 5   0  0.9434114E-09  0.3899460E+04  0.7818609E-02  0.8025142E-01
       -2   -1    0    0    0  501  0.00000000000E+00  0.00000000000E+00  0.34286058247E+04  0.34286058247E+04  0.25500000920E-02 0.  1.
        2   -1    0    0  501    0  0.00000000000E+00  0.00000000000E+00 -0.11087439911E+04  0.11087439911E+04  0.25500000920E-02 0. -1.
    10030    2    1    2    0    0  0.00000000000E+00  0.00000000000E+00  0.23198618336E+04  0.45373498158E+04  0.38994595041E+04 0.  0.
        4    1    3    3  502    0 -0.27358026211E+03  0.15549573726E+04  0.24910560374E+04  0.29492542083E+04  0.12699999809E+01 0.  1.
       -4    1    3    3    0  502  0.27358026211E+03 -0.15549573726E+04 -0.17119420379E+03  0.15880956076E+04  0.12699999809E+01 0. -1.
</event>
<event>
 5   0  0.9078515E-09  0.3899870E+04  0.7818609E-02  0.8025056E-01
        2   -1    0    0  501    0  0.00000000000E+00  0.00000000000E+00  0.18961205853E+04  0.18961205853E+04  0.25500000920E-02 0. -1.
       -2   -1    0    0    0  501  0.00000000000E+00  0.00000000000E+00 -0.20052765452E+04  0.20052765452E+04  0.25500000920E-02 0.  1.
    10030    2    1    2    0    0  0.00000000000E+00  0.00000000000E+00 -0.10915595986E+03  0.39013971305E+04  0.38998698115E+04 0.  0.
        3    1    3    3  502    0 -0.13643997106E+04  0.34908784963E+03 -0.14037340538E+04  0.19884461776E+04  0.10100000352E+00 0.  1.
       -3    1    3    3    0  502  0.13643997106E+04 -0.34908784963E+03  0.12945780940E+04  0.19129509530E+04  0.10100000352E+00 0. -1.
</event>
<event>
 5   0  0.9078515E-09  0.3899574E+04  0.7818609E-02  0.8025118E-01
       -2   -1    0    0    0  501  0.00000000000E+00  0.00000000000E+00  0.19551329469E+04  0.19551329469E+04  0.25500000920E-02 0.  1.
        2   -1    0    0  501    0  0.00000000000E+00  0.00000000000E+00 -0.19444559624E+04  0.19444559624E+04  0.25500000920E-02 0. -1.
    10030    2    1    2    0    0  0.00000000000E+00  0.00000000000E+00  0.10676984473E+02  0.38995889093E+04  0.38995742926E+04 0.  0.
        3    1    3    3  502    0  0.59093248312E+03 -0.13957851370E+04  0.12318228314E+04  0.19531525405E+04  0.10100000352E+00 0.  1.
       -3    1    3    3    0  502 -0.59093248312E+03  0.13957851370E+04 -0.12211458470E+04  0.19464363688E+04  0.10100000352E+00 0. -1.
</event>
<event>
 5   0  0.2904500E-09  0.3900087E+04  0.7818609E-02  0.8025011E-01
        1   -1    0    0  501    0  0.00000000000E+00  0.00000000000E+00  0.21722460623E+04  0.21722460623E+04  0.50400001928E-02 0. -1.
       -1   -1    0    0    0  501  0.00000000000E+00  0.00000000000E+00 -0.17505699622E+04  0.17505699622E+04  0.50400001928E-02 0.  1.
    10030    2    1    2    0    0  0.00000000000E+00  0.00000000000E+00  0.42167610008E+03  0.39228160245E+04  0.39000865156E+04 0.  0.
        4    1    3    3  502    0  0.59811548982E+03  0.13262690432E+04 -0.10951649121E+04  0.18210215572E+04  0.12699999809E+01 0.  1.
       -4    1    3    3    0  502 -0.59811548982E+03 -0.13262690432E+04  0.15168410122E+04  0.21017944674E+04  0.12699999809E+01 0. -1.
</event>
<event>
 5   0  0.2904500E-09  0.3900374E+04  0.7818609E-02  0.8024952E-01
       -1   -1    0    0    0  501  0.00000000000E+00  0.00000000000E+00  0.14071244295E+04  0.14071244295E+04  0.50400001928E-02 0. -1.
        1   -1    0    0  501    0  0.00000000000E+00  0.00000000000E+00 -0.27028374436E+04  0.27028374436E+04  0.50400001928E-02 0.  1.
    10030    2    1    2    0    0  0.00000000000E+00  0.00000000000E+00 -0.12957130141E+04  0.41099618732E+04  0.39003736211E+04 0.  0.
        3    1    3    3  502    0 -0.13945797111E+04 -0.33234449163E+03  0.74527703966E+03  0.16157794738E+04  0.10100000352E+00 0. -1.
       -3    1    3    3    0  502  0.13945797111E+04  0.33234449163E+03 -0.20409900538E+04  0.24941823994E+04  0.10100000352E+00 0.  1.
</event>
<event>
 5   0  0.2904500E-09  0.3900058E+04  0.7818609E-02  0.8025017E-01
        1   -1    0    0  501    0  0.00000000000E+00  0.00000000000E+00  0.19784739734E+04  0.19784739735E+04  0.50400001928E-02 0.  1.
       -1   -1    0    0    0  501  0.00000000000E+00  0.00000000000E+00 -0.19219934449E+04  0.19219934449E+04  0.50400001928E-02 0. -1.
    10030    2    1    2    0    0  0.00000000000E+00  0.00000000000E+00  0.56480528526E+02  0.39004674184E+04  0.39000584652E+04 0.  0.
        5    1    3    3  502    0 -0.10738652226E+04 -0.99952977035E+03  0.13130327622E+04  0.19688380844E+04  0.46999998093E+01 0.  1.
       -5    1    3    3    0  502  0.10738652226E+04  0.99952977035E+03 -0.12565522336E+04  0.19316293340E+04  0.46999998093E+01 0. -1.
</event>
<event>
 5   0  0.9277261E-09  0.3898490E+04  0.7818609E-02  0.8025343E-01
        2   -1    0    0  501    0  0.00000000000E+00  0.00000000000E+00  0.24896640329E+04  0.24896640329E+04  0.25500000920E-02 0.  1.
       -2   -1    0    0    0  501  0.00000000000E+00  0.00000000000E+00 -0.15261318422E+04  0.15261318422E+04  0.25500000920E-02 0. -1.
    10030    2    1    2    0    0  0.00000000000E+00  0.00000000000E+00  0.96353219074E+03  0.40157958751E+04  0.38984897368E+04 0.  0.
        1    1    3    3  502    0 -0.15124667147E+04  0.12291009662E+04  0.51906060759E+03  0.20168462168E+04  0.50400001928E-02 0.  1.
       -1    1    3    3    0  502  0.15124667147E+04 -0.12291009662E+04  0.44447158314E+03  0.19989496583E+04  0.50400001928E-02 0. -1.
</event>
<event>
 5   0  0.9368546E-09  0.3900058E+04  0.7818609E-02  0.8025017E-01
       -2   -1    0    0    0  501  0.00000000000E+00  0.00000000000E+00  0.35167624225E+04  0.35167624225E+04  0.25500000920E-02 0.  1.
        2   -1    0    0  501    0  0.00000000000E+00  0.00000000000E+00 -0.10812825836E+04  0.10812825836E+04  0.25500000920E-02 0. -1.
    10030    2    1    2    0    0  0.00000000000E+00  0.00000000000E+00  0.24354798389E+04  0.45980450061E+04  0.39000584397E+04 0.  0.
        5    1    3    3  502    0 -0.55422767175E+03  0.16993636730E+04  0.29875958206E+03  0.18122595242E+04  0.46999998093E+01 0.  1.
       -5    1    3    3    0  502  0.55422767175E+03 -0.16993636730E+04  0.21367202568E+04  0.27857854819E+04  0.46999998093E+01 0. -1.
</event>
<event>
 5   0  0.2904500E-09  0.3899854E+04  0.7818609E-02  0.8025060E-01
       -1   -1    0    0    0  501  0.00000000000E+00  0.00000000000E+00  0.20390012064E+04  0.20390012064E+04  0.50400001928E-02 0.  1.
        1   -1    0    0  501    0  0.00000000000E+00  0.00000000000E+00 -0.18647435416E+04  0.18647435416E+04  0.50400001928E-02 0. -1.
    10030    2    1    2    0    0  0.00000000000E+00  0.00000000000E+00  0.17425766484E+03  0.39037447480E+04  0.38998535003E+04 0.  0.
        5    1    3    3  502    0  0.10529737523E+04  0.29202325333E+03 -0.15294627503E+04  0.18797100037E+04  0.46999998093E+01 0. -1.
       -5    1    3    3    0  502 -0.10529737523E+04 -0.29202325333E+03  0.17037204151E+04  0.20240347443E+04  0.46999998093E+01 0.  1.
</event>
<event>
 5   0  0.2929054E-09  0.3900039E+04  0.7818609E-02  0.8025021E-01
        1   -1    0    0  501    0  0.00000000000E+00  0.00000000000E+00  0.18142244379E+04  0.18142244379E+04  0.50400001928E-02 0.  1.
       -1   -1    0    0    0  501  0.00000000000E+00  0.00000000000E+00 -0.20959783395E+04  0.20959783395E+04  0.50400001928E-02 0. -1.
    10030    2    1    2    0    0  0.00000000000E+00  0.00000000000E+00 -0.28175390166E+03  0.39102027774E+04  0.39000385254E+04 0.  0.
        1    1    3    3  502    0  0.14558000009E+04 -0.12910733176E+04 -0.12671996591E+02  0.19458634417E+04  0.50400001928E-02 0. -1.
       -1    1    3    3    0  502 -0.14558000009E+04  0.12910733176E+04 -0.26908190507E+03  0.19643393357E+04  0.50400001928E-02 0.  1.
</event>
<event>
 5   0  0.6335942E-09  0.3899045E+04  0.7818609E-02  0.8025228E-01
       -2   -1    0    0    0  501  0.00000000000E+00  0.00000000000E+00  0.16041515713E+04  0.16041515714E+04  0.25500000920E-02 0. -1.
        2   -1    0    0  501    0  0.00000000000E+00  0.00000000000E+00 -0.23692511543E+04  0.23692511543E+04  0.25500000920E-02 0.  1.
    10030    2    1    2    0    0  0.00000000000E+00  0.00000000000E+00 -0.76509958291E+03  0.39734027256E+04  0.38990449918E+04 0.  0.
        2    1    3    3  502    0 -0.50115732723E+03  0.28356323815E+03  0.15155146125E+04  0.16212190837E+04  0.25500000920E-02 0. -1.
       -2    1    3    3    0  502  0.50115732723E+03 -0.28356323815E+03 -0.22806141954E+04  0.23521836419E+04  0.25500000920E-02 0.  1.
</event>
<event>
 5   0  0.2904500E-09  0.3876444E+04  0.7818609E-02  0.8029946E-01
       -1   -1    0    0    0  501  0.00000000000E+00  0.00000000000E+00  0.15365248543E+04  0.15365248543E+04  0.50400001928E-02 0.  1.
        1   -1    0    0  501    0  0.00000000000E+00  0.00000000000E+00 -0.24449352239E+04  0.24449352239E+04  0.50400001928E-02 0. -1.
    10030    2    1    2    0    0  0.00000000000E+00  0.00000000000E+00 -0.90841036962E+03  0.39814600782E+04  0.38764435962E+04 0.  0.
        4    1    3    3  502    0  0.15684666188E+04 -0.16318675104E+03  0.70326053232E+03  0.17266425337E+04  0.12699999809E+01 0.  1.
       -4    1    3    3    0  502 -0.15684666188E+04  0.16318675104E+03 -0.16116709019E+04  0.22548175445E+04  0.12699999809E+01 0. -1.
</event>
<event>
 5   0  0.6335942E-09  0.3900505E+04  0.7818609E-02  0.8024924E-01
       -2   -1    0    0    0  501  0.00000000000E+00  0.00000000000E+00  0.24287573892E+04  0.24287573892E+04  0.25500000920E-02 0.  1.
        2   -1    0    0  501    0  0.00000000000E+00  0.00000000000E+00 -0.15660210127E+04  0.15660210127E+04  0.25500000920E-02 0. -1.
    10030    2    1    2    0    0  0.00000000000E+00  0.00000000000E+00  0.86273637650E+03  0.39947784019E+04  0.39005051500E+04 0.  0.
        2    1    3    3  502    0 -0.15586234448E+04  0.91820255475E+03  0.11777356236E+04  0.21585792025E+04  0.25500000920E-02 0.  1.
       -2    1    3    3    0  502  0.15586234448E+04 -0.91820255475E+03 -0.31499924711E+03  0.18361991994E+04  0.25500000920E-02 0. -1.
</event>
<event>
 5   0  0.9277261E-09  0.3900472E+04  0.7818609E-02  0.8024931E-01
       -2   -1    0    0    0  501  0.00000000000E+00  0.00000000000E+00  0.15460328814E+04  0.15460328814E+04  0.25500000920E-02 0. -1.
        2   -1    0    0  501    0  0.00000000000E+00  0.00000000000E+00 -0.24601158888E+04  0.24601158888E+04  0.25500000920E-02 0.  1.
    10030    2    1    2    0    0  0.00000000000E+00  0.00000000000E+00 -0.91408300748E+03  0.40061487702E+04  0.39004717951E+04 0.  0.
        1    1    3    3  502    0  0.14939782642E+04  0.97607920421E+03  0.35085632925E+03  0.18187363280E+04  0.50400001928E-02 0. -1.
       -1    1    3    3    0  502 -0.14939782642E+04 -0.97607920421E+03 -0.12649393367E+04  0.21874124422E+04  0.50400001928E-02 0.  1.
</event>
<event>
 5   0  0.9368546E-09  0.3899985E+04  0.7818609E-02  0.8025032E-01
        2   -1    0    0  501    0  0.00000000000E+00  0.00000000000E+00  0.29106506335E+04  0.29106506335E+04  0.25500000920E-02 0.  1.
       -2   -1    0    0    0  501  0.00000000000E+00  0.00000000000E+00 -0.13063990410E+04  0.13063990410E+04  0.25500000920E-02 0. -1.
    10030    2    1    2    0    0  0.00000000000E+00  0.00000000000E+00  0.16042515925E+04  0.42170496744E+04  0.38999852288E+04 0.  0.
        5    1    3    3  502    0  0.16661823283E+04 -0.51135856555E+02  0.18961473711E+04  0.25247129282E+04  0.46999998093E+01 0.  1.
       -5    1    3    3    0  502 -0.16661823283E+04  0.51135856555E+02 -0.29189577860E+03  0.16923367462E+04  0.46999998093E+01 0. -1.
</event>
<event>
 5   0  0.2929054E-09  0.3897976E+04  0.7818609E-02  0.8025450E-01
        1   -1    0    0  501    0  0.00000000000E+00  0.00000000000E+00  0.14916937186E+04  0.14916937186E+04  0.50400001928E-02 0. -1.
       -1   -1    0    0    0  501  0.00000000000E+00  0.00000000000E+00 -0.25464702142E+04  0.25464702142E+04  0.50400001928E-02 0.  1.
    10030    2    1    2    0    0  0.00000000000E+00  0.00000000000E+00 -0.10547764956E+04  0.40381639328E+04  0.38979756917E+04 0.  0.
        1    1    3    3  502    0 -0.85959821738E+03  0.64137314864E+03 -0.22132702736E+04  0.24594377233E+04  0.50400001928E-02 0.  1.
       -1    1    3    3    0  502  0.85959821738E+03 -0.64137314864E+03  0.11584937779E+04  0.15787262095E+04  0.50400001928E-02 0. -1.
</event>
<event>
 5   0  0.2904500E-09  0.3899021E+04  0.7818609E-02  0.8025233E-01
       -1   -1    0    0    0  501  0.00000000000E+00  0.00000000000E+00  0.31927918708E+04  0.31927918708E+04  0.50400001928E-02 0.  1.
        1   -1    0    0  501    0  0.00000000000E+00  0.00000000000E+00 -0.11903662163E+04  0.11903662163E+04  0.50400001928E-02 0. -1.
    10030    2    1    2    0    0  0.00000000000E+00  0.00000000000E+00  0.20024256545E+04  0.43831580871E+04  0.38990211996E+04 0.  0.
        5    1    3    3  502    0  0.18007203318E+04 -0.27738454616E+03  0.17808979355E+04  0.25477746067E+04  0.46999998093E+01 0.  1.
       -5    1    3    3    0  502 -0.18007203318E+04  0.27738454616E+03  0.22152771903E+03  0.18353834804E+04  0.46999998093E+01 0. -1.
</event>
<event>
 5   0  0.9434114E-09  0.3901642E+04  0.7818609E-02  0.8024688E-01
        2   -1    0    0  501    0  0.00000000000E+00  0.00000000000E+00  0.11592583836E+04  0.11592583836E+04  0.25500000920E-02 0.  1.
       -2   -1    0    0    0  501  0.00000000000E+00  0.00000000000E+00 -0.32828766766E+04  0.32828766766E+04  0.25500000920E-02 0. -1.
    10030    2    1    2    0    0  0.00000000000E+00  0.00000000000E+00 -0.21236182930E+04  0.44421350603E+04  0.39016418646E+04 0.  0.
        4    1    3    3  502    0 -0.30666755079E+03 -0.43493453119E+03  0.10750165452E+04  0.11995312495E+04  0.12699999809E+01 0.  1.
       -4    1    3    3    0  502  0.30666755079E+03  0.43493453119E+03 -0.31986348381E+04  0.32426038108E+04  0.12699999809E+01 0. -1.
</event>
<event>
 5   0  0.2904500E-09  0.3895439E+04  0.7818609E-02  0.8025978E-01
        1   -1    0    0  501    0  0.00000000000E+00  0.00000000000E+00  0.22171687615E+04  0.22171687615E+04  0.50400001928E-02 0. -1.
       -1   -1    0    0    0  501  0.00000000000E+00  0.00000000000E+00 -0.17110163214E+04  0.17110163214E+04  0.50400001928E-02 0.  1.
    10030    2    1    2    0    0  0.00000000000E+00  0.00000000000E+00  0.50615244016E+03  0.39281850829E+04  0.38954393530E+04 0.  0.
        2    1    3    3  502    0 -0.92800177708E+02  0.18787415380E+04  0.76262606244E+03  0.20297487900E+04  0.25500000920E-02 0. -1.
       -2    1    3    3    0  502  0.92800177708E+02 -0.18787415380E+04 -0.25647362228E+03  0.18984362929E+04  0.25500000920E-02 0.  1.
</event>
<event>
 5   0  0.6335942E-09  0.3902652E+04  0.7818609E-02  0.8024478E-01
       -2   -1    0    0    0  501  0.00000000000E+00  0.00000000000E+00  0.19662357361E+04  0.19662357361E+04  0.25500000920E-02 0.  1.
        2   -1    0    0  501    0  0.00000000000E+00  0.00000000000E+00 -0.19365294492E+04  0.19365294492E+04  0.25500000920E-02 0. -1.
    10030    2    1    2    0    0  0.00000000000E+00  0.00000000000E+00  0.29706286919E+02  0.39027651854E+04  0.39026521275E+04 0.  0.
        2    1    3    3  502    0  0.28705614067E+03 -0.15098801463E+04 -0.11874853601E+04  0.19422308731E+04  0.25500000920E-02 0. -1.
       -2    1    3    3    0  502 -0.28705614067E+03  0.15098801463E+04  0.12171916470E+04  0.19605343123E+04  0.25500000920E-02 0.  1.
</event>
<event>
 5   0  0.9368546E-09  0.3900072E+04  0.7818609E-02  0.8025014E-01
        2   -1    0    0  501    0  0.00000000000E+00  0.00000000000E+00  0.22502134499E+04  0.22502134499E+04  0.25500000920E-02 0. -1.
       -2   -1    0    0    0  501  0.00000000000E+00  0.00000000000E+00 -0.16899019284E+04  0.16899019284E+04  0.25500000920E-02 0.  1.
    10030    2    1    2    0    0  0.00000000000E+00  0.00000000000E+00  0.56031152147E+03  0.39401153784E+04  0.39000718190E+04 0.  0.
        5    1    3    3  502    0 -0.41826393307E+03  0.43672976566E+03  0.21530891520E+04  0.22364017064E+04  0.46999998093E+01 0. -1.
       -5    1    3    3    0  502  0.41826393307E+03 -0.43672976566E+03 -0.15927776305E+04  0.17037136720E+04  0.46999998093E+01 0.  1.
</event>
<event>
 5   0  0.9434114E-09  0.3898973E+04  0.7818609E-02  0.8025243E-01
       -2   -1    0    0    0  501  0.00000000000E+00  0.00000000000E+00  0.15564898814E+04  0.15564898814E+04  0.25500000920E-02 0. -1.
        2   -1    0    0  501    0  0.00000000000E+00  0.00000000000E+00 -0.24417104948E+04  0.24417104948E+04  0.25500000920E-02 0.  1.
    10030    2    1    2    0    0  0.00000000000E+00  0.00000000000E+00 -0.88522061338E+03  0.39982003762E+04  0.38989730333E+04 0.  0.
        4    1    3    3  502    0  0.11430367653E+04  0.66164193796E+03 -0.19130467532E+04  0.23246618235E+04  0.12699999809E+01 0.  1.
       -4    1    3    3    0  502 -0.11430367653E+04 -0.66164193796E+03  0.10278261398E+04  0.16735385527E+04  0.12699999809E+01 0. -1.
</event>
<event>
 5   0  0.2929054E-09  0.3918046E+04  0.7818609E-02  0.8021286E-01
        1   -1    0    0  501    0  0.00000000000E+00  0.00000000000E+00  0.25210853543E+04  0.25210853543E+04  0.50400001928E-02 0.  1.
       -1   -1    0    0    0  501  0.00000000000E+00  0.00000000000E+00 -0.15222692770E+04  0.15222692770E+04  0.50400001928E-02 0. -1.
    10030    2    1    2    0    0  0.00000000000E+00  0.00000000000E+00  0.99881607730E+03  0.40433546313E+04  0.39180458290E+04 0.  0.
        1    1    3    3  502    0  0.11714814675E+04  0.35555698486E+02 -0.11205539066E+04  0.16215036522E+04  0.50400001928E-02 0. -1.
       -1    1    3    3    0  502 -0.11714814675E+04 -0.35555698486E+02  0.21193699839E+04  0.24218509791E+04  0.50400001928E-02 0.  1.
</event>
<event>
 5   0  0.2904500E-09  0.3901643E+04  0.7818609E-02  0.8024688E-01
        1   -1    0    0  501    0  0.00000000000E+00  0.00000000000E+00  0.17937173955E+04  0.17937173955E+04  0.50400001928E-02 0.  1.
       -1   -1    0    0    0  501  0.00000000000E+00  0.00000000000E+00 -0.21216858980E+04  0.21216858981E+04  0.50400001928E-02 0. -1.
    10030    2    1    2    0    0  0.00000000000E+00  0.00000000000E+00 -0.32796850255E+03  0.39154032936E+04  0.39016431939E+04 0.  0.
        4    1    3    3  502    0 -0.95409822486E+03 -0.35531686922E+03 -0.18339292807E+04  0.20975823512E+04  0.12699999809E+01 0. -1.
       -4    1    3    3    0  502  0.95409822486E+03  0.35531686922E+03  0.15059607782E+04  0.18178209424E+04  0.12699999809E+01 0.  1.
</event>
<event>
 5   0  0.2904500E-09  0.3899834E+04  0.7818609E-02  0.8025064E-01
        1   -1    0    0  501    0  0.00000000000E+00  0.00000000000E+00  0.18041389956E+04  0.18041389956E+04  0.50400001928E-02 0.  1.
       -1   -1    0    0    0  501  0.00000000000E+00  0.00000000000E+00 -0.21074746282E+04  0.21074746282E+04  0.50400001928E-02 0. -1.
    10030    2    1    2    0    0  0.00000000000E+00  0.00000000000E+00 -0.30333563260E+03  0.39116136239E+04  0.38998344371E+04 0.  0.
        3    1    3    3  502    0  0.13030189032E+04 -0.85683154682E+03 -0.13257410807E+04  0.20468531909E+04  0.10100000352E+00 0. -1.
       -3    1    3    3    0  502 -0.13030189032E+04  0.85683154682E+03  0.10224054481E+04  0.18647604330E+04  0.10100000352E+00 0.  1.
</event>
<event>
 5   0  0.9277261E-09  0.3899422E+04  0.7818609E-02  0.8025149E-01
       -2   -1    0    0    0  501  0.00000000000E+00  0.00000000000E+00  0.13960536489E+04  0.13960536489E+04  0.25500000920E-02 0. -1.
        2   -1    0    0  501    0  0.00000000000E+00  0.00000000000E+00 -0.27229414932E+04  0.27229414932E+04  0.25500000920E-02 0.  1.
    10030    2    1    2    0    0  0.00000000000E+00  0.00000000000E+00 -0.13268878443E+04  0.41189951421E+04  0.38994217044E+04 0.  0.
        1    1    3    3  502    0 -0.31705782730E+03  0.11921072039E+04  0.93145260114E+03  0.15457196381E+04  0.50400001928E-02 0. -1.
       -1    1    3    3    0  502  0.31705782730E+03 -0.11921072039E+04 -0.22583404455E+04  0.25732755039E+04  0.50400001928E-02 0.  1.
</event>
<event>
 5   0  0.6335942E-09  0.3902510E+04  0.7818609E-02  0.8024507E-01
       -2   -1    0    0    0  501  0.00000000000E+00  0.00000000000E+00  0.17226173242E+04  0.17226173242E+04  0.25500000920E-02 0. -1.
        2   -1    0    0  501    0  0.00000000000E+00  0.00000000000E+00 -0.22102392331E+04  0.22102392331E+04  0.25500000920E-02 0.  1.
    10030    2    1    2    0    0  0.00000000000E+00  0.00000000000E+00 -0.48762190895E+03  0.39328565573E+04  0.39025101632E+04 0.  0.
        2    1    3    3  502    0 -0.46372370693E+03  0.70625804648E+03  0.15287169271E+04  0.17466583947E+04  0.25500000920E-02 0. -1.
       -2    1    3    3    0  502  0.46372370693E+03 -0.70625804648E+03 -0.20163388360E+04  0.21861981626E+04  0.25500000920E-02 0.  1.
</event>
<event>
 5   0  0.2904500E-09  0.3909365E+04  0.7818609E-02  0.8023084E-01
       -1   -1    0    0    0  501  0.00000000000E+00  0.00000000000E+00  0.22380224526E+04  0.22380224526E+04  0.50400001928E-02 0. -1.
        1   -1    0    0  501    0  0.00000000000E+00  0.00000000000E+00 -0.17072145390E+04  0.17072145390E+04  0.50400001928E-02 0.  1.
    10030    2    1    2    0    0  0.00000000000E+00  0.00000000000E+00  0.53080791364E+03  0.39452369916E+04  0.39093654061E+04 0.  0.
        2    1    3    3  502    0  0.11537673585E+04 -0.14351357206E+04  0.92715772136E+03  0.20616534855E+04  0.25500000920E-02 0.  1.
       -2    1    3    3    0  502 -0.11537673585E+04  0.14351357206E+04 -0.39634980772E+03  0.18835835060E+04  0.25500000920E-02 0. -1.
</event>
<event>
 5   0  0.9434114E-09  0.3900566E+04  0.7818609E-02  0.8024911E-01
       -2   -1    0    0    0  501  0.00000000000E+00  0.00000000000E+00  0.19233597344E+04  0.19233597344E+04  0.25500000920E-02 0. -1.
        2   -1    0    0  501    0  0.00000000000E+00  0.00000000000E+00 -0.19775835976E+04  0.19775835976E+04  0.25500000920E-02 0.  1.
    10030    2    1    2    0    0  0.00000000000E+00  0.00000000000E+00 -0.54223863159E+02  0.39009433320E+04  0.39005664527E+04 0.  0.
        4    1    3    3  502    0  0.17105378844E+02 -0.44760029226E+03  0.18712191031E+04  0.19240844992E+04  0.12699999809E+01 0. -1.
       -4    1    3    3    0  502 -0.17105378844E+02  0.44760029226E+03 -0.19254429662E+04  0.19768588328E+04  0.12699999809E+01 0.  1.
</event>
<event>
 5   0  0.9368546E-09  0.3898571E+04  0.7818609E-02  0.8025326E-01
        2   -1    0    0  501    0  0.00000000000E+00  0.00000000000E+00  0.10653881075E+04  0.10653881075E+04  0.25500000920E-02 0. -1.
       -2   -1    0    0    0  501  0.00000000000E+00  0.00000000000E+00 -0.35665076623E+04  0.35665076623E+04  0.25500000920E-02 0.  1.
    10030    2    1    2    0    0  0.00000000000E+00  0.00000000000E+00 -0.25011195548E+04  0.46318957697E+04  0.38985714556E+04 0.  0.
        5    1    3    3  502    0  0.78080145528E+03 -0.12071039021E+04  0.31347100031E+03  0.14714064364E+04  0.46999998093E+01 0. -1.
       -5    1    3    3    0  502 -0.78080145528E+03  0.12071039021E+04 -0.28145905551E+04  0.31604893333E+04  0.46999998093E+01 0.  1.
</event>
<event>
 5   0  0.2904500E-09  0.3901336E+04  0.7818609E-02  0.8024751E-01
       -1   -1    0    0    0  501  0.00000000000E+00  0.00000000000E+00  0.17428497557E+04  0.17428497557E+04  0.50400001928E-02 0. -1.
        1   -1    0    0  501    0  0.00000000000E+00  0.00000000000E+00 -0.21832670434E+04  0.21832670435E+04  0.50400001928E-02 0.  1.
    10030    2    1    2    0    0  0.00000000000E+00  0.00000000000E+00 -0.44041728778E+03  0.39261167991E+04  0.39013364035E+04 0.  0.
        4    1    3    3  502    0  0.15910965545E+03 -0.11630706045E+04 -0.17880051328E+04  0.21389280216E+04  0.12699999809E+01 0.  1.
       -4    1    3    3    0  502 -0.15910965545E+03  0.11630706045E+04  0.13475878451E+04  0.17871887775E+04  0.12699999809E+01 0. -1.
</event>
<event>
 5   0  0.9434114E-09  0.3919547E+04  0.7818609E-02  0.8020976E-01
       -2   -1    0    0    0  501  0.00000000000E+00  0.00000000000E+00  0.31116421791E+04  0.31116421791E+04  0.25500000920E-02 0. -1.
        2   -1    0    0  501    0  0.00000000000E+00  0.00000000000E+00 -0.12343036626E+04  0.12343036626E+04  0.25500000920E-02 0.  1.
    10030    2    1    2    0    0  0.00000000000E+00  0.00000000000E+00  0.18773385165E+04  0.43459458416E+04  0.39195465749E+04 0.  0.
        4    1    3    3  502    0  0.18214515798E+04  0.27833300496E+03  0.19855469600E+03  0.18532621777E+04  0.12699999809E+01 0.  1.
       -4    1    3    3    0  502 -0.18214515798E+04 -0.27833300496E+03  0.16787838205E+04  0.24926836639E+04  0.12699999809E+01 0. -1.
</event>
<event>
 5   0  0.2929054E-09  0.3900088E+04  0.7818609E-02  0.8025011E-01
       -1   -1    0    0    0  501  0.00000000000E+00  0.00000000000E+00  0.20307568878E+04  0.20307568878E+04  0.50400001928E-02 0. -1.
        1   -1    0    0  501    0  0.00000000000E+00  0.00000000000E+00 -0.18725386508E+04  0.18725386508E+04  0.50400001928E-02 0.  1.
    10030    2    1    2    0    0  0.00000000000E+00  0.00000000000E+00  0.15821823696E+03  0.39032955386E+04  0.39000875696E+04 0.  0.
        1    1    3    3  502    0 -0.84541189229E+02  0.19458308859E+04 -0.17228633421E+02  0.19477427641E+04  0.50400001928E-02 0.  1.
       -1    1    3    3    0  502  0.84541189229E+02 -0.19458308859E+04  0.17544687039E+03  0.19555527745E+04  0.50400001928E-02 0. -1.
</event>
<event>
 5   0  0.9277261E-09  0.3899900E+04  0.7818609E-02  0.8025050E-01
       -2   -1    0    0    0  501  0.00000000000E+00  0.00000000000E+00  0.15483290015E+04  0.15483290015E+04  0.25500000920E-02 0.  1.
        2   -1    0    0  501    0  0.00000000000E+00  0.00000000000E+00 -0.24557471716E+04  0.24557471716E+04  0.25500000920E-02 0. -1.
    10030    2    1    2    0    0  0.00000000000E+00  0.00000000000E+00 -0.90741817014E+03  0.40040761730E+04  0.38998997762E+04 0.  0.
        1    1    3    3  502    0  0.45676192883E+03  0.12652683622E+04 -0.19030727598E+04  0.23304981050E+04  0.50400001928E-02 0. -1.
       -1    1    3    3    0  502 -0.45676192883E+03 -0.12652683622E+04  0.99565458969E+03  0.16735780681E+04  0.50400001928E-02 0.  1.
</event>
<event>
 5   0  0.2904500E-09  0.3903814E+04  0.7818609E-02  0.8024236E-01
       -1   -1    0    0    0  501  0.00000000000E+00  0.00000000000E+00  0.12085477466E+04  0.12085477466E+04  0.50400001928E-02 0. -1.
        1   -1    0    0  501    0  0.00000000000E+00  0.00000000000E+00 -0.31524959653E+04  0.31524959653E+04  0.50400001928E-02 0.  1.
    10030    2    1    2    0    0  0.00000000000E+00  0.00000000000E+00 -0.19439482188E+04  0.43610437119E+04  0.39038144910E+04 0.  0.
        2    1    3    3  502    0  0.91191740276E+03  0.16985263383E+04 -0.63064423491E+03  0.20283730482E+04  0.25500000920E-02 0. -1.
       -2    1    3    3    0  502 -0.91191740276E+03 -0.16985263383E+04 -0.13133039839E+04  0.23326706637E+04  0.25500000920E-02 0.  1.
</event>
<event>
 5   0  0.6335942E-09  0.3901762E+04  0.7818609E-02  0.8024663E-01
        2   -1    0    0  501    0  0.00000000000E+00  0.00000000000E+00  0.27262180655E+04  0.27262180655E+04  0.25500000920E-02 0.  1.
       -2   -1    0    0    0  501  0.00000000000E+00  0.00000000000E+00 -0.13960500243E+04  0.13960500243E+04  0.25500000920E-02 0. -1.
    10030    2    1    2    0    0  0.00000000000E+00  0.00000000000E+00  0.13301680412E+04  0.41222680899E+04  0.39017620618E+04 0.  0.
        2    1    3    3  502    0  0.60065983270E+03  0.18490390265E+04  0.49407469208E+03  0.20059529799E+04  0.25500000920E-02 0. -1.
       -2    1    3    3    0  502 -0.60065983270E+03 -0.18490390265E+04  0.83609334909E+03  0.21163151100E+04  0.25500000920E-02 0.  1.
</event>
<event>
 5   0  0.6335942E-09  0.3900720E+04  0.7818609E-02  0.8024880E-01
        2   -1    0    0  501    0  0.00000000000E+00  0.00000000000E+00  0.15150390661E+04  0.15150390661E+04  0.25500000920E-02 0.  1.
       -2   -1    0    0    0  501  0.00000000000E+00  0.00000000000E+00 -0.25107626230E+04  0.25107626230E+04  0.25500000920E-02 0. -1.
    10030    2    1    2    0    0  0.00000000000E+00  0.00000000000E+00 -0.99572355690E+03  0.40258016891E+04  0.39007196565E+04 0.  0.
        2    1    3    3  502    0  0.70435906955E+03 -0.35997552585E+03 -0.23377786777E+04  0.24679775574E+04  0.25500000920E-02 0. -1.
       -2    1    3    3    0  502 -0.70435906955E+03  0.35997552585E+03  0.13420551208E+04  0.15578241317E+04  0.25500000920E-02 0.  1.
</event>
<event>
 5   0  0.2904500E-09  0.3901419E+04  0.7818609E-02  0.8024734E-01
       -1   -1    0    0    0  501  0.00000000000E+00  0.00000000000E+00  0.18320663195E+04  0.18320663195E+04  0.50400001928E-02 0.  1.
        1   -1    0    0  501    0  0.00000000000E+00  0.00000000000E+00 -0.20770360118E+04  0.20770360118E+04  0.50400001928E-02 0. -1.
    10030    2    1    2    0    0  0.00000000000E+00  0.00000000000E+00 -0.24496969232E+03  0.39091023313E+04  0.39014190862E+04 0.  0.
        4    1    3    3  502    0  0.91868599026E+03  0.59870275158E+02 -0.18456675535E+04  0.20625369644E+04  0.12699999809E+01 0. -1.
       -4    1    3    3    0  502 -0.91868599026E+03 -0.59870275158E+02  0.16006978612E+04  0.18465653669E+04  0.12699999809E+01 0.  1.
</event>
<event>
 5   0  0.2904500E-09  0.3898810E+04  0.7818609E-02  0.8025277E-01
       -1   -1    0    0    0  501  0.00000000000E+00  0.00000000000E+00  0.30558797024E+04  0.30558797024E+04  0.50400001928E-02 0. -1.
        1   -1    0    0  501    0  0.00000000000E+00  0.00000000000E+00 -0.12435630825E+04  0.12435630825E+04  0.50400001928E-02 0.  1.
    10030    2    1    2    0    0  0.00000000000E+00  0.00000000000E+00  0.18123166199E+04  0.42994427849E+04  0.38988096555E+04 0.  0.
        5    1    3    3  502    0 -0.13342127632E+04  0.10763774929E+04  0.19296725515E+04  0.25811568048E+04  0.46999998093E+01 0. -1.
       -5    1    3    3    0  502  0.13342127632E+04 -0.10763774929E+04 -0.11735593160E+03  0.17182859801E+04  0.46999998093E+01 0.  1.
</event>
<event>
 5   0  0.9368546E-09  0.3899511E+04  0.7818609E-02  0.8025131E-01
       -2   -1    0    0    0  501  0.00000000000E+00  0.00000000000E+00  0.20863903003E+04  0.20863903003E+04  0.25500000920E-02 0.  1.
        2   -1    0    0  501    0  0.00000000000E+00  0.00000000000E+00 -0.18220683944E+04  0.18220683945E+04  0.25500000920E-02 0. -1.
    10030    2    1    2    0    0  0.00000000000E+00  0.00000000000E+00  0.26432190582E+03  0.39084586947E+04  0.38995106486E+04 0.  0.
        5    1    3    3  502    0 -0.98721421893E+01 -0.16102374349E+04  0.12340296000E+04  0.20287467066E+04  0.46999998093E+01 0.  1.
       -5    1    3    3    0  502  0.98721421893E+01  0.16102374349E+04 -0.96970769419E+03  0.18797119881E+04  0.46999998093E+01 0. -1.
</event>
<event>
 5   0  0.9078515E-09  0.3899739E+04  0.7818609E-02  0.8025084E-01
       -2   -1    0    0    0  501  0.00000000000E+00  0.00000000000E+00  0.22119519753E+04  0.22119519753E+04  0.25500000920E-02 0. -1.
        2   -1    0    0  501    0  0.00000000000E+00  0.00000000000E+00 -0.17188395484E+04  0.17188395484E+04  0.25500000920E-02 0.  1.
    10030    2    1    2    0    0  0.00000000000E+00  0.00000000000E+00  0.49311242691E+03  0.39307915237E+04  0.38997387268E+04 0.  0.
        3    1    3    3  502    0  0.55666533084E+03  0.13481883154E+04 -0.10577735353E+04  0.18017693767E+04  0.10100000352E+00 0.  1.
       -3    1    3    3    0  502 -0.55666533084E+03 -0.13481883154E+04  0.15508859623E+04  0.21290221470E+04  0.10100000352E+00 0. -1.
</event>
<event>
 5   0  0.9368546E-09  0.3899917E+04  0.7818609E-02  0.8025046E-01
        2   -1    0    0  501    0  0.00000000000E+00  0.00000000000E+00  0.34008800625E+04  0.34008800625E+04  0.25500000920E-02 0. -1.
       -2   -1    0    0    0  501  0.00000000000E+00  0.00000000000E+00 -0.11180453035E+04  0.11180453035E+04  0.25500000920E-02 0.  1.
    10030    2    1    2    0    0  0.00000000000E+00  0.00000000000E+00  0.22828347590E+04  0.45189253661E+04  0.38999169128E+04 0.  0.
        5    1    3    3  502    0 -0.79036111452E+03  0.33562511960E+03  0.31700113155E+04  0.32842516259E+04  0.46999998093E+01 0. -1.
       -5    1    3    3    0  502  0.79036111452E+03 -0.33562511960E+03 -0.88717655645E+03  0.12346737401E+04  0.46999998093E+01 0.  1.
</event>
<event>
 5   0  0.2929054E-09  0.3894251E+04  0.7818609E-02  0.8026226E-01
        1   -1    0    0  501    0  0.00000000000E+00  0.00000000000E+00  0.12256082746E+04  0.12256082746E+04  0.50400001928E-02 0. -1.
       -1   -1    0    0    0  501  0.00000000000E+00  0.00000000000E+00 -0.30934013937E+04  0.30934013937E+04  0.50400001928E-02 0.  1.
    10030    2    1    2    0    0  0.00000000000E+00  0.00000000000E+00 -0.18677931191E+04  0.43190096683E+04  0.38942513247E+04 0.  0.
        1    1    3    3  502    0 -0.17448857156E+04 -0.79504645330E+03 -0.55848991807E+03  0.19971569823E+04  0.50400001928E-02 0. -1.
       -1    1    3    3    0  502  0.17448857156E+04  0.79504645330E+03 -0.13093032010E+04  0.23218526860E+04  0.50400001928E-02 0.  1.
</event>
<event>
 5   0  0.9277261E-09  0.3900147E+04  0.7818609E-02  0.8024999E-01
       -2   -1    0    0    0  501  0.00000000000E+00  0.00000000000E+00  0.19783649571E+04  0.19783649571E+04  0.25500000920E-02 0. -1.
        2   -1    0    0  501    0  0.00000000000E+00  0.00000000000E+00 -0.19221864872E+04  0.19221864872E+04  0.25500000920E-02 0.  1.
    10030    2    1    2    0    0  0.00000000000E+00  0.00000000000E+00  0.56178469843E+02  0.39005514443E+04  0.39001468625E+04 0.  0.
        1    1    3    3  502    0 -0.15055999963E+04  0.27697857040E+03 -0.11800252769E+04  0.19328756120E+04  0.50400001928E-02 0. -1.
       -1    1    3    3    0  502  0.15055999963E+04 -0.27697857040E+03  0.12362037468E+04  0.19676758323E+04  0.50400001928E-02 0.  1.
</event>
<event>
 5   0  0.2904500E-09  0.3907332E+04  0.7818609E-02  0.8023506E-01
       -1   -1    0    0    0  501  0.00000000000E+00  0.00000000000E+00  0.26330185169E+04  0.26330185169E+04  0.50400001928E-02 0. -1.
        1   -1    0    0  501    0  0.00000000000E+00  0.00000000000E+00 -0.14495947721E+04  0.14495947721E+04  0.50400001928E-02 0.  1.
    10030    2    1    2    0    0  0.00000000000E+00  0.00000000000E+00  0.11834237448E+04  0.40826132891E+04  0.39073315073E+04 0.  0.
        5    1    3    3  502    0 -0.44695159071E+03  0.13560105482E+03 -0.13903940085E+04  0.14667552486E+04  0.46999998093E+01 0.  1.
       -5    1    3    3    0  502  0.44695159071E+03 -0.13560105482E+03  0.25738177533E+04  0.26158580404E+04  0.46999998093E+01 0. -1.
</event>
<event>
 5   0  0.2904500E-09  0.3899187E+04  0.7818609E-02  0.8025198E-01
       -1   -1    0    0    0  501  0.00000000000E+00  0.00000000000E+00  0.15341031517E+04  0.15341031517E+04  0.50400001928E-02 0. -1.
        1   -1    0    0  501    0  0.00000000000E+00  0.00000000000E+00 -0.24776134776E+04  0.24776134776E+04  0.50400001928E-02 0.  1.
    10030    2    1    2    0    0  0.00000000000E+00  0.00000000000E+00 -0.94351032586E+03  0.40117166293E+04  0.38991869125E+04 0.  0.
        5    1    3    3  502    0  0.26563129377E+03  0.11729805669E+04 -0.20504596855E+04  0.23771517424E+04  0.46999998093E+01 0.  1.
       -5    1    3    3    0  502 -0.26563129377E+03 -0.11729805669E+04  0.11069493596E+04  0.16345648869E+04  0.46999998093E+01 0. -1.
</event>
<event>
 5   0  0.6335942E-09  0.3902734E+04  0.7818609E-02  0.8024461E-01
        2   -1    0    0  501    0  0.00000000000E+00  0.00000000000E+00  0.19009653602E+04  0.19009653602E+04  0.25500000920E-02 0. -1.
       -2   -1    0    0    0  501  0.00000000000E+00  0.00000000000E+00 -0.20031045773E+04  0.20031045773E+04  0.25500000920E-02 0.  1.
    10030    2    1    2    0    0  0.00000000000E+00  0.00000000000E+00 -0.10213921705E+03  0.39040699375E+04  0.39027336134E+04 0.  0.
        2    1    3    3  502    0 -0.14940137503E+04  0.11479198846E+04  0.45707604320E+03  0.19387407399E+04  0.25500000920E-02 0.  1.
       -2    1    3    3    0  502  0.14940137503E+04 -0.11479198846E+04 -0.55921526025E+03  0.19653291975E+04  0.25500000920E-02 0. -1.
</event>
<event>
 5   0  0.6335942E-09  0.3901752E+04  0.7818609E-02  0.8024665E-01
        2   -1    0    0  501    0  0.00000000000E+00  0.00000000000E+00  0.27860185029E+04  0.27860185029E+04  0.25500000920E-02 0.  1.
       -2   -1    0    0    0  501  0.00000000000E+00  0.00000000000E+00 -0.13660775736E+04  0.13660775736E+04  0.25500000920E-02 0. -1.
    10030    2    1    2    0    0  0.00000000000E+00  0.00000000000E+00  0.14199409293E+04  0.41520960765E+04  0.39017521174E+04 0.  0.
        2    1    3    3  502    0 -0.36412636597E+03  0.13220355085E+03  0.27446780263E+04  0.27718808159E+04  0.25500000920E-02 0.  1.
       -2    1    3    3    0  502  0.36412636597E+03 -0.13220355085E+03 -0.13247370970E+04  0.13802152606E+04  0.25500000920E-02 0. -1.
</event>
<event>
 5   0  0.2929054E-09  0.3904485E+04  0.7818609E-02  0.8024097E-01
       -1   -1    0    0    0  501  0.00000000000E+00  0.00000000000E+00  0.28680950912E+04  0.28680950912E+04  0.50400001928E-02 0.  1.
        1   -1    0    0  501    0  0.00000000000E+00  0.00000000000E+00 -0.13288441692E+04  0.13288441693E+04  0.50400001928E-02 0. -1.
    10030    2    1    2    0    0  0.00000000000E+00  0.00000000000E+00  0.15392509219E+04  0.41969392604E+04  0.39044853381E+04 0.  0.
        1    1    3    3  502    0  0.12999521288E+04 -0.86400914989E+02  0.23324571718E+04  0.26716468917E+04  0.50400001928E-02 0.  1.
       -1    1    3    3    0  502 -0.12999521288E+04  0.86400914989E+02 -0.79320624991E+03  0.15252923688E+04  0.50400001928E-02 0. -1.
</event>
<event>
 5   0  0.9368546E-09  0.3899928E+04  0.7818609E-02  0.8025044E-01
        2   -1    0    0  501    0  0.00000000000E+00  0.00000000000E+00  0.25978747675E+04  0.25978747675E+04  0.25500000920E-02 0.  1.
       -2   -1    0    0    0  501  0.00000000000E+00  0.00000000000E+00 -0.14636421522E+04  0.14636421522E+04  0.25500000920E-02 0. -1.
    10030    2    1    2    0    0  0.00000000000E+00  0.00000000000E+00  0.11342326153E+04  0.40615169197E+04  0.38999276998E+04 0.  0.
        5    1    3    3  502    0  0.15310184307E+03  0.18698037056E+04  0.13360475084E+02  0.18761147790E+04  0.46999998093E+01 0.  1.
       -5    1    3    3    0  502 -0.15310184307E+03 -0.18698037056E+04  0.11208721403E+04  0.21854021407E+04  0.46999998093E+01 0. -1.
</event>
<event>
 5   0  0.2904500E-09  0.3900709E+04  0.7818609E-02  0.8024882E-01
       -1   -1    0    0    0  501  0.00000000000E+00  0.00000000000E+00  0.25324471023E+04  0.25324471023E+04  0.50400001928E-02 0. -1.
        1   -1    0    0  501    0  0.00000000000E+00  0.00000000000E+00 -0.15020581619E+04  0.15020581619E+04  0.50400001928E-02 0.  1.
    10030    2    1    2    0    0  0.00000000000E+00  0.00000000000E+00  0.10303889404E+04  0.40345052642E+04  0.39007090840E+04 0.  0.
        4    1    3    3  502    0 -0.91426524132E+02  0.92847815515E+03  0.22866739422E+04  0.24696780812E+04  0.12699999809E+01 0. -1.
       -4    1    3    3    0  502  0.91426524132E+02 -0.92847815515E+03 -0.12562850018E+04  0.15648271830E+04  0.12699999809E+01 0.  1.
</event>
<event>
 5   0  0.6335942E-09  0.3897256E+04  0.7818609E-02  0.8025600E-01
        2   -1    0    0  501    0  0.00000000000E+00  0.00000000000E+00  0.23708894500E+04  0.23708894500E+04  0.25500000920E-02 0. -1.
       -2   -1    0    0    0  501  0.00000000000E+00  0.00000000000E+00 -0.16015722260E+04  0.16015722260E+04  0.25500000920E-02 0.  1.
    10030    2    1    2    0    0  0.00000000000E+00  0.00000000000E+00  0.76931722399E+03  0.39724616760E+04  0.38972558007E+04 0.  0.
        2    1    3    3  502    0  0.63607972115E+03  0.51102324952E+03  0.21883850395E+04  0.23355451728E+04  0.25500000920E-02 0. -1.
       -2    1    3    3    0  502 -0.63607972115E+03 -0.51102324952E+03 -0.14190678155E+04  0.16369165031E+04  0.25500000920E-02 0.  1.
</event>
<event>
 5   0  0.2904500E-09  0.3901765E+04  0.7818609E-02  0.8024662E-01
       -1   -1    0    0    0  501  0.00000000000E+00  0.00000000000E+00  0.30206938157E+04  0.30206938157E+04  0.50400001928E-02 0.  1.
        1   -1    0    0  501    0  0.00000000000E+00  0.00000000000E+00 -0.12599564555E+04  0.12599564555E+04  0.50400001928E-02 0. -1.
    10030    2    1    2    0    0  0.00000000000E+00  0.00000000000E+00  0.17607373603E+04  0.42806502712E+04  0.39017650740E+04 0.  0.
        3    1    3    3  502    0 -0.14499265531E+04  0.12209462776E+04  0.13866398670E+04  0.23485670000E+04  0.10100000352E+00 0.  1.
       -3    1    3    3    0  502  0.14499265531E+04 -0.12209462776E+04  0.37409749323E+03  0.19320832712E+04  0.10100000352E+00 0. -1.
</event>
<event>
 5   0  0.2904500E-09  0.3899530E+04  0.7818609E-02  0.8025127E-01
       -1   -1    0    0    0  501  0.00000000000E+00  0.00000000000E+00  0.21729831735E+04  0.21729831735E+04  0.50400001928E-02 0. -1.
        1   -1    0    0  501    0  0.00000000000E+00  0.00000000000E+00 -0.17494763388E+04  0.17494763388E+04  0.50400001928E-02 0.  1.
    10030    2    1    2    0    0  0.00000000000E+00  0.00000000000E+00  0.42350683470E+03  0.39224595123E+04  0.38995295340E+04 0.  0.
        5    1    3    3  502    0  0.15118825568E+04 -0.66154697242E+03 -0.83268124367E+03  0.18484624437E+04  0.46999998093E+01 0.  1.
       -5    1    3    3    0  502 -0.15118825568E+04  0.66154697242E+03  0.12561880784E+04  0.20739970686E+04  0.46999998093E+01 0. -1.
</event>
<event>
 5   0  0.9368546E-09  0.3900316E+04  0.7818609E-02  0.8024964E-01
        2   -1    0    0  501    0  0.00000000000E+00  0.00000000000E+00  0.23183950385E+04  0.23183950385E+04  0.25500000920E-02 0. -1.
       -2   -1    0    0    0  501  0.00000000000E+00  0.00000000000E+00 -0.16404088813E+04  0.16404088813E+04  0.25500000920E-02 0.  1.
    10030    2    1    2    0    0  0.00000000000E+00  0.00000000000E+00  0.67798615723E+03  0.39588039198E+04  0.39003157880E+04 0.  0.
        5    1    3    3  502    0 -0.99418339837E+03  0.23752871689E+03  0.20247030685E+04  0.22680972480E+04  0.46999998093E+01 0. -1.
       -5    1    3    3    0  502  0.99418339837E+03 -0.23752871689E+03 -0.13467169113E+04  0.16907066718E+04  0.46999998093E+01 0.  1.
</event>
<event>
 5   0  0.2904500E-09  0.3897532E+04  0.7818609E-02  0.8025543E-01
        1   -1    0    0  501    0  0.00000000000E+00  0.00000000000E+00  0.23218978262E+04  0.23218978262E+04  0.50400001928E-02 0.  1.
       -1   -1    0    0    0  501  0.00000000000E+00  0.00000000000E+00 -0.16355966446E+04  0.16355966446E+04  0.50400001928E-02 0. -1.
    10030    2    1    2    0    0  0.00000000000E+00  0.00000000000E+00  0.68630118159E+03  0.39574944707E+04  0.38975316771E+04 0.  0.
        5    1    3    3  502    0  0.14651639648E+04 -0.11987806309E+04  0.81274357223E+03  0.20601831591E+04  0.46999998093E+01 0.  1.
       -5    1    3    3    0  502 -0.14651639648E+04  0.11987806309E+04 -0.12644239063E+03  0.18973113116E+04  0.46999998093E+01 0. -1.
</event>
<event>
 5   0  0.6335942E-09  0.3900807E+04  0.7818609E-02  0.8024861E-01
        2   -1    0    0  501    0  0.00000000000E+00  0.00000000000E+00  0.24455876621E+04  0.24455876621E+04  0.25500000920E-02 0. -1.
       -2   -1    0    0    0  501  0.00000000000E+00  0.00000000000E+00 -0.15554845150E+04  0.15554845150E+04  0.25500000920E-02 0.  1.
    10030    2    1    2    0    0  0.00000000000E+00  0.00000000000E+00  0.89010314708E+03  0.40010721770E+04  0.39008069618E+04 0.  0.
        2    1    3    3  502    0  0.10935912686E+04 -0.15638461507E+04  0.85854770321E+03  0.20925249830E+04  0.25500000920E-02 0. -1.
       -2    1    3    3    0  502 -0.10935912686E+04  0.15638461507E+04  0.31555443871E+02  0.19085471940E+04  0.25500000920E-02 0.  1.
</event>
<event>
 5   0  0.6335942E-09  0.3898570E+04  0.7818609E-02  0.8025327E-01
        2   -1    0    0  501    0  0.00000000000E+00  0.00000000000E+00  0.28138515266E+04  0.28138515266E+04  0.25500000920E-02 0.  1.
       -2   -1    0    0    0  501  0.00000000000E+00  0.00000000000E+00 -0.13503595302E+04  0.13503595302E+04  0.25500000920E-02 0. -1.
    10030    2    1    2    0    0  0.00000000000E+00  0.00000000000E+00  0.14634919965E+04  0.41642110568E+04  0.38985695969E+04 0.  0.
        2    1    3    3  502    0  0.44219434376E+03 -0.18360448371E+04  0.21602797101E+03  0.19008589021E+04  0.25500000920E-02 0. -1.
       -2    1    3    3    0  502 -0.44219434376E+03  0.18360448371E+04  0.12474640255E+04  0.22633521547E+04  0.25500000920E-02 0.  1.
</event>
<event>
 5   0  0.2904500E-09  0.3900747E+04  0.7818609E-02  0.8024874E-01
        1   -1    0    0  501    0  0.00000000000E+00  0.00000000000E+00  0.22632432804E+04  0.22632432804E+04  0.50400001928E-02 0. -1.
       -1   -1    0    0    0  501  0.00000000000E+00  0.00000000000E+00 -0.16807549058E+04  0.16807549059E+04  0.50400001928E-02 0.  1.
    10030    2    1    2    0    0  0.00000000000E+00  0.00000000000E+00  0.58248837458E+03  0.39439981863E+04  0.39007472344E+04 0.  0.
        2    1    3    3  502    0  0.35595718649E+03 -0.56678455436E+03  0.21434972694E+04  0.22455580139E+04  0.25500000920E-02 0. -1.
       -2    1    3    3    0  502 -0.35595718649E+03  0.56678455436E+03 -0.15610088948E+04  0.16984401724E+04  0.25500000920E-02 0.  1.
</event>
<event>
 5   0  0.6335942E-09  0.3901007E+04  0.7818609E-02  0.8024820E-01
        2   -1    0    0  501    0  0.00000000000E+00  0.00000000000E+00  0.14632083406E+04  0.14632083406E+04  0.25500000920E-02 0. -1.
       -2   -1    0    0    0  501  0.00000000000E+00  0.00000000000E+00 -0.26000838642E+04  0.26000838642E+04  0.25500000920E-02 0.  1.
    10030    2    1    2    0    0  0.00000000000E+00  0.00000000000E+00 -0.11368755237E+04  0.40632922048E+04  0.39010072527E+04 0.  0.
        2    1    3    3  502    0 -0.10207737735E+04  0.16247470065E+04 -0.20360608182E+03  0.19295692183E+04  0.25500000920E-02 0.  1.
       -2    1    3    3    0  502  0.10207737735E+04 -0.16247470065E+04 -0.93326944186E+03  0.21337229865E+04  0.25500000920E-02 0. -1.
</event>
<event>
 5   0  0.2904500E-09  0.3901164E+04  0.7818609E-02  0.8024787E-01
        1   -1    0    0  501    0  0.00000000000E+00  0.00000000000E+00  0.16756443769E+04  0.16756443769E+04  0.50400001928E-02 0.  1.
       -1   -1    0    0    0  501  0.00000000000E+00  0.00000000000E+00 -0.22706314528E+04  0.22706314528E+04  0.50400001928E-02 0. -1.
    10030    2    1    2    0    0  0.00000000000E+00  0.00000000000E+00 -0.59498707591E+03  0.39462758296E+04  0.39011643522E+04 0.  0.
        5    1    3    3  502    0  0.15309209290E+04  0.11553575328E+04 -0.65681769471E+03  0.20273138616E+04  0.46999998093E+01 0. -1.
       -5    1    3    3    0  502 -0.15309209290E+04 -0.11553575328E+04  0.61830618806E+02  0.19189619680E+04  0.46999998093E+01 0.  1.
</event>
<event>
 5   0  0.2904500E-09  0.3900023E+04  0.7818609E-02  0.8025024E-01
        1   -1    0    0  501    0  0.00000000000E+00  0.00000000000E+00  0.20436195922E+04  0.20436195922E+04  0.50400001928E-02 0. -1.
       -1   -1    0    0    0  501  0.00000000000E+00  0.00000000000E+00 -0.18606910631E+04  0.18606910631E+04  0.50400001928E-02 0.  1.
    10030    2    1    2    0    0  0.00000000000E+00  0.00000000000E+00  0.18292852917E+03  0.39043106553E+04  0.39000229290E+04 0.  0.
        5    1    3    3  502    0  0.24948913661E+03  0.15920195559E+03  0.20209993101E+04  0.20425597650E+04  0.46999998093E+01 0. -1.
       -5    1    3    3    0  502 -0.24948913661E+03 -0.15920195559E+03 -0.18380707809E+04  0.18617508904E+04  0.46999998093E+01 0.  1.
</event>
<event>
 5   0  0.2904500E-09  0.3901202E+04  0.7818609E-02  0.8024779E-01
       -1   -1    0    0    0  501  0.00000000000E+00  0.00000000000E+00  0.17581117754E+04  0.17581117754E+04  0.50400001928E-02 0. -1.
        1   -1    0    0  501    0  0.00000000000E+00  0.00000000000E+00 -0.21641653228E+04  0.21641653228E+04  0.50400001928E-02 0.  1.
    10030    2    1    2    0    0  0.00000000000E+00  0.00000000000E+00 -0.40605354744E+03  0.39222770982E+04  0.39012021419E+04 0.  0.
        3    1    3    3  502    0  0.20153663416E+03 -0.10556963700E+04 -0.18396203785E+04  0.21305668231E+04  0.10100000352E+00 0.  1.
       -3    1    3    3    0  502 -0.20153663416E+03  0.10556963700E+04  0.14335668311E+04  0.17917102751E+04  0.10100000352E+00 0. -1.
</event>
<event>
 5   0  0.6335942E-09  0.3901069E+04  0.7818609E-02  0.8024807E-01
       -2   -1    0    0    0  501  0.00000000000E+00  0.00000000000E+00  0.17343384297E+04  0.17343384297E+04  0.25500000920E-02 0.  1.
        2   -1    0    0  501    0  0.00000000000E+00  0.00000000000E+00 -0.21936802837E+04  0.21936802837E+04  0.25500000920E-02 0. -1.
    10030    2    1    2    0    0  0.00000000000E+00  0.00000000000E+00 -0.45934185403E+03  0.39280187134E+04  0.39010685810E+04 0.  0.
        2    1    3    3  502    0  0.40841467042E+03  0.33791190150E+03 -0.21197635192E+04  0.21850364696E+04  0.25500000920E-02 0. -1.
       -2    1    3    3    0  502 -0.40841467042E+03 -0.33791190150E+03  0.16604216651E+04  0.17429822438E+04  0.25500000920E-02 0.  1.
</event>
<event>
 5   0  0.2904500E-09  0.3901447E+04  0.7818609E-02  0.8024728E-01
        1   -1    0    0  501    0  0.00000000000E+00  0.00000000000E+00  0.24833373654E+04  0.24833373654E+04  0.50400001928E-02 0.  1.
       -1   -1    0    0    0  501  0.00000000000E+00  0.00000000000E+00 -0.15323416242E+04  0.15323416242E+04  0.50400001928E-02 0. -1.
    10030    2    1    2    0    0  0.00000000000E+00  0.00000000000E+00  0.95099574119E+03  0.40156789896E+04  0.39014465071E+04 0.  0.
        4    1    3    3  502    0 -0.17021058685E+04 -0.34660402250E+03  0.13891948507E+04  0.22242218150E+04  0.12699999809E+01 0.  1.
       -4    1    3    3    0  502  0.17021058685E+04  0.34660402250E+03 -0.43819910948E+03  0.17914571746E+04  0.12699999809E+01 0. -1.
</event>
<event>
 5   0  0.6335942E-09  0.3896382E+04  0.7818609E-02  0.8025782E-01
       -2   -1    0    0    0  501  0.00000000000E+00  0.00000000000E+00  0.28696381948E+04  0.28696381948E+04  0.25500000920E-02 0. -1.
        2   -1    0    0  501    0  0.00000000000E+00  0.00000000000E+00 -0.13226227925E+04  0.13226227925E+04  0.25500000920E-02 0.  1.
    10030    2    1    2    0    0  0.00000000000E+00  0.00000000000E+00  0.15470154023E+04  0.41922609873E+04  0.38963823646E+04 0.  0.
        2    1    3    3  502    0 -0.15931735055E+04  0.98308095471E+03  0.19330048936E+03  0.18820241926E+04  0.25500000920E-02 0.  1.
       -2    1    3    3    0  502  0.15931735055E+04 -0.98308095471E+03  0.13537149130E+04  0.23102367947E+04  0.25500000920E-02 0. -1.
</event>
<event>
 5   0  0.6335942E-09  0.3899875E+04  0.7818609E-02  0.8025055E-01
        2   -1    0    0  501    0  0.00000000000E+00  0.00000000000E+00  0.18050777793E+04  0.18050777793E+04  0.25500000920E-02 0. -1.
       -2   -1    0    0    0  501  0.00000000000E+00  0.00000000000E+00 -0.21064218641E+04  0.21064218641E+04  0.25500000920E-02 0.  1.
    10030    2    1    2    0    0  0.00000000000E+00  0.00000000000E+00 -0.30134408478E+03  0.39114996433E+04  0.38998745111E+04 0.  0.
        2    1    3    3  502    0 -0.15279494118E+04  0.93088862667E+03 -0.92827160041E+03  0.20156565195E+04  0.25500000920E-02 0.  1.
       -2    1    3    3    0  502  0.15279494118E+04 -0.93088862667E+03  0.62692751563E+03  0.18958431239E+04  0.25500000920E-02 0. -1.
</event>
<event>
 5   0  0.2904500E-09  0.3900185E+04  0.7818609E-02  0.8024991E-01
        1   -1    0    0  501    0  0.00000000000E+00  0.00000000000E+00  0.25132638675E+04  0.25132638676E+04  0.50400001928E-02 0.  1.
       -1   -1    0    0    0  501  0.00000000000E+00  0.00000000000E+00 -0.15131167623E+04  0.15131167623E+04  0.50400001928E-02 0. -1.
    10030    2    1    2    0    0  0.00000000000E+00  0.00000000000E+00  0.10001471053E+04  0.40263806298E+04  0.39001854756E+04 0.  0.
        3    1    3    3  502    0 -0.11401916600E+04 -0.78703976154E+03 -0.91669872804E+03  0.16612661364E+04  0.10100000352E+00 0. -1.
       -3    1    3    3    0  502  0.11401916600E+04  0.78703976154E+03  0.19168458333E+04  0.23651144934E+04  0.10100000352E+00 0.  1.
</event>
<event>
 5   0  0.2929054E-09  0.3898803E+04  0.7818609E-02  0.8025278E-01
       -1   -1    0    0    0  501  0.00000000000E+00  0.00000000000E+00  0.30755947131E+04  0.30755947131E+04  0.50400001928E-02 0. -1.
        1   -1    0    0  501    0  0.00000000000E+00  0.00000000000E+00 -0.12355872260E+04  0.12355872260E+04  0.50400001928E-02 0.  1.
    10030    2    1    2    0    0  0.00000000000E+00  0.00000000000E+00  0.18400074870E+04  0.43111819391E+04  0.38988026572E+04 0.  0.
        1    1    3    3  502    0  0.83686278657E+03 -0.56302198420E+03  0.27646310282E+04  0.29428757705E+04  0.50400001928E-02 0. -1.
       -1    1    3    3    0  502 -0.83686278657E+03  0.56302198420E+03 -0.92462354118E+03  0.13683061686E+04  0.50400001928E-02 0.  1.
</event>
<event>
 5   0  0.2904500E-09  0.3900341E+04  0.7818609E-02  0.8024958E-01
        1   -1    0    0  501    0  0.00000000000E+00  0.00000000000E+00  0.17220053691E+04  0.17220053691E+04  0.50400001928E-02 0. -1.
       -1   -1    0    0    0  501  0.00000000000E+00  0.00000000000E+00 -0.22085676347E+04  0.22085676347E+04  0.50400001928E-02 0.  1.
    10030    2    1    2    0    0  0.00000000000E+00  0.00000000000E+00 -0.48656226558E+03  0.39305730038E+04  0.39003411774E+04 0.  0.
        3    1    3    3  502    0  0.13292558121E+04 -0.12179490840E+03 -0.16760644173E+04  0.21426495175E+04  0.10100000352E+00 0.  1.
       -3    1    3    3    0  502 -0.13292558121E+04  0.12179490840E+03  0.11895021517E+04  0.17879234863E+04  0.10100000352E+00 0. -1.
</event>
<event>
 5   0  0.2904500E-09  0.3900258E+04  0.7818609E-02  0.8024976E-01
        1   -1    0    0  501    0  0.00000000000E+00  0.00000000000E+00  0.33297070645E+04  0.33297070645E+04  0.50400001928E-02 0. -1.
       -1   -1    0    0    0  501  0.00000000000E+00  0.00000000000E+00 -0.11421431994E+04  0.11421431995E+04  0.50400001928E-02 0.  1.
    10030    2    1    2    0    0  0.00000000000E+00  0.00000000000E+00  0.21875638650E+04  0.44718502639E+04  0.39002575709E+04 0.  0.
        5    1    3    3  502    0 -0.10983874644E+04 -0.14231170684E+04  0.19603686022E+04  0.26598466796E+04  0.46999998093E+01 0. -1.
       -5    1    3    3    0  502  0.10983874644E+04  0.14231170684E+04  0.22719526282E+03  0.18120035844E+04  0.46999998093E+01 0.  1.
</event>
<event>
 5   0  0.2904500E-09  0.3897399E+04  0.7818609E-02  0.8025570E-01
        1   -1    0    0  501    0  0.00000000000E+00  0.00000000000E+00  0.24745437645E+04  0.24745437645E+04  0.50400001928E-02 0.  1.
       -1   -1    0    0    0  501  0.00000000000E+00  0.00000000000E+00 -0.15345980630E+04  0.15345980630E+04  0.50400001928E-02 0. -1.
    10030    2    1    2    0    0  0.00000000000E+00  0.00000000000E+00  0.93994570155E+03  0.40091418275E+04  0.38973991676E+04 0.  0.
        4    1    3    3  502    0  0.11936751521E+03 -0.18527470500E+04  0.10789845501E+04  0.21473540713E+04  0.12699999809E+01 0. -1.
       -4    1    3    3    0  502 -0.11936751521E+03  0.18527470500E+04 -0.13903884854E+03  0.18617877563E+04  0.12699999809E+01 0.  1.
</event>
<event>
 5   0  0.2904500E-09  0.3900479E+04  0.7818609E-02  0.8024930E-01
        1   -1    0    0  501    0  0.00000000000E+00  0.00000000000E+00  0.29528985942E+04  0.29528985942E+04  0.50400001928E-02 0.  1.
       -1   -1    0    0    0  501  0.00000000000E+00  0.00000000000E+00 -0.12880339581E+04  0.12880339581E+04  0.50400001928E-02 0. -1.
    10030    2    1    2    0    0  0.00000000000E+00  0.00000000000E+00  0.16648646361E+04  0.42409325523E+04  0.39004787728E+04 0.  0.
        2    1    3    3  502    0 -0.63140665907E+03 -0.31026814539E+03  0.28101238549E+04  0.28968494561E+04  0.25500000920E-02 0.  1.
       -2    1    3    3    0  502  0.63140665907E+03  0.31026814539E+03 -0.11452592189E+04  0.13440830962E+04  0.25500000920E-02 0. -1.
</event>
<event>
 5   0  0.9434114E-09  0.3901330E+04  0.7818609E-02  0.8024753E-01
       -2   -1    0    0    0  501  0.00000000000E+00  0.00000000000E+00  0.18992334282E+04  0.18992334282E+04  0.25500000920E-02 0.  1.
        2   -1    0    0  501    0  0.00000000000E+00  0.00000000000E+00 -0.20034888417E+04  0.20034888417E+04  0.25500000920E-02 0. -1.
    10030    2    1    2    0    0  0.00000000000E+00  0.00000000000E+00 -0.10425541348E+03  0.39027222699E+04  0.39013295074E+04 0.  0.
        4    1    3    3  502    0  0.21853905662E+03 -0.11489999693E+04 -0.16138163846E+04  0.19930793223E+04  0.12699999809E+01 0. -1.
       -4    1    3    3    0  502 -0.21853905662E+03  0.11489999693E+04  0.15095609712E+04  0.19096429476E+04  0.12699999809E+01 0.  1.
</event>
<event>
 5   0  0.9078515E-09  0.3899620E+04  0.7818609E-02  0.8025108E-01
       -2   -1    0    0    0  501  0.00000000000E+00  0.00000000000E+00  0.24193553410E+04  0.24193553410E+04  0.25500000920E-02 0.  1.
        2   -1    0    0  501    0  0.00000000000E+00  0.00000000000E+00 -0.15713937670E+04  0.15713937670E+04  0.25500000920E-02 0. -1.
    10030    2    1    2    0    0  0.00000000000E+00  0.00000000000E+00  0.84796157407E+03  0.39907491080E+04  0.38996204446E+04 0.  0.
        3    1    3    3  502    0  0.46469915675E+03 -0.71451853255E+03 -0.13706465005E+04  0.16140489085E+04  0.10100000352E+00 0. -1.
       -3    1    3    3    0  502 -0.46469915675E+03  0.71451853255E+03  0.22186080745E+04  0.23767001995E+04  0.10100000352E+00 0.  1.
</event>
<event>
 5   0  0.2904500E-09  0.3899375E+04  0.7818609E-02  0.8025159E-01
        1   -1    0    0  501    0  0.00000000000E+00  0.00000000000E+00  0.25361563443E+04  0.25361563443E+04  0.50400001928E-02 0. -1.
       -1   -1    0    0    0  501  0.00000000000E+00  0.00000000000E+00 -0.14988358452E+04  0.14988358452E+04  0.50400001928E-02 0.  1.
    10030    2    1    2    0    0  0.00000000000E+00  0.00000000000E+00  0.10373204991E+04  0.40349921895E+04  0.38993753540E+04 0.  0.
        5    1    3    3  502    0  0.14172013311E+04  0.90662081557E+02 -0.86368254974E+03  0.16621217954E+04  0.46999998093E+01 0.  1.
       -5    1    3    3    0  502 -0.14172013311E+04 -0.90662081557E+02  0.19010030488E+04  0.23728703942E+04  0.46999998093E+01 0. -1.
</event>
<event>
 5   0  0.6335942E-09  0.3905450E+04  0.7818609E-02  0.8023897E-01
       -2   -1    0    0    0  501  0.00000000000E+00  0.00000000000E+00  0.17240237770E+04  0.17240237770E+04  0.25500000920E-02 0. -1.
        2   -1    0    0  501    0  0.00000000000E+00  0.00000000000E+00 -0.22117643096E+04  0.22117643096E+04  0.25500000920E-02 0.  1.
    10030    2    1    2    0    0  0.00000000000E+00  0.00000000000E+00 -0.48774053260E+03  0.39357880866E+04  0.39054496585E+04 0.  0.
        2    1    3    3  502    0 -0.10719331658E+04  0.78183851153E+03 -0.16877676145E+04  0.21468282862E+04  0.25500000920E-02 0.  1.
       -2    1    3    3    0  502  0.10719331658E+04 -0.78183851153E+03  0.12000270819E+04  0.17889598004E+04  0.25500000920E-02 0. -1.
</event>
<event>
 5   0  0.9434114E-09  0.3899821E+04  0.7818609E-02  0.8025066E-01
        2   -1    0    0  501    0  0.00000000000E+00  0.00000000000E+00  0.17911030755E+04  0.17911030755E+04  0.25500000920E-02 0. -1.
       -2   -1    0    0    0  501  0.00000000000E+00  0.00000000000E+00 -0.21227983863E+04  0.21227983863E+04  0.25500000920E-02 0.  1.
    10030    2    1    2    0    0  0.00000000000E+00  0.00000000000E+00 -0.33169531079E+03  0.39139014618E+04  0.38998208771E+04 0.  0.
        4    1    3    3  502    0  0.32395939872E+03  0.18818846673E+04 -0.56187283539E+03  0.19905130718E+04  0.12699999809E+01 0. -1.
       -4    1    3    3    0  502 -0.32395939872E+03 -0.18818846673E+04  0.23017752459E+03  0.19233883900E+04  0.12699999809E+01 0.  1.
</event>
<event>
 5   0  0.2904500E-09  0.3895619E+04  0.7818609E-02  0.8025941E-01
       -1   -1    0    0    0  501  0.00000000000E+00  0.00000000000E+00  0.14735338899E+04  0.14735338899E+04  0.50400001928E-02 0. -1.
        1   -1    0    0  501    0  0.00000000000E+00  0.00000000000E+00 -0.25747372061E+04  0.25747372061E+04  0.50400001928E-02 0.  1.
    10030    2    1    2    0    0  0.00000000000E+00  0.00000000000E+00 -0.11012033162E+04  0.40482710960E+04  0.38956193504E+04 0.  0.
        4    1    3    3  502    0 -0.59077331087E+03  0.69437271126E+03  0.12381243730E+04  0.15375695571E+04  0.12699999809E+01 0. -1.
       -4    1    3    3    0  502  0.59077331087E+03 -0.69437271126E+03 -0.23393276892E+04  0.25107015389E+04  0.12699999809E+01 0.  1.
</event>
<event>
 5   0  0.9078515E-09  0.3899384E+04  0.7818609E-02  0.8025157E-01
        2   -1    0    0  501    0  0.00000000000E+00  0.00000000000E+00  0.17483447281E+04  0.17483447281E+04  0.25500000920E-02 0. -1.
       -2   -1    0    0    0  501  0.00000000000E+00  0.00000000000E+00 -0.21742278805E+04  0.21742278805E+04  0.25500000920E-02 0.  1.
    10030    2    1    2    0    0  0.00000000000E+00  0.00000000000E+00 -0.42588315245E+03  0.39225726086E+04  0.38993844912E+04 0.  0.
        3    1    3    3  502    0 -0.39003860391E+03  0.10748041868E+04 -0.18015620982E+04  0.21337666593E+04  0.10100000352E+00 0.  1.
       -3    1    3    3    0  502  0.39003860391E+03 -0.10748041868E+04  0.13756789457E+04  0.17888059493E+04  0.10100000352E+00 0. -1.
</event>
<event>
 5   0  0.9277261E-09  0.3899620E+04  0.7818609E-02  0.8025108E-01
       -2   -1    0    0    0  501  0.00000000000E+00  0.00000000000E+00  0.15684218039E+04  0.15684218039E+04  0.25500000920E-02 0. -1.
        2   -1    0    0  501    0  0.00000000000E+00  0.00000000000E+00 -0.24239387204E+04  0.24239387204E+04  0.25500000920E-02 0.  1.
    10030    2    1    2    0    0  0.00000000000E+00  0.00000000000E+00 -0.85551691649E+03  0.39923605242E+04  0.38996196431E+04 0.  0.
        1    1    3    3  502    0 -0.34330733202E+03  0.60876374742E+03 -0.22912963118E+04  0.23955149786E+04  0.50400001928E-02 0.  1.
       -1    1    3    3    0  502  0.34330733202E+03 -0.60876374742E+03  0.14357793953E+04  0.15968455456E+04  0.50400001928E-02 0. -1.
</event>
<event>
 5   0  0.2904500E-09  0.3899432E+04  0.7818609E-02  0.8025147E-01
       -1   -1    0    0    0  501  0.00000000000E+00  0.00000000000E+00  0.22140091567E+04  0.22140091567E+04  0.50400001928E-02 0.  1.
        1   -1    0    0  501    0  0.00000000000E+00  0.00000000000E+00 -0.17169719058E+04  0.17169719058E+04  0.50400001928E-02 0. -1.
    10030    2    1    2    0    0  0.00000000000E+00  0.00000000000E+00  0.49703725088E+03  0.39309810625E+04  0.38994315079E+04 0.  0.
        4    1    3    3  502    0  0.18671801019E+04  0.56121189491E+03  0.25692785154E+03  0.19665538024E+04  0.12699999809E+01 0. -1.
       -4    1    3    3    0  502 -0.18671801019E+04 -0.56121189491E+03  0.24010939934E+03  0.19644272601E+04  0.12699999809E+01 0.  1.
</event>
<event>
 5   0  0.2929054E-09  0.3899958E+04  0.7818609E-02  0.8025038E-01
        1   -1    0    0  501    0  0.00000000000E+00  0.00000000000E+00  0.19462785278E+04  0.19462785278E+04  0.50400001928E-02 0. -1.
       -1   -1    0    0    0  501  0.00000000000E+00  0.00000000000E+00 -0.19536862555E+04  0.19536862555E+04  0.50400001928E-02 0.  1.
    10030    2    1    2    0    0  0.00000000000E+00  0.00000000000E+00 -0.74077277263E+01  0.38999647833E+04  0.38999577481E+04 0.  0.
        1    1    3    3  502    0 -0.13237798791E+03  0.30676315092E+03 -0.19248502306E+04  0.19536314834E+04  0.50400001928E-02 0.  1.
       -1    1    3    3    0  502  0.13237798791E+03 -0.30676315092E+03  0.19174425029E+04  0.19463332999E+04  0.50400001928E-02 0. -1.
</event>
<event>
 5   0  0.9434114E-09  0.3899494E+04  0.7818609E-02  0.8025135E-01
        2   -1    0    0  501    0  0.00000000000E+00  0.00000000000E+00  0.21150712913E+04  0.21150712913E+04  0.25500000920E-02 0. -1.
       -2   -1    0    0    0  501  0.00000000000E+00  0.00000000000E+00 -0.17973450204E+04  0.17973450204E+04  0.25500000920E-02 0.  1.
    10030    2    1    2    0    0  0.00000000000E+00  0.00000000000E+00  0.31772627092E+03  0.39124163118E+04  0.38994937381E+04 0.  0.
        4    1    3    3  502    0  0.67011043238E+03 -0.10009769108E+04  0.16970806221E+04  0.20811263821E+04  0.12699999809E+01 0. -1.
       -4    1    3    3    0  502 -0.67011043238E+03  0.10009769108E+04 -0.13793543512E+04  0.18312899297E+04  0.12699999809E+01 0.  1.
</event>
<event>
 5   0  0.9078515E-09  0.3901379E+04  0.7818609E-02  0.8024743E-01
        2   -1    0    0  501    0  0.00000000000E+00  0.00000000000E+00  0.15636017850E+04  0.15636017850E+04  0.25500000920E-02 0.  1.
       -2   -1    0    0    0  501  0.00000000000E+00  0.00000000000E+00 -0.24336049826E+04  0.24336049826E+04  0.25500000920E-02 0. -1.
    10030    2    1    2    0    0  0.00000000000E+00  0.00000000000E+00 -0.87000319763E+03  0.39972067675E+04  0.39013787792E+04 0.  0.
        3    1    3    3  502    0  0.62320341989E+03  0.69123639243E+03 -0.21914613535E+04  0.23809017466E+04  0.10100000352E+00 0. -1.
       -3    1    3    3    0  502 -0.62320341989E+03 -0.69123639243E+03  0.13214581559E+04  0.16163050209E+04  0.10100000352E+00 0.  1.
</event>
<event>
 5   0  0.6335942E-09  0.3903872E+04  0.7818609E-02  0.8024224E-01
        2   -1    0    0  501    0  0.00000000000E+00  0.00000000000E+00  0.22749571951E+04  0.22749571951E+04  0.25500000920E-02 0.  1.
       -2   -1    0    0    0  501  0.00000000000E+00  0.00000000000E+00 -0.16747803258E+04  0.16747803258E+04  0.25500000920E-02 0. -1.
    10030    2    1    2    0    0  0.00000000000E+00  0.00000000000E+00  0.60017686923E+03  0.39497375209E+04  0.39038716948E+04 0.  0.
        2    1    3    3  502    0  0.15357237655E+03  0.38664928616E+03  0.22295789289E+04  0.22680618038E+04  0.25500000920E-02 0.  1.
       -2    1    3    3    0  502 -0.15357237655E+03 -0.38664928616E+03 -0.16294020597E+04  0.16816757171E+04  0.25500000920E-02 0. -1.
</event>
<event>
 5   0  0.6335942E-09  0.3900867E+04  0.7818609E-02  0.8024849E-01
        2   -1    0    0  501    0  0.00000000000E+00  0.00000000000E+00  0.18850599255E+04  0.18850599255E+04  0.25500000920E-02 0.  1.
       -2   -1    0    0    0  501  0.00000000000E+00  0.00000000000E+00 -0.20180746305E+04  0.20180746305E+04  0.25500000920E-02 0. -1.
    10030    2    1    2    0    0  0.00000000000E+00  0.00000000000E+00 -0.13301470494E+03  0.39031345560E+04  0.39008673972E+04 0.  0.
        2    1    3    3  502    0 -0.57187248176E+02 -0.21578400791E+03 -0.20052501871E+04  0.20176375870E+04  0.25500000920E-02 0. -1.
       -2    1    3    3    0  502  0.57187248176E+02  0.21578400791E+03  0.18722354822E+04  0.18854969690E+04  0.25500000920E-02 0.  1.
</event>
<event>
 5   0  0.9434114E-09  0.3902000E+04  0.7818609E-02  0.8024613E-01
        2   -1    0    0  501    0  0.00000000000E+00  0.00000000000E+00  0.23521050545E+04  0.23521050545E+04  0.25500000920E-02 0. -1.
       -2   -1    0    0    0  501  0.00000000000E+00  0.00000000000E+00 -0.16182956859E+04  0.16182956859E+04  0.25500000920E-02 0.  1.
    10030    2    1    2    0    0  0.00000000000E+00  0.00000000000E+00  0.73380936859E+03  0.39704007404E+04  0.39020002371E+04 0.  0.
        4    1    3    3  502    0 -0.64848478403E+03 -0.11612615551E+04  0.18192794485E+04  0.22536282389E+04  0.12699999809E+01 0. -1.
       -4    1    3    3    0  502  0.64848478403E+03  0.11612615551E+04 -0.10854700800E+04  0.17167725015E+04  0.12699999809E+01 0.  1.
</event>
<event>
 5   0  0.9368546E-09  0.3899721E+04  0.7818609E-02  0.8025087E-01
       -2   -1    0    0    0  501  0.00000000000E+00  0.00000000000E+00  0.18691579018E+04  0.18691579018E+04  0.25500000920E-02 0.  1.
        2   -1    0    0  501    0  0.00000000000E+00  0.00000000000E+00 -0.20340475032E+04  0.20340475032E+04  0.25500000920E-02 0. -1.
    10030    2    1    2    0    0  0.00000000000E+00  0.00000000000E+00 -0.16488960138E+03  0.39032054050E+04  0.38997209968E+04 0.  0.
        5    1    3    3  502    0  0.12881635597E+04  0.43033886010E+03 -0.14827577604E+04  0.20107584532E+04  0.46999998093E+01 0. -1.
       -5    1    3    3    0  502 -0.12881635597E+04 -0.43033886010E+03  0.13178681590E+04  0.18924469518E+04  0.46999998093E+01 0.  1.
</event>
<event>
 5   0  0.9368546E-09  0.3898354E+04  0.7818609E-02  0.8025372E-01
        2   -1    0    0  501    0  0.00000000000E+00  0.00000000000E+00  0.26267018105E+04  0.26267018105E+04  0.25500000920E-02 0.  1.
       -2   -1    0    0    0  501  0.00000000000E+00  0.00000000000E+00 -0.14464113565E+04  0.14464113565E+04  0.25500000920E-02 0. -1.
    10030    2    1    2    0    0  0.00000000000E+00  0.00000000000E+00  0.11802904540E+04  0.40731131670E+04  0.38983541803E+04 0.  0.
        5    1    3    3  502    0 -0.14726268471E+04  0.79437415547E+03  0.16347699146E+04  0.23392637503E+04  0.46999998093E+01 0. -1.
       -5    1    3    3    0  502  0.14726268471E+04 -0.79437415547E+03 -0.45447946057E+03  0.17338494167E+04  0.46999998093E+01 0.  1.
</event>
<event>
 5   0  0.9078515E-09  0.3898766E+04  0.7818609E-02  0.8025286E-01
       -2   -1    0    0    0  501  0.00000000000E+00  0.00000000000E+00  0.21309294629E+04  0.21309294629E+04  0.25500000920E-02 0. -1.
        2   -1    0    0  501    0  0.00000000000E+00  0.00000000000E+00 -0.17833035202E+04  0.17833035202E+04  0.25500000920E-02 0.  1.
    10030    2    1    2    0    0  0.00000000000E+00  0.00000000000E+00  0.34762594267E+03  0.39142329831E+04  0.38987659650E+04 0.  0.
        3    1    3    3  502    0 -0.11630267342E+04 -0.14931627807E+04 -0.29486630650E+03  0.19154927363E+04  0.10100000352E+00 0.  1.
       -3    1    3    3    0  502  0.11630267342E+04  0.14931627807E+04  0.64249224917E+03  0.19987402468E+04  0.10100000352E+00 0. -1.
</event>
<event>
 5   0  0.2904500E-09  0.3904634E+04  0.7818609E-02  0.8024066E-01
       -1   -1    0    0    0  501  0.00000000000E+00  0.00000000000E+00  0.16391569542E+04  0.16391569542E+04  0.50400001928E-02 0.  1.
        1   -1    0    0  501    0  0.00000000000E+00  0.00000000000E+00 -0.23253062676E+04  0.23253062676E+04  0.50400001928E-02 0. -1.
    10030    2    1    2    0    0  0.00000000000E+00  0.00000000000E+00 -0.68614931340E+03  0.39644632218E+04  0.39046341386E+04 0.  0.
        4    1    3    3  502    0 -0.10791936542E+04  0.46815342945E+03 -0.19250612009E+04  0.22560338687E+04  0.12699999809E+01 0. -1.
       -4    1    3    3    0  502  0.10791936542E+04 -0.46815342945E+03  0.12389118874E+04  0.17084293531E+04  0.12699999809E+01 0.  1.
</event>
<event>
 5   0  0.2929054E-09  0.3898418E+04  0.7818609E-02  0.8025358E-01
        1   -1    0    0  501    0  0.00000000000E+00  0.00000000000E+00  0.26022108113E+04  0.26022108113E+04  0.50400001928E-02 0. -1.
       -1   -1    0    0    0  501  0.00000000000E+00  0.00000000000E+00 -0.14600723344E+04  0.14600723344E+04  0.50400001928E-02 0.  1.
    10030    2    1    2    0    0  0.00000000000E+00  0.00000000000E+00  0.11421384769E+04  0.40622831458E+04  0.38984181479E+04 0.  0.
        1    1    3    3  502    0 -0.13010074645E+04 -0.56884166884E+03  0.19625704679E+04  0.24223715876E+04  0.50400001928E-02 0. -1.
       -1    1    3    3    0  502  0.13010074645E+04  0.56884166884E+03 -0.82043199094E+03  0.16399115582E+04  0.50400001928E-02 0.  1.
</event>
<event>
 5   0  0.6335942E-09  0.3899830E+04  0.7818609E-02  0.8025065E-01
        2   -1    0    0  501    0  0.00000000000E+00  0.00000000000E+00  0.20680041203E+04  0.20680041203E+04  0.25500000920E-02 0. -1.
       -2   -1    0    0    0  501  0.00000000000E+00  0.00000000000E+00 -0.18385687125E+04  0.18385687125E+04  0.25500000920E-02 0.  1.
    10030    2    1    2    0    0  0.00000000000E+00  0.00000000000E+00  0.22943540784E+03  0.39065728328E+04  0.38998295721E+04 0.  0.
        2    1    3    3  502    0 -0.49340209954E+03  0.64698479178E+03  0.18898237348E+04  0.20575394775E+04  0.25500000920E-02 0. -1.
       -2    1    3    3    0  502  0.49340209954E+03 -0.64698479178E+03 -0.16603883270E+04  0.18490333553E+04  0.25500000920E-02 0.  1.
</event>
<event>
 5   0  0.6335942E-09  0.3901075E+04  0.7818609E-02  0.8024806E-01
        2   -1    0    0  501    0  0.00000000000E+00  0.00000000000E+00  0.28113188881E+04  0.28113188881E+04  0.25500000920E-02 0.  1.
       -2   -1    0    0    0  501  0.00000000000E+00  0.00000000000E+00 -0.13533140524E+04  0.13533140524E+04  0.25500000920E-02 0. -1.
    10030    2    1    2    0    0  0.00000000000E+00  0.00000000000E+00  0.14580048357E+04  0.41646329406E+04  0.39010754195E+04 0.  0.
        2    1    3    3  502    0 -0.11917468178E+04 -0.12974592218E+04  0.16227846250E+04  0.23952225051E+04  0.25500000920E-02 0.  1.
       -2    1    3    3    0  502  0.11917468178E+04  0.12974592218E+04 -0.16477978934E+03  0.17694104354E+04  0.25500000920E-02 0. -1.
</event>
<event>
 5   0  0.2904500E-09  0.3902292E+04  0.7818609E-02  0.8024553E-01
       -1   -1    0    0    0  501  0.00000000000E+00  0.00000000000E+00  0.20285428147E+04  0.20285428147E+04  0.50400001928E-02 0. -1.
        1   -1    0    0  501    0  0.00000000000E+00  0.00000000000E+00 -0.18767020724E+04  0.18767020724E+04  0.50400001928E-02 0.  1.
    10030    2    1    2    0    0  0.00000000000E+00  0.00000000000E+00  0.15184074225E+03  0.39052448871E+04  0.39022918929E+04 0.  0.
        5    1    3    3  502    0 -0.33049328581E+03  0.28830424379E+03  0.19785700805E+04  0.20265998131E+04  0.46999998093E+01 0. -1.
       -5    1    3    3    0  502  0.33049328581E+03 -0.28830424379E+03 -0.18267293383E+04  0.18786450740E+04  0.46999998093E+01 0.  1.
</event>
<event>
 5   0  0.2904500E-09  0.3899746E+04  0.7818609E-02  0.8025082E-01
       -3   -1    0    0    0  501  0.00000000000E+00  0.00000000000E+00  0.24680575543E+04  0.24680575564E+04  0.10100000352E+00 0. -1.
        3   -1    0    0  501    0  0.00000000000E+00  0.00000000000E+00 -0.15404847014E+04  0.15404847047E+04  0.10100000352E+00 0.  1.
    10030    2    1    2    0    0  0.00000000000E+00  0.00000000000E+00  0.92757285292E+03  0.40085422611E+04  0.38997461022E+04 0.  0.
        4    1    3    3  502    0  0.13895824576E+04 -0.10381194986E+04 -0.45177716587E+03  0.17924105892E+04  0.12699999809E+01 0. -1.
       -4    1    3    3    0  502 -0.13895824576E+04  0.10381194986E+04  0.13793500188E+04  0.22161316719E+04  0.12699999809E+01 0.  1.
</event>
<event>
 5   0  0.9434114E-09  0.3899359E+04  0.7818609E-02  0.8025163E-01
       -2   -1    0    0    0  501  0.00000000000E+00  0.00000000000E+00  0.16951111603E+04  0.16951111603E+04  0.25500000920E-02 0.  1.
        2   -1    0    0  501    0  0.00000000000E+00  0.00000000000E+00 -0.22424781777E+04  0.22424781777E+04  0.25500000920E-02 0. -1.
    10030    2    1    2    0    0  0.00000000000E+00  0.00000000000E+00 -0.54736701743E+03  0.39375893381E+04  0.38993588118E+04 0.  0.
        4    1    3    3  502    0  0.53053808845E+03  0.69212451647E+03  0.14871850829E+04  0.17240151082E+04  0.12699999809E+01 0.  1.
       -4    1    3    3    0  502 -0.53053808845E+03 -0.69212451647E+03 -0.20345521003E+04  0.22135742299E+04  0.12699999809E+01 0. -1.
</event>
<event>
 5   0  0.2904500E-09  0.3902902E+04  0.7818609E-02  0.8024426E-01
       -1   -1    0    0    0  501  0.00000000000E+00  0.00000000000E+00  0.20679112584E+04  0.20679112584E+04  0.50400001928E-02 0.  1.
        1   -1    0    0  501    0  0.00000000000E+00  0.00000000000E+00 -0.18415493518E+04  0.18415493518E+04  0.50400001928E-02 0. -1.
    10030    2    1    2    0    0  0.00000000000E+00  0.00000000000E+00  0.22636190659E+03  0.39094606102E+04  0.39029018115E+04 0.  0.
        5    1    3    3  502    0 -0.76938075456E+03  0.44459584081E+03  0.18534912960E+04  0.20554961157E+04  0.46999998093E+01 0.  1.
       -5    1    3    3    0  502  0.76938075456E+03 -0.44459584081E+03 -0.16271293894E+04  0.18539644946E+04  0.46999998093E+01 0. -1.
</event>
<event>
 5   0  0.2904500E-09  0.3900965E+04  0.7818609E-02  0.8024829E-01
       -1   -1    0    0    0  501  0.00000000000E+00  0.00000000000E+00  0.16388185565E+04  0.16388185565E+04  0.50400001928E-02 0. -1.
        1   -1    0    0  501    0  0.00000000000E+00  0.00000000000E+00 -0.23214169378E+04  0.23214169379E+04  0.50400001928E-02 0.  1.
    10030    2    1    2    0    0  0.00000000000E+00  0.00000000000E+00 -0.68259838139E+03  0.39602354943E+04  0.39009645756E+04 0.  0.
        2    1    3    3  502    0 -0.84925316460E+03  0.16900316939E+04 -0.82492279371E+03  0.20634766002E+04  0.25500000920E-02 0.  1.
       -2    1    3    3    0  502  0.84925316460E+03 -0.16900316939E+04  0.14232441232E+03  0.18967588941E+04  0.25500000920E-02 0. -1.
</event>
<event>
 5   0  0.2904500E-09  0.3899968E+04  0.7818609E-02  0.8025036E-01
        1   -1    0    0  501    0  0.00000000000E+00  0.00000000000E+00  0.16524683010E+04  0.16524683010E+04  0.50400001928E-02 0.  1.
       -1   -1    0    0    0  501  0.00000000000E+00  0.00000000000E+00 -0.23010652081E+04  0.23010652081E+04  0.50400001928E-02 0. -1.
    10030    2    1    2    0    0  0.00000000000E+00  0.00000000000E+00 -0.64859690710E+03  0.39535335091E+04  0.38999678537E+04 0.  0.
        4    1    3    3  502    0 -0.14574156325E+03 -0.14153157568E+04 -0.16760585018E+04  0.21985297381E+04  0.12699999809E+01 0. -1.
       -4    1    3    3    0  502  0.14574156325E+03  0.14153157568E+04  0.10274615947E+04  0.17550037710E+04  0.12699999809E+01 0.  1.
</event>
<event>
 5   0  0.2929054E-09  0.3899081E+04  0.7818609E-02  0.8025220E-01
       -1   -1    0    0    0  501  0.00000000000E+00  0.00000000000E+00  0.15107633611E+04  0.15107633611E+04  0.50400001928E-02 0.  1.
        1   -1    0    0  501    0  0.00000000000E+00  0.00000000000E+00 -0.25157538638E+04  0.25157538638E+04  0.50400001928E-02 0. -1.
    10030    2    1    2    0    0  0.00000000000E+00  0.00000000000E+00 -0.10049905026E+04  0.40265172249E+04  0.38990813087E+04 0.  0.
        1    1    3    3  502    0  0.19189829558E+04 -0.24146058433E+03 -0.24973033069E+03  0.19501702583E+04  0.50400001928E-02 0.  1.
       -1    1    3    3    0  502 -0.19189829558E+04  0.24146058433E+03 -0.75526017195E+03  0.20763469666E+04  0.50400001928E-02 0. -1.
</event>
<event>
 5   0  0.2929054E-09  0.3899962E+04  0.7818609E-02  0.8025037E-01
        1   -1    0    0  501    0  0.00000000000E+00  0.00000000000E+00  0.32696509744E+04  0.32696509744E+04  0.50400001928E-02 0. -1.
       -1   -1    0    0    0  501  0.00000000000E+00  0.00000000000E+00 -0.11629456219E+04  0.11629456219E+04  0.50400001928E-02 0.  1.
    10030    2    1    2    0    0  0.00000000000E+00  0.00000000000E+00  0.21067053525E+04  0.44325965963E+04  0.38999621977E+04 0.  0.
        1    1    3    3  502    0 -0.13287171583E+04  0.11858968597E+04  0.15080563135E+03  0.17873396395E+04  0.50400001928E-02 0.  1.
       -1    1    3    3    0  502  0.13287171583E+04 -0.11858968597E+04  0.19558997212E+04  0.26452569568E+04  0.50400001928E-02 0. -1.
</event>
<event>
 5   0  0.9368546E-09  0.3900566E+04  0.7818609E-02  0.8024912E-01
        2   -1    0    0  501    0  0.00000000000E+00  0.00000000000E+00  0.24221606214E+04  0.24221606214E+04  0.25500000920E-02 0. -1.
       -2   -1    0    0    0  501  0.00000000000E+00  0.00000000000E+00 -0.15703348096E+04  0.15703348096E+04  0.25500000920E-02 0.  1.
    10030    2    1    2    0    0  0.00000000000E+00  0.00000000000E+00  0.85182581173E+03  0.39924954310E+04  0.39005656709E+04 0.  0.
        5    1    3    3  502    0  0.13774527269E+04 -0.13793166911E+04  0.36373166569E+03  0.19829809288E+04  0.46999998093E+01 0. -1.
       -5    1    3    3    0  502 -0.13774527269E+04  0.13793166911E+04  0.48809414603E+03  0.20095145022E+04  0.46999998093E+01 0.  1.
</event>
<event>
 5   0  0.2904500E-09  0.3899961E+04  0.7818609E-02  0.8025037E-01
        1   -1    0    0  501    0  0.00000000000E+00  0.00000000000E+00  0.26581271879E+04  0.26581271879E+04  0.50400001928E-02 0. -1.
       -1   -1    0    0    0  501  0.00000000000E+00  0.00000000000E+00 -0.14304898530E+04  0.14304898530E+04  0.50400001928E-02 0.  1.
    10030    2    1    2    0    0  0.00000000000E+00  0.00000000000E+00  0.12276373349E+04  0.40886170408E+04  0.38999610101E+04 0.  0.
        5    1    3    3  502    0  0.10747573281E+04  0.16108096227E+04  0.37339812375E+03  0.19721204841E+04  0.46999998093E+01 0. -1.
       -5    1    3    3    0  502 -0.10747573281E+04 -0.16108096227E+04  0.85423921114E+03  0.21164965568E+04  0.46999998093E+01 0.  1.
</event>
<event>
 5   0  0.9277261E-09  0.3906851E+04  0.7818609E-02  0.8023606E-01
       -2   -1    0    0    0  501  0.00000000000E+00  0.00000000000E+00  0.21501353651E+04  0.21501353651E+04  0.25500000920E-02 0. -1.
        2   -1    0    0  501    0  0.00000000000E+00  0.00000000000E+00 -0.17747119167E+04  0.17747119168E+04  0.25500000920E-02 0.  1.
    10030    2    1    2    0    0  0.00000000000E+00  0.00000000000E+00  0.37542344838E+03  0.39248472819E+04  0.39068508316E+04 0.  0.
        1    1    3    3  502    0 -0.46823647663E+03  0.18947194277E+04  0.10570391859E+03  0.19545793477E+04  0.50400001928E-02 0.  1.
       -1    1    3    3    0  502  0.46823647663E+03 -0.18947194277E+04  0.26971952978E+03  0.19702679342E+04  0.50400001928E-02 0. -1.
</event>
<event>
 5   0  0.2904500E-09  0.3917674E+04  0.7818609E-02  0.8021363E-01
       -1   -1    0    0    0  501  0.00000000000E+00  0.00000000000E+00  0.15045622096E+04  0.15045622096E+04  0.50400001928E-02 0. -1.
        1   -1    0    0  501    0  0.00000000000E+00  0.00000000000E+00 -0.25502719463E+04  0.25502719463E+04  0.50400001928E-02 0.  1.
    10030    2    1    2    0    0  0.00000000000E+00  0.00000000000E+00 -0.10457097367E+04  0.40548341559E+04  0.39176742052E+04 0.  0.
        3    1    3    3  502    0  0.23681751051E+03 -0.12797327194E+04  0.99238235133E+03  0.16366493540E+04  0.10100000352E+00 0. -1.
       -3    1    3    3    0  502 -0.23681751051E+03  0.12797327194E+04 -0.20380920881E+04  0.24181848019E+04  0.10100000352E+00 0.  1.
</event>
<event>
 5   0  0.9368546E-09  0.3905099E+04  0.7818609E-02  0.8023969E-01
        2   -1    0    0  501    0  0.00000000000E+00  0.00000000000E+00  0.17978925641E+04  0.17978925641E+04  0.25500000920E-02 0.  1.
       -2   -1    0    0    0  501  0.00000000000E+00  0.00000000000E+00 -0.21205106434E+04  0.21205106434E+04  0.25500000920E-02 0. -1.
    10030    2    1    2    0    0  0.00000000000E+00  0.00000000000E+00 -0.32261807931E+03  0.39184032075E+04  0.39050993933E+04 0.  0.
        5    1    3    3  502    0  0.73065752233E+02 -0.14916392062E+04  0.11007924665E+04  0.18552876515E+04  0.46999998093E+01 0.  1.
       -5    1    3    3    0  502 -0.73065752233E+02  0.14916392062E+04 -0.14234105458E+04  0.20631155560E+04  0.46999998093E+01 0. -1.
</event>
<event>
 5   0  0.9078515E-09  0.3900220E+04  0.7818609E-02  0.8024983E-01
       -2   -1    0    0    0  501  0.00000000000E+00  0.00000000000E+00  0.22259831457E+04  0.22259831457E+04  0.25500000920E-02 0.  1.
        2   -1    0    0  501    0  0.00000000000E+00  0.00000000000E+00 -0.17084270893E+04  0.17084270893E+04  0.25500000920E-02 0. -1.
    10030    2    1    2    0    0  0.00000000000E+00  0.00000000000E+00  0.51755605644E+03  0.39344102350E+04  0.39002204586E+04 0.  0.
        3    1    3    3  502    0  0.16519146805E+04 -0.67933517296E+03  0.10483342502E+04  0.20710681059E+04  0.10100000352E+00 0.  1.
       -3    1    3    3    0  502 -0.16519146805E+04  0.67933517296E+03 -0.53077819377E+03  0.18633421291E+04  0.10100000352E+00 0. -1.
</event>
<event>
 5   0  0.9277261E-09  0.3898820E+04  0.7818609E-02  0.8025275E-01
        2   -1    0    0  501    0  0.00000000000E+00  0.00000000000E+00  0.21296334318E+04  0.21296334318E+04  0.25500000920E-02 0. -1.
       -2   -1    0    0    0  501  0.00000000000E+00  0.00000000000E+00 -0.17844379081E+04  0.17844379081E+04  0.25500000920E-02 0.  1.
    10030    2    1    2    0    0  0.00000000000E+00  0.00000000000E+00  0.34519552364E+03  0.39140713399E+04  0.38988196296E+04 0.  0.
        1    1    3    3  502    0  0.15589067531E+04  0.12789605660E+03  0.13406141623E+04  0.20600470864E+04  0.50400001928E-02 0. -1.
       -1    1    3    3    0  502 -0.15589067531E+04 -0.12789605660E+03 -0.99541863867E+03  0.18540242534E+04  0.50400001928E-02 0.  1.
</event>
<event>
 5   0  0.2929054E-09  0.3898889E+04  0.7818609E-02  0.8025260E-01
        1   -1    0    0  501    0  0.00000000000E+00  0.00000000000E+00  0.24775569507E+04  0.24775569507E+04  0.50400001928E-02 0.  1.
       -1   -1    0    0    0  501  0.00000000000E+00  0.00000000000E+00 -0.15339035322E+04  0.15339035323E+04  0.50400001928E-02 0. -1.
    10030    2    1    2    0    0  0.00000000000E+00  0.00000000000E+00  0.94365341848E+03  0.40114604830E+04  0.38988887433E+04 0.  0.
        1    1    3    3  502    0 -0.84706784265E+03 -0.17892561304E+03 -0.13252565251E+04  0.15829855218E+04  0.50400001928E-02 0. -1.
       -1    1    3    3    0  502  0.84706784265E+03  0.17892561304E+03  0.22689099435E+04  0.24284749612E+04  0.50400001928E-02 0.  1.
</event>
<event>
 5   0  0.6335942E-09  0.3900635E+04  0.7818609E-02  0.8024897E-01
       -2   -1    0    0    0  501  0.00000000000E+00  0.00000000000E+00  0.18023548236E+04  0.18023548236E+04  0.25500000920E-02 0.  1.
        2   -1    0    0  501    0  0.00000000000E+00  0.00000000000E+00 -0.21104273146E+04  0.21104273146E+04  0.25500000920E-02 0. -1.
    10030    2    1    2    0    0  0.00000000000E+00  0.00000000000E+00 -0.30807249099E+03  0.39127821383E+04  0.39006352562E+04 0.  0.
        2    1    3    3  502    0 -0.17076747547E+04 -0.19879078532E+03 -0.10778100978E+04  0.20291243064E+04  0.25500000920E-02 0. -1.
       -2    1    3    3    0  502  0.17076747547E+04  0.19879078532E+03  0.76973760680E+03  0.18836578318E+04  0.25500000920E-02 0.  1.
</event>
<event>
 5   0  0.9277261E-09  0.3902806E+04  0.7818609E-02  0.8024446E-01
       -2   -1    0    0    0  501  0.00000000000E+00  0.00000000000E+00  0.18488306132E+04  0.18488306132E+04  0.25500000920E-02 0. -1.
        2   -1    0    0  501    0  0.00000000000E+00  0.00000000000E+00 -0.20596656497E+04  0.20596656497E+04  0.25500000920E-02 0.  1.
    10030    2    1    2    0    0  0.00000000000E+00  0.00000000000E+00 -0.21083503652E+03  0.39084962629E+04  0.39028056093E+04 0.  0.
        1    1    3    3  502    0 -0.48510828947E+03  0.14539914724E+04 -0.13148835825E+04  0.20194900569E+04  0.50400001928E-02 0.  1.
       -1    1    3    3    0  502  0.48510828947E+03 -0.14539914724E+04  0.11040485460E+04  0.18890062060E+04  0.50400001928E-02 0. -1.
</event>
<event>
 5   0  0.9078515E-09  0.3900391E+04  0.7818609E-02  0.8024948E-01
        2   -1    0    0  501    0  0.00000000000E+00  0.00000000000E+00  0.25090208885E+04  0.25090208885E+04  0.25500000920E-02 0. -1.
       -2   -1    0    0    0  501  0.00000000000E+00  0.00000000000E+00 -0.15158354647E+04  0.15158354647E+04  0.25500000920E-02 0.  1.
    10030    2    1    2    0    0  0.00000000000E+00  0.00000000000E+00  0.99318542386E+03  0.40248563532E+04  0.39003911826E+04 0.  0.
        3    1    3    3  502    0 -0.11890225937E+04 -0.73419177854E+03 -0.90712881327E+03  0.16660417132E+04  0.10100000352E+00 0.  1.
       -3    1    3    3    0  502  0.11890225937E+04  0.73419177854E+03  0.19003142371E+04  0.23588146400E+04  0.10100000352E+00 0. -1.
</event>
<event>
 5   0  0.2904500E-09  0.3898256E+04  0.7818609E-02  0.8025392E-01
        1   -1    0    0  501    0  0.00000000000E+00  0.00000000000E+00  0.20091403067E+04  0.20091403067E+04  0.50400001928E-02 0. -1.
       -1   -1    0    0    0  501  0.00000000000E+00  0.00000000000E+00 -0.18909082880E+04  0.18909082880E+04  0.50400001928E-02 0.  1.
    10030    2    1    2    0    0  0.00000000000E+00  0.00000000000E+00  0.11823201872E+03  0.39000485947E+04  0.38982560499E+04 0.  0.
        5    1    3    3  502    0 -0.20865296165E+03  0.83901254249E+03 -0.16885701631E+04  0.18970422744E+04  0.46999998093E+01 0.  1.
       -5    1    3    3    0  502  0.20865296165E+03 -0.83901254249E+03  0.18068021819E+04  0.20030063203E+04  0.46999998093E+01 0. -1.
</event>
<event>
 5   0  0.9368546E-09  0.3899831E+04  0.7818609E-02  0.8025064E-01
       -2   -1    0    0    0  501  0.00000000000E+00  0.00000000000E+00  0.25119196182E+04  0.25119196182E+04  0.25500000920E-02 0. -1.
        2   -1    0    0  501    0  0.00000000000E+00  0.00000000000E+00 -0.15136511569E+04  0.15136511569E+04  0.25500000920E-02 0.  1.
    10030    2    1    2    0    0  0.00000000000E+00  0.00000000000E+00  0.99826846131E+03  0.40255707752E+04  0.38998307841E+04 0.  0.
        5    1    3    3  502    0  0.17140395739E+04  0.92931826925E+03  0.52407607631E+03  0.20189705124E+04  0.46999998093E+01 0. -1.
       -5    1    3    3    0  502 -0.17140395739E+04 -0.92931826925E+03  0.47419238500E+03  0.20066002627E+04  0.46999998093E+01 0.  1.
</event>
<event>
 5   0  0.2929054E-09  0.3900239E+04  0.7818609E-02  0.8024980E-01
        1   -1    0    0  501    0  0.00000000000E+00  0.00000000000E+00  0.11879662847E+04  0.11879662847E+04  0.50400001928E-02 0.  1.
       -1   -1    0    0    0  501  0.00000000000E+00  0.00000000000E+00 -0.32012406832E+04  0.32012406832E+04  0.50400001928E-02 0. -1.
    10030    2    1    2    0    0  0.00000000000E+00  0.00000000000E+00 -0.20132743985E+04  0.43892069678E+04  0.39002389674E+04 0.  0.
        1    1    3    3  502    0  0.13196866236E+04 -0.12687515167E+04 -0.17629509677E+04  0.25415151603E+04  0.50400001928E-02 0. -1.
       -1    1    3    3    0  502 -0.13196866236E+04  0.12687515167E+04 -0.25032343085E+03  0.18476918075E+04  0.50400001928E-02 0.  1.
</event>
<event>
 5   0  0.6335942E-09  0.3915411E+04  0.7818609E-02  0.8021832E-01
        2   -1    0    0  501    0  0.00000000000E+00  0.00000000000E+00  0.27702951264E+04  0.27702951264E+04  0.25500000920E-02 0.  1.
       -2   -1    0    0    0  501  0.00000000000E+00  0.00000000000E+00 -0.13834666074E+04  0.13834666074E+04  0.25500000920E-02 0. -1.
    10030    2    1    2    0    0  0.00000000000E+00  0.00000000000E+00  0.13868285190E+04  0.41537617339E+04  0.39154109875E+04 0.  0.
        2    1    3    3  502    0  0.49785635600E+03 -0.52682377972E+03 -0.12358640688E+04  0.14327470966E+04  0.25500000920E-02 0. -1.
       -2    1    3    3    0  502 -0.49785635600E+03  0.52682377972E+03  0.26226925878E+04  0.27210146373E+04  0.25500000920E-02 0.  1.
</event>
<event>
 5   0  0.9434114E-09  0.3900008E+04  0.7818609E-02  0.8025028E-01
       -2   -1    0    0    0  501  0.00000000000E+00  0.00000000000E+00  0.30427953600E+04  0.30427953600E+04  0.25500000920E-02 0.  1.
        2   -1    0    0  501    0  0.00000000000E+00  0.00000000000E+00 -0.12496780922E+04  0.12496780922E+04  0.25500000920E-02 0. -1.
    10030    2    1    2    0    0  0.00000000000E+00  0.00000000000E+00  0.17931172678E+04  0.42924734522E+04  0.39000075387E+04 0.  0.
        4    1    3    3  502    0  0.56288156266E+03 -0.11481293994E+04 -0.72383060999E+03  0.14693430968E+04  0.12699999809E+01 0. -1.
       -4    1    3    3    0  502 -0.56288156266E+03  0.11481293994E+04  0.25169478778E+04  0.28231303554E+04  0.12699999809E+01 0.  1.
</event>
<event>
 5   0  0.2904500E-09  0.3899086E+04  0.7818609E-02  0.8025219E-01
        1   -1    0    0  501    0  0.00000000000E+00  0.00000000000E+00  0.13020178105E+04  0.13020178105E+04  0.50400001928E-02 0. -1.
       -1   -1    0    0    0  501  0.00000000000E+00  0.00000000000E+00 -0.29190975175E+04  0.29190975175E+04  0.50400001928E-02 0.  1.
    10030    2    1    2    0    0  0.00000000000E+00  0.00000000000E+00 -0.16170797069E+04  0.42211153280E+04  0.38990855125E+04 0.  0.
        2    1    3    3  502    0  0.14908917464E+04  0.10767784461E+04 -0.15088909107E+04  0.23788572470E+04  0.25500000920E-02 0.  1.
       -2    1    3    3    0  502 -0.14908917464E+04 -0.10767784461E+04 -0.10818879624E+03  0.18422580810E+04  0.25500000920E-02 0. -1.
</event>
<event>
 5   0  0.2904500E-09  0.3900341E+04  0.7818609E-02  0.8024958E-01
       -1   -1    0    0    0  501  0.00000000000E+00  0.00000000000E+00  0.31907441180E+04  0.31907441180E+04  0.50400001928E-02 0. -1.
        1   -1    0    0  501    0  0.00000000000E+00  0.00000000000E+00 -0.11919368219E+04  0.11919368219E+04  0.50400001928E-02 0.  1.
    10030    2    1    2    0    0  0.00000000000E+00  0.00000000000E+00  0.19988072961E+04  0.43826809399E+04  0.39003412177E+04 0.  0.
        5    1    3    3  502    0 -0.15142132371E+04  0.12260581182E+04  0.90483477137E+03  0.21482104855E+04  0.46999998093E+01 0.  1.
       -5    1    3    3    0  502  0.15142132371E+04 -0.12260581182E+04  0.10939725247E+04  0.22344704544E+04  0.46999998093E+01 0. -1.
</event>
<event>
 5   0  0.9368546E-09  0.3900256E+04  0.7818609E-02  0.8024976E-01
        2   -1    0    0  501    0  0.00000000000E+00  0.00000000000E+00  0.18577370136E+04  0.18577370136E+04  0.25500000920E-02 0. -1.
       -2   -1    0    0    0  501  0.00000000000E+00  0.00000000000E+00 -0.20471136694E+04  0.20471136694E+04  0.25500000920E-02 0.  1.
    10030    2    1    2    0    0  0.00000000000E+00  0.00000000000E+00 -0.18937665574E+03  0.39048506830E+04  0.39002558042E+04 0.  0.
        5    1    3    3  502    0 -0.45131173150E+03  0.10055139814E+04  0.15160065769E+04  0.18743101870E+04  0.46999998093E+01 0. -1.
       -5    1    3    3    0  502  0.45131173150E+03 -0.10055139814E+04 -0.17053832326E+04  0.20305404960E+04  0.46999998093E+01 0.  1.
</event>
<event>
 5   0  0.2904500E-09  0.3898851E+04  0.7818609E-02  0.8025268E-01
       -3   -1    0    0    0  501  0.00000000000E+00  0.00000000000E+00  0.17217105048E+04  0.17217105078E+04  0.10100000352E+00 0.  1.
        3   -1    0    0  501    0  0.00000000000E+00  0.00000000000E+00 -0.22072587084E+04  0.22072587107E+04  0.10100000352E+00 0. -1.
    10030    2    1    2    0    0  0.00000000000E+00  0.00000000000E+00 -0.48554820361E+03  0.39289692185E+04  0.38988513773E+04 0.  0.
        2    1    3    3  502    0 -0.14017059971E+04 -0.26768971410E+03 -0.15811233226E+04  0.21298799137E+04  0.25500000920E-02 0. -1.
       -2    1    3    3    0  502  0.14017059971E+04  0.26768971410E+03  0.10955751190E+04  0.17990893048E+04  0.25500000920E-02 0.  1.
</event>
<event>
 5   0  0.6335942E-09  0.3899408E+04  0.7818609E-02  0.8025152E-01
       -2   -1    0    0    0  501  0.00000000000E+00  0.00000000000E+00  0.17399257386E+04  0.17399257386E+04  0.25500000920E-02 0. -1.
        2   -1    0    0  501    0  0.00000000000E+00  0.00000000000E+00 -0.21847747288E+04  0.21847747288E+04  0.25500000920E-02 0.  1.
    10030    2    1    2    0    0  0.00000000000E+00  0.00000000000E+00 -0.44484899024E+03  0.39247004673E+04  0.38994080492E+04 0.  0.
        2    1    3    3  502    0  0.87853842865E+03  0.14819081783E+04 -0.11412886268E+04  0.20664997820E+04  0.25500000920E-02 0.  1.
       -2    1    3    3    0  502 -0.87853842865E+03 -0.14819081783E+04  0.69643963655E+03  0.18582006853E+04  0.25500000920E-02 0. -1.
</event>
<event>
 5   0  0.9078515E-09  0.3896979E+04  0.7818609E-02  0.8025658E-01
        2   -1    0    0  501    0  0.00000000000E+00  0.00000000000E+00  0.23407963293E+04  0.23407963293E+04  0.25500000920E-02 0.  1.
       -2   -1    0    0    0  501  0.00000000000E+00  0.00000000000E+00 -0.16219319279E+04  0.16219319279E+04  0.25500000920E-02 0. -1.
    10030    2    1    2    0    0  0.00000000000E+00  0.00000000000E+00  0.71886440135E+03  0.39627282572E+04  0.38969794987E+04 0.  0.
        3    1    3    3  502    0  0.35011813094E+03  0.20629501920E+03  0.22972258034E+04  0.23328923556E+04  0.10100000352E+00 0.  1.
       -3    1    3    3    0  502 -0.35011813094E+03 -0.20629501920E+03 -0.15783614021E+04  0.16298359017E+04  0.10100000352E+00 0. -1.
</event>
<event>
 5   0  0.6335942E-09  0.3899812E+04  0.7818609E-02  0.8025068E-01
       -2   -1    0    0    0  501  0.00000000000E+00  0.00000000000E+00  0.21126819887E+04  0.21126819887E+04  0.25500000920E-02 0.  1.
        2   -1    0    0  501    0  0.00000000000E+00  0.00000000000E+00 -0.17996716274E+04  0.17996716274E+04  0.25500000920E-02 0. -1.
    10030    2    1    2    0    0  0.00000000000E+00  0.00000000000E+00  0.31301036127E+03  0.39123536161E+04  0.38998122175E+04 0.  0.
        2    1    3    3  502    0 -0.13847691481E+04 -0.11909205069E+04 -0.52852056698E+03  0.19013708836E+04  0.25500000920E-02 0. -1.
       -2    1    3    3    0  502  0.13847691481E+04  0.11909205069E+04  0.84153092825E+03  0.20109827325E+04  0.25500000920E-02 0.  1.
</event>
<event>
 5   0  0.2904500E-09  0.3902451E+04  0.7818609E-02  0.8024520E-01
        1   -1    0    0  501    0  0.00000000000E+00  0.00000000000E+00  0.17632225449E+04  0.17632225449E+04  0.50400001928E-02 0.  1.
       -1   -1    0    0    0  501  0.00000000000E+00  0.00000000000E+00 -0.21592740195E+04  0.21592740195E+04  0.50400001928E-02 0. -1.
    10030    2    1    2    0    0  0.00000000000E+00  0.00000000000E+00 -0.39605147453E+03  0.39224965644E+04  0.39024508360E+04 0.  0.
        3    1    3    3  502    0  0.36066866844E+03  0.19163548341E+04 -0.12851209935E+03  0.19542295434E+04  0.10100000352E+00 0. -1.
       -3    1    3    3    0  502 -0.36066866844E+03 -0.19163548341E+04 -0.26753937519E+03  0.19682670210E+04  0.10100000352E+00 0.  1.
</event>
<event>
 5   0  0.2904500E-09  0.3900818E+04  0.7818609E-02  0.8024859E-01
        1   -1    0    0  501    0  0.00000000000E+00  0.00000000000E+00  0.13902848144E+04  0.13902848144E+04  0.50400001928E-02 0.  1.
       -1   -1    0    0    0  501  0.00000000000E+00  0.00000000000E+00 -0.27361980649E+04  0.27361980649E+04  0.50400001928E-02 0. -1.
    10030    2    1    2    0    0  0.00000000000E+00  0.00000000000E+00 -0.13459132505E+04  0.41264828793E+04  0.39008176675E+04 0.  0.
        5    1    3    3  502    0 -0.10013432273E+03  0.13629367916E+04  0.79910985126E+03  0.15831052476E+04  0.46999998093E+01 0. -1.
       -5    1    3    3    0  502  0.10013432273E+03 -0.13629367916E+04 -0.21450231017E+04  0.25433776317E+04  0.46999998093E+01 0.  1.
</event>
<event>
 5   0  0.9078515E-09  0.3900668E+04  0.7818609E-02  0.8024890E-01
       -2   -1    0    0    0  501  0.00000000000E+00  0.00000000000E+00  0.14435381949E+04  0.14435381949E+04  0.25500000920E-02 0. -1.
        2   -1    0    0  501    0  0.00000000000E+00  0.00000000000E+00 -0.26350555119E+04  0.26350555119E+04  0.25500000920E-02 0.  1.
    10030    2    1    2    0    0  0.00000000000E+00  0.00000000000E+00 -0.11915173170E+04  0.40785937068E+04  0.39006682900E+04 0.  0.
        3    1    3    3  502    0  0.74401330252E+03 -0.90164645392E+03 -0.22281498377E+04  0.25161823924E+04  0.10100000352E+00 0.  1.
       -3    1    3    3    0  502 -0.74401330252E+03  0.90164645392E+03  0.10366325208E+04  0.15624113145E+04  0.10100000352E+00 0. -1.
</event>
<event>
 5   0  0.2904500E-09  0.3904055E+04  0.7818609E-02  0.8024186E-01
        1   -1    0    0  501    0  0.00000000000E+00  0.00000000000E+00  0.12078252318E+04  0.12078252318E+04  0.50400001928E-02 0. -1.
       -1   -1    0    0    0  501  0.00000000000E+00  0.00000000000E+00 -0.31547698879E+04  0.31547698879E+04  0.50400001928E-02 0.  1.
    10030    2    1    2    0    0  0.00000000000E+00  0.00000000000E+00 -0.19469446561E+04  0.43625951197E+04  0.39040546467E+04 0.  0.
        5    1    3    3  502    0 -0.93541986627E+03  0.11491377374E+04 -0.23934991774E+04  0.28150289995E+04  0.46999998093E+01 0.  1.
       -5    1    3    3    0  502  0.93541986627E+03 -0.11491377374E+04  0.44655452131E+03  0.15475661201E+04  0.46999998093E+01 0. -1.
</event>
<event>
 5   0  0.2904500E-09  0.3895828E+04  0.7818609E-02  0.8025897E-01
        1   -1    0    0  501    0  0.00000000000E+00  0.00000000000E+00  0.21017584783E+04  0.21017584783E+04  0.50400001928E-02 0. -1.
       -1   -1    0    0    0  501  0.00000000000E+00  0.00000000000E+00 -0.18053308928E+04  0.18053308928E+04  0.50400001928E-02 0.  1.
    10030    2    1    2    0    0  0.00000000000E+00  0.00000000000E+00  0.29642758551E+03  0.39070893710E+04  0.38958282867E+04 0.  0.
        2    1    3    3  502    0  0.54701507202E+03 -0.17027837546E+04 -0.62581470740E+03  0.18948197940E+04  0.25500000920E-02 0.  1.
       -2    1    3    3    0  502 -0.54701507202E+03  0.17027837546E+04  0.92224229291E+03  0.20122695770E+04  0.25500000920E-02 0. -1.
</event>
<event>
 5   0  0.9368546E-09  0.3899973E+04  0.7818609E-02  0.8025035E-01
        2   -1    0    0  501    0  0.00000000000E+00  0.00000000000E+00  0.20409041782E+04  0.20409041782E+04  0.25500000920E-02 0.  1.
       -2   -1    0    0    0  501  0.00000000000E+00  0.00000000000E+00 -0.18631187384E+04  0.18631187384E+04  0.25500000920E-02 0. -1.
    10030    2    1    2    0    0  0.00000000000E+00  0.00000000000E+00  0.17778543977E+03  0.39040229166E+04  0.38999727270E+04 0.  0.
        5    1    3    3  502    0  0.10691531750E+04  0.88468340485E+03 -0.12824465618E+04  0.18895619895E+04  0.46999998093E+01 0. -1.
       -5    1    3    3    0  502 -0.10691531750E+04 -0.88468340485E+03  0.14602320015E+04  0.20144609271E+04  0.46999998093E+01 0.  1.
</event>
<event>
 5   0  0.2929054E-09  0.3894165E+04  0.7818609E-02  0.8026244E-01
        1   -1    0    0  501    0  0.00000000000E+00  0.00000000000E+00  0.19895240177E+04  0.19895240177E+04  0.50400001928E-02 0. -1.
       -1   -1    0    0    0  501  0.00000000000E+00  0.00000000000E+00 -0.19055461927E+04  0.19055461927E+04  0.50400001928E-02 0.  1.
    10030    2    1    2    0    0  0.00000000000E+00  0.00000000000E+00  0.83977824964E+02  0.38950702104E+04  0.38941648230E+04 0.  0.
        1    1    3    3  502    0  0.26676842019E+03 -0.15258340820E+04 -0.11380289421E+04  0.19220938865E+04  0.50400001928E-02 0.  1.
       -1    1    3    3    0  502 -0.26676842019E+03  0.15258340820E+04  0.12220067670E+04  0.19729763238E+04  0.50400001928E-02 0. -1.
</event>
<event>
 5   0  0.9078515E-09  0.3898302E+04  0.7818609E-02  0.8025383E-01
        2   -1    0    0  501    0  0.00000000000E+00  0.00000000000E+00  0.16445426580E+04  0.16445426580E+04  0.25500000920E-02 0.  1.
       -2   -1    0    0    0  501  0.00000000000E+00  0.00000000000E+00 -0.23101796989E+04  0.23101796989E+04  0.25500000920E-02 0. -1.
    10030    2    1    2    0    0  0.00000000000E+00  0.00000000000E+00 -0.66563704082E+03  0.39547223569E+04  0.38983017136E+04 0.  0.
        3    1    3    3  502    0  0.82879424115E+03 -0.14017871464E+04  0.75379631866E+03  0.17944681658E+04  0.10100000352E+00 0.  1.
       -3    1    3    3    0  502 -0.82879424115E+03  0.14017871464E+04 -0.14194333595E+04  0.21602541911E+04  0.10100000352E+00 0. -1.
</event>
<event>
 5   0  0.9434114E-09  0.3898994E+04  0.7818609E-02  0.8025239E-01
        2   -1    0    0  501    0  0.00000000000E+00  0.00000000000E+00  0.13754500782E+04  0.13754500782E+04  0.25500000920E-02 0.  1.
       -2   -1    0    0    0  501  0.00000000000E+00  0.00000000000E+00 -0.27631233096E+04  0.27631233096E+04  0.25500000920E-02 0. -1.
    10030    2    1    2    0    0  0.00000000000E+00  0.00000000000E+00 -0.13876732314E+04  0.41385733877E+04  0.38989938046E+04 0.  0.
        4    1    3    3  502    0  0.17584981954E+04 -0.31469138241E+03 -0.15223022439E+04  0.23470731356E+04  0.12699999809E+01 0. -1.
       -4    1    3    3    0  502 -0.17584981954E+04  0.31469138241E+03  0.13462901246E+03  0.17915002521E+04  0.12699999809E+01 0.  1.
</event>
<event>
 5   0  0.9078515E-09  0.3893770E+04  0.7818609E-02  0.8026326E-01
        2   -1    0    0  501    0  0.00000000000E+00  0.00000000000E+00  0.15735612243E+04  0.15735612243E+04  0.25500000920E-02 0. -1.
       -2   -1    0    0    0  501  0.00000000000E+00  0.00000000000E+00 -0.24087795575E+04  0.24087795575E+04  0.25500000920E-02 0.  1.
    10030    2    1    2    0    0  0.00000000000E+00  0.00000000000E+00 -0.83521833312E+03  0.39823407818E+04  0.38937704655E+04 0.  0.
        3    1    3    3  502    0  0.19636677979E+02  0.86990321834E+03  0.13636282610E+04  0.16175905702E+04  0.10100000352E+00 0. -1.
       -3    1    3    3    0  502 -0.19636677979E+02 -0.86990321834E+03 -0.21988465941E+04  0.23647502116E+04  0.10100000352E+00 0.  1.
</event>
<event>
 5   0  0.9368546E-09  0.3894033E+04  0.7818609E-02  0.8026271E-01
        2   -1    0    0  501    0  0.00000000000E+00  0.00000000000E+00  0.26655425780E+04  0.26655425781E+04  0.25500000920E-02 0.  1.
       -2   -1    0    0    0  501  0.00000000000E+00  0.00000000000E+00 -0.14221773222E+04  0.14221773222E+04  0.25500000920E-02 0. -1.
    10030    2    1    2    0    0  0.00000000000E+00  0.00000000000E+00  0.12433652558E+04  0.40877199003E+04  0.38940334903E+04 0.  0.
        5    1    3    3  502    0  0.15249970392E+04  0.10288059207E+04 -0.47845760280E+02  0.18402089280E+04  0.46999998093E+01 0.  1.
       -5    1    3    3    0  502 -0.15249970392E+04 -0.10288059207E+04  0.12912110161E+04  0.22475109722E+04  0.46999998093E+01 0. -1.
</event>
<event>
 5   0  0.9434114E-09  0.3904480E+04  0.7818609E-02  0.8024098E-01
       -2   -1    0    0    0  501  0.00000000000E+00  0.00000000000E+00  0.16450395730E+04  0.16450395730E+04  0.25500000920E-02 0.  1.
        2   -1    0    0  501    0  0.00000000000E+00  0.00000000000E+00 -0.23168085701E+04  0.23168085701E+04  0.25500000920E-02 0. -1.
    10030    2    1    2    0    0  0.00000000000E+00  0.00000000000E+00 -0.67176899716E+03  0.39618481431E+04  0.39044803910E+04 0.  0.
        4    1    3    3  502    0 -0.11445106807E+04  0.16053309615E+03 -0.19323947460E+04  0.22516275537E+04  0.12699999809E+01 0. -1.
       -4    1    3    3    0  502  0.11445106807E+04 -0.16053309615E+03  0.12606257488E+04  0.17102205895E+04  0.12699999809E+01 0.  1.
</event>
<event>
 5   0  0.2904500E-09  0.3899755E+04  0.7818609E-02  0.8025080E-01
       -1   -1    0    0    0  501  0.00000000000E+00  0.00000000000E+00  0.22022386697E+04  0.22022386697E+04  0.50400001928E-02 0.  1.
        1   -1    0    0  501    0  0.00000000000E+00  0.00000000000E+00 -0.17264347228E+04  0.17264347228E+04  0.50400001928E-02 0. -1.
    10030    2    1    2    0    0  0.00000000000E+00  0.00000000000E+00  0.47580394692E+03  0.39286733925E+04  0.38997545088E+04 0.  0.
        5    1    3    3  502    0  0.81785085267E+03 -0.57295562117E+03 -0.14492833333E+04  0.17600006907E+04  0.46999998093E+01 0. -1.
       -5    1    3    3    0  502 -0.81785085267E+03  0.57295562117E+03  0.19250872802E+04  0.21686727018E+04  0.46999998093E+01 0.  1.
</event>
<event>
 5   0  0.9368546E-09  0.3900547E+04  0.7818609E-02  0.8024915E-01
       -2   -1    0    0    0  501  0.00000000000E+00  0.00000000000E+00  0.16945874481E+04  0.16945874481E+04  0.25500000920E-02 0. -1.
        2   -1    0    0  501    0  0.00000000000E+00  0.00000000000E+00 -0.22445388432E+04  0.22445388432E+04  0.25500000920E-02 0.  1.
    10030    2    1    2    0    0  0.00000000000E+00  0.00000000000E+00 -0.54995139511E+03  0.39391262912E+04  0.39005473207E+04 0.  0.
        5    1    3    3  502    0  0.14657352527E+04 -0.12283363019E+04  0.11137230213E+03  0.19156241232E+04  0.46999998093E+01 0. -1.
       -5    1    3    3    0  502 -0.14657352527E+04  0.12283363019E+04 -0.66132369724E+03  0.20235021681E+04  0.46999998093E+01 0.  1.
</event>
<event>
 5   0  0.2904500E-09  0.3900273E+04  0.7818609E-02  0.8024972E-01
        1   -1    0    0  501    0  0.00000000000E+00  0.00000000000E+00  0.25080002880E+04  0.25080002880E+04  0.50400001928E-02 0. -1.
       -1   -1    0    0    0  501  0.00000000000E+00  0.00000000000E+00 -0.15163604646E+04  0.15163604646E+04  0.50400001928E-02 0.  1.
    10030    2    1    2    0    0  0.00000000000E+00  0.00000000000E+00  0.99163982344E+03  0.40243607526E+04  0.39002730581E+04 0.  0.
        5    1    3    3  502    0  0.50851677623E+03  0.10010995484E+04  0.21409813584E+04  0.24175634189E+04  0.46999998093E+01 0. -1.
       -5    1    3    3    0  502 -0.50851677623E+03 -0.10010995484E+04 -0.11493415349E+04  0.16067973337E+04  0.46999998093E+01 0.  1.
</event>
<event>
 5   0  0.9368546E-09  0.3901431E+04  0.7818609E-02  0.8024732E-01
       -2   -1    0    0    0  501  0.00000000000E+00  0.00000000000E+00  0.27404894734E+04  0.27404894734E+04  0.25500000920E-02 0.  1.
        2   -1    0    0  501    0  0.00000000000E+00  0.00000000000E+00 -0.13885442510E+04  0.13885442510E+04  0.25500000920E-02 0. -1.
    10030    2    1    2    0    0  0.00000000000E+00  0.00000000000E+00  0.13519452224E+04  0.41290337244E+04  0.39014309699E+04 0.  0.
        5    1    3    3  502    0 -0.55335154968E+03 -0.73116928687E+03 -0.11462333892E+04  0.14678826711E+04  0.46999998093E+01 0. -1.
       -5    1    3    3    0  502  0.55335154968E+03  0.73116928687E+03  0.24981786115E+04  0.26611510533E+04  0.46999998093E+01 0.  1.
</event>
<event>
 5   0  0.2904500E-09  0.3898961E+04  0.7818609E-02  0.8025245E-01
       -1   -1    0    0    0  501  0.00000000000E+00  0.00000000000E+00  0.27497638536E+04  0.27497638536E+04  0.50400001928E-02 0.  1.
        1   -1    0    0  501    0  0.00000000000E+00  0.00000000000E+00 -0.13821093828E+04  0.13821093828E+04  0.50400001928E-02 0. -1.
    10030    2    1    2    0    0  0.00000000000E+00  0.00000000000E+00  0.13676544708E+04  0.41318732363E+04  0.38989611039E+04 0.  0.
        3    1    3    3  502    0  0.36321070196E+03  0.73262449511E+01  0.27135759388E+04  0.27377856150E+04  0.10100000352E+00 0.  1.
       -3    1    3    3    0  502 -0.36321070196E+03 -0.73262449511E+01 -0.13459214680E+04  0.13940876214E+04  0.10100000352E+00 0. -1.
</event>
<event>
 5   0  0.2904500E-09  0.3900672E+04  0.7818609E-02  0.8024889E-01
       -1   -1    0    0    0  501  0.00000000000E+00  0.00000000000E+00  0.17487312487E+04  0.17487312487E+04  0.50400001928E-02 0.  1.
        1   -1    0    0  501    0  0.00000000000E+00  0.00000000000E+00 -0.21751829468E+04  0.21751829468E+04  0.50400001928E-02 0. -1.
    10030    2    1    2    0    0  0.00000000000E+00  0.00000000000E+00 -0.42645169812E+03  0.39239141955E+04  0.39006719373E+04 0.  0.
        5    1    3    3  502    0 -0.75716512970E+03 -0.55560263566E+02 -0.20204275634E+04  0.21583641040E+04  0.46999998093E+01 0. -1.
       -5    1    3    3    0  502  0.75716512970E+03  0.55560263566E+02  0.15939758653E+04  0.17655500915E+04  0.46999998093E+01 0.  1.
</event>
<event>
 5   0  0.9368546E-09  0.3898809E+04  0.7818609E-02  0.8025277E-01
       -2   -1    0    0    0  501  0.00000000000E+00  0.00000000000E+00  0.18096427510E+04  0.18096427510E+04  0.25500000920E-02 0. -1.
        2   -1    0    0  501    0  0.00000000000E+00  0.00000000000E+00 -0.20999603353E+04  0.20999603353E+04  0.25500000920E-02 0.  1.
    10030    2    1    2    0    0  0.00000000000E+00  0.00000000000E+00 -0.29031758432E+03  0.39096030863E+04  0.38988090480E+04 0.  0.
        5    1    3    3  502    0 -0.35899240515E+03 -0.33349156371E+03  0.17468780566E+04  0.18143035040E+04  0.46999998093E+01 0. -1.
       -5    1    3    3    0  502  0.35899240515E+03  0.33349156371E+03 -0.20371956410E+04  0.20952995823E+04  0.46999998093E+01 0.  1.
</event>
<event>
 5   0  0.2929054E-09  0.3900423E+04  0.7818609E-02  0.8024941E-01
        1   -1    0    0  501    0  0.00000000000E+00  0.00000000000E+00  0.18443287210E+04  0.18443287210E+04  0.50400001928E-02 0. -1.
       -1   -1    0    0    0  501  0.00000000000E+00  0.00000000000E+00 -0.20621733077E+04  0.20621733078E+04  0.50400001928E-02 0.  1.
    10030    2    1    2    0    0  0.00000000000E+00  0.00000000000E+00 -0.21784458675E+03  0.39065020288E+04  0.39004232894E+04 0.  0.
        1    1    3    3  502    0 -0.80525487303E+03 -0.94494284627E+03  0.13974073679E+04  0.18692511188E+04  0.50400001928E-02 0. -1.
       -1    1    3    3    0  502  0.80525487303E+03  0.94494284627E+03 -0.16152519546E+04  0.20372509100E+04  0.50400001928E-02 0.  1.
</event>
<event>
 5   0  0.2904500E-09  0.3904507E+04  0.7818609E-02  0.8024093E-01
       -1   -1    0    0    0  501  0.00000000000E+00  0.00000000000E+00  0.25737314369E+04  0.25737314369E+04  0.50400001928E-02 0. -1.
        1   -1    0    0  501    0  0.00000000000E+00  0.00000000000E+00 -0.14808432792E+04  0.14808432792E+04  0.50400001928E-02 0.  1.
    10030    2    1    2    0    0  0.00000000000E+00  0.00000000000E+00  0.10928881577E+04  0.40545747162E+04  0.39045065762E+04 0.  0.
        5    1    3    3  502    0 -0.42918912060E+03 -0.18015585113E+04 -0.94913876961E+02  0.18544128734E+04  0.46999998093E+01 0. -1.
       -5    1    3    3    0  502  0.42918912060E+03  0.18015585113E+04  0.11878020347E+04  0.22001618428E+04  0.46999998093E+01 0.  1.
</event>
<event>
 5   0  0.2904500E-09  0.3900397E+04  0.7818609E-02  0.8024947E-01
       -1   -1    0    0    0  501  0.00000000000E+00  0.00000000000E+00  0.12618474030E+04  0.12618474030E+04  0.50400001928E-02 0.  1.
        1   -1    0    0  501    0  0.00000000000E+00  0.00000000000E+00 -0.30140520652E+04  0.30140520652E+04  0.50400001928E-02 0. -1.
    10030    2    1    2    0    0  0.00000000000E+00  0.00000000000E+00 -0.17522046622E+04  0.42758994681E+04  0.39003967854E+04 0.  0.
        4    1    3    3  502    0  0.12162217566E+04  0.19539157280E+03 -0.25335781769E+04  0.28171604887E+04  0.12699999809E+01 0. -1.
       -4    1    3    3    0  502 -0.12162217566E+04 -0.19539157280E+03  0.78137351468E+03  0.14587389795E+04  0.12699999809E+01 0.  1.
</event>
<event>
 5   0  0.2904500E-09  0.3902722E+04  0.7818609E-02  0.8024463E-01
        1   -1    0    0  501    0  0.00000000000E+00  0.00000000000E+00  0.28370094461E+04  0.28370094461E+04  0.50400001928E-02 0. -1.
       -1   -1    0    0    0  501  0.00000000000E+00  0.00000000000E+00 -0.13421916697E+04  0.13421916697E+04  0.50400001928E-02 0.  1.
    10030    2    1    2    0    0  0.00000000000E+00  0.00000000000E+00  0.14948177764E+04  0.41792011158E+04  0.39027223551E+04 0.  0.
        2    1    3    3  502    0  0.12039737793E+04  0.52628794035E+03 -0.79745678483E+03  0.15370325895E+04  0.25500000920E-02 0.  1.
       -2    1    3    3    0  502 -0.12039737793E+04 -0.52628794035E+03  0.22922745612E+04  0.26421685263E+04  0.25500000920E-02 0. -1.
</event>
<event>
 5   0  0.6335942E-09  0.3900600E+04  0.7818609E-02  0.8024904E-01
       -2   -1    0    0    0  501  0.00000000000E+00  0.00000000000E+00  0.18637486954E+04  0.18637486954E+04  0.25500000920E-02 0.  1.
        2   -1    0    0  501    0  0.00000000000E+00  0.00000000000E+00 -0.20408710444E+04  0.20408710444E+04  0.25500000920E-02 0. -1.
    10030    2    1    2    0    0  0.00000000000E+00  0.00000000000E+00 -0.17712234898E+03  0.39046197398E+04  0.39006003366E+04 0.  0.
        2    1    3    3  502    0 -0.14545963975E+04  0.21377304942E+03 -0.13713344071E+04  0.20104993540E+04  0.25500000920E-02 0. -1.
       -2    1    3    3    0  502  0.14545963975E+04 -0.21377304942E+03  0.11942120581E+04  0.18941203858E+04  0.25500000920E-02 0.  1.
</event>
<event>
 5   0  0.9078515E-09  0.3899933E+04  0.7818609E-02  0.8025043E-01
        2   -1    0    0  501    0  0.00000000000E+00  0.00000000000E+00  0.17962439348E+04  0.17962439348E+04  0.25500000920E-02 0. -1.
       -2   -1    0    0    0  501  0.00000000000E+00  0.00000000000E+00 -0.21168450577E+04  0.21168450577E+04  0.25500000920E-02 0.  1.
    10030    2    1    2    0    0  0.00000000000E+00  0.00000000000E+00 -0.32060112296E+03  0.39130889925E+04  0.38999333819E+04 0.  0.
        3    1    3    3  502    0 -0.10503926791E+04  0.16286692167E+04  0.56023294119E+02  0.19388209865E+04  0.10100000352E+00 0.  1.
       -3    1    3    3    0  502  0.10503926791E+04 -0.16286692167E+04 -0.37662441708E+03  0.19742680060E+04  0.10100000352E+00 0. -1.
</event>
<event>
 5   0  0.6335942E-09  0.3901543E+04  0.7818609E-02  0.8024708E-01
        2   -1    0    0  501    0  0.00000000000E+00  0.00000000000E+00  0.25859524969E+04  0.25859524969E+04  0.25500000920E-02 0. -1.
       -2   -1    0    0    0  501  0.00000000000E+00  0.00000000000E+00 -0.14716085023E+04  0.14716085023E+04  0.25500000920E-02 0.  1.
    10030    2    1    2    0    0  0.00000000000E+00  0.00000000000E+00  0.11143439946E+04  0.40575609993E+04  0.39015431209E+04 0.  0.
        2    1    3    3  502    0 -0.59174301439E+03 -0.31046216009E+03 -0.13488647305E+04  0.15053181089E+04  0.25500000920E-02 0.  1.
       -2    1    3    3    0  502  0.59174301439E+03  0.31046216009E+03  0.24632087251E+04  0.25522428903E+04  0.25500000920E-02 0. -1.
</event>
<event>
 5   0  0.2904500E-09  0.3898986E+04  0.7818609E-02  0.8025240E-01
       -1   -1    0    0    0  501  0.00000000000E+00  0.00000000000E+00  0.16073912131E+04  0.16073912132E+04  0.50400001928E-02 0.  1.
        1   -1    0    0  501    0  0.00000000000E+00  0.00000000000E+00 -0.23644048588E+04  0.23644048588E+04  0.50400001928E-02 0. -1.
    10030    2    1    2    0    0  0.00000000000E+00  0.00000000000E+00 -0.75701364568E+03  0.39717960720E+04  0.38989863269E+04 0.  0.
        3    1    3    3  502    0 -0.16394120303E+04 -0.52644666492E+03 -0.13097474375E+04  0.21633899918E+04  0.10100000352E+00 0. -1.
       -3    1    3    3    0  502  0.16394120303E+04  0.52644666492E+03  0.55273379184E+03  0.18084060802E+04  0.10100000352E+00 0.  1.
</event>
<event>
 5   0  0.9434114E-09  0.3901596E+04  0.7818609E-02  0.8024697E-01
        2   -1    0    0  501    0  0.00000000000E+00  0.00000000000E+00  0.19348989991E+04  0.19348989991E+04  0.25500000920E-02 0. -1.
       -2   -1    0    0    0  501  0.00000000000E+00  0.00000000000E+00 -0.19668271683E+04  0.19668271683E+04  0.25500000920E-02 0.  1.
    10030    2    1    2    0    0  0.00000000000E+00  0.00000000000E+00 -0.31928169244E+02  0.39017261674E+04  0.39015955297E+04 0.  0.
        4    1    3    3  502    0  0.14049946348E+04  0.47813406050E+03  0.12501700121E+04  0.19405021968E+04  0.12699999809E+01 0. -1.
       -4    1    3    3    0  502 -0.14049946348E+04 -0.47813406050E+03 -0.12820981813E+04  0.19612239707E+04  0.12699999809E+01 0.  1.
</event>
<event>
 5   0  0.9078515E-09  0.3899966E+04  0.7818609E-02  0.8025036E-01
       -2   -1    0    0    0  501  0.00000000000E+00  0.00000000000E+00  0.17081401573E+04  0.17081401573E+04  0.25500000920E-02 0.  1.
        2   -1    0    0  501    0  0.00000000000E+00  0.00000000000E+00 -0.22260665148E+04  0.22260665148E+04  0.25500000920E-02 0. -1.
    10030    2    1    2    0    0  0.00000000000E+00  0.00000000000E+00 -0.51792635749E+03  0.39342066721E+04  0.38999659520E+04 0.  0.
        3    1    3    3  502    0  0.19116977571E+04 -0.16990780098E+03 -0.60692145492E+03  0.20129109861E+04  0.10100000352E+00 0.  1.
       -3    1    3    3    0  502 -0.19116977571E+04  0.16990780098E+03  0.88995097428E+02  0.19212956860E+04  0.10100000352E+00 0. -1.
</event>
<event>
 5   0  0.2904500E-09  0.3898289E+04  0.7818609E-02  0.8025385E-01
       -1   -1    0    0    0  501  0.00000000000E+00  0.00000000000E+00  0.17749568569E+04  0.17749568569E+04  0.50400001928E-02 0.  1.
        1   -1    0    0  501    0  0.00000000000E+00  0.00000000000E+00 -0.21404261749E+04  0.21404261749E+04  0.50400001928E-02 0. -1.
    10030    2    1    2    0    0  0.00000000000E+00  0.00000000000E+00 -0.36546931797E+03  0.39153830318E+04  0.38982889148E+04 0.  0.
        4    1    3    3  502    0  0.82159014746E+03 -0.23107194026E+02  0.15923914144E+04  0.17919978634E+04  0.12699999809E+01 0.  1.
       -4    1    3    3    0  502 -0.82159014746E+03  0.23107194026E+02 -0.19578607324E+04  0.21233851684E+04  0.12699999809E+01 0. -1.
</event>
<event>
 5   0  0.2904500E-09  0.3901043E+04  0.7818609E-02  0.8024812E-01
        1   -1    0    0  501    0  0.00000000000E+00  0.00000000000E+00  0.17455122045E+04  0.17455122045E+04  0.50400001928E-02 0.  1.
       -1   -1    0    0    0  501  0.00000000000E+00  0.00000000000E+00 -0.21796087527E+04  0.21796087527E+04  0.50400001928E-02 0. -1.
    10030    2    1    2    0    0  0.00000000000E+00  0.00000000000E+00 -0.43409654813E+03  0.39251209572E+04  0.39010427729E+04 0.  0.
        2    1    3    3  502    0 -0.70626100428E+03  0.17980242024E+04 -0.48859930649E+03  0.19925925125E+04  0.25500000920E-02 0.  1.
       -2    1    3    3    0  502  0.70626100428E+03 -0.17980242024E+04  0.54502758363E+02  0.19325284447E+04  0.25500000920E-02 0. -1.
</event>
<event>
 5   0  0.9368546E-09  0.3897949E+04  0.7818609E-02  0.8025456E-01
       -2   -1    0    0    0  501  0.00000000000E+00  0.00000000000E+00  0.23677124954E+04  0.23677124954E+04  0.25500000920E-02 0. -1.
        2   -1    0    0  501    0  0.00000000000E+00  0.00000000000E+00 -0.16042914619E+04  0.16042914619E+04  0.25500000920E-02 0.  1.
    10030    2    1    2    0    0  0.00000000000E+00  0.00000000000E+00  0.76342103348E+03  0.39720039572E+04  0.38979486608E+04 0.  0.
        5    1    3    3  502    0 -0.97262310188E+03 -0.48432840178E+03 -0.12670244298E+04  0.16691143445E+04  0.46999998093E+01 0.  1.
       -5    1    3    3    0  502  0.97262310188E+03  0.48432840178E+03  0.20304454633E+04  0.23028896128E+04  0.46999998093E+01 0. -1.
</event>
<event>
 5   0  0.2904500E-09  0.3899416E+04  0.7818609E-02  0.8025151E-01
        1   -1    0    0  501    0  0.00000000000E+00  0.00000000000E+00  0.24865097832E+04  0.24865097832E+04  0.50400001928E-02 0.  1.
       -1   -1    0    0    0  501  0.00000000000E+00  0.00000000000E+00 -0.15287940935E+04  0.15287940935E+04  0.50400001928E-02 0. -1.
    10030    2    1    2    0    0  0.00000000000E+00  0.00000000000E+00  0.95771568967E+03  0.40153038767E+04  0.38994160948E+04 0.  0.
        3    1    3    3  502    0 -0.18281698284E+04 -0.21243139109E+03  0.11414319383E+04  0.21656867035E+04  0.10100000352E+00 0.  1.
       -3    1    3    3    0  502  0.18281698284E+04  0.21243139109E+03 -0.18371624868E+03  0.18496171733E+04  0.10100000352E+00 0. -1.
</event>
<event>
 5   0  0.2904500E-09  0.3902292E+04  0.7818609E-02  0.8024553E-01
        1   -1    0    0  501    0  0.00000000000E+00  0.00000000000E+00  0.13622654461E+04  0.13622654461E+04  0.50400001928E-02 0. -1.
       -1   -1    0    0    0  501  0.00000000000E+00  0.00000000000E+00 -0.27945886284E+04  0.27945886284E+04  0.50400001928E-02 0.  1.
    10030    2    1    2    0    0  0.00000000000E+00  0.00000000000E+00 -0.14323231824E+04  0.41568540745E+04  0.39022924158E+04 0.  0.
        2    1    3    3  502    0  0.79220494579E+03 -0.17391787608E+04 -0.11350573960E+04  0.22227655590E+04  0.25500000920E-02 0.  1.
       -2    1    3    3    0  502 -0.79220494579E+03  0.17391787608E+04 -0.29726578643E+03  0.19340885155E+04  0.25500000920E-02 0. -1.
</event>
<event>
 5   0  0.6335942E-09  0.3899118E+04  0.7818609E-02  0.8025213E-01
       -2   -1    0    0    0  501  0.00000000000E+00  0.00000000000E+00  0.26866050910E+04  0.26866050910E+04  0.25500000920E-02 0. -1.
        2   -1    0    0  501    0  0.00000000000E+00  0.00000000000E+00 -0.14147146706E+04  0.14147146706E+04  0.25500000920E-02 0.  1.
    10030    2    1    2    0    0  0.00000000000E+00  0.00000000000E+00  0.12718904204E+04  0.41013197617E+04  0.38991176625E+04 0.  0.
        2    1    3    3  502    0 -0.48610148511E+03  0.14556334424E+04 -0.62874396841E+03  0.16584578228E+04  0.25500000920E-02 0.  1.
       -2    1    3    3    0  502  0.48610148511E+03 -0.14556334424E+04  0.19006343888E+04  0.24428619388E+04  0.25500000920E-02 0. -1.
</event>
<event>
 5   0  0.6335942E-09  0.3901464E+04  0.7818609E-02  0.8024725E-01
        2   -1    0    0  501    0  0.00000000000E+00  0.00000000000E+00  0.20735490315E+04  0.20735490315E+04  0.25500000920E-02 0.  1.
       -2   -1    0    0    0  501  0.00000000000E+00  0.00000000000E+00 -0.18351890407E+04  0.18351890407E+04  0.25500000920E-02 0. -1.
    10030    2    1    2    0    0  0.00000000000E+00  0.00000000000E+00  0.23835999076E+03  0.39087380722E+04  0.39014635500E+04 0.  0.
        2    1    3    3  502    0  0.82199059079E+03  0.93224072201E+03 -0.13871569957E+04  0.18625106244E+04  0.25500000920E-02 0. -1.
       -2    1    3    3    0  502 -0.82199059079E+03 -0.93224072201E+03  0.16255169865E+04  0.20462274479E+04  0.25500000920E-02 0.  1.
</event>
<event>
 5   0  0.9078515E-09  0.3900158E+04  0.7818609E-02  0.8024996E-01
       -2   -1    0    0    0  501  0.00000000000E+00  0.00000000000E+00  0.28709028181E+04  0.28709028181E+04  0.25500000920E-02 0.  1.
        2   -1    0    0  501    0  0.00000000000E+00  0.00000000000E+00 -0.13246037673E+04  0.13246037673E+04  0.25500000920E-02 0. -1.
    10030    2    1    2    0    0  0.00000000000E+00  0.00000000000E+00  0.15462990508E+04  0.41955065854E+04  0.39001582985E+04 0.  0.
        3    1    3    3  502    0  0.13139339923E+04  0.12365144713E+03 -0.77122038526E+03  0.15285591612E+04  0.10100000352E+00 0. -1.
       -3    1    3    3    0  502 -0.13139339923E+04 -0.12365144713E+03  0.23175194361E+04  0.26669474242E+04  0.10100000352E+00 0.  1.
</event>
<event>
 5   0  0.2904500E-09  0.3899772E+04  0.7818609E-02  0.8025077E-01
       -1   -1    0    0    0  501  0.00000000000E+00  0.00000000000E+00  0.20153276632E+04  0.20153276632E+04  0.50400001928E-02 0.  1.
        1   -1    0    0  501    0  0.00000000000E+00  0.00000000000E+00 -0.18865696007E+04  0.18865696007E+04  0.50400001928E-02 0. -1.
    10030    2    1    2    0    0  0.00000000000E+00  0.00000000000E+00  0.12875806257E+03  0.39018972639E+04  0.38997722523E+04 0.  0.
        4    1    3    3  502    0  0.15939588928E+01  0.58445344088E+03 -0.17968673833E+04  0.18895296693E+04  0.12699999809E+01 0. -1.
       -4    1    3    3    0  502 -0.15939588928E+01 -0.58445344088E+03  0.19256254458E+04  0.20123675946E+04  0.12699999809E+01 0.  1.
</event>
<event>
 5   0  0.2904500E-09  0.3899058E+04  0.7818609E-02  0.8025225E-01
       -1   -1    0    0    0  501  0.00000000000E+00  0.00000000000E+00  0.14979857452E+04  0.14979857452E+04  0.50400001928E-02 0.  1.
        1   -1    0    0  501    0  0.00000000000E+00  0.00000000000E+00 -0.25371828953E+04  0.25371828953E+04  0.50400001928E-02 0. -1.
    10030    2    1    2    0    0  0.00000000000E+00  0.00000000000E+00 -0.10391971501E+04  0.40351686405E+04  0.38990582504E+04 0.  0.
        2    1    3    3  502    0 -0.12003577207E+04  0.70106017215E+03  0.89498161884E+03  0.16532804120E+04  0.25500000920E-02 0.  1.
       -2    1    3    3    0  502  0.12003577207E+04 -0.70106017215E+03 -0.19341787689E+04  0.23818882284E+04  0.25500000920E-02 0. -1.
</event>
<event>
 5   0  0.2904500E-09  0.3885700E+04  0.7818609E-02  0.8028010E-01
        1   -1    0    0  501    0  0.00000000000E+00  0.00000000000E+00  0.22033006906E+04  0.22033006906E+04  0.50400001928E-02 0.  1.
       -1   -1    0    0    0  501  0.00000000000E+00  0.00000000000E+00 -0.17131866287E+04  0.17131866287E+04  0.50400001928E-02 0. -1.
    10030    2    1    2    0    0  0.00000000000E+00  0.00000000000E+00  0.49011406190E+03  0.39164873192E+04  0.38856995674E+04 0.  0.
        2    1    3    3  502    0 -0.51441821677E+03 -0.16165422010E+04  0.11995718797E+04  0.20776928271E+04  0.25500000920E-02 0.  1.
       -2    1    3    3    0  502  0.51441821677E+03  0.16165422010E+04 -0.70945781777E+03  0.18387944922E+04  0.25500000920E-02 0. -1.
</event>
<event>
 5   0  0.9277261E-09  0.3901616E+04  0.7818609E-02  0.8024693E-01
       -2   -1    0    0    0  501  0.00000000000E+00  0.00000000000E+00  0.16970873562E+04  0.16970873562E+04  0.25500000920E-02 0. -1.
        2   -1    0    0  501    0  0.00000000000E+00  0.00000000000E+00 -0.22424604414E+04  0.22424604414E+04  0.25500000920E-02 0.  1.
    10030    2    1    2    0    0  0.00000000000E+00  0.00000000000E+00 -0.54537308524E+03  0.39395477976E+04  0.39016156971E+04 0.  0.
        1    1    3    3  502    0 -0.17354481874E+04 -0.23241547435E+03  0.59582354559E+03  0.18495413110E+04  0.50400001928E-02 0. -1.
       -1    1    3    3    0  502  0.17354481874E+04  0.23241547435E+03 -0.11411966308E+04  0.20900064866E+04  0.50400001928E-02 0.  1.
</event>
<event>
 5   0  0.6335942E-09  0.3897361E+04  0.7818609E-02  0.8025578E-01
        2   -1    0    0  501    0  0.00000000000E+00  0.00000000000E+00  0.15529416164E+04  0.15529416164E+04  0.25500000920E-02 0. -1.
       -2   -1    0    0    0  501  0.00000000000E+00  0.00000000000E+00 -0.24452663482E+04  0.24452663482E+04  0.25500000920E-02 0.  1.
    10030    2    1    2    0    0  0.00000000000E+00  0.00000000000E+00 -0.89232473184E+03  0.39982079646E+04  0.38973610945E+04 0.  0.
        2    1    3    3  502    0 -0.12796227363E+04  0.13164670752E+04 -0.11163944887E+04  0.21486871717E+04  0.25500000920E-02 0.  1.
       -2    1    3    3    0  502  0.12796227363E+04 -0.13164670752E+04  0.22406975684E+03  0.18495207929E+04  0.25500000920E-02 0. -1.
</event>
<event>
 5   0  0.6335942E-09  0.3899954E+04  0.7818609E-02  0.8025039E-01
        2   -1    0    0  501    0  0.00000000000E+00  0.00000000000E+00  0.19648104757E+04  0.19648104757E+04  0.25500000920E-02 0.  1.
       -2   -1    0    0    0  501  0.00000000000E+00  0.00000000000E+00 -0.19352558261E+04  0.19352558261E+04  0.25500000920E-02 0. -1.
    10030    2    1    2    0    0  0.00000000000E+00  0.00000000000E+00  0.29554649609E+02  0.39000663018E+04  0.38999543179E+04 0.  0.
        2    1    3    3  502    0  0.99686112813E+03  0.13474724706E+04  0.10112981623E+04  0.19575847723E+04  0.25500000920E-02 0.  1.
       -2    1    3    3    0  502 -0.99686112813E+03 -0.13474724706E+04 -0.98174351268E+03  0.19424815295E+04  0.25500000920E-02 0. -1.
</event>
<event>
 5   0  0.2904500E-09  0.3900638E+04  0.7818609E-02  0.8024897E-01
       -1   -1    0    0    0  501  0.00000000000E+00  0.00000000000E+00  0.13701424343E+04  0.13701424343E+04  0.50400001928E-02 0. -1.
        1   -1    0    0  501    0  0.00000000000E+00  0.00000000000E+00 -0.27761663424E+04  0.27761663424E+04  0.50400001928E-02 0.  1.
    10030    2    1    2    0    0  0.00000000000E+00  0.00000000000E+00 -0.14060239081E+04  0.41463087767E+04  0.39006375429E+04 0.  0.
        2    1    3    3  502    0 -0.34605188152E+03 -0.79299794150E+03 -0.25609961079E+04  0.27032015657E+04  0.25500000920E-02 0.  1.
       -2    1    3    3    0  502  0.34605188152E+03  0.79299794150E+03  0.11549721999E+04  0.14431072110E+04  0.25500000920E-02 0. -1.
</event>
<event>
 5   0  0.2904500E-09  0.3900508E+04  0.7818609E-02  0.8024924E-01
        1   -1    0    0  501    0  0.00000000000E+00  0.00000000000E+00  0.19885724124E+04  0.19885724124E+04  0.50400001928E-02 0.  1.
       -1   -1    0    0    0  501  0.00000000000E+00  0.00000000000E+00 -0.19126737359E+04  0.19126737359E+04  0.50400001928E-02 0. -1.
    10030    2    1    2    0    0  0.00000000000E+00  0.00000000000E+00  0.75898676471E+02  0.39012461483E+04  0.39005077747E+04 0.  0.
        5    1    3    3  502    0 -0.17322410177E+04 -0.82707951607E+03  0.38261385435E+03  0.19573285164E+04  0.46999998093E+01 0.  1.
       -5    1    3    3    0  502  0.17322410177E+04  0.82707951607E+03 -0.30671517788E+03  0.19439176319E+04  0.46999998093E+01 0. -1.
</event>
<event>
 5   0  0.9434114E-09  0.3901933E+04  0.7818609E-02  0.8024627E-01
        2   -1    0    0  501    0  0.00000000000E+00  0.00000000000E+00  0.13611129688E+04  0.13611129688E+04  0.25500000920E-02 0.  1.
       -2   -1    0    0    0  501  0.00000000000E+00  0.00000000000E+00 -0.27964391689E+04  0.27964391689E+04  0.25500000920E-02 0. -1.
    10030    2    1    2    0    0  0.00000000000E+00  0.00000000000E+00 -0.14353262002E+04  0.41575521377E+04  0.39019326592E+04 0.  0.
        4    1    3    3  502    0 -0.55367346514E+03 -0.20516845936E+03  0.12636200231E+04  0.13947707978E+04  0.12699999809E+01 0.  1.
       -4    1    3    3    0  502  0.55367346514E+03  0.20516845936E+03 -0.26989462233E+04  0.27627813399E+04  0.12699999809E+01 0. -1.
</event>
<event>
 5   0  0.9078515E-09  0.3897691E+04  0.7818609E-02  0.8025510E-01
        2   -1    0    0  501    0  0.00000000000E+00  0.00000000000E+00  0.22021983415E+04  0.22021983415E+04  0.25500000920E-02 0. -1.
       -2   -1    0    0    0  501  0.00000000000E+00  0.00000000000E+00 -0.17246401081E+04  0.17246401081E+04  0.25500000920E-02 0.  1.
    10030    2    1    2    0    0  0.00000000000E+00  0.00000000000E+00  0.47755823343E+03  0.39268384496E+04  0.38976914120E+04 0.  0.
        3    1    3    3  502    0 -0.12431314857E+04  0.10314845628E+04  0.13371904525E+04  0.20970013377E+04  0.10100000352E+00 0. -1.
       -3    1    3    3    0  502  0.12431314857E+04 -0.10314845628E+04 -0.85963221905E+03  0.18298371119E+04  0.10100000352E+00 0.  1.
</event>
<event>
 5   0  0.9368546E-09  0.3898798E+04  0.7818609E-02  0.8025279E-01
        2   -1    0    0  501    0  0.00000000000E+00  0.00000000000E+00  0.22820243687E+04  0.22820243687E+04  0.25500000920E-02 0. -1.
       -2   -1    0    0    0  501  0.00000000000E+00  0.00000000000E+00 -0.16652565713E+04  0.16652565713E+04  0.25500000920E-02 0.  1.
    10030    2    1    2    0    0  0.00000000000E+00  0.00000000000E+00  0.61676779745E+03  0.39472809400E+04  0.38987978023E+04 0.  0.
        5    1    3    3  502    0 -0.21801122885E+03 -0.78088092960E+01  0.22696215770E+04  0.22800864163E+04  0.46999998093E+01 0. -1.
       -5    1    3    3    0  502  0.21801122885E+03  0.78088092960E+01 -0.16528537795E+04  0.16671945237E+04  0.46999998093E+01 0.  1.
</event>
<event>
 5   0  0.9078515E-09  0.3899846E+04  0.7818609E-02  0.8025061E-01
       -2   -1    0    0    0  501  0.00000000000E+00  0.00000000000E+00  0.13545831087E+04  0.13545831087E+04  0.25500000920E-02 0. -1.
        2   -1    0    0  501    0  0.00000000000E+00  0.00000000000E+00 -0.28069151976E+04  0.28069151976E+04  0.25500000920E-02 0.  1.
    10030    2    1    2    0    0  0.00000000000E+00  0.00000000000E+00 -0.14523320889E+04  0.41614983063E+04  0.38998461068E+04 0.  0.
        3    1    3    3  502    0 -0.10442741509E+04  0.12704507627E+04 -0.18441445504E+04  0.24709153720E+04  0.10100000352E+00 0. -1.
       -3    1    3    3    0  502  0.10442741509E+04 -0.12704507627E+04  0.39181246149E+03  0.16905829343E+04  0.10100000352E+00 0.  1.
</event>
<event>
 5   0  0.6335942E-09  0.3899382E+04  0.7818609E-02  0.8025158E-01
        2   -1    0    0  501    0  0.00000000000E+00  0.00000000000E+00  0.17122935540E+04  0.17122935540E+04  0.25500000920E-02 0.  1.
       -2   -1    0    0    0  501  0.00000000000E+00  0.00000000000E+00 -0.22200021867E+04  0.22200021867E+04  0.25500000920E-02 0. -1.
    10030    2    1    2    0    0  0.00000000000E+00  0.00000000000E+00 -0.50770863265E+03  0.39322957407E+04  0.38993822250E+04 0.  0.
        2    1    3    3  502    0  0.62252473790E+03 -0.14904929580E+04  0.84723600079E+03  0.18239833191E+04  0.25500000920E-02 0.  1.
       -2    1    3    3    0  502 -0.62252473790E+03  0.14904929580E+04 -0.13549446334E+04  0.21083124216E+04  0.25500000920E-02 0. -1.
</event>
<event>
 5   0  0.9078515E-09  0.3903857E+04  0.7818609E-02  0.8024227E-01
       -2   -1    0    0    0  501  0.00000000000E+00  0.00000000000E+00  0.13481625170E+04  0.13481625170E+04  0.25500000920E-02 0.  1.
        2   -1    0    0  501    0  0.00000000000E+00  0.00000000000E+00 -0.28260877106E+04  0.28260877106E+04  0.25500000920E-02 0. -1.
    10030    2    1    2    0    0  0.00000000000E+00  0.00000000000E+00 -0.14779251936E+04  0.41742502277E+04  0.39038573341E+04 0.  0.
        3    1    3    3  502    0 -0.10665943242E+04  0.20589393050E+03  0.99509381045E+03  0.14731691908E+04  0.10100000352E+00 0.  1.
       -3    1    3    3    0  502  0.10665943242E+04 -0.20589393050E+03 -0.24730190041E+04  0.27010810369E+04  0.10100000352E+00 0. -1.
</event>
<event>
 5   0  0.2904500E-09  0.3904941E+04  0.7818609E-02  0.8024002E-01
       -1   -1    0    0    0  501  0.00000000000E+00  0.00000000000E+00  0.24099340457E+04  0.24099340457E+04  0.50400001928E-02 0.  1.
        1   -1    0    0  501    0  0.00000000000E+00  0.00000000000E+00 -0.15818442678E+04  0.15818442679E+04  0.50400001928E-02 0. -1.
    10030    2    1    2    0    0  0.00000000000E+00  0.00000000000E+00  0.82808977788E+03  0.39917783136E+04  0.39049406429E+04 0.  0.
        3    1    3    3  502    0 -0.10424909090E+04  0.15145175747E+04  0.10856089494E+04  0.21352043416E+04  0.10100000352E+00 0.  1.
       -3    1    3    3    0  502  0.10424909090E+04 -0.15145175747E+04 -0.25751917150E+03  0.18565739719E+04  0.10100000352E+00 0. -1.
</event>
<event>
 5   0  0.2904500E-09  0.3900459E+04  0.7818609E-02  0.8024934E-01
        1   -1    0    0  501    0  0.00000000000E+00  0.00000000000E+00  0.16446912975E+04  0.16446912975E+04  0.50400001928E-02 0. -1.
       -1   -1    0    0    0  501  0.00000000000E+00  0.00000000000E+00 -0.23125279445E+04  0.23125279445E+04  0.50400001928E-02 0.  1.
    10030    2    1    2    0    0  0.00000000000E+00  0.00000000000E+00 -0.66783664699E+03  0.39572192420E+04  0.39004587348E+04 0.  0.
        5    1    3    3  502    0 -0.24268157441E+03  0.17970551196E+04 -0.10620467614E+04  0.21014915805E+04  0.46999998093E+01 0.  1.
       -5    1    3    3    0  502  0.24268157441E+03 -0.17970551196E+04  0.39421011437E+03  0.18557276615E+04  0.46999998093E+01 0. -1.
</event>
<event>
 5   0  0.9434114E-09  0.3900169E+04  0.7818609E-02  0.8024994E-01
       -2   -1    0    0    0  501  0.00000000000E+00  0.00000000000E+00  0.23297403625E+04  0.23297403625E+04  0.25500000920E-02 0.  1.
        2   -1    0    0  501    0  0.00000000000E+00  0.00000000000E+00 -0.16322975904E+04  0.16322975904E+04  0.25500000920E-02 0. -1.
    10030    2    1    2    0    0  0.00000000000E+00  0.00000000000E+00  0.69744277208E+03  0.39620379529E+04  0.39001690117E+04 0.  0.
        4    1    3    3  502    0  0.12942216146E+04  0.73945414428E+03 -0.92861329192E+03  0.17561680666E+04  0.12699999809E+01 0. -1.
       -4    1    3    3    0  502 -0.12942216146E+04 -0.73945414428E+03  0.16260560640E+04  0.22058698863E+04  0.12699999809E+01 0.  1.
</event>
<event>
 5   0  0.2904500E-09  0.3897643E+04  0.7818609E-02  0.8025520E-01
       -1   -1    0    0    0  501  0.00000000000E+00  0.00000000000E+00  0.32887602936E+04  0.32887602936E+04  0.50400001928E-02 0. -1.
        1   -1    0    0  501    0  0.00000000000E+00  0.00000000000E+00 -0.11548136072E+04  0.11548136072E+04  0.50400001928E-02 0.  1.
    10030    2    1    2    0    0  0.00000000000E+00  0.00000000000E+00  0.21339466864E+04  0.44435739008E+04  0.38976429481E+04 0.  0.
        2    1    3    3  502    0 -0.10169250491E+03  0.17928509888E+04  0.20379199486E+03  0.18072595859E+04  0.25500000920E-02 0.  1.
       -2    1    3    3    0  502  0.10169250491E+03 -0.17928509888E+04  0.19301546916E+04  0.26363143149E+04  0.25500000920E-02 0. -1.
</event>
<event>
 5   0  0.6335942E-09  0.3896572E+04  0.7818609E-02  0.8025743E-01
        2   -1    0    0  501    0  0.00000000000E+00  0.00000000000E+00  0.21769654380E+04  0.21769654380E+04  0.25500000920E-02 0. -1.
       -2   -1    0    0    0  501  0.00000000000E+00  0.00000000000E+00 -0.17436281058E+04  0.17436281058E+04  0.25500000920E-02 0.  1.
    10030    2    1    2    0    0  0.00000000000E+00  0.00000000000E+00  0.43333733212E+03  0.39205935438E+04  0.38965718898E+04 0.  0.
        2    1    3    3  502    0 -0.22071899909E+03 -0.35035924651E+03 -0.16988402207E+04  0.17485784437E+04  0.25500000920E-02 0.  1.
       -2    1    3    3    0  502  0.22071899909E+03  0.35035924651E+03  0.21321775528E+04  0.21720151001E+04  0.25500000920E-02 0. -1.
</event>
<event>
 5   0  0.2929054E-09  0.3899705E+04  0.7818609E-02  0.8025091E-01
       -1   -1    0    0    0  501  0.00000000000E+00  0.00000000000E+00  0.19175399281E+04  0.19175399281E+04  0.50400001928E-02 0. -1.
        1   -1    0    0  501    0  0.00000000000E+00  0.00000000000E+00 -0.19827096387E+04  0.19827096387E+04  0.50400001928E-02 0.  1.
    10030    2    1    2    0    0  0.00000000000E+00  0.00000000000E+00 -0.65169710590E+02  0.39002495667E+04  0.38997050647E+04 0.  0.
        1    1    3    3  502    0 -0.95020555943E+03 -0.42297141220E+03  0.16169269314E+04  0.19225629046E+04  0.50400001928E-02 0. -1.
       -1    1    3    3    0  502  0.95020555943E+03  0.42297141220E+03 -0.16820966420E+04  0.19776866621E+04  0.50400001928E-02 0.  1.
</event>
<event>
 5   0  0.9434114E-09  0.3899696E+04  0.7818609E-02  0.8025093E-01
       -2   -1    0    0    0  501  0.00000000000E+00  0.00000000000E+00  0.12087624124E+04  0.12087624124E+04  0.25500000920E-02 0. -1.
        2   -1    0    0  501    0  0.00000000000E+00  0.00000000000E+00 -0.31452883332E+04  0.31452883332E+04  0.25500000920E-02 0.  1.
    10030    2    1    2    0    0  0.00000000000E+00  0.00000000000E+00 -0.19365259208E+04  0.43540507455E+04  0.38996955333E+04 0.  0.
        4    1    3    3  502    0 -0.83356698253E+03 -0.29400891897E+03 -0.29087534475E+04  0.30400860826E+04  0.12699999809E+01 0.  1.
       -4    1    3    3    0  502  0.83356698253E+03  0.29400891897E+03  0.97222752667E+03  0.13139646629E+04  0.12699999809E+01 0. -1.
</event>
<event>
 5   0  0.2904500E-09  0.3899180E+04  0.7818609E-02  0.8025200E-01
       -1   -1    0    0    0  501  0.00000000000E+00  0.00000000000E+00  0.17550116883E+04  0.17550116883E+04  0.50400001928E-02 0.  1.
        1   -1    0    0  501    0  0.00000000000E+00  0.00000000000E+00 -0.21657415649E+04  0.21657415649E+04  0.50400001928E-02 0. -1.
    10030    2    1    2    0    0  0.00000000000E+00  0.00000000000E+00 -0.41072987662E+03  0.39207532532E+04  0.38991803037E+04 0.  0.
        4    1    3    3  502    0  0.58900301038E+03 -0.18573984779E+04 -0.14140092420E+03  0.19536758908E+04  0.12699999809E+01 0.  1.
       -4    1    3    3    0  502 -0.58900301038E+03  0.18573984779E+04 -0.26932895242E+03  0.19670773624E+04  0.12699999809E+01 0. -1.
</event>
<event>
 5   0  0.9368546E-09  0.3900351E+04  0.7818609E-02  0.8024956E-01
        2   -1    0    0  501    0  0.00000000000E+00  0.00000000000E+00  0.19595847517E+04  0.19595847517E+04  0.25500000920E-02 0.  1.
       -2   -1    0    0    0  501  0.00000000000E+00  0.00000000000E+00 -0.19408118122E+04  0.19408118122E+04  0.25500000920E-02 0. -1.
    10030    2    1    2    0    0  0.00000000000E+00  0.00000000000E+00  0.18772939526E+02  0.39003965639E+04  0.39003513857E+04 0.  0.
        5    1    3    3  502    0  0.16453994654E+04  0.30190912298E+03  0.10117326666E+04  0.19550226592E+04  0.46999998093E+01 0.  1.
       -5    1    3    3    0  502 -0.16453994654E+04 -0.30190912298E+03 -0.99295972708E+03  0.19453739047E+04  0.46999998093E+01 0. -1.
</event>
<event>
 5   0  0.2904500E-09  0.3900043E+04  0.7818609E-02  0.8025020E-01
        1   -1    0    0  501    0  0.00000000000E+00  0.00000000000E+00  0.19542092272E+04  0.19542092272E+04  0.50400001928E-02 0.  1.
       -1   -1    0    0    0  501  0.00000000000E+00  0.00000000000E+00 -0.19458431226E+04  0.19458431226E+04  0.50400001928E-02 0. -1.
    10030    2    1    2    0    0  0.00000000000E+00  0.00000000000E+00  0.83661045253E+01  0.39000523498E+04  0.39000433766E+04 0.  0.
        2    1    3    3  502    0  0.43008351526E+03 -0.16030945600E+04 -0.10193917655E+04  0.19478304777E+04  0.25500000920E-02 0. -1.
       -2    1    3    3    0  502 -0.43008351526E+03  0.16030945600E+04  0.10277578700E+04  0.19522218721E+04  0.25500000920E-02 0.  1.
</event>
<event>
 5   0  0.2904500E-09  0.3899439E+04  0.7818609E-02  0.8025146E-01
       -1   -1    0    0    0  501  0.00000000000E+00  0.00000000000E+00  0.20298793361E+04  0.20298793361E+04  0.50400001928E-02 0.  1.
        1   -1    0    0  501    0  0.00000000000E+00  0.00000000000E+00 -0.18727252081E+04  0.18727252081E+04  0.50400001928E-02 0. -1.
    10030    2    1    2    0    0  0.00000000000E+00  0.00000000000E+00  0.15715412800E+03  0.39026045443E+04  0.38994390377E+04 0.  0.
        3    1    3    3  502    0 -0.45507315088E+03  0.17405032202E+04  0.83082754722E+03  0.19815946749E+04  0.10100000352E+00 0.  1.
       -3    1    3    3    0  502  0.45507315088E+03 -0.17405032202E+04 -0.67367341923E+03  0.19210098694E+04  0.10100000352E+00 0. -1.
</event>
<event>
 5   0  0.9434114E-09  0.3899385E+04  0.7818609E-02  0.8025157E-01
        2   -1    0    0  501    0  0.00000000000E+00  0.00000000000E+00  0.20407034753E+04  0.20407034753E+04  0.25500000920E-02 0. -1.
       -2   -1    0    0    0  501  0.00000000000E+00  0.00000000000E+00 -0.18627408809E+04  0.18627408809E+04  0.25500000920E-02 0.  1.
    10030    2    1    2    0    0  0.00000000000E+00  0.00000000000E+00  0.17796259441E+03  0.39034443562E+04  0.38993854846E+04 0.  0.
        4    1    3    3  502    0  0.71727782250E+03  0.18098040364E+04  0.19596654075E+03  0.19565997605E+04  0.12699999809E+01 0. -1.
       -4    1    3    3    0  502 -0.71727782250E+03 -0.18098040364E+04 -0.18003946341E+02  0.19468445957E+04  0.12699999809E+01 0.  1.
</event>
<event>
 5   0  0.2904500E-09  0.3899287E+04  0.7818609E-02  0.8025177E-01
       -1   -1    0    0    0  501  0.00000000000E+00  0.00000000000E+00  0.15741741054E+04  0.15741741054E+04  0.50400001928E-02 0.  1.
        1   -1    0    0  501    0  0.00000000000E+00  0.00000000000E+00 -0.24146695789E+04  0.24146695789E+04  0.50400001928E-02 0. -1.
    10030    2    1    2    0    0  0.00000000000E+00  0.00000000000E+00 -0.84049547350E+03  0.39888436842E+04  0.38992872806E+04 0.  0.
        3    1    3    3  502    0 -0.55333010548E+03 -0.60655116498E+03 -0.22292034420E+04  0.23755897199E+04  0.10100000352E+00 0. -1.
       -3    1    3    3    0  502  0.55333010548E+03  0.60655116498E+03  0.13887079685E+04  0.16132539643E+04  0.10100000352E+00 0.  1.
</event>
<event>
 5   0  0.9277261E-09  0.3903123E+04  0.7818609E-02  0.8024380E-01
        2   -1    0    0  501    0  0.00000000000E+00  0.00000000000E+00  0.20384973613E+04  0.20384973613E+04  0.25500000920E-02 0.  1.
       -2   -1    0    0    0  501  0.00000000000E+00  0.00000000000E+00 -0.18683333083E+04  0.18683333083E+04  0.25500000920E-02 0. -1.
    10030    2    1    2    0    0  0.00000000000E+00  0.00000000000E+00  0.17016405301E+03  0.39068306696E+04  0.39031231182E+04 0.  0.
        1    1    3    3  502    0  0.14930720550E+04  0.56871756919E+03 -0.10366468793E+04  0.19045578457E+04  0.50400001928E-02 0.  1.
       -1    1    3    3    0  502 -0.14930720550E+04 -0.56871756919E+03  0.12068109323E+04  0.20022728239E+04  0.50400001928E-02 0. -1.
</event>
<event>
 5   0  0.2904500E-09  0.3900326E+04  0.7818609E-02  0.8024961E-01
       -1   -1    0    0    0  501  0.00000000000E+00  0.00000000000E+00  0.28316325517E+04  0.28316325517E+04  0.50400001928E-02 0. -1.
        1   -1    0    0  501    0  0.00000000000E+00  0.00000000000E+00 -0.13430894701E+04  0.13430894701E+04  0.50400001928E-02 0.  1.
    10030    2    1    2    0    0  0.00000000000E+00  0.00000000000E+00  0.14885430817E+04  0.41747220218E+04  0.39003260702E+04 0.  0.
        3    1    3    3  502    0  0.55829512279E+03 -0.41650144761E+03 -0.12054060764E+04  0.13921819994E+04  0.10100000352E+00 0.  1.
       -3    1    3    3    0  502 -0.55829512279E+03  0.41650144761E+03  0.26939491581E+04  0.27825400225E+04  0.10100000352E+00 0. -1.
</event>
<event>
 5   0  0.2904500E-09  0.3900665E+04  0.7818609E-02  0.8024891E-01
        1   -1    0    0  501    0  0.00000000000E+00  0.00000000000E+00  0.10141749158E+04  0.10141749159E+04  0.50400001928E-02 0. -1.
       -1   -1    0    0    0  501  0.00000000000E+00  0.00000000000E+00 -0.37506317223E+04  0.37506317224E+04  0.50400001928E-02 0.  1.
    10030    2    1    2    0    0  0.00000000000E+00  0.00000000000E+00 -0.27364568065E+04  0.47648066382E+04  0.39006648723E+04 0.  0.
        5    1    3    3  502    0  0.92907133214E+02  0.81059437715E+03 -0.35321355220E+04  0.36251480543E+04  0.46999998093E+01 0.  1.
       -5    1    3    3    0  502 -0.92907133214E+02 -0.81059437715E+03  0.79567871549E+03  0.11396585839E+04  0.46999998093E+01 0. -1.
</event>
<event>
 5   0  0.6335942E-09  0.3904871E+04  0.7818609E-02  0.8024017E-01
       -2   -1    0    0    0  501  0.00000000000E+00  0.00000000000E+00  0.12268483153E+04  0.12268483154E+04  0.25500000920E-02 0. -1.
        2   -1    0    0  501    0  0.00000000000E+00  0.00000000000E+00 -0.31071514551E+04  0.31071514551E+04  0.25500000920E-02 0.  1.
    10030    2    1    2    0    0  0.00000000000E+00  0.00000000000E+00 -0.18803031397E+04  0.43339997704E+04  0.39048705629E+04 0.  0.
        2    1    3    3  502    0 -0.17370464262E+04  0.15200364039E+03 -0.19150724749E+04  0.25899687213E+04  0.25500000920E-02 0. -1.
       -2    1    3    3    0  502  0.17370464262E+04 -0.15200364039E+03  0.34769335140E+02  0.17440310491E+04  0.25500000920E-02 0.  1.
</event>
<event>
 5   0  0.6335942E-09  0.3896058E+04  0.7818609E-02  0.8025849E-01
       -2   -1    0    0    0  501  0.00000000000E+00  0.00000000000E+00  0.17522832398E+04  0.17522832398E+04  0.25500000920E-02 0.  1.
        2   -1    0    0  501    0  0.00000000000E+00  0.00000000000E+00 -0.21656417853E+04  0.21656417853E+04  0.25500000920E-02 0. -1.
    10030    2    1    2    0    0  0.00000000000E+00  0.00000000000E+00 -0.41335854556E+03  0.39179250251E+04  0.38960584204E+04 0.  0.
        2    1    3    3  502    0 -0.91641215613E+03 -0.16695616172E+04  0.20497206801E+03  0.19155314621E+04  0.25500000920E-02 0. -1.
       -2    1    3    3    0  502  0.91641215613E+03  0.16695616172E+04 -0.61833061357E+03  0.20023935630E+04  0.25500000920E-02 0.  1.
</event>
<event>
 5   0  0.2904500E-09  0.3890898E+04  0.7818609E-02  0.8026925E-01
        1   -1    0    0  501    0  0.00000000000E+00  0.00000000000E+00  0.18642575890E+04  0.18642575891E+04  0.50400001928E-02 0.  1.
       -1   -1    0    0    0  501  0.00000000000E+00  0.00000000000E+00 -0.20301759108E+04  0.20301759108E+04  0.50400001928E-02 0. -1.
    10030    2    1    2    0    0  0.00000000000E+00  0.00000000000E+00 -0.16591832173E+03  0.38944334998E+04  0.38908975051E+04 0.  0.
        4    1    3    3  502    0 -0.46248161990E+03  0.15273131803E+04 -0.11967122608E+04  0.19946670518E+04  0.12699999809E+01 0. -1.
       -4    1    3    3    0  502  0.46248161990E+03 -0.15273131803E+04  0.10307939391E+04  0.18997664480E+04  0.12699999809E+01 0.  1.
</event>
<event>
 5   0  0.2904500E-09  0.3901256E+04  0.7818609E-02  0.8024768E-01
       -3   -1    0    0    0  501  0.00000000000E+00  0.00000000000E+00  0.18186442582E+04  0.18186442610E+04  0.10100000352E+00 0.  1.
        3   -1    0    0  501    0  0.00000000000E+00  0.00000000000E+00 -0.20921896366E+04  0.20921896390E+04  0.10100000352E+00 0. -1.
    10030    2    1    2    0    0  0.00000000000E+00  0.00000000000E+00 -0.27354537838E+03  0.39108339000E+04  0.39012555312E+04 0.  0.
        5    1    3    3  502    0 -0.59469512913E+03  0.51989116073E+03  0.16511357344E+04  0.18303607347E+04  0.46999998093E+01 0.  1.
       -5    1    3    3    0  502  0.59469512913E+03 -0.51989116073E+03 -0.19246811128E+04  0.20804731653E+04  0.46999998093E+01 0. -1.
</event>
<event>
 5   0  0.9078515E-09  0.3900384E+04  0.7818609E-02  0.8024949E-01
        2   -1    0    0  501    0  0.00000000000E+00  0.00000000000E+00  0.27147226054E+04  0.27147226054E+04  0.25500000920E-02 0.  1.
       -2   -1    0    0    0  501  0.00000000000E+00  0.00000000000E+00 -0.14009714584E+04  0.14009714584E+04  0.25500000920E-02 0. -1.
    10030    2    1    2    0    0  0.00000000000E+00  0.00000000000E+00  0.13137511470E+04  0.41156940638E+04  0.39003840261E+04 0.  0.
        3    1    3    3  502    0 -0.36183611280E+03 -0.15445214224E+04 -0.54010574890E+03  0.16757643113E+04  0.10100000352E+00 0. -1.
       -3    1    3    3    0  502  0.36183611280E+03  0.15445214224E+04  0.18538568959E+04  0.24399297526E+04  0.10100000352E+00 0.  1.
</event>
<event>
 5   0  0.2904500E-09  0.3899518E+04  0.7818609E-02  0.8025130E-01
        1   -1    0    0  501    0  0.00000000000E+00  0.00000000000E+00  0.27588946300E+04  0.27588946300E+04  0.50400001928E-02 0. -1.
       -1   -1    0    0    0  501  0.00000000000E+00  0.00000000000E+00 -0.13779284160E+04  0.13779284160E+04  0.50400001928E-02 0.  1.
    10030    2    1    2    0    0  0.00000000000E+00  0.00000000000E+00  0.13809662140E+04  0.41368230461E+04  0.38995175638E+04 0.  0.
        4    1    3    3  502    0 -0.18340485176E+04  0.58861447368E+03  0.10111294853E+04  0.21754506229E+04  0.12699999809E+01 0.  1.
       -4    1    3    3    0  502  0.18340485176E+04 -0.58861447368E+03  0.36983672868E+03  0.19613724232E+04  0.12699999809E+01 0. -1.
</event>
<event>
 5   0  0.6335942E-09  0.3901012E+04  0.7818609E-02  0.8024819E-01
       -2   -1    0    0    0  501  0.00000000000E+00  0.00000000000E+00  0.17055999577E+04  0.17055999577E+04  0.25500000920E-02 0. -1.
        2   -1    0    0  501    0  0.00000000000E+00  0.00000000000E+00 -0.22305783861E+04  0.22305783861E+04  0.25500000920E-02 0.  1.
    10030    2    1    2    0    0  0.00000000000E+00  0.00000000000E+00 -0.52497842845E+03  0.39361783438E+04  0.39010123819E+04 0.  0.
        2    1    3    3  502    0  0.42730772663E+03  0.17227421628E+04  0.55352972883E+03  0.18592545854E+04  0.25500000920E-02 0. -1.
       -2    1    3    3    0  502 -0.42730772663E+03 -0.17227421628E+04 -0.10785081573E+04  0.20769237584E+04  0.25500000920E-02 0.  1.
</event>
<event>
 5   0  0.2904500E-09  0.3924923E+04  0.7818609E-02  0.8019866E-01
        1   -1    0    0  501    0  0.00000000000E+00  0.00000000000E+00  0.30282562619E+04  0.30282562619E+04  0.50400001928E-02 0. -1.
       -1   -1    0    0    0  501  0.00000000000E+00  0.00000000000E+00 -0.12717731003E+04  0.12717731003E+04  0.50400001928E-02 0.  1.
    10030    2    1    2    0    0  0.00000000000E+00  0.00000000000E+00  0.17564831615E+04  0.43000293622E+04  0.39249228552E+04 0.  0.
        2    1    3    3  502    0 -0.17341030908E+04  0.90780099807E+03  0.72315480113E+03  0.20866645748E+04  0.25500000920E-02 0.  1.
       -2    1    3    3    0  502  0.17341030908E+04 -0.90780099807E+03  0.10333283604E+04  0.22133647874E+04  0.25500000920E-02 0. -1.
</event>
<event>
 5   0  0.2904500E-09  0.3902632E+04  0.7818609E-02  0.8024482E-01
        1   -1    0    0  501    0  0.00000000000E+00  0.00000000000E+00  0.13815571906E+04  0.13815571906E+04  0.50400001928E-02 0.  1.
       -1   -1    0    0    0  501  0.00000000000E+00  0.00000000000E+00 -0.27560447886E+04  0.27560447886E+04  0.50400001928E-02 0. -1.
    10030    2    1    2    0    0  0.00000000000E+00  0.00000000000E+00 -0.13744875980E+04  0.41376019793E+04  0.39026316739E+04 0.  0.
        2    1    3    3  502    0 -0.77513928197E+03  0.15394071287E+04  0.28272690553E+03  0.17465822962E+04  0.25500000920E-02 0.  1.
       -2    1    3    3    0  502  0.77513928197E+03 -0.15394071287E+04 -0.16572145035E+04  0.23910196831E+04  0.25500000920E-02 0. -1.
</event>
<event>
 5   0  0.6335942E-09  0.3898048E+04  0.7818609E-02  0.8025435E-01
       -2   -1    0    0    0  501  0.00000000000E+00  0.00000000000E+00  0.34155797526E+04  0.34155797526E+04  0.25500000920E-02 0.  1.
        2   -1    0    0  501    0  0.00000000000E+00  0.00000000000E+00 -0.11121670883E+04  0.11121670883E+04  0.25500000920E-02 0. -1.
    10030    2    1    2    0    0  0.00000000000E+00  0.00000000000E+00  0.23034126642E+04  0.45277468409E+04  0.38980484289E+04 0.  0.
        2    1    3    3  502    0 -0.51445932711E+03  0.54761595830E+03 -0.93717883272E+03  0.12011893279E+04  0.25500000920E-02 0. -1.
       -2    1    3    3    0  502  0.51445932711E+03 -0.54761595830E+03  0.32405914970E+04  0.33265575130E+04  0.25500000920E-02 0.  1.
</event>
<event>
 5   0  0.2904500E-09  0.3899030E+04  0.7818609E-02  0.8025231E-01
        1   -1    0    0  501    0  0.00000000000E+00  0.00000000000E+00  0.27974994304E+04  0.27974994304E+04  0.50400001928E-02 0.  1.
       -1   -1    0    0    0  501  0.00000000000E+00  0.00000000000E+00 -0.13585732989E+04  0.13585732989E+04  0.50400001928E-02 0. -1.
    10030    2    1    2    0    0  0.00000000000E+00  0.00000000000E+00  0.14389261316E+04  0.41560727293E+04  0.38990296381E+04 0.  0.
        5    1    3    3  502    0  0.16886450123E+03 -0.18109660545E+04  0.14674907467E+04  0.23370204218E+04  0.46999998093E+01 0. -1.
       -5    1    3    3    0  502 -0.16886450123E+03  0.18109660545E+04 -0.28564615120E+02  0.18190523075E+04  0.46999998093E+01 0.  1.
</event>
<event>
 5   0  0.2904500E-09  0.3894197E+04  0.7818609E-02  0.8026237E-01
       -1   -1    0    0    0  501  0.00000000000E+00  0.00000000000E+00  0.15905543720E+04  0.15905543720E+04  0.50400001928E-02 0.  1.
        1   -1    0    0  501    0  0.00000000000E+00  0.00000000000E+00 -0.23835668160E+04  0.23835668160E+04  0.50400001928E-02 0. -1.
    10030    2    1    2    0    0  0.00000000000E+00  0.00000000000E+00 -0.79301244396E+03  0.39741211880E+04  0.38941970264E+04 0.  0.
        4    1    3    3  502    0 -0.98179012610E+03  0.17455949815E+02  0.13193627738E+04  0.16446690560E+04  0.12699999809E+01 0.  1.
       -4    1    3    3    0  502  0.98179012610E+03 -0.17455949815E+02 -0.21123752178E+04  0.23294521320E+04  0.12699999809E+01 0. -1.
</event>
<event>
 5   0  0.2904500E-09  0.3900173E+04  0.7818609E-02  0.8024993E-01
       -1   -1    0    0    0  501  0.00000000000E+00  0.00000000000E+00  0.23182676213E+04  0.23182676213E+04  0.50400001928E-02 0. -1.
        1   -1    0    0  501    0  0.00000000000E+00  0.00000000000E+00 -0.16403788847E+04  0.16403788847E+04  0.50400001928E-02 0.  1.
    10030    2    1    2    0    0  0.00000000000E+00  0.00000000000E+00  0.67788873654E+03  0.39586465060E+04  0.39001729475E+04 0.  0.
        5    1    3    3  502    0 -0.13609051777E+04 -0.64998859590E+02  0.17550417465E+04  0.22218193842E+04  0.46999998093E+01 0. -1.
       -5    1    3    3    0  502  0.13609051777E+04  0.64998859590E+02 -0.10771530099E+04  0.17368271218E+04  0.46999998093E+01 0.  1.
</event>
<event>
 5   0  0.6335942E-09  0.3893716E+04  0.7818609E-02  0.8026337E-01
        2   -1    0    0  501    0  0.00000000000E+00  0.00000000000E+00  0.20953292330E+04  0.20953292330E+04  0.25500000920E-02 0.  1.
       -2   -1    0    0    0  501  0.00000000000E+00  0.00000000000E+00 -0.18089072457E+04  0.18089072457E+04  0.25500000920E-02 0. -1.
    10030    2    1    2    0    0  0.00000000000E+00  0.00000000000E+00  0.28642198734E+03  0.39042364787E+04  0.38937160820E+04 0.  0.
        2    1    3    3  502    0  0.45910027704E+03  0.14419838060E+04 -0.10849109024E+04  0.18620209525E+04  0.25500000920E-02 0. -1.
       -2    1    3    3    0  502 -0.45910027704E+03 -0.14419838060E+04  0.13713328898E+04  0.20422155263E+04  0.25500000920E-02 0.  1.
</event>
<event>
 5   0  0.6335942E-09  0.3899643E+04  0.7818609E-02  0.8025103E-01
       -2   -1    0    0    0  501  0.00000000000E+00  0.00000000000E+00  0.20430379613E+04  0.20430379613E+04  0.25500000920E-02 0.  1.
        2   -1    0    0  501    0  0.00000000000E+00  0.00000000000E+00 -0.18608585048E+04  0.18608585048E+04  0.25500000920E-02 0. -1.
    10030    2    1    2    0    0  0.00000000000E+00  0.00000000000E+00  0.18217945653E+03  0.39038964661E+04  0.38996433508E+04 0.  0.
        2    1    3    3  502    0  0.32760396215E+03 -0.17626333704E+04 -0.67629950877E+03  0.19161372029E+04  0.25500000920E-02 0. -1.
       -2    1    3    3    0  502 -0.32760396215E+03  0.17626333704E+04  0.85847896530E+03  0.19877592632E+04  0.25500000920E-02 0.  1.
</event>
<event>
 5   0  0.2904500E-09  0.3899069E+04  0.7818609E-02  0.8025223E-01
       -1   -1    0    0    0  501  0.00000000000E+00  0.00000000000E+00  0.25953452724E+04  0.25953452724E+04  0.50400001928E-02 0. -1.
        1   -1    0    0  501    0  0.00000000000E+00  0.00000000000E+00 -0.14644235369E+04  0.14644235369E+04  0.50400001928E-02 0.  1.
    10030    2    1    2    0    0  0.00000000000E+00  0.00000000000E+00  0.11309217355E+04  0.40597688092E+04  0.38990689674E+04 0.  0.
        4    1    3    3  502    0  0.29923735683E+03  0.15453745802E+04  0.17630651274E+04  0.23634986451E+04  0.12699999809E+01 0. -1.
       -4    1    3    3    0  502 -0.29923735683E+03 -0.15453745802E+04 -0.63214339188E+03  0.16962701641E+04  0.12699999809E+01 0.  1.
</event>
<event>
 5   0  0.9078515E-09  0.3900163E+04  0.7818609E-02  0.8024995E-01
        2   -1    0    0  501    0  0.00000000000E+00  0.00000000000E+00  0.23859908332E+04  0.23859908332E+04  0.25500000920E-02 0.  1.
       -2   -1    0    0    0  501  0.00000000000E+00  0.00000000000E+00 -0.15938105613E+04  0.15938105613E+04  0.25500000920E-02 0. -1.
    10030    2    1    2    0    0  0.00000000000E+00  0.00000000000E+00  0.79218027191E+03  0.39798013946E+04  0.39001627603E+04 0.  0.
        3    1    3    3  502    0 -0.22498253994E+03 -0.10646327566E+03  0.23697155702E+04  0.23827512388E+04  0.10100000352E+00 0.  1.
       -3    1    3    3    0  502  0.22498253994E+03  0.10646327566E+03 -0.15775352983E+04  0.15970501557E+04  0.10100000352E+00 0. -1.
</event>
<event>
 5   0  0.9277261E-09  0.3899249E+04  0.7818609E-02  0.8025185E-01
       -2   -1    0    0    0  501  0.00000000000E+00  0.00000000000E+00  0.18504679725E+04  0.18504679725E+04  0.25500000920E-02 0. -1.
        2   -1    0    0  501    0  0.00000000000E+00  0.00000000000E+00 -0.20540942384E+04  0.20540942384E+04  0.25500000920E-02 0.  1.
    10030    2    1    2    0    0  0.00000000000E+00  0.00000000000E+00 -0.20362626586E+03  0.39045622109E+04  0.38992489537E+04 0.  0.
        1    1    3    3  502    0  0.68574564544E+03 -0.16354180106E+04  0.70935021261E+03  0.19099782417E+04  0.50400001928E-02 0. -1.
       -1    1    3    3    0  502 -0.68574564544E+03  0.16354180106E+04 -0.91297647847E+03  0.19945839692E+04  0.50400001928E-02 0.  1.
</event>
<event>
 5   0  0.9434114E-09  0.3900773E+04  0.7818609E-02  0.8024868E-01
        2   -1    0    0  501    0  0.00000000000E+00  0.00000000000E+00  0.30989016668E+04  0.30989016668E+04  0.25500000920E-02 0.  1.
       -2   -1    0    0    0  501  0.00000000000E+00  0.00000000000E+00 -0.12275342039E+04  0.12275342039E+04  0.25500000920E-02 0. -1.
    10030    2    1    2    0    0  0.00000000000E+00  0.00000000000E+00  0.18713674629E+04  0.43264358706E+04  0.39007731492E+04 0.  0.
        4    1    3    3  502    0  0.18898466362E+04 -0.43352611855E+03  0.11697611016E+04  0.22644663503E+04  0.12699999809E+01 0. -1.
       -4    1    3    3    0  502 -0.18898466362E+04  0.43352611855E+03  0.70160636132E+03  0.20619695204E+04  0.12699999809E+01 0.  1.
</event>
<event>
 5   0  0.2904500E-09  0.3890642E+04  0.7818609E-02  0.8026978E-01
       -1   -1    0    0    0  501  0.00000000000E+00  0.00000000000E+00  0.17057597990E+04  0.17057597991E+04  0.50400001928E-02 0.  1.
        1   -1    0    0  501    0  0.00000000000E+00  0.00000000000E+00 -0.22185263414E+04  0.22185263414E+04  0.50400001928E-02 0. -1.
    10030    2    1    2    0    0  0.00000000000E+00  0.00000000000E+00 -0.51276654237E+03  0.39242861405E+04  0.38906416162E+04 0.  0.
        2    1    3    3  502    0  0.11340756880E+04 -0.14789112367E+04  0.30608307760E+03  0.18886484487E+04  0.25500000920E-02 0.  1.
       -2    1    3    3    0  502 -0.11340756880E+04  0.14789112367E+04 -0.81884961997E+03  0.20356376918E+04  0.25500000920E-02 0. -1.
</event>
<event>
 5   0  0.2904500E-09  0.3901302E+04  0.7818609E-02  0.8024758E-01
        1   -1    0    0  501    0  0.00000000000E+00  0.00000000000E+00  0.26600575759E+04  0.26600575759E+04  0.50400001928E-02 0. -1.
       -1   -1    0    0    0  501  0.00000000000E+00  0.00000000000E+00 -0.14304351217E+04  0.14304351217E+04  0.50400001928E-02 0.  1.
    10030    2    1    2    0    0  0.00000000000E+00  0.00000000000E+00  0.12296224542E+04  0.40904926976E+04  0.39013022350E+04 0.  0.
        4    1    3    3  502    0 -0.67954038038E+03 -0.16875399814E+04  0.13528437811E+04  0.22671026061E+04  0.12699999809E+01 0. -1.
       -4    1    3    3    0  502  0.67954038038E+03  0.16875399814E+04 -0.12322132687E+03  0.18233900915E+04  0.12699999809E+01 0.  1.
</event>
<event>
 5   0  0.9078515E-09  0.3901751E+04  0.7818609E-02  0.8024665E-01
        2   -1    0    0  501    0  0.00000000000E+00  0.00000000000E+00  0.27055773629E+04  0.27055773629E+04  0.25500000920E-02 0.  1.
       -2   -1    0    0    0  501  0.00000000000E+00  0.00000000000E+00 -0.14066925308E+04  0.14066925309E+04  0.25500000920E-02 0. -1.
    10030    2    1    2    0    0  0.00000000000E+00  0.00000000000E+00  0.12988848321E+04  0.41122698938E+04  0.39017511289E+04 0.  0.
        3    1    3    3  502    0 -0.12733323800E+04  0.67776929919E+03  0.20337667524E+04  0.24933819977E+04  0.10100000352E+00 0.  1.
       -3    1    3    3    0  502  0.12733323800E+04 -0.67776929919E+03 -0.73488192040E+03  0.16188878961E+04  0.10100000352E+00 0. -1.
</event>
<event>
 5   0  0.2904500E-09  0.3902908E+04  0.7818609E-02  0.8024425E-01
       -1   -1    0    0    0  501  0.00000000000E+00  0.00000000000E+00  0.23758545746E+04  0.23758545746E+04  0.50400001928E-02 0. -1.
        1   -1    0    0  501    0  0.00000000000E+00  0.00000000000E+00 -0.16028644116E+04  0.16028644116E+04  0.50400001928E-02 0.  1.
    10030    2    1    2    0    0  0.00000000000E+00  0.00000000000E+00  0.77299016302E+03  0.39787189862E+04  0.39029080157E+04 0.  0.
        4    1    3    3  502    0  0.49980732378E+03 -0.16808376248E+04 -0.48637773784E+03  0.18197767441E+04  0.12699999809E+01 0.  1.
       -4    1    3    3    0  502 -0.49980732378E+03  0.16808376248E+04  0.12593679009E+04  0.21589422420E+04  0.12699999809E+01 0. -1.
</event>
<event>
 5   0  0.9277261E-09  0.3900270E+04  0.7818609E-02  0.8024973E-01
        2   -1    0    0  501    0  0.00000000000E+00  0.00000000000E+00  0.13720387937E+04  0.13720387937E+04  0.25500000920E-02 0. -1.
       -2   -1    0    0    0  501  0.00000000000E+00  0.00000000000E+00 -0.27718070405E+04  0.27718070405E+04  0.25500000920E-02 0.  1.
    10030    2    1    2    0    0  0.00000000000E+00  0.00000000000E+00 -0.13997682468E+04  0.41438458342E+04  0.39002701385E+04 0.  0.
        1    1    3    3  502    0  0.84344401785E+03  0.14855588875E+04 -0.16992342184E+04  0.24094978623E+04  0.50400001928E-02 0.  1.
       -1    1    3    3    0  502 -0.84344401785E+03 -0.14855588875E+04  0.29946597156E+03  0.17343479719E+04  0.50400001928E-02 0. -1.
</event>
<event>
 5   0  0.9078515E-09  0.3900066E+04  0.7818609E-02  0.8025015E-01
        2   -1    0    0  501    0  0.00000000000E+00  0.00000000000E+00  0.25212781812E+04  0.25212781812E+04  0.25500000920E-02 0.  1.
       -2   -1    0    0    0  501  0.00000000000E+00  0.00000000000E+00 -0.15082146175E+04  0.15082146175E+04  0.25500000920E-02 0. -1.
    10030    2    1    2    0    0  0.00000000000E+00  0.00000000000E+00  0.10130635637E+04  0.40294927987E+04  0.39000659521E+04 0.  0.
        3    1    3    3  502    0  0.13960253201E+04  0.48928001261E+03  0.18192662075E+04  0.23447838214E+04  0.10100000352E+00 0.  1.
       -3    1    3    3    0  502 -0.13960253201E+04 -0.48928001261E+03 -0.80620264377E+03  0.16847089773E+04  0.10100000352E+00 0. -1.
</event>
<event>
 5   0  0.2904500E-09  0.3899269E+04  0.7818609E-02  0.8025181E-01
        1   -1    0    0  501    0  0.00000000000E+00  0.00000000000E+00  0.24664130446E+04  0.24664130446E+04  0.50400001928E-02 0. -1.
       -1   -1    0    0    0  501  0.00000000000E+00  0.00000000000E+00 -0.15411350263E+04  0.15411350263E+04  0.50400001928E-02 0.  1.
    10030    2    1    2    0    0  0.00000000000E+00  0.00000000000E+00  0.92527801831E+03  0.40075480709E+04  0.38992694354E+04 0.  0.
        4    1    3    3  502    0  0.21634713383E+03  0.35581348350E+03 -0.14948938398E+04  0.15518113682E+04  0.12699999809E+01 0.  1.
       -4    1    3    3    0  502 -0.21634713383E+03 -0.35581348350E+03  0.24201718581E+04  0.24557367027E+04  0.12699999809E+01 0. -1.
</event>
<event>
 5   0  0.2904500E-09  0.3887950E+04  0.7818609E-02  0.8027540E-01
       -1   -1    0    0    0  501  0.00000000000E+00  0.00000000000E+00  0.27750848369E+04  0.27750848369E+04  0.50400001928E-02 0.  1.
        1   -1    0    0  501    0  0.00000000000E+00  0.00000000000E+00 -0.13617744861E+04  0.13617744861E+04  0.50400001928E-02 0. -1.
    10030    2    1    2    0    0  0.00000000000E+00  0.00000000000E+00  0.14133103508E+04  0.41368593230E+04  0.38879504769E+04 0.  0.
        3    1    3    3  502    0  0.20803996935E+03 -0.25991012886E+03  0.27445270506E+04  0.27646451211E+04  0.10100000352E+00 0.  1.
       -3    1    3    3    0  502 -0.20803996935E+03  0.25991012886E+03 -0.13312166998E+04  0.13722142019E+04  0.10100000352E+00 0. -1.
</event>
<event>
 5   0  0.2904500E-09  0.3900143E+04  0.7818609E-02  0.8024999E-01
        1   -1    0    0  501    0  0.00000000000E+00  0.00000000000E+00  0.23295851539E+04  0.23295851539E+04  0.50400001928E-02 0. -1.
       -1   -1    0    0    0  501  0.00000000000E+00  0.00000000000E+00 -0.16323849578E+04  0.16323849578E+04  0.50400001928E-02 0.  1.
    10030    2    1    2    0    0  0.00000000000E+00  0.00000000000E+00  0.69720019607E+03  0.39619701117E+04  0.39001434656E+04 0.  0.
        2    1    3    3  502    0 -0.17794980433E+04  0.67552262581E+03  0.77939297899E+03  0.20567930182E+04  0.25500000920E-02 0.  1.
       -2    1    3    3    0  502  0.17794980433E+04 -0.67552262581E+03 -0.82192782920E+02  0.19051770935E+04  0.25500000920E-02 0. -1.
</event>
<event>
 5   0  0.9368546E-09  0.3899961E+04  0.7818609E-02  0.8025037E-01
       -2   -1    0    0    0  501  0.00000000000E+00  0.00000000000E+00  0.19144870475E+04  0.19144870475E+04  0.25500000920E-02 0.  1.
        2   -1    0    0  501    0  0.00000000000E+00  0.00000000000E+00 -0.19861315717E+04  0.19861315717E+04  0.25500000920E-02 0. -1.
    10030    2    1    2    0    0  0.00000000000E+00  0.00000000000E+00 -0.71644524170E+02  0.39006186192E+04  0.38999605991E+04 0.  0.
        5    1    3    3  502    0 -0.44456588840E+03 -0.14823981362E+04 -0.12223014798E+04  0.19721019398E+04  0.46999998093E+01 0. -1.
       -5    1    3    3    0  502  0.44456588840E+03  0.14823981362E+04  0.11506569557E+04  0.19285166794E+04  0.46999998093E+01 0.  1.
</event>
<event>
 5   0  0.2904500E-09  0.3912322E+04  0.7818609E-02  0.8022471E-01
       -1   -1    0    0    0  501  0.00000000000E+00  0.00000000000E+00  0.24306942562E+04  0.24306942562E+04  0.50400001928E-02 0. -1.
        1   -1    0    0  501    0  0.00000000000E+00  0.00000000000E+00 -0.15742688826E+04  0.15742688826E+04  0.50400001928E-02 0.  1.
    10030    2    1    2    0    0  0.00000000000E+00  0.00000000000E+00  0.85642537364E+03  0.40049631388E+04  0.39123222416E+04 0.  0.
        4    1    3    3  502    0  0.78324789411E+03 -0.14947609998E+04 -0.58454554998E+03  0.17859123224E+04  0.12699999809E+01 0.  1.
       -4    1    3    3    0  502 -0.78324789411E+03  0.14947609998E+04  0.14409709236E+04  0.22190508164E+04  0.12699999809E+01 0. -1.
</event>
<event>
 5   0  0.2904500E-09  0.3900129E+04  0.7818609E-02  0.8025002E-01
        3   -1    0    0  501    0  0.00000000000E+00  0.00000000000E+00  0.23205591974E+04  0.23205591996E+04  0.10100000352E+00 0.  1.
       -3   -1    0    0    0  501  0.00000000000E+00  0.00000000000E+00 -0.16387216456E+04  0.16387216487E+04  0.10100000352E+00 0. -1.
    10030    2    1    2    0    0  0.00000000000E+00  0.00000000000E+00  0.68183755177E+03  0.39592808483E+04  0.39001285092E+04 0.  0.
        4    1    3    3  502    0 -0.73703447928E+03 -0.18607045032E+03  0.21639578864E+04  0.22935905003E+04  0.12699999809E+01 0.  1.
       -4    1    3    3    0  502  0.73703447928E+03  0.18607045032E+03 -0.14821203346E+04  0.16656903480E+04  0.12699999809E+01 0. -1.
</event>
<event>
 5   0  0.2904500E-09  0.3899297E+04  0.7818609E-02  0.8025175E-01
        1   -1    0    0  501    0  0.00000000000E+00  0.00000000000E+00  0.17785073002E+04  0.17785073002E+04  0.50400001928E-02 0. -1.
       -1   -1    0    0    0  501  0.00000000000E+00  0.00000000000E+00 -0.21372582663E+04  0.21372582663E+04  0.50400001928E-02 0.  1.
    10030    2    1    2    0    0  0.00000000000E+00  0.00000000000E+00 -0.35875096609E+03  0.39157655666E+04  0.38992970798E+04 0.  0.
        2    1    3    3  502    0 -0.17837293476E+04  0.41918776556E+03 -0.84831243073E+03  0.20191688261E+04  0.25500000920E-02 0.  1.
       -2    1    3    3    0  502  0.17837293476E+04 -0.41918776556E+03  0.48956146464E+03  0.18965967405E+04  0.25500000920E-02 0. -1.
</event>
<event>
 5   0  0.2904500E-09  0.3899966E+04  0.7818609E-02  0.8025036E-01
       -1   -1    0    0    0  501  0.00000000000E+00  0.00000000000E+00  0.22303395900E+04  0.22303395900E+04  0.50400001928E-02 0. -1.
        1   -1    0    0  501    0  0.00000000000E+00  0.00000000000E+00 -0.17048671758E+04  0.17048671758E+04  0.50400001928E-02 0.  1.
    10030    2    1    2    0    0  0.00000000000E+00  0.00000000000E+00  0.52547241416E+03  0.39352067658E+04  0.38999655167E+04 0.  0.
        5    1    3    3  502    0  0.82334402101E+03  0.90258458060E+02 -0.15185397507E+04  0.17297476783E+04  0.46999998093E+01 0.  1.
       -5    1    3    3    0  502 -0.82334402101E+03 -0.90258458060E+02  0.20440121649E+04  0.22054590874E+04  0.46999998093E+01 0. -1.
</event>
<event>
 5   0  0.6335942E-09  0.3900853E+04  0.7818609E-02  0.8024852E-01
        2   -1    0    0  501    0  0.00000000000E+00  0.00000000000E+00  0.31066170131E+04  0.31066170131E+04  0.25500000920E-02 0.  1.
       -2   -1    0    0    0  501  0.00000000000E+00  0.00000000000E+00 -0.12245357044E+04  0.12245357044E+04  0.25500000920E-02 0. -1.
    10030    2    1    2    0    0  0.00000000000E+00  0.00000000000E+00  0.18820813087E+04  0.43311527175E+04  0.39008529593E+04 0.  0.
        2    1    3    3  502    0  0.17804591293E+04 -0.69591949029E+03  0.51127097042E+03  0.19788220368E+04  0.25500000920E-02 0. -1.
       -2    1    3    3    0  502 -0.17804591293E+04  0.69591949029E+03  0.13708103383E+04  0.23523306807E+04  0.25500000920E-02 0.  1.
</event>
<event>
 5   0  0.9434114E-09  0.3901376E+04  0.7818609E-02  0.8024743E-01
       -2   -1    0    0    0  501  0.00000000000E+00  0.00000000000E+00  0.21756795275E+04  0.21756795275E+04  0.25500000920E-02 0. -1.
        2   -1    0    0  501    0  0.00000000000E+00  0.00000000000E+00 -0.17489634084E+04  0.17489634084E+04  0.25500000920E-02 0.  1.
    10030    2    1    2    0    0  0.00000000000E+00  0.00000000000E+00  0.42671611913E+03  0.39246429359E+04  0.39013761070E+04 0.  0.
        4    1    3    3  502    0  0.40349807406E+03  0.77692186900E+03  0.19669591868E+04  0.21529859131E+04  0.12699999809E+01 0. -1.
       -4    1    3    3    0  502 -0.40349807406E+03 -0.77692186900E+03 -0.15402430677E+04  0.17716570229E+04  0.12699999809E+01 0.  1.
</event>
<event>
 5   0  0.9277261E-09  0.3898010E+04  0.7818609E-02  0.8025443E-01
        2   -1    0    0  501    0  0.00000000000E+00  0.00000000000E+00  0.18705777680E+04  0.18705777680E+04  0.25500000920E-02 0. -1.
       -2   -1    0    0    0  501  0.00000000000E+00  0.00000000000E+00 -0.20307207395E+04  0.20307207395E+04  0.25500000920E-02 0.  1.
    10030    2    1    2    0    0  0.00000000000E+00  0.00000000000E+00 -0.16014297152E+03  0.39012985075E+04  0.38980102967E+04 0.  0.
        1    1    3    3  502    0 -0.18150323267E+04 -0.70158609596E+03 -0.18996242857E+03  0.19551601268E+04  0.50400001928E-02 0.  1.
       -1    1    3    3    0  502  0.18150323267E+04  0.70158609596E+03  0.29819457042E+02  0.19461383808E+04  0.50400001928E-02 0. -1.
</event>
<event>
 5   0  0.2904500E-09  0.3900658E+04  0.7818609E-02  0.8024892E-01
        1   -1    0    0  501    0  0.00000000000E+00  0.00000000000E+00  0.28756948895E+04  0.28756948895E+04  0.50400001928E-02 0. -1.
       -1   -1    0    0    0  501  0.00000000000E+00  0.00000000000E+00 -0.13227354116E+04  0.13227354116E+04  0.50400001928E-02 0.  1.
    10030    2    1    2    0    0  0.00000000000E+00  0.00000000000E+00  0.15529594779E+04  0.41984303011E+04  0.39006581308E+04 0.  0.
        4    1    3    3  502    0 -0.17437570924E+04 -0.65457515426E+03  0.15385284593E+03  0.18689113786E+04  0.12699999809E+01 0.  1.
       -4    1    3    3    0  502  0.17437570924E+04  0.65457515426E+03  0.13991066320E+04  0.23295189225E+04  0.12699999809E+01 0. -1.
</event>
<event>
 5   0  0.2904500E-09  0.3901053E+04  0.7818609E-02  0.8024810E-01
        1   -1    0    0  501    0  0.00000000000E+00  0.00000000000E+00  0.20004699934E+04  0.20004699934E+04  0.50400001928E-02 0.  1.
       -1   -1    0    0    0  501  0.00000000000E+00  0.00000000000E+00 -0.19018296856E+04  0.19018296856E+04  0.50400001928E-02 0. -1.
    10030    2    1    2    0    0  0.00000000000E+00  0.00000000000E+00  0.98640307841E+02  0.39022996790E+04  0.39010527905E+04 0.  0.
        3    1    3    3  502    0  0.72510453025E+03 -0.88202240566E+03  0.16312215489E+04  0.19911363227E+04  0.10100000352E+00 0.  1.
       -3    1    3    3    0  502 -0.72510453025E+03  0.88202240566E+03 -0.15325812410E+04  0.19111633563E+04  0.10100000352E+00 0. -1.
</event>
<event>
 5   0  0.2904500E-09  0.3905438E+04  0.7818609E-02  0.8023899E-01
        1   -1    0    0  501    0  0.00000000000E+00  0.00000000000E+00  0.27911757474E+04  0.27911757474E+04  0.50400001928E-02 0. -1.
       -1   -1    0    0    0  501  0.00000000000E+00  0.00000000000E+00 -0.13661311921E+04  0.13661311921E+04  0.50400001928E-02 0.  1.
    10030    2    1    2    0    0  0.00000000000E+00  0.00000000000E+00  0.14250445553E+04  0.41573069395E+04  0.39054383883E+04 0.  0.
        5    1    3    3  502    0 -0.10966376837E+04  0.52905664150E+03 -0.91255434631E+03  0.15216085779E+04  0.46999998093E+01 0.  1.
       -5    1    3    3    0  502  0.10966376837E+04 -0.52905664150E+03  0.23375989016E+04  0.26356983617E+04  0.46999998093E+01 0. -1.
</event>
<event>
 5   0  0.2904500E-09  0.3901502E+04  0.7818609E-02  0.8024717E-01
       -1   -1    0    0    0  501  0.00000000000E+00  0.00000000000E+00  0.19819622314E+04  0.19819622314E+04  0.50400001928E-02 0.  1.
        1   -1    0    0  501    0  0.00000000000E+00  0.00000000000E+00 -0.19200315601E+04  0.19200315601E+04  0.50400001928E-02 0. -1.
    10030    2    1    2    0    0  0.00000000000E+00  0.00000000000E+00  0.61930671262E+02  0.39019937915E+04  0.39015022928E+04 0.  0.
        5    1    3    3  502    0  0.78586610289E+03 -0.46297167571E+02  0.18160372332E+04  0.19793287452E+04  0.46999998093E+01 0.  1.
       -5    1    3    3    0  502 -0.78586610289E+03  0.46297167571E+02 -0.17541065619E+04  0.19226650462E+04  0.46999998093E+01 0. -1.
</event>
<event>
 5   0  0.6335942E-09  0.3903835E+04  0.7818609E-02  0.8024232E-01
        2   -1    0    0  501    0  0.00000000000E+00  0.00000000000E+00  0.16142854594E+04  0.16142854594E+04  0.25500000920E-02 0.  1.
       -2   -1    0    0    0  501  0.00000000000E+00  0.00000000000E+00 -0.23601662693E+04  0.23601662693E+04  0.25500000920E-02 0. -1.
    10030    2    1    2    0    0  0.00000000000E+00  0.00000000000E+00 -0.74588080994E+03  0.39744517287E+04  0.39038350837E+04 0.  0.
        2    1    3    3  502    0  0.87456719566E+03 -0.16759901214E+04  0.12182512803E+03  0.18943737827E+04  0.25500000920E-02 0.  1.
       -2    1    3    3    0  502 -0.87456719566E+03  0.16759901214E+04 -0.86770593796E+03  0.20800779460E+04  0.25500000920E-02 0. -1.
</event>
<event>
 5   0  0.6335942E-09  0.3896631E+04  0.7818609E-02  0.8025730E-01
        2   -1    0    0  501    0  0.00000000000E+00  0.00000000000E+00  0.21755307408E+04  0.21755307408E+04  0.25500000920E-02 0. -1.
       -2   -1    0    0    0  501  0.00000000000E+00  0.00000000000E+00 -0.17448312356E+04  0.17448312356E+04  0.25500000920E-02 0.  1.
    10030    2    1    2    0    0  0.00000000000E+00  0.00000000000E+00  0.43069950526E+03  0.39203619764E+04  0.38966313608E+04 0.  0.
        2    1    3    3  502    0  0.65719033683E+02 -0.12156419382E+04 -0.13150417314E+04  0.17920488466E+04  0.25500000920E-02 0.  1.
       -2    1    3    3    0  502 -0.65719033683E+02  0.12156419382E+04  0.17457412366E+04  0.21283131298E+04  0.25500000920E-02 0. -1.
</event>
<event>
 5   0  0.2929054E-09  0.3899231E+04  0.7818609E-02  0.8025189E-01
        1   -1    0    0  501    0  0.00000000000E+00  0.00000000000E+00  0.14228622934E+04  0.14228622934E+04  0.50400001928E-02 0. -1.
       -1   -1    0    0    0  501  0.00000000000E+00  0.00000000000E+00 -0.26713766310E+04  0.26713766310E+04  0.50400001928E-02 0.  1.
    10030    2    1    2    0    0  0.00000000000E+00  0.00000000000E+00 -0.12485143376E+04  0.40942389244E+04  0.38992312472E+04 0.  0.
        1    1    3    3  502    0 -0.26523973402E+03  0.66646386496E+03  0.12792711810E+04  0.14666495677E+04  0.50400001928E-02 0. -1.
       -1    1    3    3    0  502  0.26523973402E+03 -0.66646386496E+03 -0.25277855186E+04  0.26275893568E+04  0.50400001928E-02 0.  1.
</event>
<event>
 5   0  0.2904500E-09  0.3902123E+04  0.7818609E-02  0.8024588E-01
        1   -1    0    0  501    0  0.00000000000E+00  0.00000000000E+00  0.25970718198E+04  0.25970718198E+04  0.50400001928E-02 0. -1.
       -1   -1    0    0    0  501  0.00000000000E+00  0.00000000000E+00 -0.14657431786E+04  0.14657431786E+04  0.50400001928E-02 0.  1.
    10030    2    1    2    0    0  0.00000000000E+00  0.00000000000E+00  0.11313286412E+04  0.40628149985E+04  0.39021226553E+04 0.  0.
        4    1    3    3  502    0  0.59019958175E+03 -0.17239336292E+04 -0.16044709374E+03  0.18292150194E+04  0.12699999809E+01 0.  1.
       -4    1    3    3    0  502 -0.59019958175E+03  0.17239336292E+04  0.12917757350E+04  0.22335999791E+04  0.12699999809E+01 0. -1.
</event>
<event>
 5   0  0.9277261E-09  0.3898650E+04  0.7818609E-02  0.8025310E-01
       -2   -1    0    0    0  501  0.00000000000E+00  0.00000000000E+00  0.20149939541E+04  0.20149939541E+04  0.25500000920E-02 0. -1.
        2   -1    0    0  501    0  0.00000000000E+00  0.00000000000E+00 -0.18857959009E+04  0.18857959009E+04  0.25500000920E-02 0.  1.
    10030    2    1    2    0    0  0.00000000000E+00  0.00000000000E+00  0.12919805318E+03  0.39007898551E+04  0.38986496837E+04 0.  0.
        1    1    3    3  502    0 -0.84136855451E+03 -0.89500807568E+03 -0.14498126568E+04  0.19002361011E+04  0.50400001928E-02 0.  1.
       -1    1    3    3    0  502  0.84136855451E+03  0.89500807568E+03  0.15790107100E+04  0.20005537539E+04  0.50400001928E-02 0. -1.
</event>
<event>
 5   0  0.9368546E-09  0.3898228E+04  0.7818609E-02  0.8025398E-01
       -2   -1    0    0    0  501  0.00000000000E+00  0.00000000000E+00  0.14296793900E+04  0.14296793900E+04  0.25500000920E-02 0. -1.
        2   -1    0    0  501    0  0.00000000000E+00  0.00000000000E+00 -0.26572702643E+04  0.26572702643E+04  0.25500000920E-02 0.  1.
    10030    2    1    2    0    0  0.00000000000E+00  0.00000000000E+00 -0.12275908743E+04  0.40869496543E+04  0.38982275617E+04 0.  0.
        5    1    3    3  502    0 -0.12998097031E+04 -0.87138787267E+03 -0.18320308180E+04  0.24093943424E+04  0.46999998093E+01 0.  1.
       -5    1    3    3    0  502  0.12998097031E+04  0.87138787267E+03  0.60443994373E+03  0.16775553119E+04  0.46999998093E+01 0. -1.
</event>
<event>
 5   0  0.2904500E-09  0.3899653E+04  0.7818609E-02  0.8025101E-01
       -1   -1    0    0    0  501  0.00000000000E+00  0.00000000000E+00  0.24109216725E+04  0.24109216725E+04  0.50400001928E-02 0.  1.
        1   -1    0    0  501    0  0.00000000000E+00  0.00000000000E+00 -0.15769171654E+04  0.15769171654E+04  0.50400001928E-02 0. -1.
    10030    2    1    2    0    0  0.00000000000E+00  0.00000000000E+00  0.83400450714E+03  0.39878388379E+04  0.38996531999E+04 0.  0.
        2    1    3    3  502    0  0.48473123053E+02 -0.18747562678E+04  0.96270160749E+03  0.21080453251E+04  0.25500000920E-02 0.  1.
       -2    1    3    3    0  502 -0.48473123053E+02  0.18747562678E+04 -0.12869710035E+03  0.18797935129E+04  0.25500000920E-02 0. -1.
</event>
<event>
 5   0  0.2904500E-09  0.3901886E+04  0.7818609E-02  0.8024637E-01
        1   -1    0    0  501    0  0.00000000000E+00  0.00000000000E+00  0.23931179459E+04  0.23931179459E+04  0.50400001928E-02 0. -1.
       -1   -1    0    0    0  501  0.00000000000E+00  0.00000000000E+00 -0.15904685785E+04  0.15904685785E+04  0.50400001928E-02 0.  1.
    10030    2    1    2    0    0  0.00000000000E+00  0.00000000000E+00  0.80264936738E+03  0.39835865245E+04  0.39018861581E+04 0.  0.
        2    1    3    3  502    0 -0.19360372619E+04 -0.14054013192E+03  0.60083159239E+03  0.20319917349E+04  0.25500000920E-02 0. -1.
       -2    1    3    3    0  502  0.19360372619E+04  0.14054013192E+03  0.20181777499E+03  0.19515947896E+04  0.25500000920E-02 0.  1.
</event>
<event>
 5   0  0.2904500E-09  0.3895348E+04  0.7818609E-02  0.8025998E-01
        1   -1    0    0  501    0  0.00000000000E+00  0.00000000000E+00  0.22524809437E+04  0.22524809437E+04  0.50400001928E-02 0. -1.
       -1   -1    0    0    0  501  0.00000000000E+00  0.00000000000E+00 -0.16841133202E+04  0.16841133203E+04  0.50400001928E-02 0.  1.
    10030    2    1    2    0    0  0.00000000000E+00  0.00000000000E+00  0.56836762350E+03  0.39365942640E+04  0.38953475639E+04 0.  0.
        3    1    3    3  502    0  0.91965144433E+03 -0.41989690918E+03  0.19665517713E+04  0.22111983341E+04  0.10100000352E+00 0. -1.
       -3    1    3    3    0  502 -0.91965144433E+03  0.41989690918E+03 -0.13981841478E+04  0.17253959299E+04  0.10100000352E+00 0.  1.
</event>
<event>
 5   0  0.9078515E-09  0.3900283E+04  0.7818609E-02  0.8024970E-01
        2   -1    0    0  501    0  0.00000000000E+00  0.00000000000E+00  0.20427110164E+04  0.20427110164E+04  0.25500000920E-02 0. -1.
       -2   -1    0    0    0  501  0.00000000000E+00  0.00000000000E+00 -0.18617668053E+04  0.18617668053E+04  0.25500000920E-02 0.  1.
    10030    2    1    2    0    0  0.00000000000E+00  0.00000000000E+00  0.18094421107E+03  0.39044778216E+04  0.39002828426E+04 0.  0.
        3    1    3    3  502    0 -0.51989072036E+03  0.17595639073E+04  0.75201571340E+03  0.19828966560E+04  0.10100000352E+00 0. -1.
       -3    1    3    3    0  502  0.51989072036E+03 -0.17595639073E+04 -0.57107150233E+03  0.19215811656E+04  0.10100000352E+00 0.  1.
</event>
<event>
 5   0  0.2904500E-09  0.3898980E+04  0.7818609E-02  0.8025241E-01
       -1   -1    0    0    0  501  0.00000000000E+00  0.00000000000E+00  0.18911016245E+04  0.18911016245E+04  0.50400001928E-02 0.  1.
        1   -1    0    0  501    0  0.00000000000E+00  0.00000000000E+00 -0.20096813147E+04  0.20096813147E+04  0.50400001928E-02 0. -1.
    10030    2    1    2    0    0  0.00000000000E+00  0.00000000000E+00 -0.11857969018E+03  0.39007829392E+04  0.38989801738E+04 0.  0.
        5    1    3    3  502    0  0.63984037445E+03  0.14433338981E+04  0.10848652092E+04  0.19156103618E+04  0.46999998093E+01 0.  1.
       -5    1    3    3    0  502 -0.63984037445E+03 -0.14433338981E+04 -0.12034448994E+04  0.19851725774E+04  0.46999998093E+01 0. -1.
</event>
<event>
 5   0  0.2904500E-09  0.3905381E+04  0.7818609E-02  0.8023911E-01
        1   -1    0    0  501    0  0.00000000000E+00  0.00000000000E+00  0.31806492527E+04  0.31806492527E+04  0.50400001928E-02 0. -1.
       -1   -1    0    0    0  501  0.00000000000E+00  0.00000000000E+00 -0.11988118110E+04  0.11988118110E+04  0.50400001928E-02 0.  1.
    10030    2    1    2    0    0  0.00000000000E+00  0.00000000000E+00  0.19818374417E+04  0.43794610637E+04  0.39053808474E+04 0.  0.
        2    1    3    3  502    0 -0.27873846056E+03 -0.12689962227E+04 -0.64375837424E+03  0.14499901334E+04  0.25500000920E-02 0.  1.
       -2    1    3    3    0  502  0.27873846056E+03  0.12689962227E+04  0.26255958160E+04  0.29294709303E+04  0.25500000920E-02 0. -1.
</event>
<event>
 5   0  0.9277261E-09  0.3898092E+04  0.7818609E-02  0.8025426E-01
       -2   -1    0    0    0  501  0.00000000000E+00  0.00000000000E+00  0.29336310510E+04  0.29336310510E+04  0.25500000920E-02 0. -1.
        2   -1    0    0  501    0  0.00000000000E+00  0.00000000000E+00 -0.12949075634E+04  0.12949075634E+04  0.25500000920E-02 0.  1.
    10030    2    1    2    0    0  0.00000000000E+00  0.00000000000E+00  0.16387234876E+04  0.42285386144E+04  0.38980923725E+04 0.  0.
        1    1    3    3  502    0 -0.23237957749E+03 -0.75976860809E+01  0.29185337499E+04  0.29277802585E+04  0.50400001928E-02 0. -1.
       -1    1    3    3    0  502  0.23237957749E+03  0.75976860809E+01 -0.12798102623E+04  0.13007583558E+04  0.50400001928E-02 0.  1.
</event>
<event>
 5   0  0.9078515E-09  0.3900065E+04  0.7818609E-02  0.8025016E-01
        2   -1    0    0  501    0  0.00000000000E+00  0.00000000000E+00  0.14440378262E+04  0.14440378262E+04  0.25500000920E-02 0.  1.
       -2   -1    0    0    0  501  0.00000000000E+00  0.00000000000E+00 -0.26333294254E+04  0.26333294254E+04  0.25500000920E-02 0. -1.
    10030    2    1    2    0    0  0.00000000000E+00  0.00000000000E+00 -0.11892915992E+04  0.40773672516E+04  0.39000652811E+04 0.  0.
        3    1    3    3  502    0 -0.69192999943E+03 -0.54485757065E+03 -0.24135652842E+04  0.25692283448E+04  0.10100000352E+00 0. -1.
       -3    1    3    3    0  502  0.69192999943E+03  0.54485757065E+03  0.12242736850E+04  0.15081389069E+04  0.10100000352E+00 0.  1.
</event>
<event>
 5   0  0.9368546E-09  0.3902596E+04  0.7818609E-02  0.8024489E-01
       -2   -1    0    0    0  501  0.00000000000E+00  0.00000000000E+00  0.13615522394E+04  0.13615522394E+04  0.25500000920E-02 0. -1.
        2   -1    0    0  501    0  0.00000000000E+00  0.00000000000E+00 -0.27964882474E+04  0.27964882474E+04  0.25500000920E-02 0.  1.
    10030    2    1    2    0    0  0.00000000000E+00  0.00000000000E+00 -0.14349360080E+04  0.41580404869E+04  0.39025964874E+04 0.  0.
        5    1    3    3  502    0  0.61865360745E+03 -0.49086754423E+02  0.12535950083E+04  0.13988081821E+04  0.46999998093E+01 0. -1.
       -5    1    3    3    0  502 -0.61865360745E+03  0.49086754423E+02 -0.26885310164E+04  0.27592323047E+04  0.46999998093E+01 0.  1.
</event>
<event>
 5   0  0.9368546E-09  0.3897334E+04  0.7818609E-02  0.8025584E-01
        2   -1    0    0  501    0  0.00000000000E+00  0.00000000000E+00  0.30503846513E+04  0.30503846513E+04  0.25500000920E-02 0.  1.
       -2   -1    0    0    0  501  0.00000000000E+00  0.00000000000E+00 -0.12448605563E+04  0.12448605563E+04  0.25500000920E-02 0. -1.
    10030    2    1    2    0    0  0.00000000000E+00  0.00000000000E+00  0.18055240949E+04  0.42952452076E+04  0.38973342346E+04 0.  0.
        5    1    3    3  502    0  0.31130720255E+03 -0.19072638764E+04  0.62676668594E+03  0.20316068116E+04  0.46999998093E+01 0.  1.
       -5    1    3    3    0  502 -0.31130720255E+03  0.19072638764E+04  0.11787574090E+04  0.22636383960E+04  0.46999998093E+01 0. -1.
</event>
<event>
 5   0  0.6335942E-09  0.3901738E+04  0.7818609E-02  0.8024668E-01
        2   -1    0    0  501    0  0.00000000000E+00  0.00000000000E+00  0.11502113759E+04  0.11502113760E+04  0.25500000920E-02 0.  1.
       -2   -1    0    0    0  501  0.00000000000E+00  0.00000000000E+00 -0.33088604985E+04  0.33088604985E+04  0.25500000920E-02 0. -1.
    10030    2    1    2    0    0  0.00000000000E+00  0.00000000000E+00 -0.21586491225E+04  0.44590718744E+04  0.39017375549E+04 0.  0.
        2    1    3    3  502    0  0.11065624900E+04  0.10848284137E+04  0.27510339935E+03  0.15738535865E+04  0.25500000920E-02 0.  1.
       -2    1    3    3    0  502 -0.11065624900E+04 -0.10848284137E+04 -0.24337525219E+04  0.28852182879E+04  0.25500000920E-02 0. -1.
</event>
<event>
 5   0  0.6335942E-09  0.3899894E+04  0.7818609E-02  0.8025051E-01
       -2   -1    0    0    0  501  0.00000000000E+00  0.00000000000E+00  0.23315005565E+04  0.23315005565E+04  0.25500000920E-02 0. -1.
        2   -1    0    0  501    0  0.00000000000E+00  0.00000000000E+00 -0.16308348750E+04  0.16308348751E+04  0.25500000920E-02 0.  1.
    10030    2    1    2    0    0  0.00000000000E+00  0.00000000000E+00  0.70066568145E+03  0.39623354315E+04  0.38998935466E+04 0.  0.
        2    1    3    3  502    0 -0.14770232680E+04  0.67640725288E+03  0.14461035622E+04  0.21749344860E+04  0.25500000920E-02 0. -1.
       -2    1    3    3    0  502  0.14770232680E+04 -0.67640725288E+03 -0.74543788073E+03  0.17874009455E+04  0.25500000920E-02 0.  1.
</event>
<event>
 5   0  0.9078515E-09  0.3899830E+04  0.7818609E-02  0.8025065E-01
        2   -1    0    0  501    0  0.00000000000E+00  0.00000000000E+00  0.12622033384E+04  0.12622033384E+04  0.25500000920E-02 0.  1.
       -2   -1    0    0    0  501  0.00000000000E+00  0.00000000000E+00 -0.30123265785E+04  0.30123265785E+04  0.25500000920E-02 0. -1.
    10030    2    1    2    0    0  0.00000000000E+00  0.00000000000E+00 -0.17501232401E+04  0.42745299169E+04  0.38998300803E+04 0.  0.
        3    1    3    3  502    0  0.20208132590E+03 -0.12477147350E+04  0.75236584637E+03  0.14709463958E+04  0.10100000352E+00 0.  1.
       -3    1    3    3    0  502 -0.20208132590E+03  0.12477147350E+04 -0.25024890864E+04  0.28035835212E+04  0.10100000352E+00 0. -1.
</event>
<event>
 5   0  0.9078515E-09  0.3899130E+04  0.7818609E-02  0.8025210E-01
        2   -1    0    0  501    0  0.00000000000E+00  0.00000000000E+00  0.11766561099E+04  0.11766561099E+04  0.25500000920E-02 0.  1.
       -2   -1    0    0    0  501  0.00000000000E+00  0.00000000000E+00 -0.32301733071E+04  0.32301733071E+04  0.25500000920E-02 0. -1.
    10030    2    1    2    0    0  0.00000000000E+00  0.00000000000E+00 -0.20535171972E+04  0.44068294170E+04  0.38991297274E+04 0.  0.
        3    1    3    3  502    0 -0.48786218596E+03 -0.39167268175E+03 -0.31136346301E+04  0.31758680108E+04  0.10100000352E+00 0. -1.
       -3    1    3    3    0  502  0.48786218596E+03  0.39167268175E+03  0.10601174328E+04  0.12309614062E+04  0.10100000352E+00 0.  1.
</event>
<event>
 5   0  0.9434114E-09  0.3887660E+04  0.7818609E-02  0.8027601E-01
       -2   -1    0    0    0  501  0.00000000000E+00  0.00000000000E+00  0.18709258914E+04  0.18709258914E+04  0.25500000920E-02 0.  1.
        2   -1    0    0  501    0  0.00000000000E+00  0.00000000000E+00 -0.20195748781E+04  0.20195748781E+04  0.25500000920E-02 0. -1.
    10030    2    1    2    0    0  0.00000000000E+00  0.00000000000E+00 -0.14864898673E+03  0.38905007695E+04  0.38876599280E+04 0.  0.
        4    1    3    3  502    0 -0.30329616461E+03  0.17426560783E+04  0.73226357451E+03  0.19144321158E+04  0.12699999809E+01 0.  1.
       -4    1    3    3    0  502  0.30329616461E+03 -0.17426560783E+04 -0.88091256124E+03  0.19760686537E+04  0.12699999809E+01 0. -1.
</event>
<event>
 5   0  0.2904500E-09  0.3900221E+04  0.7818609E-02  0.8024983E-01
       -1   -1    0    0    0  501  0.00000000000E+00  0.00000000000E+00  0.17134558569E+04  0.17134558569E+04  0.50400001928E-02 0. -1.
        1   -1    0    0  501    0  0.00000000000E+00  0.00000000000E+00 -0.22194511150E+04  0.22194511150E+04  0.50400001928E-02 0.  1.
    10030    2    1    2    0    0  0.00000000000E+00  0.00000000000E+00 -0.50599525815E+03  0.39329069719E+04  0.39002212820E+04 0.  0.
        5    1    3    3  502    0 -0.58015898070E+03  0.12005696347E+03 -0.21264999704E+04  0.22074923174E+04  0.46999998093E+01 0.  1.
       -5    1    3    3    0  502  0.58015898070E+03 -0.12005696347E+03  0.16205047123E+04  0.17254146545E+04  0.46999998093E+01 0. -1.
</event>
<event>
 5   0  0.9277261E-09  0.3901320E+04  0.7818609E-02  0.8024755E-01
       -2   -1    0    0    0  501  0.00000000000E+00  0.00000000000E+00  0.23687937152E+04  0.23687937152E+04  0.25500000920E-02 0.  1.
        2   -1    0    0  501    0  0.00000000000E+00  0.00000000000E+00 -0.16063343333E+04  0.16063343333E+04  0.25500000920E-02 0. -1.
    10030    2    1    2    0    0  0.00000000000E+00  0.00000000000E+00  0.76245938186E+03  0.39751280486E+04  0.39013201219E+04 0.  0.
        1    1    3    3  502    0 -0.71774682154E+03  0.17925711722E+04  0.66323790698E+03  0.20416553158E+04  0.50400001928E-02 0.  1.
       -1    1    3    3    0  502  0.71774682154E+03 -0.17925711722E+04  0.99221474876E+02  0.19334727328E+04  0.50400001928E-02 0. -1.
</event>
<event>
 5   0  0.9368546E-09  0.3899288E+04  0.7818609E-02  0.8025177E-01
        2   -1    0    0  501    0  0.00000000000E+00  0.00000000000E+00  0.29334949658E+04  0.29334949658E+04  0.25500000920E-02 0. -1.
       -2   -1    0    0    0  501  0.00000000000E+00  0.00000000000E+00 -0.12957622862E+04  0.12957622862E+04  0.25500000920E-02 0.  1.
    10030    2    1    2    0    0  0.00000000000E+00  0.00000000000E+00  0.16377326796E+04  0.42292572520E+04  0.38992882137E+04 0.  0.
        5    1    3    3  502    0 -0.44699876333E+03 -0.59131053926E+03 -0.11369568628E+04  0.13572579144E+04  0.46999998093E+01 0.  1.
       -5    1    3    3    0  502  0.44699876333E+03  0.59131053926E+03  0.27746895424E+04  0.28719993376E+04  0.46999998093E+01 0. -1.
</event>
<event>
 5   0  0.9078515E-09  0.3898828E+04  0.7818609E-02  0.8025273E-01
       -2   -1    0    0    0  501  0.00000000000E+00  0.00000000000E+00  0.13761613514E+04  0.13761613514E+04  0.25500000920E-02 0. -1.
        2   -1    0    0  501    0  0.00000000000E+00  0.00000000000E+00 -0.27614603612E+04  0.27614603612E+04  0.25500000920E-02 0.  1.
    10030    2    1    2    0    0  0.00000000000E+00  0.00000000000E+00 -0.13852990098E+04  0.41376217126E+04  0.38988280406E+04 0.  0.
        3    1    3    3  502    0 -0.53229177350E+03 -0.18717950285E+04 -0.57042690278E+03  0.20278900420E+04  0.10100000352E+00 0. -1.
       -3    1    3    3    0  502  0.53229177350E+03  0.18717950285E+04 -0.81487210700E+03  0.21097316706E+04  0.10100000352E+00 0.  1.
</event>
<event>
 5   0  0.2904500E-09  0.3899400E+04  0.7818609E-02  0.8025154E-01
       -1   -1    0    0    0  501  0.00000000000E+00  0.00000000000E+00  0.15574873637E+04  0.15574873637E+04  0.50400001928E-02 0.  1.
        1   -1    0    0  501    0  0.00000000000E+00  0.00000000000E+00 -0.24406815690E+04  0.24406815690E+04  0.50400001928E-02 0. -1.
    10030    2    1    2    0    0  0.00000000000E+00  0.00000000000E+00 -0.88319420531E+03  0.39981689326E+04  0.38994003141E+04 0.  0.
        4    1    3    3  502    0 -0.15631633746E+04  0.54415461198E+02  0.75188267832E+03  0.17354451743E+04  0.12699999809E+01 0.  1.
       -4    1    3    3    0  502  0.15631633746E+04 -0.54415461198E+02 -0.16350768836E+04  0.22627237583E+04  0.12699999809E+01 0. -1.
</event>
<event>
 5   0  0.2929054E-09  0.3899808E+04  0.7818609E-02  0.8025069E-01
       -1   -1    0    0    0  501  0.00000000000E+00  0.00000000000E+00  0.27249271482E+04  0.27249271482E+04  0.50400001928E-02 0. -1.
        1   -1    0    0  501    0  0.00000000000E+00  0.00000000000E+00 -0.13953128885E+04  0.13953128885E+04  0.50400001928E-02 0.  1.
    10030    2    1    2    0    0  0.00000000000E+00  0.00000000000E+00  0.13296142596E+04  0.41202400367E+04  0.38998081851E+04 0.  0.
        1    1    3    3  502    0 -0.18347562139E+03  0.28796434407E+03 -0.13634816536E+04  0.14055849269E+04  0.50400001928E-02 0.  1.
       -1    1    3    3    0  502  0.18347562139E+03 -0.28796434407E+03  0.26930959132E+04  0.27146551098E+04  0.50400001928E-02 0. -1.
</event>
<event>
 5   0  0.2904500E-09  0.3900463E+04  0.7818609E-02  0.8024933E-01
       -1   -1    0    0    0  501  0.00000000000E+00  0.00000000000E+00  0.14493254533E+04  0.14493254533E+04  0.50400001928E-02 0.  1.
        1   -1    0    0  501    0  0.00000000000E+00  0.00000000000E+00 -0.26242572790E+04  0.26242572790E+04  0.50400001928E-02 0. -1.
    10030    2    1    2    0    0  0.00000000000E+00  0.00000000000E+00 -0.11749318257E+04  0.40735827322E+04  0.39004629830E+04 0.  0.
        5    1    3    3  502    0 -0.11494479475E+03 -0.19458001129E+04 -0.65376906893E+03  0.20559149959E+04  0.46999998093E+01 0.  1.
       -5    1    3    3    0  502  0.11494479475E+03  0.19458001129E+04 -0.52116275680E+03  0.20176677363E+04  0.46999998093E+01 0. -1.
</event>
<event>
 5   0  0.9434114E-09  0.3900655E+04  0.7818609E-02  0.8024893E-01
        2   -1    0    0  501    0  0.00000000000E+00  0.00000000000E+00  0.14307397958E+04  0.14307397958E+04  0.25500000920E-02 0.  1.
       -2   -1    0    0    0  501  0.00000000000E+00  0.00000000000E+00 -0.26586087444E+04  0.26586087444E+04  0.25500000920E-02 0. -1.
    10030    2    1    2    0    0  0.00000000000E+00  0.00000000000E+00 -0.12278689486E+04  0.40893485402E+04  0.39006549871E+04 0.  0.
        4    1    3    3  502    0 -0.11418786979E+04  0.14401331161E+04 -0.12981188385E+04  0.22501076607E+04  0.12699999809E+01 0. -1.
       -4    1    3    3    0  502  0.11418786979E+04 -0.14401331161E+04  0.70249889924E+02  0.18392408795E+04  0.12699999809E+01 0.  1.
</event>
<event>
 5   0  0.2904500E-09  0.3900224E+04  0.7818609E-02  0.8024983E-01
       -1   -1    0    0    0  501  0.00000000000E+00  0.00000000000E+00  0.19867460376E+04  0.19867460376E+04  0.50400001928E-02 0.  1.
        1   -1    0    0  501    0  0.00000000000E+00  0.00000000000E+00 -0.19141531728E+04  0.19141531728E+04  0.50400001928E-02 0. -1.
    10030    2    1    2    0    0  0.00000000000E+00  0.00000000000E+00  0.72592864857E+02  0.39008992104E+04  0.39002237020E+04 0.  0.
        2    1    3    3  502    0  0.10977482951E+04 -0.12269906623E+04 -0.10090538695E+04  0.19309964050E+04  0.25500000920E-02 0. -1.
       -2    1    3    3    0  502 -0.10977482951E+04  0.12269906623E+04  0.10816467344E+04  0.19699028054E+04  0.25500000920E-02 0.  1.
</event>
<event>
 5   0  0.6335942E-09  0.3901718E+04  0.7818609E-02  0.8024672E-01
        2   -1    0    0  501    0  0.00000000000E+00  0.00000000000E+00  0.23021053496E+04  0.23021053496E+04  0.25500000920E-02 0. -1.
       -2   -1    0    0    0  501  0.00000000000E+00  0.00000000000E+00 -0.16532042574E+04  0.16532042574E+04  0.25500000920E-02 0.  1.
    10030    2    1    2    0    0  0.00000000000E+00  0.00000000000E+00  0.64890109219E+03  0.39553096070E+04  0.39017177575E+04 0.  0.
        2    1    3    3  502    0  0.17472597927E+04 -0.86177761226E+03  0.42719816534E+03  0.19945113960E+04  0.25500000920E-02 0. -1.
       -2    1    3    3    0  502 -0.17472597927E+04  0.86177761226E+03  0.22170292685E+03  0.19607982110E+04  0.25500000920E-02 0.  1.
</event>
<event>
 5   0  0.9277261E-09  0.3900198E+04  0.7818609E-02  0.8024988E-01
        2   -1    0    0  501    0  0.00000000000E+00  0.00000000000E+00  0.18232445437E+04  0.18232445437E+04  0.25500000920E-02 0.  1.
       -2   -1    0    0    0  501  0.00000000000E+00  0.00000000000E+00 -0.20857799177E+04  0.20857799177E+04  0.25500000920E-02 0. -1.
    10030    2    1    2    0    0  0.00000000000E+00  0.00000000000E+00 -0.26253537407E+03  0.39090244614E+04  0.39001983818E+04 0.  0.
        1    1    3    3  502    0  0.15487738870E+04  0.70576040818E+03  0.82277325141E+03  0.18904375499E+04  0.50400001928E-02 0.  1.
       -1    1    3    3    0  502 -0.15487738870E+04 -0.70576040818E+03 -0.10853086255E+04  0.20185869115E+04  0.50400001928E-02 0. -1.
</event>
<event>
 5   0  0.9368546E-09  0.3901229E+04  0.7818609E-02  0.8024774E-01
        2   -1    0    0  501    0  0.00000000000E+00  0.00000000000E+00  0.20540237405E+04  0.20540237405E+04  0.25500000920E-02 0. -1.
       -2   -1    0    0    0  501  0.00000000000E+00  0.00000000000E+00 -0.18524113467E+04  0.18524113467E+04  0.25500000920E-02 0.  1.
    10030    2    1    2    0    0  0.00000000000E+00  0.00000000000E+00  0.20161239379E+03  0.39064350872E+04  0.39012289773E+04 0.  0.
        5    1    3    3  502    0 -0.11045141819E+04 -0.10691735695E+04 -0.11015422312E+04  0.18911639476E+04  0.46999998093E+01 0.  1.
       -5    1    3    3    0  502  0.11045141819E+04  0.10691735695E+04  0.13031546250E+04  0.20152711396E+04  0.46999998093E+01 0. -1.
</event>
<event>
 5   0  0.9368546E-09  0.3893893E+04  0.7818609E-02  0.8026301E-01
       -2   -1    0    0    0  501  0.00000000000E+00  0.00000000000E+00  0.22569256913E+04  0.22569256913E+04  0.25500000920E-02 0. -1.
        2   -1    0    0  501    0  0.00000000000E+00  0.00000000000E+00 -0.16795415844E+04  0.16795415844E+04  0.25500000920E-02 0.  1.
    10030    2    1    2    0    0  0.00000000000E+00  0.00000000000E+00  0.57738410689E+03  0.39364672756E+04  0.38938929371E+04 0.  0.
        5    1    3    3  502    0 -0.24275122756E+03 -0.18094337366E+04 -0.39516539024E+03  0.18679283662E+04  0.46999998093E+01 0.  1.
       -5    1    3    3    0  502  0.24275122756E+03  0.18094337366E+04  0.97254949713E+03  0.20685389095E+04  0.46999998093E+01 0. -1.
</event>
<event>
 5   0  0.2904500E-09  0.3900416E+04  0.7818609E-02  0.8024943E-01
       -1   -1    0    0    0  501  0.00000000000E+00  0.00000000000E+00  0.19051134639E+04  0.19051134639E+04  0.50400001928E-02 0. -1.
        1   -1    0    0  501    0  0.00000000000E+00  0.00000000000E+00 -0.19963696714E+04  0.19963696714E+04  0.50400001928E-02 0.  1.
    10030    2    1    2    0    0  0.00000000000E+00  0.00000000000E+00 -0.91256207483E+02  0.39014831354E+04  0.39004157420E+04 0.  0.
        4    1    3    3  502    0 -0.16737914301E+03 -0.25448287619E+03 -0.19724293266E+04  0.19958097036E+04  0.12699999809E+01 0.  1.
       -4    1    3    3    0  502  0.16737914301E+03  0.25448287619E+03  0.18811731191E+04  0.19056734318E+04  0.12699999809E+01 0. -1.
</event>
<event>
 5   0  0.9434114E-09  0.3900200E+04  0.7818609E-02  0.8024988E-01
        2   -1    0    0  501    0  0.00000000000E+00  0.00000000000E+00  0.21239307342E+04  0.21239307342E+04  0.25500000920E-02 0. -1.
       -2   -1    0    0    0  501  0.00000000000E+00  0.00000000000E+00 -0.17904958695E+04  0.17904958695E+04  0.25500000920E-02 0.  1.
    10030    2    1    2    0    0  0.00000000000E+00  0.00000000000E+00  0.33343486467E+03  0.39144266037E+04  0.39001995881E+04 0.  0.
        4    1    3    3  502    0 -0.11257957868E+04 -0.72201896119E+03  0.15911054518E+04  0.20785441313E+04  0.12699999809E+01 0. -1.
       -4    1    3    3    0  502  0.11257957868E+04  0.72201896119E+03 -0.12576705872E+04  0.18358824724E+04  0.12699999809E+01 0.  1.
</event>
<event>
 5   0  0.9277261E-09  0.3902295E+04  0.7818609E-02  0.8024552E-01
       -2   -1    0    0    0  501  0.00000000000E+00  0.00000000000E+00  0.26444502079E+04  0.26444502079E+04  0.25500000920E-02 0.  1.
        2   -1    0    0  501    0  0.00000000000E+00  0.00000000000E+00 -0.14396100633E+04  0.14396100633E+04  0.25500000920E-02 0. -1.
    10030    2    1    2    0    0  0.00000000000E+00  0.00000000000E+00  0.12048401446E+04  0.40840602711E+04  0.39022952892E+04 0.  0.
        1    1    3    3  502    0 -0.18753793397E+04  0.27109538655E+03  0.11552260026E+03  0.18983903306E+04  0.50400001928E-02 0. -1.
       -1    1    3    3    0  502  0.18753793397E+04 -0.27109538655E+03  0.10893175443E+04  0.21856699405E+04  0.50400001928E-02 0.  1.
</event>
<event>
 5   0  0.2929054E-09  0.3900377E+04  0.7818609E-02  0.8024951E-01
        1   -1    0    0  501    0  0.00000000000E+00  0.00000000000E+00  0.17286773132E+04  0.17286773132E+04  0.50400001928E-02 0.  1.
       -1   -1    0    0    0  501  0.00000000000E+00  0.00000000000E+00 -0.22000844651E+04  0.22000844651E+04  0.50400001928E-02 0. -1.
    10030    2    1    2    0    0  0.00000000000E+00  0.00000000000E+00 -0.47140715186E+03  0.39287617783E+04  0.39003774699E+04 0.  0.
        1    1    3    3  502    0  0.15257450849E+04 -0.48472612273E+03  0.88612421236E+03  0.18297741931E+04  0.50400001928E-02 0.  1.
       -1    1    3    3    0  502 -0.15257450849E+04  0.48472612273E+03 -0.13575313642E+04  0.20989875852E+04  0.50400001928E-02 0. -1.
</event>
<event>
 5   0  0.2929054E-09  0.3899632E+04  0.7818609E-02  0.8025106E-01
       -1   -1    0    0    0  501  0.00000000000E+00  0.00000000000E+00  0.15832367638E+04  0.15832367638E+04  0.50400001928E-02 0. -1.
        1   -1    0    0  501    0  0.00000000000E+00  0.00000000000E+00 -0.24012721453E+04  0.24012721453E+04  0.50400001928E-02 0.  1.
    10030    2    1    2    0    0  0.00000000000E+00  0.00000000000E+00 -0.81803538155E+03  0.39845089091E+04  0.38996319520E+04 0.  0.
        1    1    3    3  502    0 -0.63416008792E+03 -0.87232998059E+03 -0.20687697098E+04  0.23330080850E+04  0.50400001928E-02 0.  1.
       -1    1    3    3    0  502  0.63416008792E+03  0.87232998059E+03  0.12507343283E+04  0.16515008241E+04  0.50400001928E-02 0. -1.
</event>
<event>
 5   0  0.2904500E-09  0.3900113E+04  0.7818609E-02  0.8025006E-01
       -1   -1    0    0    0  501  0.00000000000E+00  0.00000000000E+00  0.18393818968E+04  0.18393818969E+04  0.50400001928E-02 0. -1.
        1   -1    0    0  501    0  0.00000000000E+00  0.00000000000E+00 -0.20673902646E+04  0.20673902646E+04  0.50400001928E-02 0.  1.
    10030    2    1    2    0    0  0.00000000000E+00  0.00000000000E+00 -0.22800836776E+03  0.39067721615E+04  0.39001129350E+04 0.  0.
        2    1    3    3  502    0  0.54174602079E+03 -0.85171979941E+03 -0.17853268216E+04  0.20509283819E+04  0.25500000920E-02 0.  1.
       -2    1    3    3    0  502 -0.54174602079E+03  0.85171979941E+03  0.15573184538E+04  0.18558437796E+04  0.25500000920E-02 0. -1.
</event>
<event>
 5   0  0.2904500E-09  0.3899590E+04  0.7818609E-02  0.8025114E-01
        1   -1    0    0  501    0  0.00000000000E+00  0.00000000000E+00  0.14280095111E+04  0.14280095111E+04  0.50400001928E-02 0.  1.
       -1   -1    0    0    0  501  0.00000000000E+00  0.00000000000E+00 -0.26622377149E+04  0.26622377149E+04  0.50400001928E-02 0. -1.
    10030    2    1    2    0    0  0.00000000000E+00  0.00000000000E+00 -0.12342282038E+04  0.40902472260E+04  0.38995901208E+04 0.  0.
        2    1    3    3  502    0  0.18331632823E+04 -0.38921276605E+03 -0.11816931638E+04  0.22154848071E+04  0.25500000920E-02 0. -1.
       -2    1    3    3    0  502 -0.18331632823E+04  0.38921276605E+03 -0.52535039957E+02  0.18747624189E+04  0.25500000920E-02 0.  1.
</event>
<event>
 5   0  0.9078515E-09  0.3899242E+04  0.7818609E-02  0.8025187E-01
       -2   -1    0    0    0  501  0.00000000000E+00  0.00000000000E+00  0.21643263882E+04  0.21643263882E+04  0.25500000920E-02 0. -1.
        2   -1    0    0  501    0  0.00000000000E+00  0.00000000000E+00 -0.17562146464E+04  0.17562146464E+04  0.25500000920E-02 0.  1.
    10030    2    1    2    0    0  0.00000000000E+00  0.00000000000E+00  0.40811174174E+03  0.39205410346E+04  0.38992418251E+04 0.  0.
        3    1    3    3  502    0  0.16305172004E+04  0.31176644205E+03  0.12320088005E+04  0.20672760701E+04  0.10100000352E+00 0. -1.
       -3    1    3    3    0  502 -0.16305172004E+04 -0.31176644205E+03 -0.82389705873E+03  0.18532649646E+04  0.10100000352E+00 0.  1.
</event>
<event>
 5   0  0.2904500E-09  0.3897964E+04  0.7818609E-02  0.8025453E-01
        1   -1    0    0  501    0  0.00000000000E+00  0.00000000000E+00  0.31978071885E+04  0.31978071885E+04  0.50400001928E-02 0. -1.
       -1   -1    0    0    0  501  0.00000000000E+00  0.00000000000E+00 -0.11878546969E+04  0.11878546969E+04  0.50400001928E-02 0.  1.
    10030    2    1    2    0    0  0.00000000000E+00  0.00000000000E+00  0.20099524915E+04  0.43856618854E+04  0.38979637190E+04 0.  0.
        5    1    3    3  502    0  0.14441205463E+04  0.98078769352E+03  0.19800564099E+04  0.26397109933E+04  0.46999998093E+01 0.  1.
       -5    1    3    3    0  502 -0.14441205463E+04 -0.98078769352E+03  0.29896081642E+02  0.17459508921E+04  0.46999998093E+01 0. -1.
</event>
<event>
 5   0  0.2904500E-09  0.3900026E+04  0.7818609E-02  0.8025024E-01
        1   -1    0    0  501    0  0.00000000000E+00  0.00000000000E+00  0.14476070484E+04  0.14476070485E+04  0.50400001928E-02 0. -1.
       -1   -1    0    0    0  501  0.00000000000E+00  0.00000000000E+00 -0.26267836944E+04  0.26267836944E+04  0.50400001928E-02 0.  1.
    10030    2    1    2    0    0  0.00000000000E+00  0.00000000000E+00 -0.11791766459E+04  0.40743907428E+04  0.39000259439E+04 0.  0.
        3    1    3    3  502    0 -0.17004433514E+04 -0.68192145397E+03  0.10812228580E+03  0.18352697076E+04  0.10100000352E+00 0. -1.
       -3    1    3    3    0  502  0.17004433514E+04  0.68192145397E+03 -0.12872989317E+04  0.22391210352E+04  0.10100000352E+00 0.  1.
</event>
<event>
 5   0  0.2904500E-09  0.3897693E+04  0.7818609E-02  0.8025509E-01
        1   -1    0    0  501    0  0.00000000000E+00  0.00000000000E+00  0.21767276369E+04  0.21767276369E+04  0.50400001928E-02 0. -1.
       -1   -1    0    0    0  501  0.00000000000E+00  0.00000000000E+00 -0.17448225092E+04  0.17448225092E+04  0.50400001928E-02 0.  1.
    10030    2    1    2    0    0  0.00000000000E+00  0.00000000000E+00  0.43190512768E+03  0.39215501462E+04  0.38976933576E+04 0.  0.
        3    1    3    3  502    0 -0.11387213103E+04  0.10510025036E+04 -0.97310632080E+03  0.18298164954E+04  0.10100000352E+00 0.  1.
       -3    1    3    3    0  502  0.11387213103E+04 -0.10510025036E+04  0.14050114485E+04  0.20917336507E+04  0.10100000352E+00 0. -1.
</event>
<event>
 5   0  0.2904500E-09  0.3894167E+04  0.7818609E-02  0.8026243E-01
        1   -1    0    0  501    0  0.00000000000E+00  0.00000000000E+00  0.27038545197E+04  0.27038545197E+04  0.50400001928E-02 0.  1.
       -1   -1    0    0    0  501  0.00000000000E+00  0.00000000000E+00 -0.14021222291E+04  0.14021222291E+04  0.50400001928E-02 0. -1.
    10030    2    1    2    0    0  0.00000000000E+00  0.00000000000E+00  0.13017322907E+04  0.41059767488E+04  0.38941671902E+04 0.  0.
        4    1    3    3  502    0  0.10547284038E+04  0.72429076705E+03 -0.89664287401E+03  0.15623761318E+04  0.12699999809E+01 0. -1.
       -4    1    3    3    0  502 -0.10547284038E+04 -0.72429076705E+03  0.21983751647E+04  0.25436006170E+04  0.12699999809E+01 0.  1.
</event>
<event>
 5   0  0.6335942E-09  0.3899666E+04  0.7818609E-02  0.8025099E-01
        2   -1    0    0  501    0  0.00000000000E+00  0.00000000000E+00  0.23492537033E+04  0.23492537033E+04  0.25500000920E-02 0.  1.
       -2   -1    0    0    0  501  0.00000000000E+00  0.00000000000E+00 -0.16183219398E+04  0.16183219398E+04  0.25500000920E-02 0. -1.
    10030    2    1    2    0    0  0.00000000000E+00  0.00000000000E+00  0.73093176350E+03  0.39675756431E+04  0.38996660422E+04 0.  0.
        2    1    3    3  502    0  0.86851428936E+03 -0.17125383398E+04  0.20827913945E+02  0.19202964454E+04  0.25500000920E-02 0. -1.
       -2    1    3    3    0  502 -0.86851428936E+03  0.17125383398E+04  0.71010384955E+03  0.20472791977E+04  0.25500000920E-02 0.  1.
</event>
<event>
 5   0  0.9277261E-09  0.3899561E+04  0.7818609E-02  0.8025121E-01
       -2   -1    0    0    0  501  0.00000000000E+00  0.00000000000E+00  0.16794216085E+04  0.16794216085E+04  0.25500000920E-02 0. -1.
        2   -1    0    0  501    0  0.00000000000E+00  0.00000000000E+00 -0.22636625132E+04  0.22636625132E+04  0.25500000920E-02 0.  1.
    10030    2    1    2    0    0  0.00000000000E+00  0.00000000000E+00 -0.58424090471E+03  0.39430841217E+04  0.38995608670E+04 0.  0.
        1    1    3    3  502    0  0.96219994782E+03 -0.15451948086E+04  0.41438235201E+03  0.18668605920E+04  0.50400001928E-02 0. -1.
       -1    1    3    3    0  502 -0.96219994782E+03  0.15451948086E+04 -0.99862325672E+03  0.20762235297E+04  0.50400001928E-02 0.  1.
</event>
<event>
 5   0  0.2904500E-09  0.3900689E+04  0.7818609E-02  0.8024886E-01
       -1   -1    0    0    0  501  0.00000000000E+00  0.00000000000E+00  0.18090590053E+04  0.18090590053E+04  0.50400001928E-02 0.  1.
        1   -1    0    0  501    0  0.00000000000E+00  0.00000000000E+00 -0.21026644489E+04  0.21026644489E+04  0.50400001928E-02 0. -1.
    10030    2    1    2    0    0  0.00000000000E+00  0.00000000000E+00 -0.29360544359E+03  0.39117234541E+04  0.39006891987E+04 0.  0.
        5    1    3    3  502    0  0.18518765822E+04 -0.54600408342E+03  0.13012084041E+03  0.19350764476E+04  0.46999998093E+01 0.  1.
       -5    1    3    3    0  502 -0.18518765822E+04  0.54600408342E+03 -0.42372628401E+03  0.19766470066E+04  0.46999998093E+01 0. -1.
</event>
<event>
 5   0  0.2904500E-09  0.3900201E+04  0.7818609E-02  0.8024987E-01
       -1   -1    0    0    0  501  0.00000000000E+00  0.00000000000E+00  0.13605039815E+04  0.13605039815E+04  0.50400001928E-02 0.  1.
        1   -1    0    0  501    0  0.00000000000E+00  0.00000000000E+00 -0.27952076203E+04  0.27952076203E+04  0.50400001928E-02 0. -1.
    10030    2    1    2    0    0  0.00000000000E+00  0.00000000000E+00 -0.14347036388E+04  0.41557116017E+04  0.39002005571E+04 0.  0.
        2    1    3    3  502    0  0.15526070582E+04  0.36318251661E+03  0.47887300129E+03  0.16648752412E+04  0.25500000920E-02 0.  1.
       -2    1    3    3    0  502 -0.15526070582E+04 -0.36318251661E+03 -0.19135766401E+04  0.24908363605E+04  0.25500000920E-02 0. -1.
</event>
<event>
 5   0  0.2904500E-09  0.3901629E+04  0.7818609E-02  0.8024691E-01
       -1   -1    0    0    0  501  0.00000000000E+00  0.00000000000E+00  0.27072042033E+04  0.27072042033E+04  0.50400001928E-02 0.  1.
        1   -1    0    0  501    0  0.00000000000E+00  0.00000000000E+00 -0.14057590130E+04  0.14057590130E+04  0.50400001928E-02 0. -1.
    10030    2    1    2    0    0  0.00000000000E+00  0.00000000000E+00  0.13014451903E+04  0.41129632164E+04  0.39016287414E+04 0.  0.
        3    1    3    3  502    0  0.11720590594E+04  0.12772356380E+04 -0.29251916320E+03  0.17580161503E+04  0.10100000352E+00 0. -1.
       -3    1    3    3    0  502 -0.11720590594E+04 -0.12772356380E+04  0.15939643535E+04  0.23549470661E+04  0.10100000352E+00 0.  1.
</event>
<event>
 5   0  0.6335942E-09  0.3899824E+04  0.7818609E-02  0.8025066E-01
        2   -1    0    0  501    0  0.00000000000E+00  0.00000000000E+00  0.12500084748E+04  0.12500084748E+04  0.25500000920E-02 0.  1.
       -2   -1    0    0    0  501  0.00000000000E+00  0.00000000000E+00 -0.30417054745E+04  0.30417054745E+04  0.25500000920E-02 0. -1.
    10030    2    1    2    0    0  0.00000000000E+00  0.00000000000E+00 -0.17916969998E+04  0.42917139493E+04  0.38998244170E+04 0.  0.
        2    1    3    3  502    0  0.16028820105E+04  0.10915698722E+04 -0.67192644360E+03  0.20523743984E+04  0.25500000920E-02 0.  1.
       -2    1    3    3    0  502 -0.16028820105E+04 -0.10915698722E+04 -0.11197705562E+04  0.22393395509E+04  0.25500000920E-02 0. -1.
</event>
<event>
 5   0  0.9277261E-09  0.3908386E+04  0.7818609E-02  0.8023287E-01
        2   -1    0    0  501    0  0.00000000000E+00  0.00000000000E+00  0.24366436948E+04  0.24366436948E+04  0.25500000920E-02 0.  1.
       -2   -1    0    0    0  501  0.00000000000E+00  0.00000000000E+00 -0.15672662720E+04  0.15672662720E+04  0.25500000920E-02 0. -1.
    10030    2    1    2    0    0  0.00000000000E+00  0.00000000000E+00  0.86937742284E+03  0.40039099669E+04  0.39083855899E+04 0.  0.
        1    1    3    3  502    0  0.20970426590E+03 -0.76233873932E+03 -0.13960915421E+04  0.16044338024E+04  0.50400001928E-02 0. -1.
       -1    1    3    3    0  502 -0.20970426590E+03  0.76233873932E+03  0.22654689649E+04  0.23994761644E+04  0.50400001928E-02 0.  1.
</event>
<event>
 5   0  0.2904500E-09  0.3899898E+04  0.7818609E-02  0.8025050E-01
       -1   -1    0    0    0  501  0.00000000000E+00  0.00000000000E+00  0.20963074198E+04  0.20963074198E+04  0.50400001928E-02 0.  1.
        1   -1    0    0  501    0  0.00000000000E+00  0.00000000000E+00 -0.18138088288E+04  0.18138088288E+04  0.50400001928E-02 0. -1.
    10030    2    1    2    0    0  0.00000000000E+00  0.00000000000E+00  0.28249859103E+03  0.39101162486E+04  0.38998978992E+04 0.  0.
        4    1    3    3  502    0  0.35733732425E+03 -0.51690821864E+02 -0.17800015239E+04  0.18162513434E+04  0.12699999809E+01 0. -1.
       -4    1    3    3    0  502 -0.35733732425E+03  0.51690821864E+02  0.20625001149E+04  0.20938649052E+04  0.12699999809E+01 0.  1.
</event>
<event>
 5   0  0.6335942E-09  0.3901872E+04  0.7818609E-02  0.8024640E-01
       -2   -1    0    0    0  501  0.00000000000E+00  0.00000000000E+00  0.14509594961E+04  0.14509594961E+04  0.25500000920E-02 0.  1.
        2   -1    0    0  501    0  0.00000000000E+00  0.00000000000E+00 -0.26231954712E+04  0.26231954712E+04  0.25500000920E-02 0. -1.
    10030    2    1    2    0    0  0.00000000000E+00  0.00000000000E+00 -0.11722359751E+04  0.40741549674E+04  0.39018715403E+04 0.  0.
        2    1    3    3  502    0 -0.63143951783E+03  0.32630505031E+03 -0.24831937559E+04  0.25829134867E+04  0.25500000920E-02 0. -1.
       -2    1    3    3    0  502  0.63143951783E+03 -0.32630505031E+03  0.13109577808E+04  0.14912414806E+04  0.25500000920E-02 0.  1.
</event>
<event>
 5   0  0.2904500E-09  0.3909727E+04  0.7818609E-02  0.8023009E-01
        1   -1    0    0  501    0  0.00000000000E+00  0.00000000000E+00  0.20976125730E+04  0.20976125730E+04  0.50400001928E-02 0. -1.
       -1   -1    0    0    0  501  0.00000000000E+00  0.00000000000E+00 -0.18218286882E+04  0.18218286882E+04  0.50400001928E-02 0.  1.
    10030    2    1    2    0    0  0.00000000000E+00  0.00000000000E+00  0.27578388477E+03  0.39194412613E+04  0.39097267231E+04 0.  0.
        2    1    3    3  502    0 -0.10844593590E+04 -0.53884911266E+02  0.17675186665E+04  0.20743861553E+04  0.25500000920E-02 0. -1.
       -2    1    3    3    0  502  0.10844593590E+04  0.53884911266E+02 -0.14917347817E+04  0.18450551059E+04  0.25500000920E-02 0.  1.
</event>
<event>
 5   0  0.2904500E-09  0.3891993E+04  0.7818609E-02  0.8026697E-01
       -3   -1    0    0    0  501  0.00000000000E+00  0.00000000000E+00  0.14421045738E+04  0.14421045774E+04  0.10100000352E+00 0.  1.
        3   -1    0    0  501    0  0.00000000000E+00  0.00000000000E+00 -0.26259550555E+04  0.26259550574E+04  0.10100000352E+00 0. -1.
    10030    2    1    2    0    0  0.00000000000E+00  0.00000000000E+00 -0.11838504816E+04  0.40680596348E+04  0.38919927068E+04 0.  0.
        3    1    3    3  502    0 -0.16326572427E+04 -0.10210631087E+04 -0.29858316682E+03  0.19486640198E+04  0.10100000352E+00 0. -1.
       -3    1    3    3    0  502  0.16326572427E+04  0.10210631087E+04 -0.88526731481E+03  0.21193956150E+04  0.10100000352E+00 0.  1.
</event>
<event>
 5   0  0.2904500E-09  0.3899692E+04  0.7818609E-02  0.8025093E-01
        1   -1    0    0  501    0  0.00000000000E+00  0.00000000000E+00  0.21182092858E+04  0.21182092858E+04  0.50400001928E-02 0.  1.
       -1   -1    0    0    0  501  0.00000000000E+00  0.00000000000E+00 -0.17948650933E+04  0.17948650933E+04  0.50400001928E-02 0. -1.
    10030    2    1    2    0    0  0.00000000000E+00  0.00000000000E+00  0.32334419252E+03  0.39130743791E+04  0.38996922481E+04 0.  0.
        3    1    3    3  502    0 -0.97482088340E+03 -0.16771553148E+04 -0.35915259070E+02  0.19402102002E+04  0.10100000352E+00 0.  1.
       -3    1    3    3    0  502  0.97482088340E+03  0.16771553148E+04  0.35925945159E+03  0.19728641789E+04  0.10100000352E+00 0. -1.
</event>
<event>
 5   0  0.9368546E-09  0.3902390E+04  0.7818609E-02  0.8024532E-01
        2   -1    0    0  501    0  0.00000000000E+00  0.00000000000E+00  0.17404652883E+04  0.17404652883E+04  0.25500000920E-02 0. -1.
       -2   -1    0    0    0  501  0.00000000000E+00  0.00000000000E+00 -0.21874395161E+04  0.21874395161E+04  0.25500000920E-02 0.  1.
    10030    2    1    2    0    0  0.00000000000E+00  0.00000000000E+00 -0.44697422784E+03  0.39279048044E+04  0.39023903177E+04 0.  0.
        5    1    3    3  502    0 -0.37265295640E+03  0.17179034637E+04  0.62885397277E+03  0.18669606170E+04  0.46999998093E+01 0. -1.
       -5    1    3    3    0  502  0.37265295640E+03 -0.17179034637E+04 -0.10758282006E+04  0.20609441874E+04  0.46999998093E+01 0.  1.
</event>
<event>
 5   0  0.6335942E-09  0.3901793E+04  0.7818609E-02  0.8024656E-01
       -2   -1    0    0    0  501  0.00000000000E+00  0.00000000000E+00  0.20615537084E+04  0.20615537084E+04  0.25500000920E-02 0.  1.
        2   -1    0    0  501    0  0.00000000000E+00  0.00000000000E+00 -0.18461786860E+04  0.18461786860E+04  0.25500000920E-02 0. -1.
    10030    2    1    2    0    0  0.00000000000E+00  0.00000000000E+00  0.21537502241E+03  0.39077323944E+04  0.39017926734E+04 0.  0.
        2    1    3    3  502    0 -0.15662647913E+04  0.98862184249E+03 -0.50597518551E+03  0.19200441225E+04  0.25500000920E-02 0. -1.
       -2    1    3    3    0  502  0.15662647913E+04 -0.98862184249E+03  0.72135020792E+03  0.19876882719E+04  0.25500000920E-02 0.  1.
</event>
<event>
 5   0  0.2904500E-09  0.3920835E+04  0.7818609E-02  0.8020710E-01
       -1   -1    0    0    0  501  0.00000000000E+00  0.00000000000E+00  0.21749268753E+04  0.21749268753E+04  0.50400001928E-02 0. -1.
        1   -1    0    0  501    0  0.00000000000E+00  0.00000000000E+00 -0.17670644667E+04  0.17670644667E+04  0.50400001928E-02 0.  1.
    10030    2    1    2    0    0  0.00000000000E+00  0.00000000000E+00  0.40786240862E+03  0.39419913420E+04  0.39208346046E+04 0.  0.
        5    1    3    3  502    0  0.93271908470E+03  0.15302174470E+03  0.19307067326E+04  0.21496583734E+04  0.46999998093E+01 0. -1.
       -5    1    3    3    0  502 -0.93271908470E+03 -0.15302174470E+03 -0.15228443240E+04  0.17923329686E+04  0.46999998093E+01 0.  1.
</event>
<event>
 5   0  0.2904500E-09  0.3921351E+04  0.7818609E-02  0.8020603E-01
        1   -1    0    0  501    0  0.00000000000E+00  0.00000000000E+00  0.18806710310E+04  0.18806710310E+04  0.50400001928E-02 0.  1.
       -1   -1    0    0    0  501  0.00000000000E+00  0.00000000000E+00 -0.20440834011E+04  0.20440834011E+04  0.50400001928E-02 0. -1.
    10030    2    1    2    0    0  0.00000000000E+00  0.00000000000E+00 -0.16341237003E+03  0.39247544321E+04  0.39213510108E+04 0.  0.
        5    1    3    3  502    0  0.14364976083E+04 -0.59816235400E+03  0.11121839992E+04  0.19126680106E+04  0.46999998093E+01 0.  1.
       -5    1    3    3    0  502 -0.14364976083E+04  0.59816235400E+03 -0.12755963693E+04  0.20120864215E+04  0.46999998093E+01 0. -1.
</event>
<event>
 5   0  0.9368546E-09  0.3900059E+04  0.7818609E-02  0.8025017E-01
       -2   -1    0    0    0  501  0.00000000000E+00  0.00000000000E+00  0.25606336274E+04  0.25606336274E+04  0.25500000920E-02 0.  1.
        2   -1    0    0  501    0  0.00000000000E+00  0.00000000000E+00 -0.14850289744E+04  0.14850289744E+04  0.25500000920E-02 0. -1.
    10030    2    1    2    0    0  0.00000000000E+00  0.00000000000E+00  0.10756046530E+04  0.40456626018E+04  0.39000590403E+04 0.  0.
        5    1    3    3  502    0 -0.96100403849E+03  0.16611506209E+04  0.17899448090E+03  0.19274364481E+04  0.46999998093E+01 0. -1.
       -5    1    3    3    0  502  0.96100403849E+03 -0.16611506209E+04  0.89661017215E+03  0.21182261537E+04  0.46999998093E+01 0.  1.
</event>
<event>
 5   0  0.2929054E-09  0.3898632E+04  0.7818609E-02  0.8025314E-01
       -1   -1    0    0    0  501  0.00000000000E+00  0.00000000000E+00  0.23080621311E+04  0.23080621311E+04  0.50400001928E-02 0. -1.
        1   -1    0    0  501    0  0.00000000000E+00  0.00000000000E+00 -0.16463307937E+04  0.16463307937E+04  0.50400001928E-02 0.  1.
    10030    2    1    2    0    0  0.00000000000E+00  0.00000000000E+00  0.66173133744E+03  0.39543929248E+04  0.38986324578E+04 0.  0.
        1    1    3    3  502    0 -0.55147819194E+03  0.17103855551E+04  0.10968399580E+04  0.21053752247E+04  0.50400001928E-02 0.  1.
       -1    1    3    3    0  502  0.55147819194E+03 -0.17103855551E+04 -0.43510862057E+03  0.18490177001E+04  0.50400001928E-02 0. -1.
</event>
<event>
 5   0  0.6335942E-09  0.3901018E+04  0.7818609E-02  0.8024818E-01
       -2   -1    0    0    0  501  0.00000000000E+00  0.00000000000E+00  0.14185015920E+04  0.14185015920E+04  0.25500000920E-02 0.  1.
        2   -1    0    0  501    0  0.00000000000E+00  0.00000000000E+00 -0.26820446688E+04  0.26820446688E+04  0.25500000920E-02 0. -1.
    10030    2    1    2    0    0  0.00000000000E+00  0.00000000000E+00 -0.12635430768E+04  0.41005462608E+04  0.39010176275E+04 0.  0.
        2    1    3    3  502    0  0.17975771923E+04  0.46709412434E+03 -0.54568046727E+01  0.18572803935E+04  0.25500000920E-02 0. -1.
       -2    1    3    3    0  502 -0.17975771923E+04 -0.46709412434E+03 -0.12580862722E+04  0.22432658673E+04  0.25500000920E-02 0.  1.
</event>
<event>
 5   0  0.2929054E-09  0.3900029E+04  0.7818609E-02  0.8025023E-01
        1   -1    0    0  501    0  0.00000000000E+00  0.00000000000E+00  0.21164578823E+04  0.21164578823E+04  0.50400001928E-02 0.  1.
       -1   -1    0    0    0  501  0.00000000000E+00  0.00000000000E+00 -0.17966606803E+04  0.17966606803E+04  0.50400001928E-02 0. -1.
    10030    2    1    2    0    0  0.00000000000E+00  0.00000000000E+00  0.31979720195E+03  0.39131185626E+04  0.39000290556E+04 0.  0.
        1    1    3    3  502    0  0.13061977058E+04 -0.14475018875E+04  0.19381289451E+03  0.19593309060E+04  0.50400001928E-02 0. -1.
       -1    1    3    3    0  502 -0.13061977058E+04  0.14475018875E+04  0.12598430744E+03  0.19537876566E+04  0.50400001928E-02 0.  1.
</event>
<event>
 5   0  0.9368546E-09  0.3890012E+04  0.7818609E-02  0.8027110E-01
        2   -1    0    0  501    0  0.00000000000E+00  0.00000000000E+00  0.18121287047E+04  0.18121287047E+04  0.25500000920E-02 0. -1.
       -2   -1    0    0    0  501  0.00000000000E+00  0.00000000000E+00 -0.20876268997E+04  0.20876268997E+04  0.25500000920E-02 0.  1.
    10030    2    1    2    0    0  0.00000000000E+00  0.00000000000E+00 -0.27549819500E+03  0.38997556043E+04  0.38900121488E+04 0.  0.
        5    1    3    3  502    0  0.14351897769E+04 -0.90991321061E+02 -0.14506006945E+04  0.20426241899E+04  0.46999998093E+01 0.  1.
       -5    1    3    3    0  502 -0.14351897769E+04  0.90991321061E+02  0.11751024995E+04  0.18571314144E+04  0.46999998093E+01 0. -1.
</event>
<event>
 5   0  0.2904500E-09  0.3900932E+04  0.7818609E-02  0.8024835E-01
       -1   -1    0    0    0  501  0.00000000000E+00  0.00000000000E+00  0.19395770275E+04  0.19395770275E+04  0.50400001928E-02 0. -1.
        1   -1    0    0  501    0  0.00000000000E+00  0.00000000000E+00 -0.19614165317E+04  0.19614165317E+04  0.50400001928E-02 0.  1.
    10030    2    1    2    0    0  0.00000000000E+00  0.00000000000E+00 -0.21839504226E+02  0.39009935592E+04  0.39009324250E+04 0.  0.
        3    1    3    3  502    0 -0.17148838112E+04  0.89403888715E+03  0.24243460501E+03  0.19490783887E+04  0.10100000352E+00 0. -1.
       -3    1    3    3    0  502  0.17148838112E+04 -0.89403888715E+03 -0.26427410924E+03  0.19519151704E+04  0.10100000352E+00 0.  1.
</event>
<event>
 5   0  0.2904500E-09  0.3899946E+04  0.7818609E-02  0.8025040E-01
        1   -1    0    0  501    0  0.00000000000E+00  0.00000000000E+00  0.13216659411E+04  0.13216659411E+04  0.50400001928E-02 0.  1.
       -1   -1    0    0    0  501  0.00000000000E+00  0.00000000000E+00 -0.28769713478E+04  0.28769713478E+04  0.50400001928E-02 0. -1.
    10030    2    1    2    0    0  0.00000000000E+00  0.00000000000E+00 -0.15553054068E+04  0.41986372889E+04  0.38999461759E+04 0.  0.
        5    1    3    3  502    0 -0.40158275398E+03  0.13389016119E+04 -0.22413565481E+04  0.26415199224E+04  0.46999998093E+01 0. -1.
       -5    1    3    3    0  502  0.40158275398E+03 -0.13389016119E+04  0.68605114133E+03  0.15571173665E+04  0.46999998093E+01 0.  1.
</event>
<event>
 5   0  0.2904500E-09  0.3900763E+04  0.7818609E-02  0.8024871E-01
       -1   -1    0    0    0  501  0.00000000000E+00  0.00000000000E+00  0.17042547637E+04  0.17042547637E+04  0.50400001928E-02 0. -1.
        1   -1    0    0  501    0  0.00000000000E+00  0.00000000000E+00 -0.22320532546E+04  0.22320532546E+04  0.50400001928E-02 0.  1.
    10030    2    1    2    0    0  0.00000000000E+00  0.00000000000E+00 -0.52779849086E+03  0.39363080183E+04  0.39007626905E+04 0.  0.
        5    1    3    3  502    0  0.47514101120E+03 -0.88630948872E+03  0.14224546413E+04  0.17420398351E+04  0.46999998093E+01 0. -1.
       -5    1    3    3    0  502 -0.47514101120E+03  0.88630948872E+03 -0.19502531322E+04  0.21942681832E+04  0.46999998093E+01 0.  1.
</event>
<event>
 5   0  0.6335942E-09  0.3896618E+04  0.7818609E-02  0.8025733E-01
       -2   -1    0    0    0  501  0.00000000000E+00  0.00000000000E+00  0.12455582629E+04  0.12455582629E+04  0.25500000920E-02 0.  1.
        2   -1    0    0  501    0  0.00000000000E+00  0.00000000000E+00 -0.30475547499E+04  0.30475547499E+04  0.25500000920E-02 0. -1.
    10030    2    1    2    0    0  0.00000000000E+00  0.00000000000E+00 -0.18019964870E+04  0.42931130128E+04  0.38966175077E+04 0.  0.
        2    1    3    3  502    0 -0.13825789154E+04 -0.22096560835E+03 -0.23936842135E+04  0.27730983342E+04  0.25500000920E-02 0. -1.
       -2    1    3    3    0  502  0.13825789154E+04  0.22096560835E+03  0.59168772655E+03  0.15200146786E+04  0.25500000920E-02 0.  1.
</event>
<event>
 5   0  0.2904500E-09  0.3899132E+04  0.7818609E-02  0.8025210E-01
        1   -1    0    0  501    0  0.00000000000E+00  0.00000000000E+00  0.21457691693E+04  0.21457691693E+04  0.50400001928E-02 0. -1.
       -1   -1    0    0    0  501  0.00000000000E+00  0.00000000000E+00 -0.17713027452E+04  0.17713027452E+04  0.50400001928E-02 0.  1.
    10030    2    1    2    0    0  0.00000000000E+00  0.00000000000E+00  0.37446642411E+03  0.39170719146E+04  0.38991316060E+04 0.  0.
        5    1    3    3  502    0  0.13317659857E+04  0.55394088559E+02  0.16164934285E+04  0.20951711721E+04  0.46999998093E+01 0. -1.
       -5    1    3    3    0  502 -0.13317659857E+04 -0.55394088559E+02 -0.12420270044E+04  0.18219007425E+04  0.46999998093E+01 0.  1.
</event>
<event>
 5   0  0.2929054E-09  0.3900706E+04  0.7818609E-02  0.8024882E-01
       -1   -1    0    0    0  501  0.00000000000E+00  0.00000000000E+00  0.19491788608E+04  0.19491788608E+04  0.50400001928E-02 0.  1.
        1   -1    0    0  501    0  0.00000000000E+00  0.00000000000E+00 -0.19515281542E+04  0.19515281542E+04  0.50400001928E-02 0. -1.
    10030    2    1    2    0    0  0.00000000000E+00  0.00000000000E+00 -0.23492933846E+01  0.39007070150E+04  0.39007063075E+04 0.  0.
        1    1    3    3  502    0 -0.93702042654E+03 -0.48960937914E+02 -0.17109916052E+04  0.19513832853E+04  0.50400001928E-02 0. -1.
       -1    1    3    3    0  502  0.93702042654E+03  0.48960937914E+02  0.17086423118E+04  0.19493237296E+04  0.50400001928E-02 0.  1.
</event>
<event>
 5   0  0.6335942E-09  0.3898309E+04  0.7818609E-02  0.8025381E-01
        2   -1    0    0  501    0  0.00000000000E+00  0.00000000000E+00  0.22477962686E+04  0.22477962686E+04  0.25500000920E-02 0. -1.
       -2   -1    0    0    0  501  0.00000000000E+00  0.00000000000E+00 -0.16901904263E+04  0.16901904263E+04  0.25500000920E-02 0.  1.
    10030    2    1    2    0    0  0.00000000000E+00  0.00000000000E+00  0.55760584230E+03  0.39379866950E+04  0.38983092405E+04 0.  0.
        2    1    3    3  502    0 -0.91981326484E+03  0.16343002725E+03 -0.14492920834E+04  0.17243008319E+04  0.25500000920E-02 0.  1.
       -2    1    3    3    0  502  0.91981326484E+03 -0.16343002725E+03  0.20068979257E+04  0.22136858630E+04  0.25500000920E-02 0. -1.
</event>
<event>
 5   0  0.9368546E-09  0.3905796E+04  0.7818609E-02  0.8023825E-01
       -2   -1    0    0    0  501  0.00000000000E+00  0.00000000000E+00  0.12727217092E+04  0.12727217092E+04  0.25500000920E-02 0.  1.
        2   -1    0    0  501    0  0.00000000000E+00  0.00000000000E+00 -0.29965783660E+04  0.29965783660E+04  0.25500000920E-02 0. -1.
    10030    2    1    2    0    0  0.00000000000E+00  0.00000000000E+00 -0.17238566569E+04  0.42693000752E+04  0.39057958675E+04 0.  0.
        5    1    3    3  502    0 -0.15317190814E+04  0.10690643257E+04 -0.14848105285E+04  0.23861572187E+04  0.46999998093E+01 0. -1.
       -5    1    3    3    0  502  0.15317190814E+04 -0.10690643257E+04 -0.23904612841E+03  0.18831428566E+04  0.46999998093E+01 0.  1.
</event>
<event>
 5   0  0.2904500E-09  0.3901061E+04  0.7818609E-02  0.8024809E-01
       -1   -1    0    0    0  501  0.00000000000E+00  0.00000000000E+00  0.12732498474E+04  0.12732498474E+04  0.50400001928E-02 0.  1.
        1   -1    0    0  501    0  0.00000000000E+00  0.00000000000E+00 -0.29880776595E+04  0.29880776595E+04  0.50400001928E-02 0. -1.
    10030    2    1    2    0    0  0.00000000000E+00  0.00000000000E+00 -0.17148278121E+04  0.42613275069E+04  0.39010610987E+04 0.  0.
        2    1    3    3  502    0 -0.14262906190E+04  0.42069530561E+03  0.52140810315E+03  0.15758032491E+04  0.25500000920E-02 0.  1.
       -2    1    3    3    0  502  0.14262906190E+04 -0.42069530561E+03 -0.22362359153E+04  0.26855242577E+04  0.25500000920E-02 0. -1.
</event>
<event>
 5   0  0.2904500E-09  0.3900805E+04  0.7818609E-02  0.8024862E-01
       -1   -1    0    0    0  501  0.00000000000E+00  0.00000000000E+00  0.19153435269E+04  0.19153435269E+04  0.50400001928E-02 0.  1.
        1   -1    0    0  501    0  0.00000000000E+00  0.00000000000E+00 -0.19861029616E+04  0.19861029616E+04  0.50400001928E-02 0. -1.
    10030    2    1    2    0    0  0.00000000000E+00  0.00000000000E+00 -0.70759434712E+02  0.39014464884E+04  0.39008047637E+04 0.  0.
        2    1    3    3  502    0  0.80912157957E+03  0.10274660852E+03  0.17365874620E+04  0.19185855752E+04  0.25500000920E-02 0.  1.
       -2    1    3    3    0  502 -0.80912157957E+03 -0.10274660852E+03 -0.18073468967E+04  0.19828609132E+04  0.25500000920E-02 0. -1.
</event>
<event>
 5   0  0.2904500E-09  0.3899041E+04  0.7818609E-02  0.8025229E-01
       -1   -1    0    0    0  501  0.00000000000E+00  0.00000000000E+00  0.16744295894E+04  0.16744295894E+04  0.50400001928E-02 0. -1.
        1   -1    0    0  501    0  0.00000000000E+00  0.00000000000E+00 -0.22698053903E+04  0.22698053903E+04  0.50400001928E-02 0.  1.
    10030    2    1    2    0    0  0.00000000000E+00  0.00000000000E+00 -0.59537580089E+03  0.39442349796E+04  0.38990405525E+04 0.  0.
        4    1    3    3  502    0  0.15617175701E+04  0.11276226000E+03 -0.14725937087E+04  0.21494675945E+04  0.12699999809E+01 0.  1.
       -4    1    3    3    0  502 -0.15617175701E+04 -0.11276226000E+03  0.87721790785E+03  0.17947673851E+04  0.12699999809E+01 0. -1.
</event>
<event>
 5   0  0.2904500E-09  0.3899590E+04  0.7818609E-02  0.8025115E-01
        1   -1    0    0  501    0  0.00000000000E+00  0.00000000000E+00  0.12157004141E+04  0.12157004142E+04  0.50400001928E-02 0. -1.
       -1   -1    0    0    0  501  0.00000000000E+00  0.00000000000E+00 -0.31271687620E+04  0.31271687620E+04  0.50400001928E-02 0.  1.
    10030    2    1    2    0    0  0.00000000000E+00  0.00000000000E+00 -0.19114683478E+04  0.43428691761E+04  0.38995899062E+04 0.  0.
        5    1    3    3  502    0 -0.16324864443E+03 -0.18037597214E+04 -0.15151165717E+03  0.18174644768E+04  0.46999998093E+01 0. -1.
       -5    1    3    3    0  502  0.16324864443E+03  0.18037597214E+04 -0.17599566907E+04  0.25254046993E+04  0.46999998093E+01 0.  1.
</event>
<event>
 5   0  0.2904500E-09  0.3899129E+04  0.7818609E-02  0.8025210E-01
        1   -1    0    0  501    0  0.00000000000E+00  0.00000000000E+00  0.13035000747E+04  0.13035000747E+04  0.50400001928E-02 0. -1.
       -1   -1    0    0    0  501  0.00000000000E+00  0.00000000000E+00 -0.29158432493E+04  0.29158432493E+04  0.50400001928E-02 0.  1.
    10030    2    1    2    0    0  0.00000000000E+00  0.00000000000E+00 -0.16123431746E+04  0.42193433240E+04  0.38991290788E+04 0.  0.
        3    1    3    3  502    0 -0.68622694686E+03  0.17948269221E+04 -0.11626011097E+04  0.22458745409E+04  0.10100000352E+00 0.  1.
       -3    1    3    3    0  502  0.68622694686E+03 -0.17948269221E+04 -0.44974206488E+03  0.19734687831E+04  0.10100000352E+00 0. -1.
</event>
<event>
 5   0  0.9078515E-09  0.3902117E+04  0.7818609E-02  0.8024589E-01
        2   -1    0    0  501    0  0.00000000000E+00  0.00000000000E+00  0.23229272215E+04  0.23229272215E+04  0.25500000920E-02 0. -1.
       -2   -1    0    0    0  501  0.00000000000E+00  0.00000000000E+00 -0.16387209557E+04  0.16387209557E+04  0.25500000920E-02 0.  1.
    10030    2    1    2    0    0  0.00000000000E+00  0.00000000000E+00  0.68420626582E+03  0.39616481772E+04  0.39021171261E+04 0.  0.
        3    1    3    3  502    0 -0.15970274962E+04 -0.41783042453E+03 -0.71373899996E+03  0.17984722565E+04  0.10100000352E+00 0.  1.
       -3    1    3    3    0  502  0.15970274962E+04  0.41783042453E+03  0.13979452658E+04  0.21631759206E+04  0.10100000352E+00 0. -1.
</event>
<event>
 5   0  0.2904500E-09  0.3896908E+04  0.7818609E-02  0.8025673E-01
       -1   -1    0    0    0  501  0.00000000000E+00  0.00000000000E+00  0.13275864068E+04  0.13275864068E+04  0.50400001928E-02 0.  1.
        1   -1    0    0  501    0  0.00000000000E+00  0.00000000000E+00 -0.28596803964E+04  0.28596803964E+04  0.50400001928E-02 0. -1.
    10030    2    1    2    0    0  0.00000000000E+00  0.00000000000E+00 -0.15320939896E+04  0.41872668031E+04  0.38969079137E+04 0.  0.
        5    1    3    3  502    0  0.86349298144E+03  0.83123816181E+03 -0.24166965258E+04  0.26975954475E+04  0.46999998093E+01 0. -1.
       -5    1    3    3    0  502 -0.86349298144E+03 -0.83123816181E+03  0.88460253622E+03  0.14896713556E+04  0.46999998093E+01 0.  1.
</event>
<event>
 5   0  0.9434114E-09  0.3899686E+04  0.7818609E-02  0.8025095E-01
        2   -1    0    0  501    0  0.00000000000E+00  0.00000000000E+00  0.19972166943E+04  0.19972166943E+04  0.25500000920E-02 0. -1.
       -2   -1    0    0    0  501  0.00000000000E+00  0.00000000000E+00 -0.19035926896E+04  0.19035926896E+04  0.25500000920E-02 0.  1.
    10030    2    1    2    0    0  0.00000000000E+00  0.00000000000E+00  0.93624004731E+02  0.39008093839E+04  0.38996856790E+04 0.  0.
        4    1    3    3  502    0  0.43485649542E+03  0.67450446340E+03  0.18243522070E+04  0.19930677437E+04  0.12699999809E+01 0. -1.
       -4    1    3    3    0  502 -0.43485649542E+03 -0.67450446340E+03 -0.17307282023E+04  0.19077416402E+04  0.12699999809E+01 0.  1.
</event>
<event>
 5   0  0.2904500E-09  0.3897501E+04  0.7818609E-02  0.8025549E-01
        1   -1    0    0  501    0  0.00000000000E+00  0.00000000000E+00  0.26052064322E+04  0.26052064322E+04  0.50400001928E-02 0. -1.
       -1   -1    0    0    0  501  0.00000000000E+00  0.00000000000E+00 -0.14577075519E+04  0.14577075519E+04  0.50400001928E-02 0.  1.
    10030    2    1    2    0    0  0.00000000000E+00  0.00000000000E+00  0.11474988803E+04  0.40629139841E+04  0.38975012973E+04 0.  0.
        3    1    3    3  502    0  0.87605766040E+03 -0.13691844138E+04 -0.54680696333E+03  0.17149754659E+04  0.10100000352E+00 0.  1.
       -3    1    3    3    0  502 -0.87605766040E+03  0.13691844138E+04  0.16943058436E+04  0.23479385182E+04  0.10100000352E+00 0. -1.
</event>
<event>
 5   0  0.2904500E-09  0.3901291E+04  0.7818609E-02  0.8024761E-01
        1   -1    0    0  501    0  0.00000000000E+00  0.00000000000E+00  0.17329634283E+04  0.17329634283E+04  0.50400001928E-02 0.  1.
       -1   -1    0    0    0  501  0.00000000000E+00  0.00000000000E+00 -0.21956706302E+04  0.21956706303E+04  0.50400001928E-02 0. -1.
    10030    2    1    2    0    0  0.00000000000E+00  0.00000000000E+00 -0.46270720200E+03  0.39286340585E+04  0.39012905058E+04 0.  0.
        2    1    3    3  502    0  0.55870142811E+03  0.11288453577E+04  0.12685751007E+04  0.17876582205E+04  0.25500000920E-02 0.  1.
       -2    1    3    3    0  502 -0.55870142811E+03 -0.11288453577E+04 -0.17312823027E+04  0.21409758380E+04  0.25500000920E-02 0. -1.
</event>
<event>
 5   0  0.2904500E-09  0.3901241E+04  0.7818609E-02  0.8024771E-01
       -3   -1    0    0    0  501  0.00000000000E+00  0.00000000000E+00  0.15046025432E+04  0.15046025466E+04  0.10100000352E+00 0. -1.
        3   -1    0    0  501    0  0.00000000000E+00  0.00000000000E+00 -0.25288543010E+04  0.25288543030E+04  0.10100000352E+00 0.  1.
    10030    2    1    2    0    0  0.00000000000E+00  0.00000000000E+00 -0.10242517578E+04  0.40334568496E+04  0.39012411480E+04 0.  0.
        3    1    3    3  502    0  0.89048244334E+03  0.55455466197E+03 -0.22123749736E+04  0.24484878780E+04  0.10100000352E+00 0.  1.
       -3    1    3    3    0  502 -0.89048244334E+03 -0.55455466197E+03  0.11881232157E+04  0.15849689716E+04  0.10100000352E+00 0. -1.
</event>
<event>
 5   0  0.9434114E-09  0.3900481E+04  0.7818609E-02  0.8024929E-01
        2   -1    0    0  501    0  0.00000000000E+00  0.00000000000E+00  0.24971456835E+04  0.24971456835E+04  0.25500000920E-02 0.  1.
       -2   -1    0    0    0  501  0.00000000000E+00  0.00000000000E+00 -0.15231142665E+04  0.15231142665E+04  0.25500000920E-02 0. -1.
    10030    2    1    2    0    0  0.00000000000E+00  0.00000000000E+00  0.97403141699E+03  0.40202599499E+04  0.39004811067E+04 0.  0.
        4    1    3    3  502    0 -0.53284416466E+03 -0.13480797169E+04 -0.85773128988E+03  0.16843237235E+04  0.12699999809E+01 0. -1.
       -4    1    3    3    0  502  0.53284416466E+03  0.13480797169E+04  0.18317627069E+04  0.23359362265E+04  0.12699999809E+01 0.  1.
</event>
<event>
 5   0  0.9078515E-09  0.3899752E+04  0.7818609E-02  0.8025081E-01
       -2   -1    0    0    0  501  0.00000000000E+00  0.00000000000E+00  0.15765593629E+04  0.15765593629E+04  0.25500000920E-02 0.  1.
        2   -1    0    0  501    0  0.00000000000E+00  0.00000000000E+00 -0.24115916269E+04  0.24115916269E+04  0.25500000920E-02 0. -1.
    10030    2    1    2    0    0  0.00000000000E+00  0.00000000000E+00 -0.83503226393E+03  0.39881509898E+04  0.38997524839E+04 0.  0.
        3    1    3    3  502    0  0.42142953451E+03  0.93953835934E+03 -0.21108519798E+04  0.23486232716E+04  0.10100000352E+00 0. -1.
       -3    1    3    3    0  502 -0.42142953451E+03 -0.93953835934E+03  0.12758197158E+04  0.16395277182E+04  0.10100000352E+00 0.  1.
</event>
<event>
 5   0  0.9277261E-09  0.3900779E+04  0.7818609E-02  0.8024867E-01
        2   -1    0    0  501    0  0.00000000000E+00  0.00000000000E+00  0.23522640005E+04  0.23522640005E+04  0.25500000920E-02 0.  1.
       -2   -1    0    0    0  501  0.00000000000E+00  0.00000000000E+00 -0.16171735642E+04  0.16171735642E+04  0.25500000920E-02 0. -1.
    10030    2    1    2    0    0  0.00000000000E+00  0.00000000000E+00  0.73509043632E+03  0.39694375647E+04  0.39007789774E+04 0.  0.
        1    1    3    3  502    0 -0.66063191537E+03  0.10952742422E+04 -0.11307698968E+04  0.17072494700E+04  0.50400001928E-02 0. -1.
       -1    1    3    3    0  502  0.66063191537E+03 -0.10952742422E+04  0.18658603331E+04  0.22621880947E+04  0.50400001928E-02 0.  1.
</event>
<event>
 5   0  0.9277261E-09  0.3900598E+04  0.7818609E-02  0.8024905E-01
        2   -1    0    0  501    0  0.00000000000E+00  0.00000000000E+00  0.23418308420E+04  0.23418308420E+04  0.25500000920E-02 0. -1.
       -2   -1    0    0    0  501  0.00000000000E+00  0.00000000000E+00 -0.16242277528E+04  0.16242277528E+04  0.25500000920E-02 0.  1.
    10030    2    1    2    0    0  0.00000000000E+00  0.00000000000E+00  0.71760308917E+03  0.39660585948E+04  0.39005982341E+04 0.  0.
        1    1    3    3  502    0  0.92030146932E+03 -0.75920189293E+01  0.21071507251E+04  0.22993687419E+04  0.50400001928E-02 0. -1.
       -1    1    3    3    0  502 -0.92030146932E+03  0.75920189293E+01 -0.13895476359E+04  0.16666898529E+04  0.50400001928E-02 0.  1.
</event>
<event>
 5   0  0.6335942E-09  0.3900286E+04  0.7818609E-02  0.8024970E-01
       -2   -1    0    0    0  501  0.00000000000E+00  0.00000000000E+00  0.21644858101E+04  0.21644858101E+04  0.25500000920E-02 0.  1.
        2   -1    0    0  501    0  0.00000000000E+00  0.00000000000E+00 -0.17570256897E+04  0.17570256897E+04  0.25500000920E-02 0. -1.
    10030    2    1    2    0    0  0.00000000000E+00  0.00000000000E+00  0.40746012037E+03  0.39215114998E+04  0.39002857195E+04 0.  0.
        2    1    3    3  502    0  0.83047366399E+03 -0.15477866305E+04 -0.64806825477E+03  0.18722506304E+04  0.25500000920E-02 0. -1.
       -2    1    3    3    0  502 -0.83047366399E+03  0.15477866305E+04  0.10555283751E+04  0.20492608694E+04  0.25500000920E-02 0.  1.
</event>
<event>
 5   0  0.9434114E-09  0.3901557E+04  0.7818609E-02  0.8024705E-01
        2   -1    0    0  501    0  0.00000000000E+00  0.00000000000E+00  0.11926392187E+04  0.11926392187E+04  0.25500000920E-02 0.  1.
       -2   -1    0    0    0  501  0.00000000000E+00  0.00000000000E+00 -0.31908530877E+04  0.31908530877E+04  0.25500000920E-02 0. -1.
    10030    2    1    2    0    0  0.00000000000E+00  0.00000000000E+00 -0.19982138689E+04  0.43834923064E+04  0.39015568859E+04 0.  0.
        4    1    3    3  502    0 -0.43605138409E+03 -0.11916487834E+04  0.66559275903E+03  0.14328932152E+04  0.12699999809E+01 0.  1.
       -4    1    3    3    0  502  0.43605138409E+03  0.11916487834E+04 -0.26638066280E+04  0.29505990911E+04  0.12699999809E+01 0. -1.
</event>
<event>
 5   0  0.2904500E-09  0.3899992E+04  0.7818609E-02  0.8025031E-01
       -1   -1    0    0    0  501  0.00000000000E+00  0.00000000000E+00  0.17792384863E+04  0.17792384863E+04  0.50400001928E-02 0.  1.
        1   -1    0    0  501    0  0.00000000000E+00  0.00000000000E+00 -0.21371410941E+04  0.21371410941E+04  0.50400001928E-02 0. -1.
    10030    2    1    2    0    0  0.00000000000E+00  0.00000000000E+00 -0.35790260784E+03  0.39163795804E+04  0.38999916335E+04 0.  0.
        5    1    3    3  502    0 -0.18864767972E+03  0.60485368096E+03  0.16729850510E+04  0.17889485721E+04  0.46999998093E+01 0.  1.
       -5    1    3    3    0  502  0.18864767972E+03 -0.60485368096E+03 -0.20308876589E+04  0.21274310084E+04  0.46999998093E+01 0. -1.
</event>
<event>
 5   0  0.2904500E-09  0.3899558E+04  0.7818609E-02  0.8025121E-01
       -1   -1    0    0    0  501  0.00000000000E+00  0.00000000000E+00  0.16609551740E+04  0.16609551740E+04  0.50400001928E-02 0. -1.
        1   -1    0    0  501    0  0.00000000000E+00  0.00000000000E+00 -0.22888269989E+04  0.22888269989E+04  0.50400001928E-02 0.  1.
    10030    2    1    2    0    0  0.00000000000E+00  0.00000000000E+00 -0.62787182483E+03  0.39497821729E+04  0.38995584603E+04 0.  0.
        3    1    3    3  502    0 -0.75377925792E+03 -0.83145024222E+03 -0.19288818388E+04  0.22316087993E+04  0.10100000352E+00 0.  1.
       -3    1    3    3    0  502  0.75377925792E+03  0.83145024222E+03  0.13010100140E+04  0.17181733736E+04  0.10100000352E+00 0. -1.
</event>
<event>
 5   0  0.6335942E-09  0.3891771E+04  0.7818609E-02  0.8026743E-01
        2   -1    0    0  501    0  0.00000000000E+00  0.00000000000E+00  0.23358352916E+04  0.23358352916E+04  0.25500000920E-02 0. -1.
       -2   -1    0    0    0  501  0.00000000000E+00  0.00000000000E+00 -0.16210352208E+04  0.16210352208E+04  0.25500000920E-02 0.  1.
    10030    2    1    2    0    0  0.00000000000E+00  0.00000000000E+00  0.71480007081E+03  0.39568705125E+04  0.38917714618E+04 0.  0.
        2    1    3    3  502    0 -0.68916332074E+03  0.87678870923E+03 -0.12638790173E+04  0.16855547139E+04  0.25500000920E-02 0.  1.
       -2    1    3    3    0  502  0.68916332074E+03 -0.87678870923E+03  0.19786790881E+04  0.22713157986E+04  0.25500000920E-02 0. -1.
</event>
<event>
 5   0  0.2904500E-09  0.3899133E+04  0.7818609E-02  0.8025210E-01
       -1   -1    0    0    0  501  0.00000000000E+00  0.00000000000E+00  0.15794142411E+04  0.15794142411E+04  0.50400001928E-02 0.  1.
        1   -1    0    0  501    0  0.00000000000E+00  0.00000000000E+00 -0.24064678818E+04  0.24064678818E+04  0.50400001928E-02 0. -1.
    10030    2    1    2    0    0  0.00000000000E+00  0.00000000000E+00 -0.82705364074E+03  0.39858821230E+04  0.38991330541E+04 0.  0.
        3    1    3    3  502    0 -0.15360059978E+04 -0.54733947992E+03 -0.15059055314E+04  0.22196050124E+04  0.10100000352E+00 0. -1.
       -3    1    3    3    0  502  0.15360059978E+04  0.54733947992E+03  0.67885189070E+03  0.17662771105E+04  0.10100000352E+00 0.  1.
</event>
<event>
 5   0  0.2904500E-09  0.3899544E+04  0.7818609E-02  0.8025124E-01
        1   -1    0    0  501    0  0.00000000000E+00  0.00000000000E+00  0.22029263433E+04  0.22029263433E+04  0.50400001928E-02 0. -1.
       -1   -1    0    0    0  501  0.00000000000E+00  0.00000000000E+00 -0.17257097376E+04  0.17257097376E+04  0.50400001928E-02 0.  1.
    10030    2    1    2    0    0  0.00000000000E+00  0.00000000000E+00  0.47721660576E+03  0.39286360809E+04  0.38995443025E+04 0.  0.
        3    1    3    3  502    0 -0.14340117533E+04  0.12227838474E+04 -0.26514339282E+03  0.19031266576E+04  0.10100000352E+00 0. -1.
       -3    1    3    3    0  502  0.14340117533E+04 -0.12227838474E+04  0.74235999859E+03  0.20255094233E+04  0.10100000352E+00 0.  1.
</event>
<event>
 5   0  0.9368546E-09  0.3900076E+04  0.7818609E-02  0.8025013E-01
       -2   -1    0    0    0  501  0.00000000000E+00  0.00000000000E+00  0.16702825553E+04  0.16702825553E+04  0.25500000920E-02 0. -1.
        2   -1    0    0  501    0  0.00000000000E+00  0.00000000000E+00 -0.22766499256E+04  0.22766499256E+04  0.25500000920E-02 0.  1.
    10030    2    1    2    0    0  0.00000000000E+00  0.00000000000E+00 -0.60636737033E+03  0.39469324809E+04  0.39000762327E+04 0.  0.
        5    1    3    3  502    0  0.61750691028E+03  0.15436946395E+04 -0.13344051080E+04  0.21318928225E+04  0.46999998093E+01 0.  1.
       -5    1    3    3    0  502 -0.61750691028E+03 -0.15436946395E+04  0.72803773766E+03  0.18150396584E+04  0.46999998093E+01 0. -1.
</event>
<event>
 5   0  0.9277261E-09  0.3900054E+04  0.7818609E-02  0.8025018E-01
        2   -1    0    0  501    0  0.00000000000E+00  0.00000000000E+00  0.19070010759E+04  0.19070010759E+04  0.25500000920E-02 0. -1.
       -2   -1    0    0    0  501  0.00000000000E+00  0.00000000000E+00 -0.19940234728E+04  0.19940234728E+04  0.25500000920E-02 0.  1.
    10030    2    1    2    0    0  0.00000000000E+00  0.00000000000E+00 -0.87022396811E+02  0.39010245487E+04  0.39000537986E+04 0.  0.
        1    1    3    3  502    0  0.52567900390E+02 -0.15178596549E+04 -0.12669033619E+04  0.19778031865E+04  0.50400001928E-02 0.  1.
       -1    1    3    3    0  502 -0.52567900390E+02  0.15178596549E+04  0.11798809651E+04  0.19232213622E+04  0.50400001928E-02 0. -1.
</event>
<event>
 5   0  0.2904500E-09  0.3892693E+04  0.7818609E-02  0.8026551E-01
        1   -1    0    0  501    0  0.00000000000E+00  0.00000000000E+00  0.18283941794E+04  0.18283941794E+04  0.50400001928E-02 0. -1.
       -1   -1    0    0    0  501  0.00000000000E+00  0.00000000000E+00 -0.20719080662E+04  0.20719080662E+04  0.50400001928E-02 0.  1.
    10030    2    1    2    0    0  0.00000000000E+00  0.00000000000E+00 -0.24351388680E+03  0.39003022455E+04  0.38926929745E+04 0.  0.
        5    1    3    3  502    0 -0.20703994575E+03  0.11182922866E+04 -0.17043378638E+04  0.20489589604E+04  0.46999998093E+01 0.  1.
       -5    1    3    3    0  502  0.20703994575E+03 -0.11182922866E+04  0.14608239770E+04  0.18513432851E+04  0.46999998093E+01 0. -1.
</event>
<event>
 5   0  0.6335942E-09  0.3900660E+04  0.7818609E-02  0.8024892E-01
       -2   -1    0    0    0  501  0.00000000000E+00  0.00000000000E+00  0.20475650372E+04  0.20475650372E+04  0.25500000920E-02 0. -1.
        2   -1    0    0  501    0  0.00000000000E+00  0.00000000000E+00 -0.18577127081E+04  0.18577127081E+04  0.25500000920E-02 0.  1.
    10030    2    1    2    0    0  0.00000000000E+00  0.00000000000E+00  0.18985232905E+03  0.39052777453E+04  0.39006602468E+04 0.  0.
        2    1    3    3  502    0 -0.17647497494E+04 -0.82814617898E+03  0.15516231514E+03  0.19555672107E+04  0.25500000920E-02 0. -1.
       -2    1    3    3    0  502  0.17647497494E+04  0.82814617898E+03  0.34690013910E+02  0.19497105346E+04  0.25500000920E-02 0.  1.
</event>
<event>
 5   0  0.2929054E-09  0.3892902E+04  0.7818609E-02  0.8026507E-01
       -1   -1    0    0    0  501  0.00000000000E+00  0.00000000000E+00  0.34780715706E+04  0.34780715706E+04  0.50400001928E-02 0.  1.
        1   -1    0    0  501    0  0.00000000000E+00  0.00000000000E+00 -0.10893023812E+04  0.10893023812E+04  0.50400001928E-02 0. -1.
    10030    2    1    2    0    0  0.00000000000E+00  0.00000000000E+00  0.23887691894E+04  0.45673739518E+04  0.38929020762E+04 0.  0.
        1    1    3    3  502    0 -0.23941123606E+03  0.42289819638E+03  0.34057515122E+04  0.34402476636E+04  0.50400001928E-02 0.  1.
       -1    1    3    3    0  502  0.23941123606E+03 -0.42289819638E+03 -0.10169823228E+04  0.11271262881E+04  0.50400001928E-02 0. -1.
</event>
<event>
 5   0  0.2904500E-09  0.3902168E+04  0.7818609E-02  0.8024579E-01
        3   -1    0    0  501    0  0.00000000000E+00  0.00000000000E+00  0.24275244306E+04  0.24275244327E+04  0.10100000352E+00 0. -1.
       -3   -1    0    0    0  501  0.00000000000E+00  0.00000000000E+00 -0.15681523578E+04  0.15681523610E+04  0.10100000352E+00 0.  1.
    10030    2    1    2    0    0  0.00000000000E+00  0.00000000000E+00  0.85937207281E+03  0.39956767938E+04  0.39021676900E+04 0.  0.
        2    1    3    3  502    0  0.75038897281E+02  0.10416340250E+03  0.24231950211E+04  0.24265932829E+04  0.25500000920E-02 0. -1.
       -2    1    3    3    0  502 -0.75038897281E+02 -0.10416340250E+03 -0.15638229483E+04  0.15690835108E+04  0.25500000920E-02 0.  1.
</event>
<event>
 5   0  0.9277261E-09  0.3901260E+04  0.7818609E-02  0.8024767E-01
       -2   -1    0    0    0  501  0.00000000000E+00  0.00000000000E+00  0.33267626003E+04  0.33267626003E+04  0.25500000920E-02 0.  1.
        2   -1    0    0  501    0  0.00000000000E+00  0.00000000000E+00 -0.11437419873E+04  0.11437419873E+04  0.25500000920E-02 0. -1.
    10030    2    1    2    0    0  0.00000000000E+00  0.00000000000E+00  0.21830206129E+04  0.44705045876E+04  0.39012603439E+04 0.  0.
        1    1    3    3  502    0 -0.47430529772E+03  0.16930157040E+04  0.20595797958E+04  0.27079764815E+04  0.50400001928E-02 0.  1.
       -1    1    3    3    0  502  0.47430529772E+03 -0.16930157040E+04  0.12344081714E+03  0.17625281061E+04  0.50400001928E-02 0. -1.
</event>
<event>
 5   0  0.9368546E-09  0.3919644E+04  0.7818609E-02  0.8020956E-01
        2   -1    0    0  501    0  0.00000000000E+00  0.00000000000E+00  0.20970646034E+04  0.20970646034E+04  0.25500000920E-02 0. -1.
       -2   -1    0    0    0  501  0.00000000000E+00  0.00000000000E+00 -0.18315611278E+04  0.18315611278E+04  0.25500000920E-02 0.  1.
    10030    2    1    2    0    0  0.00000000000E+00  0.00000000000E+00  0.26550347558E+03  0.39286257312E+04  0.39196438666E+04 0.  0.
        5    1    3    3  502    0 -0.17128403009E+04  0.49439737367E+02 -0.82053957725E+03  0.18998877524E+04  0.46999998093E+01 0.  1.
       -5    1    3    3    0  502  0.17128403009E+04 -0.49439737367E+02  0.10860430528E+04  0.20287379788E+04  0.46999998093E+01 0. -1.
</event>
<event>
 5   0  0.2904500E-09  0.3899610E+04  0.7818609E-02  0.8025110E-01
       -1   -1    0    0    0  501  0.00000000000E+00  0.00000000000E+00  0.24945746798E+04  0.24945746798E+04  0.50400001928E-02 0. -1.
        1   -1    0    0  501    0  0.00000000000E+00  0.00000000000E+00 -0.15240028168E+04  0.15240028168E+04  0.50400001928E-02 0.  1.
    10030    2    1    2    0    0  0.00000000000E+00  0.00000000000E+00  0.97057186306E+03  0.40185774966E+04  0.38996096413E+04 0.  0.
        3    1    3    3  502    0  0.67100550717E+03  0.16752026523E+04  0.12461792381E+04  0.21930606514E+04  0.10100000352E+00 0. -1.
       -3    1    3    3    0  502 -0.67100550717E+03 -0.16752026523E+04 -0.27560737503E+03  0.18255168452E+04  0.10100000352E+00 0.  1.
</event>
<event>
 5   0  0.2904500E-09  0.3901881E+04  0.7818609E-02  0.8024638E-01
        1   -1    0    0  501    0  0.00000000000E+00  0.00000000000E+00  0.17977761212E+04  0.17977761212E+04  0.50400001928E-02 0. -1.
       -1   -1    0    0    0  501  0.00000000000E+00  0.00000000000E+00 -0.21171539741E+04  0.21171539741E+04  0.50400001928E-02 0.  1.
    10030    2    1    2    0    0  0.00000000000E+00  0.00000000000E+00 -0.31937785294E+03  0.39149300953E+04  0.39018810128E+04 0.  0.
        5    1    3    3  502    0 -0.44454168560E+01  0.16461629830E+04  0.89084391723E+03  0.18717631536E+04  0.46999998093E+01 0. -1.
       -5    1    3    3    0  502  0.44454168560E+01 -0.16461629830E+04 -0.12102217702E+04  0.20431669416E+04  0.46999998093E+01 0.  1.
</event>
<event>
 5   0  0.2904500E-09  0.3897364E+04  0.7818609E-02  0.8025578E-01
        1   -1    0    0  501    0  0.00000000000E+00  0.00000000000E+00  0.24046635299E+04  0.24046635299E+04  0.50400001928E-02 0.  1.
       -1   -1    0    0    0  501  0.00000000000E+00  0.00000000000E+00 -0.15791652719E+04  0.15791652719E+04  0.50400001928E-02 0. -1.
    10030    2    1    2    0    0  0.00000000000E+00  0.00000000000E+00  0.82549825804E+03  0.39838288018E+04  0.38973637946E+04 0.  0.
        2    1    3    3  502    0 -0.18128963486E+04  0.80319118714E+02 -0.31315863395E+03  0.18414973966E+04  0.25500000920E-02 0. -1.
       -2    1    3    3    0  502  0.18128963486E+04 -0.80319118714E+02  0.11386568920E+04  0.21423314051E+04  0.25500000920E-02 0.  1.
</event>
<event>
 5   0  0.6335942E-09  0.3897251E+04  0.7818609E-02  0.8025601E-01
       -2   -1    0    0    0  501  0.00000000000E+00  0.00000000000E+00  0.23940364559E+04  0.23940364559E+04  0.25500000920E-02 0.  1.
        2   -1    0    0  501    0  0.00000000000E+00  0.00000000000E+00 -0.15860835136E+04  0.15860835136E+04  0.25500000920E-02 0. -1.
    10030    2    1    2    0    0  0.00000000000E+00  0.00000000000E+00  0.80795294230E+03  0.39801199695E+04  0.38972512126E+04 0.  0.
        2    1    3    3  502    0 -0.32625451900E+03 -0.72392968538E+03  0.22213161882E+04  0.23589747368E+04  0.25500000920E-02 0.  1.
       -2    1    3    3    0  502  0.32625451900E+03  0.72392968538E+03 -0.14133632459E+04  0.16211452327E+04  0.25500000920E-02 0. -1.
</event>
<event>
 5   0  0.2904500E-09  0.3899311E+04  0.7818609E-02  0.8025172E-01
       -1   -1    0    0    0  501  0.00000000000E+00  0.00000000000E+00  0.22458040654E+04  0.22458040655E+04  0.50400001928E-02 0.  1.
        1   -1    0    0  501    0  0.00000000000E+00  0.00000000000E+00 -0.16925597174E+04  0.16925597174E+04  0.50400001928E-02 0. -1.
    10030    2    1    2    0    0  0.00000000000E+00  0.00000000000E+00  0.55324434804E+03  0.39383637829E+04  0.38993114748E+04 0.  0.
        4    1    3    3  502    0 -0.11486806849E+04 -0.90775145832E+03  0.15770244089E+04  0.21518567854E+04  0.12699999809E+01 0.  1.
       -4    1    3    3    0  502  0.11486806849E+04  0.90775145832E+03 -0.10237800609E+04  0.17865069974E+04  0.12699999809E+01 0. -1.
</event>
<event>
 5   0  0.2904500E-09  0.3900416E+04  0.7818609E-02  0.8024943E-01
        1   -1    0    0  501    0  0.00000000000E+00  0.00000000000E+00  0.16130486635E+04  0.16130486635E+04  0.50400001928E-02 0. -1.
       -1   -1    0    0    0  501  0.00000000000E+00  0.00000000000E+00 -0.23578406314E+04  0.23578406314E+04  0.50400001928E-02 0.  1.
    10030    2    1    2    0    0  0.00000000000E+00  0.00000000000E+00 -0.74479196787E+03  0.39708892949E+04  0.39004162236E+04 0.  0.
        3    1    3    3  502    0 -0.23907183459E+03  0.56549418409E+03  0.15120952559E+04  0.16319837890E+04  0.10100000352E+00 0. -1.
       -3    1    3    3    0  502  0.23907183459E+03 -0.56549418409E+03 -0.22568872238E+04  0.23389055059E+04  0.10100000352E+00 0.  1.
</event>
<event>
 5   0  0.9368546E-09  0.3899737E+04  0.7818609E-02  0.8025084E-01
        2   -1    0    0  501    0  0.00000000000E+00  0.00000000000E+00  0.21033339848E+04  0.21033339848E+04  0.25500000920E-02 0.  1.
       -2   -1    0    0    0  501  0.00000000000E+00  0.00000000000E+00 -0.18076006380E+04  0.18076006380E+04  0.25500000920E-02 0. -1.
    10030    2    1    2    0    0  0.00000000000E+00  0.00000000000E+00  0.29573334677E+03  0.39109346227E+04  0.38997373515E+04 0.  0.
        5    1    3    3  502    0 -0.25456445056E+03 -0.18957117721E+04 -0.23195496339E+03  0.19267463189E+04  0.46999998093E+01 0. -1.
       -5    1    3    3    0  502  0.25456445056E+03  0.18957117721E+04  0.52768831016E+03  0.19841883038E+04  0.46999998093E+01 0.  1.
</event>
<event>
 5   0  0.9434114E-09  0.3899612E+04  0.7818609E-02  0.8025110E-01
        2   -1    0    0  501    0  0.00000000000E+00  0.00000000000E+00  0.22172795211E+04  0.22172795211E+04  0.25500000920E-02 0.  1.
       -2   -1    0    0    0  501  0.00000000000E+00  0.00000000000E+00 -0.17145981575E+04  0.17145981575E+04  0.25500000920E-02 0. -1.
    10030    2    1    2    0    0  0.00000000000E+00  0.00000000000E+00  0.50268136355E+03  0.39318776786E+04  0.38996119712E+04 0.  0.
        4    1    3    3  502    0 -0.32488944615E+03 -0.18976646390E+04 -0.59524352558E+02  0.19261954718E+04  0.12699999809E+01 0. -1.
       -4    1    3    3    0  502  0.32488944615E+03  0.18976646390E+04  0.56220571611E+03  0.20056822067E+04  0.12699999809E+01 0.  1.
</event>
<event>
 5   0  0.9078515E-09  0.3899262E+04  0.7818609E-02  0.8025183E-01
       -2   -1    0    0    0  501  0.00000000000E+00  0.00000000000E+00  0.22367091838E+04  0.22367091838E+04  0.25500000920E-02 0.  1.
        2   -1    0    0  501    0  0.00000000000E+00  0.00000000000E+00 -0.16993991031E+04  0.16993991031E+04  0.25500000920E-02 0. -1.
    10030    2    1    2    0    0  0.00000000000E+00  0.00000000000E+00  0.53731008070E+03  0.39361082870E+04  0.38992622795E+04 0.  0.
        3    1    3    3  502    0  0.19398671961E+04 -0.13635839864E+02  0.46489081558E+03  0.19948418873E+04  0.10100000352E+00 0.  1.
       -3    1    3    3    0  502 -0.19398671961E+04  0.13635839864E+02  0.72419265117E+02  0.19412663997E+04  0.10100000352E+00 0. -1.
</event>
<event>
 5   0  0.9078515E-09  0.3900265E+04  0.7818609E-02  0.8024974E-01
       -2   -1    0    0    0  501  0.00000000000E+00  0.00000000000E+00  0.13249734964E+04  0.13249734964E+04  0.25500000920E-02 0.  1.
        2   -1    0    0  501    0  0.00000000000E+00  0.00000000000E+00 -0.28702582814E+04  0.28702582814E+04  0.25500000920E-02 0. -1.
    10030    2    1    2    0    0  0.00000000000E+00  0.00000000000E+00 -0.15452847849E+04  0.41952317778E+04  0.39002646837E+04 0.  0.
        3    1    3    3  502    0 -0.78347459578E+03 -0.15089820919E+04 -0.17999408026E+04  0.24760141960E+04  0.10100000352E+00 0. -1.
       -3    1    3    3    0  502  0.78347459578E+03  0.15089820919E+04  0.25465601767E+03  0.17192175818E+04  0.10100000352E+00 0.  1.
</event>
<event>
 5   0  0.2904500E-09  0.3900180E+04  0.7818609E-02  0.8024992E-01
       -1   -1    0    0    0  501  0.00000000000E+00  0.00000000000E+00  0.18929044073E+04  0.18929044073E+04  0.50400001928E-02 0. -1.
        1   -1    0    0  501    0  0.00000000000E+00  0.00000000000E+00 -0.20090029987E+04  0.20090029987E+04  0.50400001928E-02 0.  1.
    10030    2    1    2    0    0  0.00000000000E+00  0.00000000000E+00 -0.11609859144E+03  0.39019074060E+04  0.39001798063E+04 0.  0.
        4    1    3    3  502    0  0.57341595548E+03 -0.42763652156E+03  0.17569125451E+04  0.18969507523E+04  0.12699999809E+01 0. -1.
       -4    1    3    3    0  502 -0.57341595548E+03  0.42763652156E+03 -0.18730111365E+04  0.20049566537E+04  0.12699999809E+01 0.  1.
</event>
<event>
 5   0  0.9434114E-09  0.3899256E+04  0.7818609E-02  0.8025184E-01
        2   -1    0    0  501    0  0.00000000000E+00  0.00000000000E+00  0.15478864950E+04  0.15478864950E+04  0.25500000920E-02 0. -1.
       -2   -1    0    0    0  501  0.00000000000E+00  0.00000000000E+00 -0.24556380464E+04  0.24556380464E+04  0.25500000920E-02 0.  1.
    10030    2    1    2    0    0  0.00000000000E+00  0.00000000000E+00 -0.90775155141E+03  0.40035245415E+04  0.38992558104E+04 0.  0.
        4    1    3    3  502    0 -0.98384487870E+03 -0.10212406717E+04 -0.18276241420E+04  0.23132433664E+04  0.12699999809E+01 0.  1.
       -4    1    3    3    0  502  0.98384487870E+03  0.10212406717E+04  0.91987259061E+03  0.16902811750E+04  0.12699999809E+01 0. -1.
</event>
<event>
 5   0  0.2904500E-09  0.3900370E+04  0.7818609E-02  0.8024952E-01
       -1   -1    0    0    0  501  0.00000000000E+00  0.00000000000E+00  0.30258045145E+04  0.30258045145E+04  0.50400001928E-02 0. -1.
        1   -1    0    0  501    0  0.00000000000E+00  0.00000000000E+00 -0.12569292997E+04  0.12569292997E+04  0.50400001928E-02 0.  1.
    10030    2    1    2    0    0  0.00000000000E+00  0.00000000000E+00  0.17688752148E+04  0.42827338142E+04  0.39003704180E+04 0.  0.
        2    1    3    3  502    0  0.96645826810E+03 -0.12799326332E+04 -0.33381122236E+03  0.16381999455E+04  0.25500000920E-02 0.  1.
       -2    1    3    3    0  502 -0.96645826810E+03  0.12799326332E+04  0.21026864371E+04  0.26445338686E+04  0.25500000920E-02 0. -1.
</event>
<event>
 5   0  0.2929054E-09  0.3901903E+04  0.7818609E-02  0.8024634E-01
       -1   -1    0    0    0  501  0.00000000000E+00  0.00000000000E+00  0.36701710826E+04  0.36701710826E+04  0.50400001928E-02 0.  1.
        1   -1    0    0  501    0  0.00000000000E+00  0.00000000000E+00 -0.10370664046E+04  0.10370664046E+04  0.50400001928E-02 0. -1.
    10030    2    1    2    0    0  0.00000000000E+00  0.00000000000E+00  0.26331046780E+04  0.47072374872E+04  0.39019026789E+04 0.  0.
        1    1    3    3  502    0 -0.60223755429E+03 -0.92769359933E+03  0.32554011612E+04  0.34381597122E+04  0.50400001928E-02 0.  1.
       -1    1    3    3    0  502  0.60223755429E+03  0.92769359933E+03 -0.62229648319E+03  0.12690777750E+04  0.50400001928E-02 0. -1.
</event>
<event>
 5   0  0.2904500E-09  0.3900292E+04  0.7818609E-02  0.8024968E-01
        1   -1    0    0  501    0  0.00000000000E+00  0.00000000000E+00  0.19610095664E+04  0.19610095664E+04  0.50400001928E-02 0.  1.
       -1   -1    0    0    0  501  0.00000000000E+00  0.00000000000E+00 -0.19393428463E+04  0.19393428463E+04  0.50400001928E-02 0. -1.
    10030    2    1    2    0    0  0.00000000000E+00  0.00000000000E+00  0.21666720096E+02  0.39003524127E+04  0.39002922322E+04 0.  0.
        5    1    3    3  502    0  0.13903175754E+04  0.21775959374E+03 -0.13392413895E+04  0.19426764503E+04  0.46999998093E+01 0.  1.
       -5    1    3    3    0  502 -0.13903175754E+04 -0.21775959374E+03  0.13609081096E+04  0.19576759624E+04  0.46999998093E+01 0. -1.
</event>
<event>
 5   0  0.6335942E-09  0.3898887E+04  0.7818609E-02  0.8025261E-01
       -2   -1    0    0    0  501  0.00000000000E+00  0.00000000000E+00  0.12788907920E+04  0.12788907920E+04  0.25500000920E-02 0. -1.
        2   -1    0    0  501    0  0.00000000000E+00  0.00000000000E+00 -0.29715835132E+04  0.29715835132E+04  0.25500000920E-02 0.  1.
    10030    2    1    2    0    0  0.00000000000E+00  0.00000000000E+00 -0.16926927212E+04  0.42504743052E+04  0.38988874273E+04 0.  0.
        2    1    3    3  502    0 -0.18436581913E+04  0.63076138733E+03 -0.78282230204E+03  0.20999395731E+04  0.25500000920E-02 0.  1.
       -2    1    3    3    0  502  0.18436581913E+04 -0.63076138733E+03 -0.90987041915E+03  0.21505347321E+04  0.25500000920E-02 0. -1.
</event>
<event>
 5   0  0.9434114E-09  0.3900920E+04  0.7818609E-02  0.8024838E-01
       -2   -1    0    0    0  501  0.00000000000E+00  0.00000000000E+00  0.21231810852E+04  0.21231810852E+04  0.25500000920E-02 0.  1.
        2   -1    0    0  501    0  0.00000000000E+00  0.00000000000E+00 -0.17917898788E+04  0.17917898788E+04  0.25500000920E-02 0. -1.
    10030    2    1    2    0    0  0.00000000000E+00  0.00000000000E+00  0.33139120638E+03  0.39149709640E+04  0.39009200860E+04 0.  0.
        4    1    3    3  502    0  0.99442387618E+02  0.81816407830E+03  0.19398332155E+04  0.21076612072E+04  0.12699999809E+01 0.  1.
       -4    1    3    3    0  502 -0.99442387618E+02 -0.81816407830E+03 -0.16084420091E+04  0.18073097568E+04  0.12699999809E+01 0. -1.
</event>
<event>
 5   0  0.9078515E-09  0.3905319E+04  0.7818609E-02  0.8023924E-01
        2   -1    0    0  501    0  0.00000000000E+00  0.00000000000E+00  0.25450457654E+04  0.25450457654E+04  0.25500000920E-02 0.  1.
       -2   -1    0    0    0  501  0.00000000000E+00  0.00000000000E+00 -0.14981574479E+04  0.14981574479E+04  0.25500000920E-02 0. -1.
    10030    2    1    2    0    0  0.00000000000E+00  0.00000000000E+00  0.10468883175E+04  0.40432032133E+04  0.39053190747E+04 0.  0.
        3    1    3    3  502    0 -0.58047265667E+02  0.16684236556E+04  0.15720582619E+04  0.22931145127E+04  0.10100000352E+00 0.  1.
       -3    1    3    3    0  502  0.58047265667E+02 -0.16684236556E+04 -0.52516994436E+03  0.17500887006E+04  0.10100000352E+00 0. -1.
</event>
<event>
 5   0  0.2904500E-09  0.3899103E+04  0.7818609E-02  0.8025216E-01
       -1   -1    0    0    0  501  0.00000000000E+00  0.00000000000E+00  0.12240112136E+04  0.12240112136E+04  0.50400001928E-02 0.  1.
        1   -1    0    0  501    0  0.00000000000E+00  0.00000000000E+00 -0.31051603162E+04  0.31051603162E+04  0.50400001928E-02 0. -1.
    10030    2    1    2    0    0  0.00000000000E+00  0.00000000000E+00 -0.18811491025E+04  0.43291715298E+04  0.38991029979E+04 0.  0.
        5    1    3    3  502    0 -0.88781895949E+03  0.89270734290E+03 -0.25932356681E+04  0.28827143850E+04  0.46999998093E+01 0. -1.
       -5    1    3    3    0  502  0.88781895949E+03 -0.89270734290E+03  0.71208656560E+03  0.14464571448E+04  0.46999998093E+01 0.  1.
</event>
<event>
 5   0  0.9368546E-09  0.3892414E+04  0.7818609E-02  0.8026609E-01
       -2   -1    0    0    0  501  0.00000000000E+00  0.00000000000E+00  0.12808971382E+04  0.12808971382E+04  0.25500000920E-02 0. -1.
        2   -1    0    0  501    0  0.00000000000E+00  0.00000000000E+00 -0.29570849323E+04  0.29570849323E+04  0.25500000920E-02 0.  1.
    10030    2    1    2    0    0  0.00000000000E+00  0.00000000000E+00 -0.16761877941E+04  0.42379820705E+04  0.38924139694E+04 0.  0.
        5    1    3    3  502    0  0.72412598999E+03  0.78961329952E+03 -0.26071022193E+04  0.28186613283E+04  0.46999998093E+01 0.  1.
       -5    1    3    3    0  502 -0.72412598999E+03 -0.78961329952E+03  0.93091442521E+03  0.14193207422E+04  0.46999998093E+01 0. -1.
</event>
<event>
 5   0  0.6335942E-09  0.3899511E+04  0.7818609E-02  0.8025131E-01
       -2   -1    0    0    0  501  0.00000000000E+00  0.00000000000E+00  0.27088561127E+04  0.27088561127E+04  0.25500000920E-02 0.  1.
        2   -1    0    0  501    0  0.00000000000E+00  0.00000000000E+00 -0.14033773529E+04  0.14033773529E+04  0.25500000920E-02 0. -1.
    10030    2    1    2    0    0  0.00000000000E+00  0.00000000000E+00  0.13054787598E+04  0.41122334656E+04  0.38995114159E+04 0.  0.
        2    1    3    3  502    0 -0.21883433445E+03 -0.19208928516E+04  0.38631233105E+03  0.19715362107E+04  0.25500000920E-02 0. -1.
       -2    1    3    3    0  502  0.21883433445E+03  0.19208928516E+04  0.91916642875E+03  0.21406972548E+04  0.25500000920E-02 0.  1.
</event>
<event>
 5   0  0.9277261E-09  0.3900338E+04  0.7818609E-02  0.8024959E-01
        2   -1    0    0  501    0  0.00000000000E+00  0.00000000000E+00  0.26021416786E+04  0.26021416786E+04  0.25500000920E-02 0. -1.
       -2   -1    0    0    0  501  0.00000000000E+00  0.00000000000E+00 -0.14615499108E+04  0.14615499108E+04  0.25500000920E-02 0.  1.
    10030    2    1    2    0    0  0.00000000000E+00  0.00000000000E+00  0.11405917678E+04  0.40636915894E+04  0.39003384152E+04 0.  0.
        1    1    3    3  502    0 -0.48578111074E+03  0.12031310893E+04 -0.94658247745E+03  0.16060903126E+04  0.50400001928E-02 0.  1.
       -1    1    3    3    0  502  0.48578111074E+03 -0.12031310893E+04  0.20871742452E+04  0.24576012768E+04  0.50400001928E-02 0. -1.
</event>
<event>
 5   0  0.2904500E-09  0.3900694E+04  0.7818609E-02  0.8024885E-01
       -1   -1    0    0    0  501  0.00000000000E+00  0.00000000000E+00  0.14710367040E+04  0.14710367040E+04  0.50400001928E-02 0. -1.
        1   -1    0    0  501    0  0.00000000000E+00  0.00000000000E+00 -0.25858316351E+04  0.25858316351E+04  0.50400001928E-02 0.  1.
    10030    2    1    2    0    0  0.00000000000E+00  0.00000000000E+00 -0.11147949311E+04  0.40568683391E+04  0.39006939104E+04 0.  0.
        4    1    3    3  502    0  0.35280618637E+03 -0.17215709246E+04 -0.14371813601E+04  0.22701917382E+04  0.12699999809E+01 0.  1.
       -4    1    3    3    0  502 -0.35280618637E+03  0.17215709246E+04  0.32238642899E+03  0.17866766009E+04  0.12699999809E+01 0. -1.
</event>
<event>
 5   0  0.2904500E-09  0.3903592E+04  0.7818609E-02  0.8024283E-01
        1   -1    0    0  501    0  0.00000000000E+00  0.00000000000E+00  0.30043506845E+04  0.30043506845E+04  0.50400001928E-02 0.  1.
       -1   -1    0    0    0  501  0.00000000000E+00  0.00000000000E+00 -0.12679968468E+04  0.12679968468E+04  0.50400001928E-02 0. -1.
    10030    2    1    2    0    0  0.00000000000E+00  0.00000000000E+00  0.17363538378E+04  0.42723475313E+04  0.39035917792E+04 0.  0.
        5    1    3    3  502    0  0.98839537184E+03  0.15537280540E+04  0.16015922317E+03  0.18484234752E+04  0.46999998093E+01 0. -1.
       -5    1    3    3    0  502 -0.98839537184E+03 -0.15537280540E+04  0.15761946146E+04  0.24239240561E+04  0.46999998093E+01 0.  1.
</event>
<event>
 5   0  0.9078515E-09  0.3897236E+04  0.7818609E-02  0.8025604E-01
       -2   -1    0    0    0  501  0.00000000000E+00  0.00000000000E+00  0.23251964573E+04  0.23251964573E+04  0.25500000920E-02 0.  1.
        2   -1    0    0  501    0  0.00000000000E+00  0.00000000000E+00 -0.16330285363E+04  0.16330285363E+04  0.25500000920E-02 0. -1.
    10030    2    1    2    0    0  0.00000000000E+00  0.00000000000E+00  0.69216792095E+03  0.39582249936E+04  0.38972360295E+04 0.  0.
        3    1    3    3  502    0  0.15126081358E+04 -0.98285371406E+03 -0.40242087256E+03  0.18482227584E+04  0.10100000352E+00 0. -1.
       -3    1    3    3    0  502 -0.15126081358E+04  0.98285371406E+03  0.10945887935E+04  0.21100022353E+04  0.10100000352E+00 0.  1.
</event>
<event>
 5   0  0.9368546E-09  0.3899424E+04  0.7818609E-02  0.8025149E-01
        2   -1    0    0  501    0  0.00000000000E+00  0.00000000000E+00  0.13509429702E+04  0.13509429702E+04  0.25500000920E-02 0. -1.
       -2   -1    0    0    0  501  0.00000000000E+00  0.00000000000E+00 -0.28138687958E+04  0.28138687958E+04  0.25500000920E-02 0.  1.
    10030    2    1    2    0    0  0.00000000000E+00  0.00000000000E+00 -0.14629258256E+04  0.41648117659E+04  0.38994236849E+04 0.  0.
        5    1    3    3  502    0  0.51519527062E+03 -0.12943611135E+04  0.72539259278E+03  0.15706729012E+04  0.46999998093E+01 0. -1.
       -5    1    3    3    0  502 -0.51519527062E+03  0.12943611135E+04 -0.21883184184E+04  0.25941388647E+04  0.46999998093E+01 0.  1.
</event>
<event>
 5   0  0.9368546E-09  0.3896554E+04  0.7818609E-02  0.8025746E-01
        2   -1    0    0  501    0  0.00000000000E+00  0.00000000000E+00  0.24605125285E+04  0.24605125285E+04  0.25500000920E-02 0. -1.
       -2   -1    0    0    0  501  0.00000000000E+00  0.00000000000E+00 -0.15426800781E+04  0.15426800781E+04  0.25500000920E-02 0.  1.
    10030    2    1    2    0    0  0.00000000000E+00  0.00000000000E+00  0.91783245035E+03  0.40031926066E+04  0.38965542007E+04 0.  0.
        5    1    3    3  502    0  0.99797385624E+02  0.18214797867E+04  0.11617537263E+04  0.21627394531E+04  0.46999998093E+01 0. -1.
       -5    1    3    3    0  502 -0.99797385624E+02 -0.18214797867E+04 -0.24392127596E+03  0.18404531535E+04  0.46999998093E+01 0.  1.
</event>
<event>
 5   0  0.9434114E-09  0.3899129E+04  0.7818609E-02  0.8025210E-01
       -2   -1    0    0    0  501  0.00000000000E+00  0.00000000000E+00  0.11653076269E+04  0.11653076269E+04  0.25500000920E-02 0. -1.
        2   -1    0    0  501    0  0.00000000000E+00  0.00000000000E+00 -0.32616302589E+04  0.32616302589E+04  0.25500000920E-02 0.  1.
    10030    2    1    2    0    0  0.00000000000E+00  0.00000000000E+00 -0.20963226319E+04  0.44269378858E+04  0.38991294500E+04 0.  0.
        4    1    3    3  502    0  0.11244078123E+04  0.39410178737E+03 -0.28001567456E+04  0.30431050853E+04  0.12699999809E+01 0.  1.
       -4    1    3    3    0  502 -0.11244078123E+04 -0.39410178737E+03  0.70383411369E+03  0.13838328005E+04  0.12699999809E+01 0. -1.
</event>
<event>
 5   0  0.9434114E-09  0.3897220E+04  0.7818609E-02  0.8025608E-01
       -2   -1    0    0    0  501  0.00000000000E+00  0.00000000000E+00  0.15949869079E+04  0.15949869079E+04  0.25500000920E-02 0.  1.
        2   -1    0    0  501    0  0.00000000000E+00  0.00000000000E+00 -0.23806344893E+04  0.23806344893E+04  0.25500000920E-02 0. -1.
    10030    2    1    2    0    0  0.00000000000E+00  0.00000000000E+00 -0.78564758136E+03  0.39756213972E+04  0.38972199542E+04 0.  0.
        4    1    3    3  502    0 -0.14082853286E+04 -0.86753010592E+03 -0.14436947073E+04  0.21954799184E+04  0.12699999809E+01 0. -1.
       -4    1    3    3    0  502  0.14082853286E+04  0.86753010592E+03  0.65804712596E+03  0.17801414787E+04  0.12699999809E+01 0.  1.
</event>
<event>
 5   0  0.2904500E-09  0.3900736E+04  0.7818609E-02  0.8024876E-01
       -1   -1    0    0    0  501  0.00000000000E+00  0.00000000000E+00  0.15741717279E+04  0.15741717279E+04  0.50400001928E-02 0. -1.
        1   -1    0    0  501    0  0.00000000000E+00  0.00000000000E+00 -0.24164678063E+04  0.24164678063E+04  0.50400001928E-02 0.  1.
    10030    2    1    2    0    0  0.00000000000E+00  0.00000000000E+00 -0.84229607843E+03  0.39906395342E+04  0.39007359829E+04 0.  0.
        5    1    3    3  502    0 -0.12283866516E+04  0.14876476240E+04 -0.12839901886E+03  0.19335298335E+04  0.46999998093E+01 0. -1.
       -5    1    3    3    0  502  0.12283866516E+04 -0.14876476240E+04 -0.71389705957E+03  0.20571097007E+04  0.46999998093E+01 0.  1.
</event>
<event>
 5   0  0.9277261E-09  0.3901017E+04  0.7818609E-02  0.8024818E-01
       -2   -1    0    0    0  501  0.00000000000E+00  0.00000000000E+00  0.14885602975E+04  0.14885602975E+04  0.25500000920E-02 0. -1.
        2   -1    0    0  501    0  0.00000000000E+00  0.00000000000E+00 -0.25558143714E+04  0.25558143714E+04  0.25500000920E-02 0.  1.
    10030    2    1    2    0    0  0.00000000000E+00  0.00000000000E+00 -0.10672540739E+04  0.40443746690E+04  0.39010172013E+04 0.  0.
        1    1    3    3  502    0  0.36359051534E+03  0.12623681565E+04  0.96113038033E+03  0.16277416974E+04  0.50400001928E-02 0. -1.
       -1    1    3    3    0  502 -0.36359051534E+03 -0.12623681565E+04 -0.20283844542E+04  0.24166329716E+04  0.50400001928E-02 0.  1.
</event>
<event>
 5   0  0.6335942E-09  0.3900523E+04  0.7818609E-02  0.8024920E-01
       -2   -1    0    0    0  501  0.00000000000E+00  0.00000000000E+00  0.29136743641E+04  0.29136743641E+04  0.25500000920E-02 0.  1.
        2   -1    0    0  501    0  0.00000000000E+00  0.00000000000E+00 -0.13054034479E+04  0.13054034479E+04  0.25500000920E-02 0. -1.
    10030    2    1    2    0    0  0.00000000000E+00  0.00000000000E+00  0.16082709162E+04  0.42190778120E+04  0.39005233295E+04 0.  0.
        2    1    3    3  502    0  0.21997700160E+03  0.17130368626E+04 -0.17573750695E+03  0.17360209807E+04  0.25500000920E-02 0. -1.
       -2    1    3    3    0  502 -0.21997700160E+03 -0.17130368626E+04  0.17840084231E+04  0.24830568314E+04  0.25500000920E-02 0.  1.
</event>
<event>
 5   0  0.2929054E-09  0.3908123E+04  0.7818609E-02  0.8023342E-01
       -1   -1    0    0    0  501  0.00000000000E+00  0.00000000000E+00  0.19885896031E+04  0.19885896031E+04  0.50400001928E-02 0.  1.
        1   -1    0    0  501    0  0.00000000000E+00  0.00000000000E+00 -0.19201328232E+04  0.19201328232E+04  0.50400001928E-02 0. -1.
    10030    2    1    2    0    0  0.00000000000E+00  0.00000000000E+00  0.68456779936E+02  0.39087224263E+04  0.39081229094E+04 0.  0.
        1    1    3    3  502    0 -0.24052167402E+03 -0.67938872528E+03  0.18508044722E+04  0.19861764549E+04  0.50400001928E-02 0.  1.
       -1    1    3    3    0  502  0.24052167402E+03  0.67938872528E+03 -0.17823476923E+04  0.19225459713E+04  0.50400001928E-02 0. -1.
</event>
<event>
 5   0  0.9368546E-09  0.3888527E+04  0.7818609E-02  0.8027420E-01
       -2   -1    0    0    0  501  0.00000000000E+00  0.00000000000E+00  0.30216736096E+04  0.30216736096E+04  0.25500000920E-02 0.  1.
        2   -1    0    0  501    0  0.00000000000E+00  0.00000000000E+00 -0.12510156199E+04  0.12510156199E+04  0.25500000920E-02 0. -1.
    10030    2    1    2    0    0  0.00000000000E+00  0.00000000000E+00  0.17706579897E+04  0.42726892295E+04  0.38885271679E+04 0.  0.
        5    1    3    3  502    0 -0.18922013938E+04 -0.29950570658E+02  0.13752673543E+04  0.23393814433E+04  0.46999998093E+01 0. -1.
       -5    1    3    3    0  502  0.18922013938E+04  0.29950570658E+02  0.39539063536E+03  0.19333077861E+04  0.46999998093E+01 0.  1.
</event>
<event>
 5   0  0.6335942E-09  0.3888765E+04  0.7818609E-02  0.8027370E-01
        2   -1    0    0  501    0  0.00000000000E+00  0.00000000000E+00  0.33881194532E+04  0.33881194532E+04  0.25500000920E-02 0. -1.
       -2   -1    0    0    0  501  0.00000000000E+00  0.00000000000E+00 -0.11158470043E+04  0.11158470043E+04  0.25500000920E-02 0.  1.
    10030    2    1    2    0    0  0.00000000000E+00  0.00000000000E+00  0.22722724489E+04  0.45039664574E+04  0.38887648126E+04 0.  0.
        2    1    3    3  502    0 -0.13003252085E+04 -0.36301283233E+02  0.28099089980E+04  0.30964095350E+04  0.25500000920E-02 0. -1.
       -2    1    3    3    0  502  0.13003252085E+04  0.36301283233E+02 -0.53763654912E+03  0.14075569225E+04  0.25500000920E-02 0.  1.
</event>
<event>
 5   0  0.2929054E-09  0.3917214E+04  0.7818609E-02  0.8021458E-01
       -1   -1    0    0    0  501  0.00000000000E+00  0.00000000000E+00  0.14828409762E+04  0.14828409762E+04  0.50400001928E-02 0.  1.
        1   -1    0    0  501    0  0.00000000000E+00  0.00000000000E+00 -0.25870218909E+04  0.25870218909E+04  0.50400001928E-02 0. -1.
    10030    2    1    2    0    0  0.00000000000E+00  0.00000000000E+00 -0.11041809147E+04  0.40698628671E+04  0.39172143501E+04 0.  0.
        1    1    3    3  502    0  0.18667166850E+03 -0.91424881847E+03 -0.23412429804E+04  0.25203404348E+04  0.50400001928E-02 0. -1.
       -1    1    3    3    0  502 -0.18667166850E+03  0.91424881847E+03  0.12370620657E+04  0.15495224324E+04  0.50400001928E-02 0.  1.
</event>
<event>
 5   0  0.9078515E-09  0.3896955E+04  0.7818609E-02  0.8025663E-01
       -2   -1    0    0    0  501  0.00000000000E+00  0.00000000000E+00  0.20755322948E+04  0.20755322948E+04  0.25500000920E-02 0.  1.
        2   -1    0    0  501    0  0.00000000000E+00  0.00000000000E+00 -0.18292001028E+04  0.18292001028E+04  0.25500000920E-02 0. -1.
    10030    2    1    2    0    0  0.00000000000E+00  0.00000000000E+00  0.24633219195E+03  0.39047323976E+04  0.38969546505E+04 0.  0.
        3    1    3    3  502    0  0.10850043376E+04 -0.13253032097E+04  0.10539446678E+04  0.20110848772E+04  0.10100000352E+00 0.  1.
       -3    1    3    3    0  502 -0.10850043376E+04  0.13253032097E+04 -0.80761247584E+03  0.18936475204E+04  0.10100000352E+00 0. -1.
</event>
<event>
 5   0  0.9368546E-09  0.3899888E+04  0.7818609E-02  0.8025053E-01
        2   -1    0    0  501    0  0.00000000000E+00  0.00000000000E+00  0.20972874832E+04  0.20972874832E+04  0.25500000920E-02 0.  1.
       -2   -1    0    0    0  501  0.00000000000E+00  0.00000000000E+00 -0.18129517392E+04  0.18129517392E+04  0.25500000920E-02 0. -1.
    10030    2    1    2    0    0  0.00000000000E+00  0.00000000000E+00  0.28433574399E+03  0.39102392223E+04  0.38998876857E+04 0.  0.
        5    1    3    3  502    0 -0.16528893227E+03  0.28644576210E+03 -0.17846215551E+04  0.18150117881E+04  0.46999998093E+01 0. -1.
       -5    1    3    3    0  502  0.16528893227E+03 -0.28644576210E+03  0.20689572991E+04  0.20952274343E+04  0.46999998093E+01 0.  1.
</event>
<event>
 5   0  0.9277261E-09  0.3899147E+04  0.7818609E-02  0.8025207E-01
       -2   -1    0    0    0  501  0.00000000000E+00  0.00000000000E+00  0.17714904861E+04  0.17714904861E+04  0.25500000920E-02 0. -1.
        2   -1    0    0  501    0  0.00000000000E+00  0.00000000000E+00 -0.21455589559E+04  0.21455589559E+04  0.25500000920E-02 0.  1.
    10030    2    1    2    0    0  0.00000000000E+00  0.00000000000E+00 -0.37406846976E+03  0.39170494420E+04  0.38991472287E+04 0.  0.
        1    1    3    3  502    0  0.56990032258E+03  0.34330466573E+03 -0.20279852500E+04  0.21343309597E+04  0.50400001928E-02 0.  1.
       -1    1    3    3    0  502 -0.56990032258E+03 -0.34330466573E+03  0.16539167802E+04  0.17827184823E+04  0.50400001928E-02 0. -1.
</event>
<event>
 5   0  0.9368546E-09  0.3899197E+04  0.7818609E-02  0.8025196E-01
       -2   -1    0    0    0  501  0.00000000000E+00  0.00000000000E+00  0.18695256774E+04  0.18695256774E+04  0.25500000920E-02 0. -1.
        2   -1    0    0  501    0  0.00000000000E+00  0.00000000000E+00 -0.20331008130E+04  0.20331008130E+04  0.25500000920E-02 0.  1.
    10030    2    1    2    0    0  0.00000000000E+00  0.00000000000E+00 -0.16357513558E+03  0.39026264903E+04  0.38991969299E+04 0.  0.
        5    1    3    3  502    0  0.51866467372E+03 -0.11699289643E+04  0.13902763510E+04  0.18896129888E+04  0.46999998093E+01 0. -1.
       -5    1    3    3    0  502 -0.51866467372E+03  0.11699289643E+04 -0.15538514865E+04  0.20130135016E+04  0.46999998093E+01 0.  1.
</event>
<event>
 5   0  0.2904500E-09  0.3899938E+04  0.7818609E-02  0.8025042E-01
        1   -1    0    0  501    0  0.00000000000E+00  0.00000000000E+00  0.15464988759E+04  0.15464988759E+04  0.50400001928E-02 0. -1.
       -1   -1    0    0    0  501  0.00000000000E+00  0.00000000000E+00 -0.24587019773E+04  0.24587019773E+04  0.50400001928E-02 0.  1.
    10030    2    1    2    0    0  0.00000000000E+00  0.00000000000E+00 -0.91220310142E+03  0.40052008533E+04  0.38999383811E+04 0.  0.
        5    1    3    3  502    0  0.17888255012E+04 -0.72946194658E+03 -0.18371394923E+03  0.19405628850E+04  0.46999998093E+01 0. -1.
       -5    1    3    3    0  502 -0.17888255012E+04  0.72946194658E+03 -0.72848915218E+03  0.20646379683E+04  0.46999998093E+01 0.  1.
</event>
<event>
 5   0  0.6335942E-09  0.3900980E+04  0.7818609E-02  0.8024825E-01
        2   -1    0    0  501    0  0.00000000000E+00  0.00000000000E+00  0.17390948838E+04  0.17390948838E+04  0.25500000920E-02 0. -1.
       -2   -1    0    0    0  501  0.00000000000E+00  0.00000000000E+00 -0.21875813206E+04  0.21875813206E+04  0.25500000920E-02 0.  1.
    10030    2    1    2    0    0  0.00000000000E+00  0.00000000000E+00 -0.44848643678E+03  0.39266762044E+04  0.39009801243E+04 0.  0.
        2    1    3    3  502    0  0.17098862035E+04  0.75105757503E+03 -0.79063356505E+03  0.20280285363E+04  0.25500000920E-02 0. -1.
       -2    1    3    3    0  502 -0.17098862035E+04 -0.75105757503E+03  0.34214712827E+03  0.18986476680E+04  0.25500000920E-02 0.  1.
</event>
<event>
 5   0  0.9277261E-09  0.3895628E+04  0.7818609E-02  0.8025939E-01
       -2   -1    0    0    0  501  0.00000000000E+00  0.00000000000E+00  0.18412370823E+04  0.18412370823E+04  0.25500000920E-02 0. -1.
        2   -1    0    0  501    0  0.00000000000E+00  0.00000000000E+00 -0.20605602349E+04  0.20605602349E+04  0.25500000920E-02 0.  1.
    10030    2    1    2    0    0  0.00000000000E+00  0.00000000000E+00 -0.21932315253E+03  0.39017973172E+04  0.38956282753E+04 0.  0.
        1    1    3    3  502    0 -0.71784326400E+02  0.81492764240E+03 -0.18801485689E+04  0.20504191506E+04  0.50400001928E-02 0.  1.
       -1    1    3    3    0  502  0.71784326400E+02 -0.81492764240E+03  0.16608254164E+04  0.18513781666E+04  0.50400001928E-02 0. -1.
</event>
<event>
 5   0  0.2904500E-09  0.3897975E+04  0.7818609E-02  0.8025451E-01
       -1   -1    0    0    0  501  0.00000000000E+00  0.00000000000E+00  0.29097369969E+04  0.29097369969E+04  0.50400001928E-02 0.  1.
        1   -1    0    0  501    0  0.00000000000E+00  0.00000000000E+00 -0.13054623005E+04  0.13054623005E+04  0.50400001928E-02 0. -1.
    10030    2    1    2    0    0  0.00000000000E+00  0.00000000000E+00  0.16042746964E+04  0.42151992974E+04  0.38979748351E+04 0.  0.
        2    1    3    3  502    0 -0.19128556870E+04 -0.21372320926E+03  0.47084340939E+03  0.19815115457E+04  0.25500000920E-02 0.  1.
       -2    1    3    3    0  502  0.19128556870E+04  0.21372320926E+03  0.11334312870E+04  0.22336877517E+04  0.25500000920E-02 0. -1.
</event>
<event>
 5   0  0.2929054E-09  0.3892516E+04  0.7818609E-02  0.8026588E-01
        1   -1    0    0  501    0  0.00000000000E+00  0.00000000000E+00  0.13189422914E+04  0.13189422914E+04  0.50400001928E-02 0. -1.
       -1   -1    0    0    0  501  0.00000000000E+00  0.00000000000E+00 -0.28719378586E+04  0.28719378586E+04  0.50400001928E-02 0.  1.
    10030    2    1    2    0    0  0.00000000000E+00  0.00000000000E+00 -0.15529955672E+04  0.41908801500E+04  0.38925160501E+04 0.  0.
        1    1    3    3  502    0 -0.22896259798E+03  0.12640297010E+04 -0.23506647051E+04  0.26787720157E+04  0.50400001928E-02 0.  1.
       -1    1    3    3    0  502  0.22896259798E+03 -0.12640297010E+04  0.79766913794E+03  0.15121081343E+04  0.50400001928E-02 0. -1.
</event>
<event>
 5   0  0.6335942E-09  0.3900966E+04  0.7818609E-02  0.8024828E-01
       -2   -1    0    0    0  501  0.00000000000E+00  0.00000000000E+00  0.16150322887E+04  0.16150322887E+04  0.25500000920E-02 0.  1.
        2   -1    0    0  501    0  0.00000000000E+00  0.00000000000E+00 -0.23556083822E+04  0.23556083822E+04  0.25500000920E-02 0. -1.
    10030    2    1    2    0    0  0.00000000000E+00  0.00000000000E+00 -0.74057609357E+03  0.39706406709E+04  0.39009658275E+04 0.  0.
        2    1    3    3  502    0  0.73127166324E+02 -0.12940746473E+04  0.11132793631E+04  0.17086157308E+04  0.25500000920E-02 0.  1.
       -2    1    3    3    0  502 -0.73127166324E+02  0.12940746473E+04 -0.18538554566E+04  0.22620249401E+04  0.25500000920E-02 0. -1.
</event>
<event>
 5   0  0.2929054E-09  0.3900819E+04  0.7818609E-02  0.8024859E-01
        1   -1    0    0  501    0  0.00000000000E+00  0.00000000000E+00  0.24003808494E+04  0.24003808494E+04  0.50400001928E-02 0.  1.
       -1   -1    0    0    0  501  0.00000000000E+00  0.00000000000E+00 -0.15847893708E+04  0.15847893708E+04  0.50400001928E-02 0. -1.
    10030    2    1    2    0    0  0.00000000000E+00  0.00000000000E+00  0.81559147860E+03  0.39851702202E+04  0.39008194298E+04 0.  0.
        1    1    3    3  502    0 -0.15339548386E+04 -0.98888213527E+00  0.16384516791E+04  0.22444469986E+04  0.50400001928E-02 0. -1.
       -1    1    3    3    0  502  0.15339548386E+04  0.98888213527E+00 -0.82286020048E+03  0.17407232216E+04  0.50400001928E-02 0.  1.
</event>
<event>
 5   0  0.2904500E-09  0.3899503E+04  0.7818609E-02  0.8025133E-01
        1   -1    0    0  501    0  0.00000000000E+00  0.00000000000E+00  0.13436550871E+04  0.13436550871E+04  0.50400001928E-02 0. -1.
       -1   -1    0    0    0  501  0.00000000000E+00  0.00000000000E+00 -0.28292460193E+04  0.28292460193E+04  0.50400001928E-02 0.  1.
    10030    2    1    2    0    0  0.00000000000E+00  0.00000000000E+00 -0.14855909322E+04  0.41729011064E+04  0.38995029460E+04 0.  0.
        4    1    3    3  502    0  0.19163202216E+04 -0.30846401841E+03 -0.94039241954E+03  0.21567968746E+04  0.12699999809E+01 0.  1.
       -4    1    3    3    0  502 -0.19163202216E+04  0.30846401841E+03 -0.54519851264E+03  0.20161042318E+04  0.12699999809E+01 0. -1.
</event>
<event>
 5   0  0.2904500E-09  0.3899267E+04  0.7818609E-02  0.8025182E-01
        1   -1    0    0  501    0  0.00000000000E+00  0.00000000000E+00  0.13804849045E+04  0.13804849045E+04  0.50400001928E-02 0.  1.
       -1   -1    0    0    0  501  0.00000000000E+00  0.00000000000E+00 -0.27534310723E+04  0.27534310723E+04  0.50400001928E-02 0. -1.
    10030    2    1    2    0    0  0.00000000000E+00  0.00000000000E+00 -0.13729461678E+04  0.41339159768E+04  0.38992666135E+04 0.  0.
        2    1    3    3  502    0 -0.11928177312E+04 -0.11572477671E+04 -0.17671440616E+04  0.24258678177E+04  0.25500000920E-02 0. -1.
       -2    1    3    3    0  502  0.11928177312E+04  0.11572477671E+04  0.39419789381E+03  0.17080481591E+04  0.25500000920E-02 0.  1.
</event>
<event>
 5   0  0.9434114E-09  0.3899913E+04  0.7818609E-02  0.8025047E-01
        2   -1    0    0  501    0  0.00000000000E+00  0.00000000000E+00  0.24278431477E+04  0.24278431477E+04  0.25500000920E-02 0.  1.
       -2   -1    0    0    0  501  0.00000000000E+00  0.00000000000E+00 -0.15661351217E+04  0.15661351217E+04  0.25500000920E-02 0. -1.
    10030    2    1    2    0    0  0.00000000000E+00  0.00000000000E+00  0.86170802598E+03  0.39939782694E+04  0.38999130367E+04 0.  0.
        4    1    3    3  502    0 -0.66696031673E+03  0.17785062679E+03  0.22985357874E+04  0.23999448511E+04  0.12699999809E+01 0.  1.
       -4    1    3    3    0  502  0.66696031673E+03 -0.17785062679E+03 -0.14368277614E+04  0.15940334182E+04  0.12699999809E+01 0. -1.
</event>
<event>
 5   0  0.9368546E-09  0.3900839E+04  0.7818609E-02  0.8024855E-01
        2   -1    0    0  501    0  0.00000000000E+00  0.00000000000E+00  0.22633481935E+04  0.22633481935E+04  0.25500000920E-02 0. -1.
       -2   -1    0    0    0  501  0.00000000000E+00  0.00000000000E+00 -0.16807556808E+04  0.16807556808E+04  0.25500000920E-02 0.  1.
    10030    2    1    2    0    0  0.00000000000E+00  0.00000000000E+00  0.58259251265E+03  0.39441038743E+04  0.39008385426E+04 0.  0.
        5    1    3    3  502    0 -0.42676360337E+02 -0.30081577422E+03  0.22392684834E+04  0.22597913250E+04  0.46999998093E+01 0. -1.
       -5    1    3    3    0  502  0.42676360337E+02  0.30081577422E+03 -0.16566759707E+04  0.16843125493E+04  0.46999998093E+01 0.  1.
</event>
<event>
 5   0  0.9434114E-09  0.3899416E+04  0.7818609E-02  0.8025151E-01
       -2   -1    0    0    0  501  0.00000000000E+00  0.00000000000E+00  0.15838636706E+04  0.15838636706E+04  0.25500000920E-02 0. -1.
        2   -1    0    0  501    0  0.00000000000E+00  0.00000000000E+00 -0.24000553730E+04  0.24000553730E+04  0.25500000920E-02 0.  1.
    10030    2    1    2    0    0  0.00000000000E+00  0.00000000000E+00 -0.81619170246E+03  0.39839190436E+04  0.38994156038E+04 0.  0.
        4    1    3    3  502    0 -0.90352651036E+03  0.13070460062E+04  0.74626984976E+03  0.17554628218E+04  0.12699999809E+01 0. -1.
       -4    1    3    3    0  502  0.90352651036E+03 -0.13070460062E+04 -0.15624615522E+04  0.22284562218E+04  0.12699999809E+01 0.  1.
</event>
<event>
 5   0  0.9434114E-09  0.3903643E+04  0.7818609E-02  0.8024272E-01
        2   -1    0    0  501    0  0.00000000000E+00  0.00000000000E+00  0.27379506175E+04  0.27379506175E+04  0.25500000920E-02 0. -1.
       -2   -1    0    0    0  501  0.00000000000E+00  0.00000000000E+00 -0.13914079719E+04  0.13914079719E+04  0.25500000920E-02 0.  1.
    10030    2    1    2    0    0  0.00000000000E+00  0.00000000000E+00  0.13465426456E+04  0.41293585893E+04  0.39036425634E+04 0.  0.
        4    1    3    3  502    0 -0.33959275701E+03 -0.18167104208E+04  0.13371291213E+04  0.22811567008E+04  0.12699999809E+01 0.  1.
       -4    1    3    3    0  502  0.33959275701E+03  0.18167104208E+04  0.94135242637E+01  0.18482018885E+04  0.12699999809E+01 0. -1.
</event>
<event>
 5   0  0.9368546E-09  0.3895450E+04  0.7818609E-02  0.8025976E-01
        2   -1    0    0  501    0  0.00000000000E+00  0.00000000000E+00  0.14312229215E+04  0.14312229215E+04  0.25500000920E-02 0.  1.
       -2   -1    0    0    0  501  0.00000000000E+00  0.00000000000E+00 -0.26506226624E+04  0.26506226624E+04  0.25500000920E-02 0. -1.
    10030    2    1    2    0    0  0.00000000000E+00  0.00000000000E+00 -0.12193997409E+04  0.40818455839E+04  0.38954496073E+04 0.  0.
        5    1    3    3  502    0  0.16840999845E+04 -0.70499525341E+03 -0.13206940596E+04  0.22533233133E+04  0.46999998093E+01 0. -1.
       -5    1    3    3    0  502 -0.16840999845E+04  0.70499525341E+03  0.10129431880E+03  0.18285222706E+04  0.46999998093E+01 0.  1.
</event>
<event>
 5   0  0.9277261E-09  0.3903885E+04  0.7818609E-02  0.8024222E-01
        2   -1    0    0  501    0  0.00000000000E+00  0.00000000000E+00  0.20023986986E+04  0.20023986986E+04  0.25500000920E-02 0.  1.
       -2   -1    0    0    0  501  0.00000000000E+00  0.00000000000E+00 -0.19027580101E+04  0.19027580101E+04  0.25500000920E-02 0. -1.
    10030    2    1    2    0    0  0.00000000000E+00  0.00000000000E+00  0.99640688492E+02  0.39051567087E+04  0.39038853278E+04 0.  0.
        1    1    3    3  502    0  0.12670190896E+04  0.29185102984E+02  0.15348545992E+04  0.19904692373E+04  0.50400001928E-02 0.  1.
       -1    1    3    3    0  502 -0.12670190896E+04 -0.29185102984E+02 -0.14352139107E+04  0.19146874714E+04  0.50400001928E-02 0. -1.
</event>
<event>
 5   0  0.9434114E-09  0.3901015E+04  0.7818609E-02  0.8024818E-01
       -2   -1    0    0    0  501  0.00000000000E+00  0.00000000000E+00  0.13941096216E+04  0.13941096216E+04  0.25500000920E-02 0. -1.
        2   -1    0    0  501    0  0.00000000000E+00  0.00000000000E+00 -0.27289674985E+04  0.27289674985E+04  0.25500000920E-02 0.  1.
    10030    2    1    2    0    0  0.00000000000E+00  0.00000000000E+00 -0.13348578769E+04  0.41230771201E+04  0.39010151739E+04 0.  0.
        4    1    3    3  502    0 -0.46796055218E+03 -0.18844942983E+04 -0.86280957862E+03  0.21247935948E+04  0.12699999809E+01 0.  1.
       -4    1    3    3    0  502  0.46796055218E+03  0.18844942983E+04 -0.47204829829E+03  0.19982835253E+04  0.12699999809E+01 0. -1.
</event>
<event>
 5   0  0.2904500E-09  0.3898530E+04  0.7818609E-02  0.8025335E-01
        1   -1    0    0  501    0  0.00000000000E+00  0.00000000000E+00  0.16098499975E+04  0.16098499975E+04  0.50400001928E-02 0. -1.
       -1   -1    0    0    0  501  0.00000000000E+00  0.00000000000E+00 -0.23602415592E+04  0.23602415592E+04  0.50400001928E-02 0.  1.
    10030    2    1    2    0    0  0.00000000000E+00  0.00000000000E+00 -0.75039156173E+03  0.39700915568E+04  0.38985304248E+04 0.  0.
        3    1    3    3  502    0 -0.13089571493E+04  0.45455025891E+03  0.10209735725E+04  0.17211542065E+04  0.10100000352E+00 0. -1.
       -3    1    3    3    0  502  0.13089571493E+04 -0.45455025891E+03 -0.17713651342E+04  0.22489373503E+04  0.10100000352E+00 0.  1.
</event>
<event>
 5   0  0.2904500E-09  0.3898722E+04  0.7818609E-02  0.8025295E-01
       -1   -1    0    0    0  501  0.00000000000E+00  0.00000000000E+00  0.13127291823E+04  0.13127291824E+04  0.50400001928E-02 0.  1.
        1   -1    0    0  501    0  0.00000000000E+00  0.00000000000E+00 -0.28947386322E+04  0.28947386322E+04  0.50400001928E-02 0. -1.
    10030    2    1    2    0    0  0.00000000000E+00  0.00000000000E+00 -0.15820094499E+04  0.42074678146E+04  0.38987217791E+04 0.  0.
        2    1    3    3  502    0  0.11783880209E+04 -0.14702346416E+04 -0.13304058587E+04  0.23065489325E+04  0.25500000920E-02 0. -1.
       -2    1    3    3    0  502 -0.11783880209E+04  0.14702346416E+04 -0.25160359114E+03  0.19009188821E+04  0.25500000920E-02 0.  1.
</event>
<event>
 5   0  0.2904500E-09  0.3901253E+04  0.7818609E-02  0.8024769E-01
        1   -1    0    0  501    0  0.00000000000E+00  0.00000000000E+00  0.29056197357E+04  0.29056197357E+04  0.50400001928E-02 0. -1.
       -1   -1    0    0    0  501  0.00000000000E+00  0.00000000000E+00 -0.13095119584E+04  0.13095119584E+04  0.50400001928E-02 0.  1.
    10030    2    1    2    0    0  0.00000000000E+00  0.00000000000E+00  0.15961077774E+04  0.42151316941E+04  0.39012530245E+04 0.  0.
        3    1    3    3  502    0 -0.73600998750E+03 -0.13329900298E+04 -0.51920334266E+03  0.16087713456E+04  0.10100000352E+00 0.  1.
       -3    1    3    3    0  502  0.73600998750E+03  0.13329900298E+04  0.21153111200E+04  0.26063603485E+04  0.10100000352E+00 0. -1.
</event>
<event>
 5   0  0.9434114E-09  0.3897350E+04  0.7818609E-02  0.8025581E-01
        2   -1    0    0  501    0  0.00000000000E+00  0.00000000000E+00  0.26294330082E+04  0.26294330082E+04  0.25500000920E-02 0.  1.
       -2   -1    0    0    0  501  0.00000000000E+00  0.00000000000E+00 -0.14441643827E+04  0.14441643827E+04  0.25500000920E-02 0. -1.
    10030    2    1    2    0    0  0.00000000000E+00  0.00000000000E+00  0.11852686255E+04  0.40735973909E+04  0.38973496108E+04 0.  0.
        4    1    3    3  502    0 -0.11735914476E+04 -0.14867571770E+04  0.11414601492E+03  0.18975760103E+04  0.12699999809E+01 0.  1.
       -4    1    3    3    0  502  0.11735914476E+04  0.14867571770E+04  0.10711226106E+04  0.21760213806E+04  0.12699999809E+01 0. -1.
</event>
<event>
 5   0  0.2904500E-09  0.3901443E+04  0.7818609E-02  0.8024729E-01
        1   -1    0    0  501    0  0.00000000000E+00  0.00000000000E+00  0.29157063476E+04  0.29157063477E+04  0.50400001928E-02 0. -1.
       -1   -1    0    0    0  501  0.00000000000E+00  0.00000000000E+00 -0.13051089955E+04  0.13051089955E+04  0.50400001928E-02 0.  1.
    10030    2    1    2    0    0  0.00000000000E+00  0.00000000000E+00  0.16105973522E+04  0.42208153431E+04  0.39014431087E+04 0.  0.
        4    1    3    3  502    0  0.24391473249E+03 -0.18405059472E+04  0.15766611505E+03  0.18632811798E+04  0.12699999809E+01 0.  1.
       -4    1    3    3    0  502 -0.24391473249E+03  0.18405059472E+04  0.14529312371E+04  0.23575341633E+04  0.12699999809E+01 0. -1.
</event>
<event>
 5   0  0.2904500E-09  0.3899099E+04  0.7818609E-02  0.8025217E-01
       -1   -1    0    0    0  501  0.00000000000E+00  0.00000000000E+00  0.14415436716E+04  0.14415436716E+04  0.50400001928E-02 0. -1.
        1   -1    0    0  501    0  0.00000000000E+00  0.00000000000E+00 -0.26365788861E+04  0.26365788861E+04  0.50400001928E-02 0.  1.
    10030    2    1    2    0    0  0.00000000000E+00  0.00000000000E+00 -0.11950352144E+04  0.40781225577E+04  0.38990991821E+04 0.  0.
        5    1    3    3  502    0 -0.11987384874E+04 -0.11347960102E+04  0.48740613842E+03  0.17211399651E+04  0.46999998093E+01 0. -1.
       -5    1    3    3    0  502  0.11987384874E+04  0.11347960102E+04 -0.16824413529E+04  0.23569825926E+04  0.46999998093E+01 0.  1.
</event>
<event>
 5   0  0.2929054E-09  0.3899723E+04  0.7818609E-02  0.8025087E-01
       -1   -1    0    0    0  501  0.00000000000E+00  0.00000000000E+00  0.14237667031E+04  0.14237667032E+04  0.50400001928E-02 0.  1.
        1   -1    0    0  501    0  0.00000000000E+00  0.00000000000E+00 -0.26703525151E+04  0.26703525151E+04  0.50400001928E-02 0. -1.
    10030    2    1    2    0    0  0.00000000000E+00  0.00000000000E+00 -0.12465858120E+04  0.40941192183E+04  0.38997225526E+04 0.  0.
        1    1    3    3  502    0  0.31006707662E+03 -0.18967866528E+03 -0.26344699575E+04  0.26594269205E+04  0.50400001928E-02 0. -1.
       -1    1    3    3    0  502 -0.31006707662E+03  0.18967866528E+03  0.13878841455E+04  0.14346922979E+04  0.50400001928E-02 0.  1.
</event>
<event>
 5   0  0.2904500E-09  0.3908342E+04  0.7818609E-02  0.8023296E-01
        1   -1    0    0  501    0  0.00000000000E+00  0.00000000000E+00  0.13699128404E+04  0.13699128404E+04  0.50400001928E-02 0.  1.
       -1   -1    0    0    0  501  0.00000000000E+00  0.00000000000E+00 -0.27876112708E+04  0.27876112708E+04  0.50400001928E-02 0. -1.
    10030    2    1    2    0    0  0.00000000000E+00  0.00000000000E+00 -0.14176984303E+04  0.41575241112E+04  0.39083420904E+04 0.  0.
        2    1    3    3  502    0  0.15495709384E+04 -0.87131620388E+03  0.15431717833E+03  0.17844259054E+04  0.25500000920E-02 0.  1.
       -2    1    3    3    0  502 -0.15495709384E+04  0.87131620388E+03 -0.15720156087E+04  0.23730982058E+04  0.25500000920E-02 0. -1.
</event>
<event>
 5   0  0.9078515E-09  0.3901073E+04  0.7818609E-02  0.8024806E-01
       -2   -1    0    0    0  501  0.00000000000E+00  0.00000000000E+00  0.16894368353E+04  0.16894368353E+04  0.25500000920E-02 0. -1.
        2   -1    0    0  501    0  0.00000000000E+00  0.00000000000E+00 -0.22519891464E+04  0.22519891464E+04  0.25500000920E-02 0.  1.
    10030    2    1    2    0    0  0.00000000000E+00  0.00000000000E+00 -0.56255231101E+03  0.39414259817E+04  0.39010733993E+04 0.  0.
        3    1    3    3  502    0 -0.16989091373E+04 -0.48394893578E+03  0.55437944337E+03  0.18514414403E+04  0.10100000352E+00 0. -1.
       -3    1    3    3    0  502  0.16989091373E+04  0.48394893578E+03 -0.11169317544E+04  0.20899845414E+04  0.10100000352E+00 0.  1.
</event>
<event>
 5   0  0.9434114E-09  0.3894486E+04  0.7818609E-02  0.8026177E-01
       -2   -1    0    0    0  501  0.00000000000E+00  0.00000000000E+00  0.25477076821E+04  0.25477076822E+04  0.25500000920E-02 0. -1.
        2   -1    0    0  501    0  0.00000000000E+00  0.00000000000E+00 -0.14883007022E+04  0.14883007022E+04  0.25500000920E-02 0.  1.
    10030    2    1    2    0    0  0.00000000000E+00  0.00000000000E+00  0.10594069800E+04  0.40360083843E+04  0.38944859133E+04 0.  0.
        4    1    3    3  502    0  0.19602257587E+03  0.15468105266E+04  0.17385858785E+04  0.23353222744E+04  0.12699999809E+01 0. -1.
       -4    1    3    3    0  502 -0.19602257587E+03 -0.15468105266E+04 -0.67917889851E+03  0.17006861099E+04  0.12699999809E+01 0.  1.
</event>
<event>
 5   0  0.2904500E-09  0.3906249E+04  0.7818609E-02  0.8023731E-01
        1   -1    0    0  501    0  0.00000000000E+00  0.00000000000E+00  0.26991282299E+04  0.26991282299E+04  0.50400001928E-02 0. -1.
       -1   -1    0    0    0  501  0.00000000000E+00  0.00000000000E+00 -0.14133061130E+04  0.14133061130E+04  0.50400001928E-02 0.  1.
    10030    2    1    2    0    0  0.00000000000E+00  0.00000000000E+00  0.12858221170E+04  0.41124343429E+04  0.39062485467E+04 0.  0.
        3    1    3    3  502    0 -0.42909017384E+02  0.13438850982E+04  0.21343104855E+04  0.25225284140E+04  0.10100000352E+00 0. -1.
       -3    1    3    3    0  502  0.42909017384E+02 -0.13438850982E+04 -0.84848836854E+03  0.15899059289E+04  0.10100000352E+00 0.  1.
</event>
<event>
 5   0  0.9368546E-09  0.3919877E+04  0.7818609E-02  0.8020908E-01
       -2   -1    0    0    0  501  0.00000000000E+00  0.00000000000E+00  0.24251842604E+04  0.24251842604E+04  0.25500000920E-02 0. -1.
        2   -1    0    0  501    0  0.00000000000E+00  0.00000000000E+00 -0.15839453632E+04  0.15839453632E+04  0.25500000920E-02 0.  1.
    10030    2    1    2    0    0  0.00000000000E+00  0.00000000000E+00  0.84123889719E+03  0.40091296236E+04  0.39198772247E+04 0.  0.
        5    1    3    3  502    0  0.61217308642E+03  0.23594417794E+03 -0.14682975457E+04  0.16082118379E+04  0.46999998093E+01 0.  1.
       -5    1    3    3    0  502 -0.61217308642E+03 -0.23594417794E+03  0.23095364429E+04  0.24009177857E+04  0.46999998093E+01 0. -1.
</event>
<event>
 5   0  0.6335942E-09  0.3898233E+04  0.7818609E-02  0.8025397E-01
        2   -1    0    0  501    0  0.00000000000E+00  0.00000000000E+00  0.25185887637E+04  0.25185887637E+04  0.25500000920E-02 0. -1.
       -2   -1    0    0    0  501  0.00000000000E+00  0.00000000000E+00 -0.15084061731E+04  0.15084061731E+04  0.25500000920E-02 0.  1.
    10030    2    1    2    0    0  0.00000000000E+00  0.00000000000E+00  0.10101825906E+04  0.40269949368E+04  0.38982328503E+04 0.  0.
        2    1    3    3  502    0  0.40102621209E+03 -0.15763538090E+04  0.16145017735E+04  0.22917960927E+04  0.25500000920E-02 0. -1.
       -2    1    3    3    0  502 -0.40102621209E+03  0.15763538090E+04 -0.60431918293E+03  0.17351988442E+04  0.25500000920E-02 0.  1.
</event>
<event>
 5   0  0.2904500E-09  0.3906584E+04  0.7818609E-02  0.8023661E-01
        1   -1    0    0  501    0  0.00000000000E+00  0.00000000000E+00  0.17842352960E+04  0.17842352960E+04  0.50400001928E-02 0. -1.
       -1   -1    0    0    0  501  0.00000000000E+00  0.00000000000E+00 -0.21383666370E+04  0.21383666370E+04  0.50400001928E-02 0.  1.
    10030    2    1    2    0    0  0.00000000000E+00  0.00000000000E+00 -0.35413134106E+03  0.39226019330E+04  0.39065837913E+04 0.  0.
        4    1    3    3  502    0 -0.78129115584E+03  0.85535760519E+03  0.14020540746E+04  0.18187385035E+04  0.12699999809E+01 0. -1.
       -4    1    3    3    0  502  0.78129115584E+03 -0.85535760519E+03 -0.17561854157E+04  0.21038634295E+04  0.12699999809E+01 0.  1.
</event>
<event>
 5   0  0.9434114E-09  0.3898496E+04  0.7818609E-02  0.8025342E-01
        2   -1    0    0  501    0  0.00000000000E+00  0.00000000000E+00  0.22543409627E+04  0.22543409627E+04  0.25500000920E-02 0. -1.
       -2   -1    0    0    0  501  0.00000000000E+00  0.00000000000E+00 -0.16854447965E+04  0.16854447965E+04  0.25500000920E-02 0.  1.
    10030    2    1    2    0    0  0.00000000000E+00  0.00000000000E+00  0.56889616626E+03  0.39397857592E+04  0.38984957330E+04 0.  0.
        4    1    3    3  502    0 -0.13523376464E+04  0.88723669162E+03  0.13838857314E+04  0.21286491931E+04  0.12699999809E+01 0. -1.
       -4    1    3    3    0  502  0.13523376464E+04 -0.88723669162E+03 -0.81498956513E+03  0.18111365661E+04  0.12699999809E+01 0.  1.
</event>
<event>
 5   0  0.2904500E-09  0.3900245E+04  0.7818609E-02  0.8024978E-01
        1   -1    0    0  501    0  0.00000000000E+00  0.00000000000E+00  0.21220239688E+04  0.21220239688E+04  0.50400001928E-02 0. -1.
       -1   -1    0    0    0  501  0.00000000000E+00  0.00000000000E+00 -0.17921469044E+04  0.17921469044E+04  0.50400001928E-02 0.  1.
    10030    2    1    2    0    0  0.00000000000E+00  0.00000000000E+00  0.32987706442E+03  0.39141708733E+04  0.39002454727E+04 0.  0.
        4    1    3    3  502    0 -0.10930418054E+04  0.54266638370E+03 -0.13615939303E+04  0.18284328909E+04  0.12699999809E+01 0.  1.
       -4    1    3    3    0  502  0.10930418054E+04 -0.54266638370E+03  0.16914709947E+04  0.20857379824E+04  0.12699999809E+01 0. -1.
</event>
<event>
 5   0  0.2929054E-09  0.3899507E+04  0.7818609E-02  0.8025132E-01
       -1   -1    0    0    0  501  0.00000000000E+00  0.00000000000E+00  0.15152003149E+04  0.15152003149E+04  0.50400001928E-02 0. -1.
        1   -1    0    0  501    0  0.00000000000E+00  0.00000000000E+00 -0.25089347360E+04  0.25089347360E+04  0.50400001928E-02 0.  1.
    10030    2    1    2    0    0  0.00000000000E+00  0.00000000000E+00 -0.99373442118E+03  0.40241350509E+04  0.38995069955E+04 0.  0.
        1    1    3    3  502    0 -0.13081148080E+03  0.19419461794E+04 -0.61575372134E+03  0.20414257891E+04  0.50400001928E-02 0. -1.
       -1    1    3    3    0  502  0.13081148080E+03 -0.19419461794E+04 -0.37798069984E+03  0.19827092618E+04  0.50400001928E-02 0.  1.
</event>
<event>
 5   0  0.9078515E-09  0.3900575E+04  0.7818609E-02  0.8024910E-01
       -2   -1    0    0    0  501  0.00000000000E+00  0.00000000000E+00  0.14103141620E+04  0.14103141620E+04  0.25500000920E-02 0. -1.
        2   -1    0    0  501    0  0.00000000000E+00  0.00000000000E+00 -0.26970035051E+04  0.26970035051E+04  0.25500000920E-02 0.  1.
    10030    2    1    2    0    0  0.00000000000E+00  0.00000000000E+00 -0.12866893431E+04  0.41073176671E+04  0.39005754644E+04 0.  0.
        3    1    3    3  502    0  0.74617023366E+03 -0.39428663370E+01 -0.25407487484E+04  0.26480539603E+04  0.10100000352E+00 0.  1.
       -3    1    3    3    0  502 -0.74617023366E+03  0.39428663370E+01  0.12540594053E+04  0.14592637068E+04  0.10100000352E+00 0. -1.
</event>
<event>
 5   0  0.2904500E-09  0.3900832E+04  0.7818609E-02  0.8024856E-01
        1   -1    0    0  501    0  0.00000000000E+00  0.00000000000E+00  0.24825038212E+04  0.24825038212E+04  0.50400001928E-02 0.  1.
       -1   -1    0    0    0  501  0.00000000000E+00  0.00000000000E+00 -0.15323731650E+04  0.15323731650E+04  0.50400001928E-02 0. -1.
    10030    2    1    2    0    0  0.00000000000E+00  0.00000000000E+00  0.95013065620E+03  0.40148769863E+04  0.39008318281E+04 0.  0.
        5    1    3    3  502    0 -0.16069141003E+04  0.31718790034E+03  0.15649476732E+04  0.22653618694E+04  0.46999998093E+01 0.  1.
       -5    1    3    3    0  502  0.16069141003E+04 -0.31718790034E+03 -0.61481701696E+03  0.17495151169E+04  0.46999998093E+01 0. -1.
</event>
<event>
 5   0  0.9277261E-09  0.3906949E+04  0.7818609E-02  0.8023586E-01
        2   -1    0    0  501    0  0.00000000000E+00  0.00000000000E+00  0.19644872602E+04  0.19644872602E+04  0.25500000920E-02 0.  1.
       -2   -1    0    0    0  501  0.00000000000E+00  0.00000000000E+00 -0.19425233345E+04  0.19425233345E+04  0.25500000920E-02 0. -1.
    10030    2    1    2    0    0  0.00000000000E+00  0.00000000000E+00  0.21963925677E+02  0.39070105947E+04  0.39069488572E+04 0.  0.
        1    1    3    3  502    0  0.14119464269E+04  0.34600474135E+03  0.13158973485E+04  0.19608411015E+04  0.50400001928E-02 0.  1.
       -1    1    3    3    0  502 -0.14119464269E+04 -0.34600474135E+03 -0.12939334228E+04  0.19461694932E+04  0.50400001928E-02 0. -1.
</event>
<event>
 5   0  0.6335942E-09  0.3896692E+04  0.7818609E-02  0.8025717E-01
       -2   -1    0    0    0  501  0.00000000000E+00  0.00000000000E+00  0.13599686659E+04  0.13599686659E+04  0.25500000920E-02 0. -1.
        2   -1    0    0  501    0  0.00000000000E+00  0.00000000000E+00 -0.27912797950E+04  0.27912797950E+04  0.25500000920E-02 0.  1.
    10030    2    1    2    0    0  0.00000000000E+00  0.00000000000E+00 -0.14313111291E+04  0.41512484608E+04  0.38966924738E+04 0.  0.
        2    1    3    3  502    0 -0.16725399595E+04 -0.43193975293E+03 -0.16756859858E+04  0.24066336217E+04  0.25500000920E-02 0.  1.
       -2    1    3    3    0  502  0.16725399595E+04  0.43193975293E+03  0.24437485672E+03  0.17446148391E+04  0.25500000920E-02 0. -1.
</event>
<event>
 5   0  0.9277261E-09  0.3899077E+04  0.7818609E-02  0.8025221E-01
       -2   -1    0    0    0  501  0.00000000000E+00  0.00000000000E+00  0.13686642311E+04  0.13686642311E+04  0.25500000920E-02 0.  1.
        2   -1    0    0  501    0  0.00000000000E+00  0.00000000000E+00 -0.27769410655E+04  0.27769410655E+04  0.25500000920E-02 0. -1.
    10030    2    1    2    0    0  0.00000000000E+00  0.00000000000E+00 -0.14082768344E+04  0.41456052967E+04  0.38990767668E+04 0.  0.
        1    1    3    3  502    0 -0.19722996891E+03  0.14787262330E+04 -0.20385498043E+04  0.25261069331E+04  0.50400001928E-02 0.  1.
       -1    1    3    3    0  502  0.19722996891E+03 -0.14787262330E+04  0.63027296993E+03  0.16194983635E+04  0.50400001928E-02 0. -1.
</event>
<event>
 5   0  0.9277261E-09  0.3900363E+04  0.7818609E-02  0.8024954E-01
       -2   -1    0    0    0  501  0.00000000000E+00  0.00000000000E+00  0.22492432751E+04  0.22492432751E+04  0.25500000920E-02 0.  1.
        2   -1    0    0  501    0  0.00000000000E+00  0.00000000000E+00 -0.16908829119E+04  0.16908829119E+04  0.25500000920E-02 0. -1.
    10030    2    1    2    0    0  0.00000000000E+00  0.00000000000E+00  0.55836036317E+03  0.39401261870E+04  0.39003625568E+04 0.  0.
        1    1    3    3  502    0 -0.14321627527E+04  0.37211692197E+03  0.15624242542E+04  0.21519132659E+04  0.50400001928E-02 0.  1.
       -1    1    3    3    0  502  0.14321627527E+04 -0.37211692197E+03 -0.10040638911E+04  0.17882129211E+04  0.50400001928E-02 0. -1.
</event>
<event>
 5   0  0.9368546E-09  0.3904733E+04  0.7818609E-02  0.8024046E-01
        2   -1    0    0  501    0  0.00000000000E+00  0.00000000000E+00  0.23369979402E+04  0.23369979402E+04  0.25500000920E-02 0.  1.
       -2   -1    0    0    0  501  0.00000000000E+00  0.00000000000E+00 -0.16310392231E+04  0.16310392231E+04  0.25500000920E-02 0. -1.
    10030    2    1    2    0    0  0.00000000000E+00  0.00000000000E+00  0.70595871708E+03  0.39680371632E+04  0.39047331815E+04 0.  0.
        5    1    3    3  502    0 -0.51654866867E+03  0.82044139475E+03  0.20750816255E+04  0.22904000637E+04  0.46999998093E+01 0.  1.
       -5    1    3    3    0  502  0.51654866867E+03 -0.82044139475E+03 -0.13691229084E+04  0.16776370995E+04  0.46999998093E+01 0. -1.
</event>
<event>
 5   0  0.2904500E-09  0.3899098E+04  0.7818609E-02  0.8025217E-01
        1   -1    0    0  501    0  0.00000000000E+00  0.00000000000E+00  0.30596526826E+04  0.30596526826E+04  0.50400001928E-02 0.  1.
       -1   -1    0    0    0  501  0.00000000000E+00  0.00000000000E+00 -0.12422135314E+04  0.12422135314E+04  0.50400001928E-02 0. -1.
    10030    2    1    2    0    0  0.00000000000E+00  0.00000000000E+00  0.18174391511E+04  0.43018662140E+04  0.38990983387E+04 0.  0.
        2    1    3    3  502    0  0.81335696538E+03 -0.63493255279E+03 -0.91624722931E+03  0.13799267680E+04  0.25500000920E-02 0. -1.
       -2    1    3    3    0  502 -0.81335696538E+03  0.63493255279E+03  0.27336863805E+04  0.29219394461E+04  0.25500000920E-02 0.  1.
</event>
<event>
 5   0  0.9368546E-09  0.3899988E+04  0.7818609E-02  0.8025032E-01
       -2   -1    0    0    0  501  0.00000000000E+00  0.00000000000E+00  0.17976046571E+04  0.17976046571E+04  0.25500000920E-02 0. -1.
        2   -1    0    0  501    0  0.00000000000E+00  0.00000000000E+00 -0.21153020166E+04  0.21153020166E+04  0.25500000920E-02 0.  1.
    10030    2    1    2    0    0  0.00000000000E+00  0.00000000000E+00 -0.31769735953E+03  0.39129066738E+04  0.38999880802E+04 0.  0.
        5    1    3    3  502    0 -0.17826580907E+04 -0.23618246049E+03  0.59783961013E+03  0.18950161773E+04  0.46999998093E+01 0. -1.
       -5    1    3    3    0  502  0.17826580907E+04  0.23618246049E+03 -0.91553696966E+03  0.20178904965E+04  0.46999998093E+01 0.  1.
</event>
<event>
 5   0  0.2929054E-09  0.3900956E+04  0.7818609E-02  0.8024830E-01
       -1   -1    0    0    0  501  0.00000000000E+00  0.00000000000E+00  0.23564451031E+04  0.23564451031E+04  0.50400001928E-02 0.  1.
        1   -1    0    0  501    0  0.00000000000E+00  0.00000000000E+00 -0.16144505768E+04  0.16144505768E+04  0.50400001928E-02 0. -1.
    10030    2    1    2    0    0  0.00000000000E+00  0.00000000000E+00  0.74199452633E+03  0.39708956799E+04  0.39009558602E+04 0.  0.
        1    1    3    3  502    0 -0.12848053313E+04  0.56986287433E+03  0.17476104120E+04  0.22426793322E+04  0.50400001928E-02 0.  1.
       -1    1    3    3    0  502  0.12848053313E+04 -0.56986287433E+03 -0.10056158856E+04  0.17282163477E+04  0.50400001928E-02 0. -1.
</event>
<event>
 5   0  0.2904500E-09  0.3902572E+04  0.7818609E-02  0.8024495E-01
       -1   -1    0    0    0  501  0.00000000000E+00  0.00000000000E+00  0.25305526078E+04  0.25305526078E+04  0.50400001928E-02 0.  1.
        1   -1    0    0  501    0  0.00000000000E+00  0.00000000000E+00 -0.15046187291E+04  0.15046187291E+04  0.50400001928E-02 0. -1.
    10030    2    1    2    0    0  0.00000000000E+00  0.00000000000E+00  0.10259338786E+04  0.40351713369E+04  0.39025718949E+04 0.  0.
        4    1    3    3  502    0  0.56610409486E+03 -0.15239212366E+04  0.16288511230E+04  0.23012968899E+04  0.12699999809E+01 0.  1.
       -4    1    3    3    0  502 -0.56610409486E+03  0.15239212366E+04 -0.60291724439E+03  0.17338744470E+04  0.12699999809E+01 0. -1.
</event>
<event>
 5   0  0.2904500E-09  0.3900357E+04  0.7818609E-02  0.8024955E-01
       -1   -1    0    0    0  501  0.00000000000E+00  0.00000000000E+00  0.12630357263E+04  0.12630357263E+04  0.50400001928E-02 0.  1.
        1   -1    0    0  501    0  0.00000000000E+00  0.00000000000E+00 -0.30111545899E+04  0.30111545899E+04  0.50400001928E-02 0. -1.
    10030    2    1    2    0    0  0.00000000000E+00  0.00000000000E+00 -0.17481188636E+04  0.42741903163E+04  0.39003568168E+04 0.  0.
        5    1    3    3  502    0  0.97440656794E+03 -0.68491812703E+03  0.81815979342E+03  0.14449873833E+04  0.46999998093E+01 0.  1.
       -5    1    3    3    0  502 -0.97440656794E+03  0.68491812703E+03 -0.25662786570E+04  0.28292029329E+04  0.46999998093E+01 0. -1.
</event>
<event>
 5   0  0.6335942E-09  0.3900218E+04  0.7818609E-02  0.8024984E-01
        2   -1    0    0  501    0  0.00000000000E+00  0.00000000000E+00  0.14441993130E+04  0.14441993130E+04  0.25500000920E-02 0.  1.
       -2   -1    0    0    0  501  0.00000000000E+00  0.00000000000E+00 -0.26332412294E+04  0.26332412294E+04  0.25500000920E-02 0. -1.
    10030    2    1    2    0    0  0.00000000000E+00  0.00000000000E+00 -0.11890419164E+04  0.40774405425E+04  0.39002180322E+04 0.  0.
        2    1    3    3  502    0  0.36556620957E+03 -0.10789866831E+04 -0.22491820433E+04  0.25212438953E+04  0.25500000920E-02 0. -1.
       -2    1    3    3    0  502 -0.36556620957E+03  0.10789866831E+04  0.10601401269E+04  0.15561966471E+04  0.25500000920E-02 0.  1.
</event>
<event>
 5   0  0.2929054E-09  0.3898845E+04  0.7818609E-02  0.8025270E-01
       -1   -1    0    0    0  501  0.00000000000E+00  0.00000000000E+00  0.23171018575E+04  0.23171018575E+04  0.50400001928E-02 0. -1.
        1   -1    0    0  501    0  0.00000000000E+00  0.00000000000E+00 -0.16400864202E+04  0.16400864202E+04  0.50400001928E-02 0.  1.
    10030    2    1    2    0    0  0.00000000000E+00  0.00000000000E+00  0.67701543737E+03  0.39571882777E+04  0.38988445933E+04 0.  0.
        1    1    3    3  502    0 -0.83970216446E+02 -0.19375292660E+04  0.13761492224E+03  0.19442244008E+04  0.50400001928E-02 0.  1.
       -1    1    3    3    0  502  0.83970216446E+02  0.19375292660E+04  0.53940051514E+03  0.20129638769E+04  0.50400001928E-02 0. -1.
</event>
<event>
 5   0  0.6335942E-09  0.3899541E+04  0.7818609E-02  0.8025125E-01
       -2   -1    0    0    0  501  0.00000000000E+00  0.00000000000E+00  0.21332251109E+04  0.21332251109E+04  0.25500000920E-02 0. -1.
        2   -1    0    0  501    0  0.00000000000E+00  0.00000000000E+00 -0.17820926343E+04  0.17820926343E+04  0.25500000920E-02 0.  1.
    10030    2    1    2    0    0  0.00000000000E+00  0.00000000000E+00  0.35113247658E+03  0.39153177453E+04  0.38995408743E+04 0.  0.
        2    1    3    3  502    0  0.73521701248E+03  0.11530977522E+04  0.15709465905E+04  0.20827989994E+04  0.25500000920E-02 0. -1.
       -2    1    3    3    0  502 -0.73521701248E+03 -0.11530977522E+04 -0.12198141139E+04  0.18325187459E+04  0.25500000920E-02 0.  1.
</event>
<event>
 5   0  0.9368546E-09  0.3899924E+04  0.7818609E-02  0.8025045E-01
        2   -1    0    0  501    0  0.00000000000E+00  0.00000000000E+00  0.25840454509E+04  0.25840454509E+04  0.25500000920E-02 0.  1.
       -2   -1    0    0    0  501  0.00000000000E+00  0.00000000000E+00 -0.14714723953E+04  0.14714723953E+04  0.25500000920E-02 0. -1.
    10030    2    1    2    0    0  0.00000000000E+00  0.00000000000E+00  0.11125730556E+04  0.40555178462E+04  0.38999238707E+04 0.  0.
        5    1    3    3  502    0 -0.27706546763E+03  0.16313024983E+03 -0.14437115435E+04  0.14790881862E+04  0.46999998093E+01 0. -1.
       -5    1    3    3    0  502  0.27706546763E+03 -0.16313024983E+03  0.25562845991E+04  0.25764296601E+04  0.46999998093E+01 0.  1.
</event>
<event>
 5   0  0.2904500E-09  0.3900522E+04  0.7818609E-02  0.8024921E-01
        1   -1    0    0  501    0  0.00000000000E+00  0.00000000000E+00  0.23228032634E+04  0.23228032634E+04  0.50400001928E-02 0. -1.
       -1   -1    0    0    0  501  0.00000000000E+00  0.00000000000E+00 -0.16374691819E+04  0.16374691819E+04  0.50400001928E-02 0.  1.
    10030    2    1    2    0    0  0.00000000000E+00  0.00000000000E+00  0.68533408142E+03  0.39602724453E+04  0.39005224058E+04 0.  0.
        3    1    3    3  502    0 -0.10143928029E+03  0.10122638626E+04  0.20320516261E+04  0.22724880366E+04  0.10100000352E+00 0. -1.
       -3    1    3    3    0  502  0.10143928029E+03 -0.10122638626E+04 -0.13467175447E+04  0.16877844087E+04  0.10100000352E+00 0.  1.
</event>
<event>
 5   0  0.2904500E-09  0.3893788E+04  0.7818609E-02  0.8026322E-01
        3   -1    0    0  501    0  0.00000000000E+00  0.00000000000E+00  0.21209887866E+04  0.21209887890E+04  0.10100000352E+00 0.  1.
       -3   -1    0    0    0  501  0.00000000000E+00  0.00000000000E+00 -0.17870893287E+04  0.17870893316E+04  0.10100000352E+00 0. -1.
    10030    2    1    2    0    0  0.00000000000E+00  0.00000000000E+00  0.33389945786E+03  0.39080781206E+04  0.38937880975E+04 0.  0.
        3    1    3    3  502    0  0.11538537287E+04  0.88995933493E+03  0.14628078962E+04  0.20647549483E+04  0.10100000352E+00 0.  1.
       -3    1    3    3    0  502 -0.11538537287E+04 -0.88995933493E+03 -0.11289084383E+04  0.18433231723E+04  0.10100000352E+00 0. -1.
</event>
<event>
 5   0  0.2904500E-09  0.3900259E+04  0.7818609E-02  0.8024975E-01
        1   -1    0    0  501    0  0.00000000000E+00  0.00000000000E+00  0.30139961569E+04  0.30139961569E+04  0.50400001928E-02 0.  1.
       -1   -1    0    0    0  501  0.00000000000E+00  0.00000000000E+00 -0.12617815397E+04  0.12617815397E+04  0.50400001928E-02 0. -1.
    10030    2    1    2    0    0  0.00000000000E+00  0.00000000000E+00  0.17522146172E+04  0.42757776966E+04  0.39002588178E+04 0.  0.
        5    1    3    3  502    0  0.11151410427E+04  0.62087851886E+03  0.24924995590E+04  0.28002867393E+04  0.46999998093E+01 0.  1.
       -5    1    3    3    0  502 -0.11151410427E+04 -0.62087851886E+03 -0.74028494180E+03  0.14754909574E+04  0.46999998093E+01 0. -1.
</event>
<event>
 5   0  0.6335942E-09  0.3900541E+04  0.7818609E-02  0.8024917E-01
        2   -1    0    0  501    0  0.00000000000E+00  0.00000000000E+00  0.13214005065E+04  0.13214005065E+04  0.25500000920E-02 0.  1.
       -2   -1    0    0    0  501  0.00000000000E+00  0.00000000000E+00 -0.28784266423E+04  0.28784266423E+04  0.25500000920E-02 0. -1.
    10030    2    1    2    0    0  0.00000000000E+00  0.00000000000E+00 -0.15570261358E+04  0.41998271488E+04  0.39005406923E+04 0.  0.
        2    1    3    3  502    0  0.64924601023E+03  0.76325464958E+03 -0.25800576233E+04  0.27678105755E+04  0.25500000920E-02 0. -1.
       -2    1    3    3    0  502 -0.64924601023E+03 -0.76325464958E+03  0.10230314875E+04  0.14320165733E+04  0.25500000920E-02 0.  1.
</event>
<event>
 5   0  0.2904500E-09  0.3898865E+04  0.7818609E-02  0.8025265E-01
        1   -1    0    0  501    0  0.00000000000E+00  0.00000000000E+00  0.27141578874E+04  0.27141578874E+04  0.50400001928E-02 0.  1.
       -1   -1    0    0    0  501  0.00000000000E+00  0.00000000000E+00 -0.14001719431E+04  0.14001719431E+04  0.50400001928E-02 0. -1.
    10030    2    1    2    0    0  0.00000000000E+00  0.00000000000E+00  0.13139859443E+04  0.41143298305E+04  0.38988653339E+04 0.  0.
        4    1    3    3  502    0  0.38422052631E+03 -0.31345385285E+02 -0.13595483081E+04  0.14131458386E+04  0.12699999809E+01 0. -1.
       -4    1    3    3    0  502 -0.38422052631E+03  0.31345385285E+02  0.26735342525E+04  0.27011839919E+04  0.12699999809E+01 0.  1.
</event>
<event>
 5   0  0.9078515E-09  0.3900282E+04  0.7818609E-02  0.8024971E-01
        2   -1    0    0  501    0  0.00000000000E+00  0.00000000000E+00  0.19446426242E+04  0.19446426242E+04  0.25500000920E-02 0. -1.
       -2   -1    0    0    0  501  0.00000000000E+00  0.00000000000E+00 -0.19556547874E+04  0.19556547874E+04  0.25500000920E-02 0.  1.
    10030    2    1    2    0    0  0.00000000000E+00  0.00000000000E+00 -0.11012163271E+02  0.39002974116E+04  0.39002818656E+04 0.  0.
        3    1    3    3  502    0  0.96676921982E+03 -0.11303562727E+04  0.12557291465E+04  0.19465877137E+04  0.10100000352E+00 0. -1.
       -3    1    3    3    0  502 -0.96676921982E+03  0.11303562727E+04 -0.12667413097E+04  0.19537096979E+04  0.10100000352E+00 0.  1.
</event>
<event>
 5   0  0.9078515E-09  0.3903760E+04  0.7818609E-02  0.8024248E-01
       -2   -1    0    0    0  501  0.00000000000E+00  0.00000000000E+00  0.22749658811E+04  0.22749658811E+04  0.25500000920E-02 0. -1.
        2   -1    0    0  501    0  0.00000000000E+00  0.00000000000E+00 -0.16746777562E+04  0.16746777562E+04  0.25500000920E-02 0.  1.
    10030    2    1    2    0    0  0.00000000000E+00  0.00000000000E+00  0.60028812483E+03  0.39496436373E+04  0.39037596018E+04 0.  0.
        3    1    3    3  502    0  0.11707943992E+04 -0.13888275968E+04 -0.42255779930E+03  0.18649816950E+04  0.10100000352E+00 0. -1.
       -3    1    3    3    0  502 -0.11707943992E+04  0.13888275968E+04  0.10228459241E+04  0.20846619423E+04  0.10100000352E+00 0.  1.
</event>
<event>
 5   0  0.9434114E-09  0.3900221E+04  0.7818609E-02  0.8024983E-01
       -2   -1    0    0    0  501  0.00000000000E+00  0.00000000000E+00  0.20752638757E+04  0.20752638757E+04  0.25500000920E-02 0. -1.
        2   -1    0    0  501    0  0.00000000000E+00  0.00000000000E+00 -0.18325052090E+04  0.18325052090E+04  0.25500000920E-02 0.  1.
    10030    2    1    2    0    0  0.00000000000E+00  0.00000000000E+00  0.24275866664E+03  0.39077690847E+04  0.39002214615E+04 0.  0.
        4    1    3    3  502    0  0.79646182380E+03 -0.11519985300E+04  0.14810161496E+04  0.20383479826E+04  0.12699999809E+01 0. -1.
       -4    1    3    3    0  502 -0.79646182380E+03  0.11519985300E+04 -0.12382574829E+04  0.18694211021E+04  0.12699999809E+01 0.  1.
</event>
<event>
 5   0  0.2904500E-09  0.3897231E+04  0.7818609E-02  0.8025605E-01
        1   -1    0    0  501    0  0.00000000000E+00  0.00000000000E+00  0.30159205541E+04  0.30159205541E+04  0.50400001928E-02 0.  1.
       -1   -1    0    0    0  501  0.00000000000E+00  0.00000000000E+00 -0.12590190828E+04  0.12590190828E+04  0.50400001928E-02 0. -1.
    10030    2    1    2    0    0  0.00000000000E+00  0.00000000000E+00  0.17569014714E+04  0.42749396369E+04  0.38972305705E+04 0.  0.
        4    1    3    3  502    0 -0.67089416089E+03  0.11155351337E+04 -0.71211048231E+03  0.14837858880E+04  0.12699999809E+01 0. -1.
       -4    1    3    3    0  502  0.67089416089E+03 -0.11155351337E+04  0.24690119537E+04  0.27911537489E+04  0.12699999809E+01 0.  1.
</event>
<event>
 5   0  0.9277261E-09  0.3897635E+04  0.7818609E-02  0.8025521E-01
        2   -1    0    0  501    0  0.00000000000E+00  0.00000000000E+00  0.15638279350E+04  0.15638279350E+04  0.25500000920E-02 0.  1.
       -2   -1    0    0    0  501  0.00000000000E+00  0.00000000000E+00 -0.24285852140E+04  0.24285852140E+04  0.25500000920E-02 0. -1.
    10030    2    1    2    0    0  0.00000000000E+00  0.00000000000E+00 -0.86475727897E+03  0.39924131490E+04  0.38976348727E+04 0.  0.
        1    1    3    3  502    0 -0.82296145368E+03  0.55247024295E+03  0.12863385275E+04  0.16239321818E+04  0.50400001928E-02 0.  1.
       -1    1    3    3    0  502  0.82296145368E+03 -0.55247024295E+03 -0.21510958065E+04  0.23684809672E+04  0.50400001928E-02 0. -1.
</event>
<event>
 5   0  0.2904500E-09  0.3904463E+04  0.7818609E-02  0.8024102E-01
       -1   -1    0    0    0  501  0.00000000000E+00  0.00000000000E+00  0.16206236607E+04  0.16206236607E+04  0.50400001928E-02 0. -1.
        1   -1    0    0  501    0  0.00000000000E+00  0.00000000000E+00 -0.23516924591E+04  0.23516924591E+04  0.50400001928E-02 0.  1.
    10030    2    1    2    0    0  0.00000000000E+00  0.00000000000E+00 -0.73106879841E+03  0.39723161198E+04  0.39044633136E+04 0.  0.
        4    1    3    3  502    0  0.59962421508E+03 -0.14308246014E+04 -0.15712021608E+04  0.22080502898E+04  0.12699999809E+01 0.  1.
       -4    1    3    3    0  502 -0.59962421508E+03  0.14308246014E+04  0.84013336243E+03  0.17642658300E+04  0.12699999809E+01 0. -1.
</event>
<event>
 5   0  0.6335942E-09  0.3900079E+04  0.7818609E-02  0.8025013E-01
       -2   -1    0    0    0  501  0.00000000000E+00  0.00000000000E+00  0.15506174835E+04  0.15506174835E+04  0.25500000920E-02 0. -1.
        2   -1    0    0  501    0  0.00000000000E+00  0.00000000000E+00 -0.24523482969E+04  0.24523482969E+04  0.25500000920E-02 0.  1.
    10030    2    1    2    0    0  0.00000000000E+00  0.00000000000E+00 -0.90173081340E+03  0.40029657803E+04  0.39000790478E+04 0.  0.
        2    1    3    3  502    0  0.18413940003E+04  0.63906170823E+03 -0.38994979192E+03  0.19877606927E+04  0.25500000920E-02 0.  1.
       -2    1    3    3    0  502 -0.18413940003E+04 -0.63906170823E+03 -0.51178102148E+03  0.20152050876E+04  0.25500000920E-02 0. -1.
</event>
<event>
 5   0  0.2929054E-09  0.3899839E+04  0.7818609E-02  0.8025063E-01
        1   -1    0    0  501    0  0.00000000000E+00  0.00000000000E+00  0.18064374838E+04  0.18064374838E+04  0.50400001928E-02 0.  1.
       -1   -1    0    0    0  501  0.00000000000E+00  0.00000000000E+00 -0.21047980587E+04  0.21047980587E+04  0.50400001928E-02 0. -1.
    10030    2    1    2    0    0  0.00000000000E+00  0.00000000000E+00 -0.29836057488E+03  0.39112355425E+04  0.38998390270E+04 0.  0.
        1    1    3    3  502    0  0.42343101661E+03  0.18800281076E+04 -0.44734792138E+03  0.19783628772E+04  0.50400001928E-02 0. -1.
       -1    1    3    3    0  502 -0.42343101661E+03 -0.18800281076E+04  0.14898734649E+03  0.19328726654E+04  0.50400001928E-02 0.  1.
</event>
<event>
 5   0  0.9078515E-09  0.3899029E+04  0.7818609E-02  0.8025231E-01
        2   -1    0    0  501    0  0.00000000000E+00  0.00000000000E+00  0.26576865052E+04  0.26576865052E+04  0.25500000920E-02 0.  1.
       -2   -1    0    0    0  501  0.00000000000E+00  0.00000000000E+00 -0.14300434381E+04  0.14300434381E+04  0.25500000920E-02 0. -1.
    10030    2    1    2    0    0  0.00000000000E+00  0.00000000000E+00  0.12276430671E+04  0.40877299432E+04  0.38990291854E+04 0.  0.
        3    1    3    3  502    0  0.16482514517E+04 -0.79296858351E+01 -0.47762526045E+03  0.17160773955E+04  0.10100000352E+00 0. -1.
       -3    1    3    3    0  502 -0.16482514517E+04  0.79296858351E+01  0.17052683275E+04  0.23716525477E+04  0.10100000352E+00 0.  1.
</event>
<event>
 5   0  0.9368546E-09  0.3899601E+04  0.7818609E-02  0.8025112E-01
        2   -1    0    0  501    0  0.00000000000E+00  0.00000000000E+00  0.25416322781E+04  0.25416322781E+04  0.25500000920E-02 0. -1.
       -2   -1    0    0    0  501  0.00000000000E+00  0.00000000000E+00 -0.14957796173E+04  0.14957796173E+04  0.25500000920E-02 0.  1.
    10030    2    1    2    0    0  0.00000000000E+00  0.00000000000E+00  0.10458526608E+04  0.40374118954E+04  0.38996008802E+04 0.  0.
        5    1    3    3  502    0  0.29583689350E+03 -0.12696878052E+04  0.20240165777E+04  0.24075489169E+04  0.46999998093E+01 0. -1.
       -5    1    3    3    0  502 -0.29583689350E+03  0.12696878052E+04 -0.97816391694E+03  0.16298629785E+04  0.46999998093E+01 0.  1.
</event>
<event>
 5   0  0.6335942E-09  0.3895793E+04  0.7818609E-02  0.8025905E-01
        2   -1    0    0  501    0  0.00000000000E+00  0.00000000000E+00  0.19151014463E+04  0.19151014463E+04  0.25500000920E-02 0. -1.
       -2   -1    0    0    0  501  0.00000000000E+00  0.00000000000E+00 -0.19812535127E+04  0.19812535127E+04  0.25500000920E-02 0.  1.
    10030    2    1    2    0    0  0.00000000000E+00  0.00000000000E+00 -0.66152066411E+02  0.38963549590E+04  0.38957933557E+04 0.  0.
        2    1    3    3  502    0 -0.77698162250E+03 -0.10175066596E+04  0.14352232085E+04  0.19232487885E+04  0.25500000920E-02 0. -1.
       -2    1    3    3    0  502  0.77698162250E+03  0.10175066596E+04 -0.15013752749E+04  0.19731061705E+04  0.25500000920E-02 0.  1.
</event>
<event>
 5   0  0.6335942E-09  0.3903627E+04  0.7818609E-02  0.8024275E-01
       -2   -1    0    0    0  501  0.00000000000E+00  0.00000000000E+00  0.19587267331E+04  0.19587267331E+04  0.25500000920E-02 0. -1.
        2   -1    0    0  501    0  0.00000000000E+00  0.00000000000E+00 -0.19449243347E+04  0.19449243347E+04  0.25500000920E-02 0.  1.
    10030    2    1    2    0    0  0.00000000000E+00  0.00000000000E+00  0.13802398420E+02  0.39036510678E+04  0.39036266667E+04 0.  0.
        2    1    3    3  502    0  0.17383341617E+04 -0.57942706149E+03 -0.66543767512E+03  0.19494483007E+04  0.25500000920E-02 0.  1.
       -2    1    3    3    0  502 -0.17383341617E+04  0.57942706149E+03  0.67924007354E+03  0.19542027671E+04  0.25500000920E-02 0. -1.
</event>
<event>
 5   0  0.9277261E-09  0.3922089E+04  0.7818609E-02  0.8020451E-01
        2   -1    0    0  501    0  0.00000000000E+00  0.00000000000E+00  0.17003306658E+04  0.17003306658E+04  0.25500000920E-02 0. -1.
       -2   -1    0    0    0  501  0.00000000000E+00  0.00000000000E+00 -0.22617333713E+04  0.22617333713E+04  0.25500000920E-02 0.  1.
    10030    2    1    2    0    0  0.00000000000E+00  0.00000000000E+00 -0.56140270558E+03  0.39620640371E+04  0.39220885299E+04 0.  0.
        1    1    3    3  502    0 -0.14934229655E+04 -0.10028427998E+04  0.50808283769E+03  0.18692656325E+04  0.50400001928E-02 0. -1.
       -1    1    3    3    0  502  0.14934229655E+04  0.10028427998E+04 -0.10694855433E+04  0.20927984046E+04  0.50400001928E-02 0.  1.
</event>
<event>
 5   0  0.2904500E-09  0.3898865E+04  0.7818609E-02  0.8025265E-01
       -1   -1    0    0    0  501  0.00000000000E+00  0.00000000000E+00  0.21089405378E+04  0.21089405378E+04  0.50400001928E-02 0. -1.
        1   -1    0    0  501    0  0.00000000000E+00  0.00000000000E+00 -0.18019891427E+04  0.18019891427E+04  0.50400001928E-02 0.  1.
    10030    2    1    2    0    0  0.00000000000E+00  0.00000000000E+00  0.30695139508E+03  0.39109296805E+04  0.38988654513E+04 0.  0.
        3    1    3    3  502    0 -0.40619311256E+03 -0.65047425450E+03 -0.16443251629E+04  0.18143634840E+04  0.10100000352E+00 0.  1.
       -3    1    3    3    0  502  0.40619311256E+03  0.65047425450E+03  0.19512765580E+04  0.20965661965E+04  0.10100000352E+00 0. -1.
</event>
<event>
 5   0  0.2904500E-09  0.3899790E+04  0.7818609E-02  0.8025073E-01
       -1   -1    0    0    0  501  0.00000000000E+00  0.00000000000E+00  0.23466670444E+04  0.23466670444E+04  0.50400001928E-02 0.  1.
        1   -1    0    0  501    0  0.00000000000E+00  0.00000000000E+00 -0.16202087187E+04  0.16202087188E+04  0.50400001928E-02 0. -1.
    10030    2    1    2    0    0  0.00000000000E+00  0.00000000000E+00  0.72645832566E+03  0.39668757632E+04  0.38997899458E+04 0.  0.
        3    1    3    3  502    0  0.17672277053E+04  0.59827653776E+03  0.93959962188E+03  0.20889892383E+04  0.10100000352E+00 0. -1.
       -3    1    3    3    0  502 -0.17672277053E+04 -0.59827653776E+03 -0.21314129622E+03  0.18778865249E+04  0.10100000352E+00 0.  1.
</event>
<event>
 5   0  0.2904500E-09  0.3897286E+04  0.7818609E-02  0.8025594E-01
       -3   -1    0    0    0  501  0.00000000000E+00  0.00000000000E+00  0.20377393945E+04  0.20377393970E+04  0.10100000352E+00 0.  1.
        3   -1    0    0  501    0  0.00000000000E+00  0.00000000000E+00 -0.18634425505E+04  0.18634425532E+04  0.10100000352E+00 0. -1.
    10030    2    1    2    0    0  0.00000000000E+00  0.00000000000E+00  0.17429684405E+03  0.39011819503E+04  0.38972863917E+04 0.  0.
        4    1    3    3  502    0  0.11648858003E+04 -0.15605422747E+04  0.15762883540E+03  0.19537398961E+04  0.12699999809E+01 0. -1.
       -4    1    3    3    0  502 -0.11648858003E+04  0.15605422747E+04  0.16668008651E+02  0.19474420542E+04  0.12699999809E+01 0.  1.
</event>
<event>
 5   0  0.9078515E-09  0.3901754E+04  0.7818609E-02  0.8024664E-01
        2   -1    0    0  501    0  0.00000000000E+00  0.00000000000E+00  0.11207880214E+04  0.11207880214E+04  0.25500000920E-02 0. -1.
       -2   -1    0    0    0  501  0.00000000000E+00  0.00000000000E+00 -0.33957549991E+04  0.33957549991E+04  0.25500000920E-02 0.  1.
    10030    2    1    2    0    0  0.00000000000E+00  0.00000000000E+00 -0.22749669777E+04  0.45165430205E+04  0.39017542345E+04 0.  0.
        3    1    3    3  502    0 -0.41916568837E+03 -0.17677306768E+04 -0.31459245296E+03  0.18437841635E+04  0.10100000352E+00 0. -1.
       -3    1    3    3    0  502  0.41916568837E+03  0.17677306768E+04 -0.19603745248E+04  0.26727588570E+04  0.10100000352E+00 0.  1.
</event>
<event>
 5   0  0.2904500E-09  0.3900372E+04  0.7818609E-02  0.8024952E-01
        1   -1    0    0  501    0  0.00000000000E+00  0.00000000000E+00  0.10704040581E+04  0.10704040582E+04  0.50400001928E-02 0.  1.
       -1   -1    0    0    0  501  0.00000000000E+00  0.00000000000E+00 -0.35530747212E+04  0.35530747213E+04  0.50400001928E-02 0. -1.
    10030    2    1    2    0    0  0.00000000000E+00  0.00000000000E+00 -0.24826706631E+04  0.46234787794E+04  0.39003720851E+04 0.  0.
        4    1    3    3  502    0 -0.96539360881E+03 -0.64277519115E+03 -0.30998276352E+04  0.33096945097E+04  0.12699999809E+01 0. -1.
       -4    1    3    3    0  502  0.96539360881E+03  0.64277519115E+03  0.61715697213E+03  0.13137842697E+04  0.12699999809E+01 0.  1.
</event>
<event>
 5   0  0.6335942E-09  0.3900122E+04  0.7818609E-02  0.8025004E-01
        2   -1    0    0  501    0  0.00000000000E+00  0.00000000000E+00  0.13841908647E+04  0.13841908647E+04  0.25500000920E-02 0.  1.
       -2   -1    0    0    0  501  0.00000000000E+00  0.00000000000E+00 -0.27472636683E+04  0.27472636683E+04  0.25500000920E-02 0. -1.
    10030    2    1    2    0    0  0.00000000000E+00  0.00000000000E+00 -0.13630728035E+04  0.41314545330E+04  0.39001216764E+04 0.  0.
        2    1    3    3  502    0 -0.69558038639E+03 -0.16429147204E+04  0.15239116592E+03  0.17905931754E+04  0.25500000920E-02 0.  1.
       -2    1    3    3    0  502  0.69558038639E+03  0.16429147204E+04 -0.15154639695E+04  0.23408613575E+04  0.25500000920E-02 0. -1.
</event>
<event>
 5   0  0.2904500E-09  0.3902051E+04  0.7818609E-02  0.8024603E-01
        1   -1    0    0  501    0  0.00000000000E+00  0.00000000000E+00  0.13740473034E+04  0.13740473034E+04  0.50400001928E-02 0. -1.
       -1   -1    0    0    0  501  0.00000000000E+00  0.00000000000E+00 -0.27702828720E+04  0.27702828720E+04  0.50400001928E-02 0.  1.
    10030    2    1    2    0    0  0.00000000000E+00  0.00000000000E+00 -0.13962355686E+04  0.41443301754E+04  0.39020505942E+04 0.  0.
        4    1    3    3  502    0  0.12594789918E+04 -0.73065422461E+03 -0.20773455009E+04  0.25368304772E+04  0.12699999809E+01 0.  1.
       -4    1    3    3    0  502 -0.12594789918E+04  0.73065422461E+03  0.68110993239E+03  0.16074996982E+04  0.12699999809E+01 0. -1.
</event>
<event>
 5   0  0.2929054E-09  0.3901271E+04  0.7818609E-02  0.8024765E-01
       -1   -1    0    0    0  501  0.00000000000E+00  0.00000000000E+00  0.20647119399E+04  0.20647119399E+04  0.50400001928E-02 0. -1.
        1   -1    0    0  501    0  0.00000000000E+00  0.00000000000E+00 -0.18428616396E+04  0.18428616396E+04  0.50400001928E-02 0.  1.
    10030    2    1    2    0    0  0.00000000000E+00  0.00000000000E+00  0.22185030030E+03  0.39075735796E+04  0.39012707832E+04 0.  0.
        1    1    3    3  502    0  0.87011518145E+03 -0.12821218786E+04 -0.10759117486E+04  0.18864047899E+04  0.50400001928E-02 0.  1.
       -1    1    3    3    0  502 -0.87011518145E+03  0.12821218786E+04  0.12977620489E+04  0.20211687896E+04  0.50400001928E-02 0. -1.
</event>
<event>
 5   0  0.2904500E-09  0.3900045E+04  0.7818609E-02  0.8025020E-01
        1   -1    0    0  501    0  0.00000000000E+00  0.00000000000E+00  0.19959555991E+04  0.19959555991E+04  0.50400001928E-02 0.  1.
       -1   -1    0    0    0  501  0.00000000000E+00  0.00000000000E+00 -0.19051469279E+04  0.19051469280E+04  0.50400001928E-02 0. -1.
    10030    2    1    2    0    0  0.00000000000E+00  0.00000000000E+00  0.90808671117E+02  0.39011025270E+04  0.39000454756E+04 0.  0.
        2    1    3    3  502    0 -0.24135401074E+03 -0.14107045357E+04 -0.12794355376E+04  0.19197120463E+04  0.25500000920E-02 0. -1.
       -2    1    3    3    0  502  0.24135401074E+03  0.14107045357E+04  0.13702442088E+04  0.19813904808E+04  0.25500000920E-02 0.  1.
</event>
<event>
 5   0  0.2904500E-09  0.3904893E+04  0.7818609E-02  0.8024012E-01
        1   -1    0    0  501    0  0.00000000000E+00  0.00000000000E+00  0.21905430522E+04  0.21905430523E+04  0.50400001928E-02 0. -1.
       -1   -1    0    0    0  501  0.00000000000E+00  0.00000000000E+00 -0.17402295306E+04  0.17402295306E+04  0.50400001928E-02 0.  1.
    10030    2    1    2    0    0  0.00000000000E+00  0.00000000000E+00  0.45031352165E+03  0.39307725829E+04  0.39048931907E+04 0.  0.
        3    1    3    3  502    0  0.54749010970E+03  0.25498660990E+03  0.20941481368E+04  0.21794999474E+04  0.10100000352E+00 0. -1.
       -3    1    3    3    0  502 -0.54749010970E+03 -0.25498660990E+03 -0.16438346152E+04  0.17512726355E+04  0.10100000352E+00 0.  1.
</event>
<event>
 5   0  0.6335942E-09  0.3899447E+04  0.7818609E-02  0.8025144E-01
        2   -1    0    0  501    0  0.00000000000E+00  0.00000000000E+00  0.12743056438E+04  0.12743056438E+04  0.25500000920E-02 0. -1.
       -2   -1    0    0    0  501  0.00000000000E+00  0.00000000000E+00 -0.29831320051E+04  0.29831320051E+04  0.25500000920E-02 0.  1.
    10030    2    1    2    0    0  0.00000000000E+00  0.00000000000E+00 -0.17088263612E+04  0.42574376489E+04  0.38994471148E+04 0.  0.
        2    1    3    3  502    0  0.24310089254E+03 -0.74795028144E+03 -0.28022670333E+04  0.29105374407E+04  0.25500000920E-02 0.  1.
       -2    1    3    3    0  502 -0.24310089254E+03  0.74795028144E+03  0.10934406721E+04  0.13469002082E+04  0.25500000920E-02 0. -1.
</event>
<event>
 5   0  0.6335942E-09  0.3899509E+04  0.7818609E-02  0.8025131E-01
        2   -1    0    0  501    0  0.00000000000E+00  0.00000000000E+00  0.16343298797E+04  0.16343298797E+04  0.25500000920E-02 0. -1.
       -2   -1    0    0    0  501  0.00000000000E+00  0.00000000000E+00 -0.23260557503E+04  0.23260557503E+04  0.25500000920E-02 0.  1.
    10030    2    1    2    0    0  0.00000000000E+00  0.00000000000E+00 -0.69172587065E+03  0.39603856300E+04  0.38995088996E+04 0.  0.
        2    1    3    3  502    0 -0.11678340850E+04  0.10754051072E+04  0.80371306781E+03  0.17794064432E+04  0.25500000920E-02 0. -1.
       -2    1    3    3    0  502  0.11678340850E+04 -0.10754051072E+04 -0.14954389385E+04  0.21809791868E+04  0.25500000920E-02 0.  1.
</event>
<event>
 5   0  0.2904500E-09  0.3901599E+04  0.7818609E-02  0.8024697E-01
       -1   -1    0    0    0  501  0.00000000000E+00  0.00000000000E+00  0.15831072051E+04  0.15831072051E+04  0.50400001928E-02 0. -1.
        1   -1    0    0  501    0  0.00000000000E+00  0.00000000000E+00 -0.24038914608E+04  0.24038914608E+04  0.50400001928E-02 0.  1.
    10030    2    1    2    0    0  0.00000000000E+00  0.00000000000E+00 -0.82078425571E+03  0.39869986660E+04  0.39015985914E+04 0.  0.
        2    1    3    3  502    0 -0.45536527896E+03  0.30703635225E+03 -0.23232595627E+04  0.23872921595E+04  0.25500000920E-02 0.  1.
       -2    1    3    3    0  502  0.45536527896E+03 -0.30703635225E+03  0.15024753070E+04  0.15997065065E+04  0.25500000920E-02 0. -1.
</event>
<event>
 5   0  0.9434114E-09  0.3899766E+04  0.7818609E-02  0.8025078E-01
       -2   -1    0    0    0  501  0.00000000000E+00  0.00000000000E+00  0.16162126070E+04  0.16162126070E+04  0.25500000920E-02 0. -1.
        2   -1    0    0  501    0  0.00000000000E+00  0.00000000000E+00 -0.23524397550E+04  0.23524397550E+04  0.25500000920E-02 0.  1.
    10030    2    1    2    0    0  0.00000000000E+00  0.00000000000E+00 -0.73622714798E+03  0.39686523619E+04  0.38997655258E+04 0.  0.
        4    1    3    3  502    0  0.15881003139E+03 -0.16582260064E+04  0.66325149890E+03  0.17929970100E+04  0.12699999809E+01 0.  1.
       -4    1    3    3    0  502 -0.15881003139E+03  0.16582260064E+04 -0.13994786469E+04  0.21756553519E+04  0.12699999809E+01 0. -1.
</event>
<event>
 5   0  0.9434114E-09  0.3898953E+04  0.7818609E-02  0.8025247E-01
        2   -1    0    0  501    0  0.00000000000E+00  0.00000000000E+00  0.31805412963E+04  0.31805412963E+04  0.25500000920E-02 0.  1.
       -2   -1    0    0    0  501  0.00000000000E+00  0.00000000000E+00 -0.11949096638E+04  0.11949096638E+04  0.25500000920E-02 0. -1.
    10030    2    1    2    0    0  0.00000000000E+00  0.00000000000E+00  0.19856316325E+04  0.43754509602E+04  0.38989534653E+04 0.  0.
        4    1    3    3  502    0  0.26218280031E+03  0.60555268692E+03  0.30514010558E+04  0.31219359208E+04  0.12699999809E+01 0.  1.
       -4    1    3    3    0  502 -0.26218280031E+03 -0.60555268692E+03 -0.10657694233E+04  0.12535150393E+04  0.12699999809E+01 0. -1.
</event>
<event>
 5   0  0.9434114E-09  0.3897466E+04  0.7818609E-02  0.8025556E-01
       -2   -1    0    0    0  501  0.00000000000E+00  0.00000000000E+00  0.16610420025E+04  0.16610420025E+04  0.25500000920E-02 0. -1.
        2   -1    0    0  501    0  0.00000000000E+00  0.00000000000E+00 -0.22862519802E+04  0.22862519802E+04  0.25500000920E-02 0.  1.
    10030    2    1    2    0    0  0.00000000000E+00  0.00000000000E+00 -0.62520997763E+03  0.39472939827E+04  0.38974661345E+04 0.  0.
        4    1    3    3  502    0  0.70286675871E+03  0.94134105521E+02 -0.21509350176E+04  0.22648191922E+04  0.12699999809E+01 0.  1.
       -4    1    3    3    0  502 -0.70286675871E+03 -0.94134105521E+02  0.15257250400E+04  0.16824747906E+04  0.12699999809E+01 0. -1.
</event>
<event>
 5   0  0.2904500E-09  0.3903366E+04  0.7818609E-02  0.8024330E-01
       -1   -1    0    0    0  501  0.00000000000E+00  0.00000000000E+00  0.16162518710E+04  0.16162518710E+04  0.50400001928E-02 0.  1.
        1   -1    0    0  501    0  0.00000000000E+00  0.00000000000E+00 -0.23567280017E+04  0.23567280017E+04  0.50400001928E-02 0. -1.
    10030    2    1    2    0    0  0.00000000000E+00  0.00000000000E+00 -0.74047613072E+03  0.39729798727E+04  0.39033657487E+04 0.  0.
        3    1    3    3  502    0  0.10391820868E+04 -0.16478980454E+04 -0.25154507227E+03  0.19643681710E+04  0.10100000352E+00 0. -1.
       -3    1    3    3    0  502 -0.10391820868E+04  0.16478980454E+04 -0.48893105845E+03  0.20086117016E+04  0.10100000352E+00 0.  1.
</event>
<event>
 5   0  0.9368546E-09  0.3898791E+04  0.7818609E-02  0.8025281E-01
        2   -1    0    0  501    0  0.00000000000E+00  0.00000000000E+00  0.21019161365E+04  0.21019161365E+04  0.25500000920E-02 0. -1.
       -2   -1    0    0    0  501  0.00000000000E+00  0.00000000000E+00 -0.18079425604E+04  0.18079425604E+04  0.25500000920E-02 0.  1.
    10030    2    1    2    0    0  0.00000000000E+00  0.00000000000E+00  0.29397357608E+03  0.39098586969E+04  0.38987914238E+04 0.  0.
        5    1    3    3  502    0  0.90146839986E+03 -0.75229556359E+03 -0.14135563460E+04  0.18375955824E+04  0.46999998093E+01 0.  1.
       -5    1    3    3    0  502 -0.90146839986E+03  0.75229556359E+03  0.17075299221E+04  0.20722631145E+04  0.46999998093E+01 0. -1.
</event>
<event>
 5   0  0.2904500E-09  0.3898955E+04  0.7818609E-02  0.8025247E-01
       -1   -1    0    0    0  501  0.00000000000E+00  0.00000000000E+00  0.16059421160E+04  0.16059421160E+04  0.50400001928E-02 0.  1.
        1   -1    0    0  501    0  0.00000000000E+00  0.00000000000E+00 -0.23664999511E+04  0.23664999512E+04  0.50400001928E-02 0. -1.
    10030    2    1    2    0    0  0.00000000000E+00  0.00000000000E+00 -0.76055783512E+03  0.39724420672E+04  0.38989547005E+04 0.  0.
        3    1    3    3  502    0  0.14657979074E+04 -0.89469479990E+03  0.55983658553E+03  0.18062279211E+04  0.10100000352E+00 0. -1.
       -3    1    3    3    0  502 -0.14657979074E+04  0.89469479990E+03 -0.13203944207E+04  0.21662141461E+04  0.10100000352E+00 0.  1.
</event>
<event>
 5   0  0.2904500E-09  0.3901811E+04  0.7818609E-02  0.8024653E-01
       -1   -1    0    0    0  501  0.00000000000E+00  0.00000000000E+00  0.19569014809E+04  0.19569014809E+04  0.50400001928E-02 0.  1.
        1   -1    0    0  501    0  0.00000000000E+00  0.00000000000E+00 -0.19449279113E+04  0.19449279113E+04  0.50400001928E-02 0. -1.
    10030    2    1    2    0    0  0.00000000000E+00  0.00000000000E+00  0.11973569565E+02  0.39018293923E+04  0.39018110205E+04 0.  0.
        3    1    3    3  502    0 -0.73399839608E+03  0.15885717611E+04 -0.85640837854E+03  0.19482682584E+04  0.10100000352E+00 0.  1.
       -3    1    3    3    0  502  0.73399839608E+03 -0.15885717611E+04  0.86838194811E+03  0.19535611339E+04  0.10100000352E+00 0. -1.
</event>
<event>
 5   0  0.9078515E-09  0.3900605E+04  0.7818609E-02  0.8024903E-01
       -2   -1    0    0    0  501  0.00000000000E+00  0.00000000000E+00  0.17366389971E+04  0.17366389971E+04  0.25500000920E-02 0. -1.
        2   -1    0    0  501    0  0.00000000000E+00  0.00000000000E+00 -0.21902539546E+04  0.21902539546E+04  0.25500000920E-02 0.  1.
    10030    2    1    2    0    0  0.00000000000E+00  0.00000000000E+00 -0.45361495754E+03  0.39268929517E+04  0.39006053024E+04 0.  0.
        3    1    3    3  502    0  0.17704102629E+04 -0.80634978001E+03 -0.36604340835E+03  0.19795303114E+04  0.10100000352E+00 0.  1.
       -3    1    3    3    0  502 -0.17704102629E+04  0.80634978001E+03 -0.87571549186E+02  0.19473626404E+04  0.10100000352E+00 0. -1.
</event>
<event>
 5   0  0.2929054E-09  0.3895812E+04  0.7818609E-02  0.8025901E-01
        1   -1    0    0  501    0  0.00000000000E+00  0.00000000000E+00  0.17591921821E+04  0.17591921821E+04  0.50400001928E-02 0. -1.
       -1   -1    0    0    0  501  0.00000000000E+00  0.00000000000E+00 -0.21568632516E+04  0.21568632516E+04  0.50400001928E-02 0.  1.
    10030    2    1    2    0    0  0.00000000000E+00  0.00000000000E+00 -0.39767106953E+03  0.39160554337E+04  0.38958115818E+04 0.  0.
        1    1    3    3  502    0 -0.91882760219E+03 -0.54357555885E+03 -0.18366018639E+04  0.21243410643E+04  0.50400001928E-02 0.  1.
       -1    1    3    3    0  502  0.91882760219E+03  0.54357555885E+03  0.14389307944E+04  0.17917143695E+04  0.50400001928E-02 0. -1.
</event>
<event>
 5   0  0.2904500E-09  0.3902915E+04  0.7818609E-02  0.8024423E-01
       -1   -1    0    0    0  501  0.00000000000E+00  0.00000000000E+00  0.19244862282E+04  0.19244862282E+04  0.50400001928E-02 0. -1.
        1   -1    0    0  501    0  0.00000000000E+00  0.00000000000E+00 -0.19788064087E+04  0.19788064087E+04  0.50400001928E-02 0.  1.
    10030    2    1    2    0    0  0.00000000000E+00  0.00000000000E+00 -0.54320180545E+02  0.39032926369E+04  0.39029146452E+04 0.  0.
        4    1    3    3  502    0  0.15944800727E+04 -0.86164732781E+03 -0.75068108626E+03  0.19617152000E+04  0.12699999809E+01 0. -1.
       -4    1    3    3    0  502 -0.15944800727E+04  0.86164732781E+03  0.69636090571E+03  0.19415774369E+04  0.12699999809E+01 0.  1.
</event>
<event>
 5   0  0.2904500E-09  0.3900447E+04  0.7818609E-02  0.8024936E-01
        1   -1    0    0  501    0  0.00000000000E+00  0.00000000000E+00  0.32082686746E+04  0.32082686746E+04  0.50400001928E-02 0. -1.
       -1   -1    0    0    0  501  0.00000000000E+00  0.00000000000E+00 -0.11854904931E+04  0.11854904931E+04  0.50400001928E-02 0.  1.
    10030    2    1    2    0    0  0.00000000000E+00  0.00000000000E+00  0.20227781815E+04  0.43937591677E+04  0.39004471606E+04 0.  0.
        5    1    3    3  502    0  0.79092165482E+03 -0.62654496587E+03 -0.86858868100E+03  0.13313842590E+04  0.46999998093E+01 0.  1.
       -5    1    3    3    0  502 -0.79092165482E+03  0.62654496587E+03  0.28913668625E+04  0.30623749087E+04  0.46999998093E+01 0. -1.
</event>
<event>
 5   0  0.2904500E-09  0.3905418E+04  0.7818609E-02  0.8023903E-01
       -1   -1    0    0    0  501  0.00000000000E+00  0.00000000000E+00  0.13536465093E+04  0.13536465093E+04  0.50400001928E-02 0.  1.
        1   -1    0    0  501    0  0.00000000000E+00  0.00000000000E+00 -0.28168892551E+04  0.28168892551E+04  0.50400001928E-02 0. -1.
    10030    2    1    2    0    0  0.00000000000E+00  0.00000000000E+00 -0.14632427459E+04  0.41705357644E+04  0.39054179327E+04 0.  0.
        4    1    3    3  502    0  0.16979259331E+04 -0.16876015376E+03 -0.17456272983E+04  0.24410343588E+04  0.12699999809E+01 0. -1.
       -4    1    3    3    0  502 -0.16979259331E+04  0.16876015376E+03  0.28238455239E+03  0.17295014056E+04  0.12699999809E+01 0.  1.
</event>
<event>
 5   0  0.2929054E-09  0.3898388E+04  0.7818609E-02  0.8025365E-01
        1   -1    0    0  501    0  0.00000000000E+00  0.00000000000E+00  0.11907608209E+04  0.11907608210E+04  0.50400001928E-02 0. -1.
       -1   -1    0    0    0  501  0.00000000000E+00  0.00000000000E+00 -0.31906966113E+04  0.31906966113E+04  0.50400001928E-02 0.  1.
    10030    2    1    2    0    0  0.00000000000E+00  0.00000000000E+00 -0.19999357904E+04  0.43814574323E+04  0.38983876238E+04 0.  0.
        1    1    3    3  502    0  0.36167088267E+02  0.15321001214E+04 -0.23536759978E+04  0.28086348184E+04  0.50400001928E-02 0.  1.
       -1    1    3    3    0  502 -0.36167088267E+02 -0.15321001214E+04  0.35374020743E+03  0.15728226139E+04  0.50400001928E-02 0. -1.
</event>
<event>
 5   0  0.9434114E-09  0.3898564E+04  0.7818609E-02  0.8025328E-01
       -2   -1    0    0    0  501  0.00000000000E+00  0.00000000000E+00  0.15708926211E+04  0.15708926211E+04  0.25500000920E-02 0.  1.
        2   -1    0    0  501    0  0.00000000000E+00  0.00000000000E+00 -0.24188157540E+04  0.24188157540E+04  0.25500000920E-02 0. -1.
    10030    2    1    2    0    0  0.00000000000E+00  0.00000000000E+00 -0.84792313287E+03  0.39897083751E+04  0.38985637456E+04 0.  0.
        4    1    3    3  502    0  0.11054090720E+04  0.15981566067E+04 -0.58139056298E+03  0.20283121938E+04  0.12699999809E+01 0. -1.
       -4    1    3    3    0  502 -0.11054090720E+04 -0.15981566067E+04 -0.26653256989E+03  0.19613961812E+04  0.12699999809E+01 0.  1.
</event>
<event>
 5   0  0.2904500E-09  0.3895839E+04  0.7818609E-02  0.8025895E-01
        1   -1    0    0  501    0  0.00000000000E+00  0.00000000000E+00  0.25623872728E+04  0.25623872728E+04  0.50400001928E-02 0. -1.
       -1   -1    0    0    0  501  0.00000000000E+00  0.00000000000E+00 -0.14808026716E+04  0.14808026716E+04  0.50400001928E-02 0.  1.
    10030    2    1    2    0    0  0.00000000000E+00  0.00000000000E+00  0.10815846012E+04  0.40431899443E+04  0.38958387642E+04 0.  0.
        4    1    3    3  502    0 -0.14573729409E+04 -0.11565015074E+04 -0.58056296749E+02  0.18613983378E+04  0.12699999809E+01 0.  1.
       -4    1    3    3    0  502  0.14573729409E+04  0.11565015074E+04  0.11396408979E+04  0.21817916066E+04  0.12699999809E+01 0. -1.
</event>
<event>
 5   0  0.2904500E-09  0.3899604E+04  0.7818609E-02  0.8025112E-01
        1   -1    0    0  501    0  0.00000000000E+00  0.00000000000E+00  0.22692421890E+04  0.22692421890E+04  0.50400001928E-02 0. -1.
       -1   -1    0    0    0  501  0.00000000000E+00  0.00000000000E+00 -0.16753294255E+04  0.16753294255E+04  0.50400001928E-02 0.  1.
    10030    2    1    2    0    0  0.00000000000E+00  0.00000000000E+00  0.59391276351E+03  0.39445716144E+04  0.38996041916E+04 0.  0.
        4    1    3    3  502    0  0.24909359952E+03 -0.12967008926E+04  0.17481585974E+04  0.21907854575E+04  0.12699999809E+01 0. -1.
       -4    1    3    3    0  502 -0.24909359952E+03  0.12967008926E+04 -0.11542458339E+04  0.17537861569E+04  0.12699999809E+01 0.  1.
</event>
<event>
 5   0  0.2904500E-09  0.3899191E+04  0.7818609E-02  0.8025197E-01
        1   -1    0    0  501    0  0.00000000000E+00  0.00000000000E+00  0.25825771529E+04  0.25825771529E+04  0.50400001928E-02 0.  1.
       -1   -1    0    0    0  501  0.00000000000E+00  0.00000000000E+00 -0.14717557797E+04  0.14717557797E+04  0.50400001928E-02 0. -1.
    10030    2    1    2    0    0  0.00000000000E+00  0.00000000000E+00  0.11108213732E+04  0.40543329326E+04  0.38991911219E+04 0.  0.
        3    1    3    3  502    0  0.11510069021E+04 -0.77810097321E+03 -0.86673103136E+03  0.16375227339E+04  0.10100000352E+00 0. -1.
       -3    1    3    3    0  502 -0.11510069021E+04  0.77810097321E+03  0.19775524046E+04  0.24168101987E+04  0.10100000352E+00 0.  1.
</event>
<event>
 5   0  0.2904500E-09  0.3904359E+04  0.7818609E-02  0.8024123E-01
        1   -1    0    0  501    0  0.00000000000E+00  0.00000000000E+00  0.20067740304E+04  0.20067740304E+04  0.50400001928E-02 0.  1.
       -1   -1    0    0    0  501  0.00000000000E+00  0.00000000000E+00 -0.18990699172E+04  0.18990699172E+04  0.50400001928E-02 0. -1.
    10030    2    1    2    0    0  0.00000000000E+00  0.00000000000E+00  0.10770411323E+03  0.39058439476E+04  0.39043586883E+04 0.  0.
        3    1    3    3  502    0  0.54644817917E+02 -0.12649060673E+03 -0.18941992384E+04  0.18992042267E+04  0.10100000352E+00 0. -1.
       -3    1    3    3    0  502 -0.54644817917E+02  0.12649060673E+03  0.20019033517E+04  0.20066397209E+04  0.10100000352E+00 0.  1.
</event>
<event>
 5   0  0.6335942E-09  0.3898302E+04  0.7818609E-02  0.8025383E-01
        2   -1    0    0  501    0  0.00000000000E+00  0.00000000000E+00  0.11399170876E+04  0.11399170876E+04  0.25500000920E-02 0. -1.
       -2   -1    0    0    0  501  0.00000000000E+00  0.00000000000E+00 -0.33328643508E+04  0.33328643508E+04  0.25500000920E-02 0.  1.
    10030    2    1    2    0    0  0.00000000000E+00  0.00000000000E+00 -0.21929472632E+04  0.44727814384E+04  0.38983016938E+04 0.  0.
        2    1    3    3  502    0  0.17937792983E+04 -0.11059716077E+03 -0.19621943814E+04  0.26608424781E+04  0.25500000920E-02 0.  1.
       -2    1    3    3    0  502 -0.17937792983E+04  0.11059716077E+03 -0.23075288184E+03  0.18119389602E+04  0.25500000920E-02 0. -1.
</event>
<event>
 5   0  0.2904500E-09  0.3900187E+04  0.7818609E-02  0.8024990E-01
        1   -1    0    0  501    0  0.00000000000E+00  0.00000000000E+00  0.23113969341E+04  0.23113969341E+04  0.50400001928E-02 0.  1.
       -1   -1    0    0    0  501  0.00000000000E+00  0.00000000000E+00 -0.16452666914E+04  0.16452666914E+04  0.50400001928E-02 0. -1.
    10030    2    1    2    0    0  0.00000000000E+00  0.00000000000E+00  0.66613024264E+03  0.39566636255E+04  0.39001868603E+04 0.  0.
        2    1    3    3  502    0  0.66591796219E+03  0.15623916189E+04 -0.63911749343E+03  0.18146585005E+04  0.25500000920E-02 0. -1.
       -2    1    3    3    0  502 -0.66591796219E+03 -0.15623916189E+04  0.13052477361E+04  0.21420051250E+04  0.25500000920E-02 0.  1.
</event>
<event>
 5   0  0.2904500E-09  0.3899539E+04  0.7818609E-02  0.8025125E-01
       -1   -1    0    0    0  501  0.00000000000E+00  0.00000000000E+00  0.24290677327E+04  0.24290677327E+04  0.50400001928E-02 0.  1.
        1   -1    0    0  501    0  0.00000000000E+00  0.00000000000E+00 -0.15650456783E+04  0.15650456783E+04  0.50400001928E-02 0. -1.
    10030    2    1    2    0    0  0.00000000000E+00  0.00000000000E+00  0.86402205441E+03  0.39941134111E+04  0.38995394382E+04 0.  0.
        4    1    3    3  502    0  0.56084558716E+03 -0.99614413628E+03 -0.11857729938E+04  0.16470914117E+04  0.12699999809E+01 0. -1.
       -4    1    3    3    0  502 -0.56084558716E+03  0.99614413628E+03  0.20497950482E+04  0.23470219994E+04  0.12699999809E+01 0.  1.
</event>
<event>
 5   0  0.9434114E-09  0.3901213E+04  0.7818609E-02  0.8024777E-01
       -2   -1    0    0    0  501  0.00000000000E+00  0.00000000000E+00  0.12216794567E+04  0.12216794567E+04  0.25500000920E-02 0. -1.
        2   -1    0    0  501    0  0.00000000000E+00  0.00000000000E+00 -0.31144557779E+04  0.31144557779E+04  0.25500000920E-02 0.  1.
    10030    2    1    2    0    0  0.00000000000E+00  0.00000000000E+00 -0.18927763212E+04  0.43361352347E+04  0.39012134742E+04 0.  0.
        4    1    3    3  502    0 -0.19953789777E+03  0.23831591502E+03 -0.30867534978E+04  0.31023633922E+04  0.12699999809E+01 0.  1.
       -4    1    3    3    0  502  0.19953789777E+03 -0.23831591502E+03  0.11939771766E+04  0.12337718425E+04  0.12699999809E+01 0. -1.
</event>
<event>
 5   0  0.9078515E-09  0.3900835E+04  0.7818609E-02  0.8024856E-01
       -2   -1    0    0    0  501  0.00000000000E+00  0.00000000000E+00  0.21557472173E+04  0.21557472173E+04  0.25500000920E-02 0. -1.
        2   -1    0    0  501    0  0.00000000000E+00  0.00000000000E+00 -0.17646449049E+04  0.17646449049E+04  0.25500000920E-02 0.  1.
    10030    2    1    2    0    0  0.00000000000E+00  0.00000000000E+00  0.39110231236E+03  0.39203921222E+04  0.39008349584E+04 0.  0.
        3    1    3    3  502    0  0.24671312925E+03 -0.13074892630E+03  0.21355568864E+04  0.21537330093E+04  0.10100000352E+00 0. -1.
       -3    1    3    3    0  502 -0.24671312925E+03  0.13074892630E+03 -0.17444545741E+04  0.17666591129E+04  0.10100000352E+00 0.  1.
</event>
<event>
 5   0  0.2904500E-09  0.3898257E+04  0.7818609E-02  0.8025392E-01
       -1   -1    0    0    0  501  0.00000000000E+00  0.00000000000E+00  0.18443260682E+04  0.18443260682E+04  0.50400001928E-02 0. -1.
        1   -1    0    0  501    0  0.00000000000E+00  0.00000000000E+00 -0.20598860351E+04  0.20598860351E+04  0.50400001928E-02 0.  1.
    10030    2    1    2    0    0  0.00000000000E+00  0.00000000000E+00 -0.21555996696E+03  0.39042121033E+04  0.38982567961E+04 0.  0.
        2    1    3    3  502    0 -0.15336132396E+03 -0.19430800119E+04 -0.10309482734E+03  0.19518473741E+04  0.25500000920E-02 0. -1.
       -2    1    3    3    0  502  0.15336132396E+03  0.19430800119E+04 -0.11246513962E+03  0.19523647292E+04  0.25500000920E-02 0.  1.
</event>
<event>
 5   0  0.9434114E-09  0.3898559E+04  0.7818609E-02  0.8025329E-01
       -2   -1    0    0    0  501  0.00000000000E+00  0.00000000000E+00  0.17645612654E+04  0.17645612654E+04  0.25500000920E-02 0.  1.
        2   -1    0    0  501    0  0.00000000000E+00  0.00000000000E+00 -0.21533340996E+04  0.21533340996E+04  0.25500000920E-02 0. -1.
    10030    2    1    2    0    0  0.00000000000E+00  0.00000000000E+00 -0.38877283425E+03  0.39178953650E+04  0.38985586791E+04 0.  0.
        4    1    3    3  502    0 -0.13592066351E+04 -0.39498463532E+03 -0.15412700268E+04  0.20925989696E+04  0.12699999809E+01 0.  1.
       -4    1    3    3    0  502  0.13592066351E+04  0.39498463532E+03  0.11524971926E+04  0.18252963954E+04  0.12699999809E+01 0. -1.
</event>
<event>
 5   0  0.9078515E-09  0.3899685E+04  0.7818609E-02  0.8025095E-01
        2   -1    0    0  501    0  0.00000000000E+00  0.00000000000E+00  0.13797576219E+04  0.13797576219E+04  0.25500000920E-02 0.  1.
       -2   -1    0    0    0  501  0.00000000000E+00  0.00000000000E+00 -0.27554736933E+04  0.27554736933E+04  0.25500000920E-02 0. -1.
    10030    2    1    2    0    0  0.00000000000E+00  0.00000000000E+00 -0.13757160715E+04  0.41352313152E+04  0.38996850284E+04 0.  0.
        3    1    3    3  502    0  0.79902919326E+02  0.31626908232E+03  0.13506171236E+04  0.13894521344E+04  0.10100000352E+00 0.  1.
       -3    1    3    3    0  502 -0.79902919326E+02 -0.31626908232E+03 -0.27263331951E+04  0.27457791808E+04  0.10100000352E+00 0. -1.
</event>
<event>
 5   0  0.2904500E-09  0.3899503E+04  0.7818609E-02  0.8025133E-01
       -1   -1    0    0    0  501  0.00000000000E+00  0.00000000000E+00  0.22007395878E+04  0.22007395878E+04  0.50400001928E-02 0. -1.
        1   -1    0    0  501    0  0.00000000000E+00  0.00000000000E+00 -0.17273877566E+04  0.17273877566E+04  0.50400001928E-02 0.  1.
    10030    2    1    2    0    0  0.00000000000E+00  0.00000000000E+00  0.47335183119E+03  0.39281273443E+04  0.38995028500E+04 0.  0.
        5    1    3    3  502    0 -0.37831779529E+03 -0.19008494251E+03  0.21538680577E+04  0.21950914194E+04  0.46999998093E+01 0. -1.
       -5    1    3    3    0  502  0.37831779529E+03  0.19008494251E+03 -0.16805162265E+04  0.17330359249E+04  0.46999998093E+01 0.  1.
</event>
<event>
 5   0  0.6335942E-09  0.3899442E+04  0.7818609E-02  0.8025145E-01
        2   -1    0    0  501    0  0.00000000000E+00  0.00000000000E+00  0.23688676225E+04  0.23688676225E+04  0.25500000920E-02 0.  1.
       -2   -1    0    0    0  501  0.00000000000E+00  0.00000000000E+00 -0.16047379347E+04  0.16047379347E+04  0.25500000920E-02 0. -1.
    10030    2    1    2    0    0  0.00000000000E+00  0.00000000000E+00  0.76412968787E+03  0.39736055572E+04  0.38994418760E+04 0.  0.
        2    1    3    3  502    0 -0.18729513244E+04 -0.40600378254E+03  0.74753059722E+03  0.20570823340E+04  0.25500000920E-02 0.  1.
       -2    1    3    3    0  502  0.18729513244E+04  0.40600378254E+03  0.16599090648E+02  0.19165232232E+04  0.25500000920E-02 0. -1.
</event>
<event>
 5   0  0.2904500E-09  0.3891475E+04  0.7818609E-02  0.8026805E-01
        1   -1    0    0  501    0  0.00000000000E+00  0.00000000000E+00  0.17760208815E+04  0.17760208815E+04  0.50400001928E-02 0.  1.
       -1   -1    0    0    0  501  0.00000000000E+00  0.00000000000E+00 -0.21316719910E+04  0.21316719910E+04  0.50400001928E-02 0. -1.
    10030    2    1    2    0    0  0.00000000000E+00  0.00000000000E+00 -0.35565110945E+03  0.39076928725E+04  0.38914747686E+04 0.  0.
        5    1    3    3  502    0 -0.37198385691E+03 -0.11631847181E+04  0.13432484646E+04  0.18154088261E+04  0.46999998093E+01 0.  1.
       -5    1    3    3    0  502  0.37198385691E+03  0.11631847181E+04 -0.16988995741E+04  0.20922840464E+04  0.46999998093E+01 0. -1.
</event>
<event>
 5   0  0.6335942E-09  0.3900340E+04  0.7818609E-02  0.8024959E-01
       -2   -1    0    0    0  501  0.00000000000E+00  0.00000000000E+00  0.16353689512E+04  0.16353689512E+04  0.25500000920E-02 0.  1.
        2   -1    0    0  501    0  0.00000000000E+00  0.00000000000E+00 -0.23255687249E+04  0.23255687249E+04  0.25500000920E-02 0. -1.
    10030    2    1    2    0    0  0.00000000000E+00  0.00000000000E+00 -0.69019977377E+03  0.39609376761E+04  0.39003399270E+04 0.  0.
        2    1    3    3  502    0  0.13743840964E+04 -0.13806199250E+04 -0.25358959312E+03  0.19645230219E+04  0.25500000920E-02 0.  1.
       -2    1    3    3    0  502 -0.13743840964E+04  0.13806199250E+04 -0.43661018065E+03  0.19964146542E+04  0.25500000920E-02 0. -1.
</event>
<event>
 5   0  0.2904500E-09  0.3900321E+04  0.7818609E-02  0.8024962E-01
       -1   -1    0    0    0  501  0.00000000000E+00  0.00000000000E+00  0.26446831713E+04  0.26446831713E+04  0.50400001928E-02 0. -1.
        1   -1    0    0  501    0  0.00000000000E+00  0.00000000000E+00 -0.14380273010E+04  0.14380273010E+04  0.50400001928E-02 0.  1.
    10030    2    1    2    0    0  0.00000000000E+00  0.00000000000E+00  0.12066558704E+04  0.40827104723E+04  0.39003213215E+04 0.  0.
        3    1    3    3  502    0  0.28330060608E+03  0.19121320577E+04  0.33315294675E+03  0.19615043043E+04  0.10100000352E+00 0. -1.
       -3    1    3    3    0  502 -0.28330060608E+03 -0.19121320577E+04  0.87350292364E+03  0.21212061680E+04  0.10100000352E+00 0.  1.
</event>
<event>
 5   0  0.9277261E-09  0.3892747E+04  0.7818609E-02  0.8026539E-01
        2   -1    0    0  501    0  0.00000000000E+00  0.00000000000E+00  0.17932968115E+04  0.17932968115E+04  0.25500000920E-02 0.  1.
       -2   -1    0    0    0  501  0.00000000000E+00  0.00000000000E+00 -0.21125171617E+04  0.21125171617E+04  0.25500000920E-02 0. -1.
    10030    2    1    2    0    0  0.00000000000E+00  0.00000000000E+00 -0.31922035023E+03  0.39058139732E+04  0.38927472511E+04 0.  0.
        1    1    3    3  502    0 -0.19145976121E+04  0.34929069078E+03 -0.13340186367E+03  0.19507649936E+04  0.50400001928E-02 0.  1.
       -1    1    3    3    0  502  0.19145976121E+04 -0.34929069078E+03 -0.18581848655E+03  0.19550489796E+04  0.50400001928E-02 0. -1.
</event>
<event>
 5   0  0.2904500E-09  0.3900819E+04  0.7818609E-02  0.8024859E-01
       -1   -1    0    0    0  501  0.00000000000E+00  0.00000000000E+00  0.27326443524E+04  0.27326443524E+04  0.50400001928E-02 0.  1.
        1   -1    0    0  501    0  0.00000000000E+00  0.00000000000E+00 -0.13920936754E+04  0.13920936754E+04  0.50400001928E-02 0. -1.
    10030    2    1    2    0    0  0.00000000000E+00  0.00000000000E+00  0.13405506770E+04  0.41247380277E+04  0.39008188473E+04 0.  0.
        2    1    3    3  502    0  0.35741587919E+03 -0.99590759902E+02 -0.13544328287E+04  0.14043335493E+04  0.25500000920E-02 0. -1.
       -2    1    3    3    0  502 -0.35741587919E+03  0.99590759902E+02  0.26949835057E+04  0.27204044784E+04  0.25500000920E-02 0.  1.
</event>
<event>
 5   0  0.2929054E-09  0.3900150E+04  0.7818609E-02  0.8024998E-01
       -1   -1    0    0    0  501  0.00000000000E+00  0.00000000000E+00  0.14437202852E+04  0.14437202853E+04  0.50400001928E-02 0.  1.
        1   -1    0    0  501    0  0.00000000000E+00  0.00000000000E+00 -0.26340226565E+04  0.26340226565E+04  0.50400001928E-02 0. -1.
    10030    2    1    2    0    0  0.00000000000E+00  0.00000000000E+00 -0.11903023712E+04  0.40777429417E+04  0.39001497104E+04 0.  0.
        1    1    3    3  502    0  0.13359715341E+04 -0.28238450296E+03  0.86044642341E+03  0.16139792424E+04  0.50400001928E-02 0.  1.
       -1    1    3    3    0  502 -0.13359715341E+04  0.28238450296E+03 -0.20507487946E+04  0.24637636993E+04  0.50400001928E-02 0. -1.
</event>
<event>
 5   0  0.6335942E-09  0.3899012E+04  0.7818609E-02  0.8025235E-01
       -2   -1    0    0    0  501  0.00000000000E+00  0.00000000000E+00  0.21523220724E+04  0.21523220724E+04  0.25500000920E-02 0.  1.
        2   -1    0    0  501    0  0.00000000000E+00  0.00000000000E+00 -0.17658013995E+04  0.17658013995E+04  0.25500000920E-02 0. -1.
    10030    2    1    2    0    0  0.00000000000E+00  0.00000000000E+00  0.38652067285E+03  0.39181234719E+04  0.38990118377E+04 0.  0.
        2    1    3    3  502    0  0.21215911195E+03  0.44629151457E+02 -0.17536494504E+04  0.17670001825E+04  0.25500000920E-02 0. -1.
       -2    1    3    3    0  502 -0.21215911195E+03 -0.44629151457E+02  0.21401701233E+04  0.21511232895E+04  0.25500000920E-02 0.  1.
</event>
<event>
 5   0  0.2904500E-09  0.3900400E+04  0.7818609E-02  0.8024946E-01
       -1   -1    0    0    0  501  0.00000000000E+00  0.00000000000E+00  0.26717370654E+04  0.26717370654E+04  0.50400001928E-02 0. -1.
        1   -1    0    0  501    0  0.00000000000E+00  0.00000000000E+00 -0.14235231187E+04  0.14235231187E+04  0.50400001928E-02 0.  1.
    10030    2    1    2    0    0  0.00000000000E+00  0.00000000000E+00  0.12482139467E+04  0.40952601841E+04  0.39003997127E+04 0.  0.
        3    1    3    3  502    0  0.17901471997E+04 -0.65025089546E+03  0.18384189882E+03  0.19134395934E+04  0.10100000352E+00 0.  1.
       -3    1    3    3    0  502 -0.17901471997E+04  0.65025089546E+03  0.10643720479E+04  0.21818205907E+04  0.10100000352E+00 0. -1.
</event>
<event>
 5   0  0.6335942E-09  0.3899788E+04  0.7818609E-02  0.8025073E-01
       -2   -1    0    0    0  501  0.00000000000E+00  0.00000000000E+00  0.14248554443E+04  0.14248554443E+04  0.25500000920E-02 0. -1.
        2   -1    0    0  501    0  0.00000000000E+00  0.00000000000E+00 -0.26684011405E+04  0.26684011405E+04  0.25500000920E-02 0.  1.
    10030    2    1    2    0    0  0.00000000000E+00  0.00000000000E+00 -0.12435456962E+04  0.40932565848E+04  0.38997876314E+04 0.  0.
        2    1    3    3  502    0  0.19101378709E+03  0.83884940473E+03 -0.24584200135E+04  0.26046081382E+04  0.25500000920E-02 0.  1.
       -2    1    3    3    0  502 -0.19101378709E+03 -0.83884940473E+03  0.12148743173E+04  0.14886484466E+04  0.25500000920E-02 0. -1.
</event>
<event>
 5   0  0.9277261E-09  0.3898551E+04  0.7818609E-02  0.8025331E-01
        2   -1    0    0  501    0  0.00000000000E+00  0.00000000000E+00  0.21287759680E+04  0.21287759680E+04  0.25500000920E-02 0.  1.
       -2   -1    0    0    0  501  0.00000000000E+00  0.00000000000E+00 -0.17849107941E+04  0.17849107941E+04  0.25500000920E-02 0. -1.
    10030    2    1    2    0    0  0.00000000000E+00  0.00000000000E+00  0.34386517391E+03  0.39136867622E+04  0.38985511173E+04 0.  0.
        1    1    3    3  502    0 -0.26968762749E+03  0.12258040904E+04 -0.13252825485E+04  0.18252947482E+04  0.50400001928E-02 0. -1.
       -1    1    3    3    0  502  0.26968762749E+03 -0.12258040904E+04  0.16691477224E+04  0.20883920139E+04  0.50400001928E-02 0.  1.
</event>
<event>
 5   0  0.9368546E-09  0.3900601E+04  0.7818609E-02  0.8024904E-01
       -2   -1    0    0    0  501  0.00000000000E+00  0.00000000000E+00  0.21619829924E+04  0.21619829924E+04  0.25500000920E-02 0.  1.
        2   -1    0    0  501    0  0.00000000000E+00  0.00000000000E+00 -0.17593440985E+04  0.17593440985E+04  0.25500000920E-02 0. -1.
    10030    2    1    2    0    0  0.00000000000E+00  0.00000000000E+00  0.40263889384E+03  0.39213270909E+04  0.39006009890E+04 0.  0.
        5    1    3    3  502    0  0.88813376414E+02 -0.59579402005E+03 -0.16634739718E+04  0.17691879705E+04  0.46999998093E+01 0. -1.
       -5    1    3    3    0  502 -0.88813376414E+02  0.59579402005E+03  0.20661128656E+04  0.21521391204E+04  0.46999998093E+01 0.  1.
</event>
<event>
 5   0  0.2904500E-09  0.3899862E+04  0.7818609E-02  0.8025058E-01
       -1   -1    0    0    0  501  0.00000000000E+00  0.00000000000E+00  0.31270585022E+04  0.31270585022E+04  0.50400001928E-02 0. -1.
        1   -1    0    0  501    0  0.00000000000E+00  0.00000000000E+00 -0.12159132272E+04  0.12159132272E+04  0.50400001928E-02 0.  1.
    10030    2    1    2    0    0  0.00000000000E+00  0.00000000000E+00  0.19111452749E+04  0.43429717294E+04  0.38998624566E+04 0.  0.
        4    1    3    3  502    0  0.14128576785E+04 -0.19105000457E+03 -0.52582196612E+03  0.15195911545E+04  0.12699999809E+01 0.  1.
       -4    1    3    3    0  502 -0.14128576785E+04  0.19105000457E+03  0.24369672411E+04  0.28233805749E+04  0.12699999809E+01 0. -1.
</event>
<event>
 5   0  0.2929054E-09  0.3900034E+04  0.7818609E-02  0.8025022E-01
       -1   -1    0    0    0  501  0.00000000000E+00  0.00000000000E+00  0.16815281465E+04  0.16815281465E+04  0.50400001928E-02 0. -1.
        1   -1    0    0  501    0  0.00000000000E+00  0.00000000000E+00 -0.22613749460E+04  0.22613749460E+04  0.50400001928E-02 0.  1.
    10030    2    1    2    0    0  0.00000000000E+00  0.00000000000E+00 -0.57984679948E+03  0.39429030925E+04  0.39000336519E+04 0.  0.
        1    1    3    3  502    0  0.98108621619E+03 -0.71498209327E+03  0.12529035194E+04  0.17445620615E+04  0.50400001928E-02 0. -1.
       -1    1    3    3    0  502 -0.98108621619E+03  0.71498209327E+03 -0.18327503189E+04  0.21983410311E+04  0.50400001928E-02 0.  1.
</event>
<event>
 5   0  0.2904500E-09  0.3901044E+04  0.7818609E-02  0.8024812E-01
        1   -1    0    0  501    0  0.00000000000E+00  0.00000000000E+00  0.17109913381E+04  0.17109913381E+04  0.50400001928E-02 0. -1.
       -1   -1    0    0    0  501  0.00000000000E+00  0.00000000000E+00 -0.22235862816E+04  0.22235862816E+04  0.50400001928E-02 0.  1.
    10030    2    1    2    0    0  0.00000000000E+00  0.00000000000E+00 -0.51259494353E+03  0.39345776197E+04  0.39010444075E+04 0.  0.
        5    1    3    3  502    0  0.12410353376E+04 -0.92981860839E+02  0.12585117331E+04  0.17699401707E+04  0.46999998093E+01 0. -1.
       -5    1    3    3    0  502 -0.12410353376E+04  0.92981860839E+02 -0.17711066766E+04  0.21646374490E+04  0.46999998093E+01 0.  1.
</event>
<event>
 5   0  0.6335942E-09  0.3898397E+04  0.7818609E-02  0.8025363E-01
        2   -1    0    0  501    0  0.00000000000E+00  0.00000000000E+00  0.23158176974E+04  0.23158176974E+04  0.25500000920E-02 0.  1.
       -2   -1    0    0    0  501  0.00000000000E+00  0.00000000000E+00 -0.16406193604E+04  0.16406193604E+04  0.25500000920E-02 0. -1.
    10030    2    1    2    0    0  0.00000000000E+00  0.00000000000E+00  0.67519833703E+03  0.39564370578E+04  0.38983972858E+04 0.  0.
        2    1    3    3  502    0 -0.21056731000E+03  0.10452770043E+03 -0.16261793562E+04  0.16430836652E+04  0.25500000920E-02 0. -1.
       -2    1    3    3    0  502  0.21056731000E+03 -0.10452770043E+03  0.23013776933E+04  0.23133533926E+04  0.25500000920E-02 0.  1.
</event>
<event>
 5   0  0.9434114E-09  0.3896701E+04  0.7818609E-02  0.8025716E-01
       -2   -1    0    0    0  501  0.00000000000E+00  0.00000000000E+00  0.20939749625E+04  0.20939749625E+04  0.25500000920E-02 0.  1.
        2   -1    0    0  501    0  0.00000000000E+00  0.00000000000E+00 -0.18128531381E+04  0.18128531381E+04  0.25500000920E-02 0. -1.
    10030    2    1    2    0    0  0.00000000000E+00  0.00000000000E+00  0.28112182443E+03  0.39068281005E+04  0.38967006976E+04 0.  0.
        4    1    3    3  502    0 -0.14537765375E+04  0.12968777184E+04  0.11385653235E+03  0.19514924955E+04  0.12699999809E+01 0.  1.
       -4    1    3    3    0  502  0.14537765375E+04 -0.12968777184E+04  0.16726529208E+03  0.19553356050E+04  0.12699999809E+01 0. -1.
</event>
<event>
 5   0  0.9078515E-09  0.3903172E+04  0.7818609E-02  0.8024370E-01
       -2   -1    0    0    0  501  0.00000000000E+00  0.00000000000E+00  0.13792663593E+04  0.13792663593E+04  0.25500000920E-02 0.  1.
        2   -1    0    0  501    0  0.00000000000E+00  0.00000000000E+00 -0.27613863327E+04  0.27613863327E+04  0.25500000920E-02 0. -1.
    10030    2    1    2    0    0  0.00000000000E+00  0.00000000000E+00 -0.13821199734E+04  0.41406526919E+04  0.39031716711E+04 0.  0.
        3    1    3    3  502    0  0.69448264937E+03  0.17262379096E+04 -0.13155027165E+04  0.22787608208E+04  0.10100000352E+00 0. -1.
       -3    1    3    3    0  502 -0.69448264937E+03 -0.17262379096E+04 -0.66617256871E+02  0.18618918712E+04  0.10100000352E+00 0.  1.
</event>
<event>
 5   0  0.9434114E-09  0.3900537E+04  0.7818609E-02  0.8024918E-01
        2   -1    0    0  501    0  0.00000000000E+00  0.00000000000E+00  0.14084399640E+04  0.14084399640E+04  0.25500000920E-02 0. -1.
       -2   -1    0    0    0  501  0.00000000000E+00  0.00000000000E+00 -0.27005390940E+04  0.27005390940E+04  0.25500000920E-02 0.  1.
    10030    2    1    2    0    0  0.00000000000E+00  0.00000000000E+00 -0.12920991300E+04  0.41089790580E+04  0.39005369807E+04 0.  0.
        4    1    3    3  502    0 -0.90309068811E+03 -0.13768983886E+04 -0.17469433644E+04  0.24006738002E+04  0.12699999809E+01 0.  1.
       -4    1    3    3    0  502  0.90309068811E+03  0.13768983886E+04  0.45484423448E+03  0.17083052578E+04  0.12699999809E+01 0. -1.
</event>
<event>
 5   0  0.6335942E-09  0.3900136E+04  0.7818609E-02  0.8025001E-01
        2   -1    0    0  501    0  0.00000000000E+00  0.00000000000E+00  0.25170966734E+04  0.25170966734E+04  0.25500000920E-02 0.  1.
       -2   -1    0    0    0  501  0.00000000000E+00  0.00000000000E+00 -0.15107742040E+04  0.15107742040E+04  0.25500000920E-02 0. -1.
    10030    2    1    2    0    0  0.00000000000E+00  0.00000000000E+00  0.10063224694E+04  0.40278708774E+04  0.39001357531E+04 0.  0.
        2    1    3    3  502    0 -0.14139437419E+04  0.10014939686E+04  0.14271925647E+04  0.22447952448E+04  0.25500000920E-02 0.  1.
       -2    1    3    3    0  502  0.14139437419E+04 -0.10014939686E+04 -0.42087009533E+03  0.17830756326E+04  0.25500000920E-02 0. -1.
</event>
<event>
 5   0  0.9078515E-09  0.3902609E+04  0.7818609E-02  0.8024487E-01
        2   -1    0    0  501    0  0.00000000000E+00  0.00000000000E+00  0.31577842302E+04  0.31577842302E+04  0.25500000920E-02 0.  1.
       -2   -1    0    0    0  501  0.00000000000E+00  0.00000000000E+00 -0.12057788459E+04  0.12057788459E+04  0.25500000920E-02 0. -1.
    10030    2    1    2    0    0  0.00000000000E+00  0.00000000000E+00  0.19520053843E+04  0.43635630761E+04  0.39026090886E+04 0.  0.
        3    1    3    3  502    0 -0.22213036566E+03  0.40593037715E+03 -0.11435445459E+04  0.12336188671E+04  0.10100000352E+00 0. -1.
       -3    1    3    3    0  502  0.22213036566E+03 -0.40593037715E+03  0.30955499303E+04  0.31299442090E+04  0.10100000352E+00 0.  1.
</event>
<event>
 5   0  0.9368546E-09  0.3901438E+04  0.7818609E-02  0.8024730E-01
        2   -1    0    0  501    0  0.00000000000E+00  0.00000000000E+00  0.22548088090E+04  0.22548088090E+04  0.25500000920E-02 0. -1.
       -2   -1    0    0    0  501  0.00000000000E+00  0.00000000000E+00 -0.16876397679E+04  0.16876397679E+04  0.25500000920E-02 0.  1.
    10030    2    1    2    0    0  0.00000000000E+00  0.00000000000E+00  0.56716904111E+03  0.39424485768E+04  0.39014382040E+04 0.  0.
        5    1    3    3  502    0 -0.15183673820E+04 -0.10262138522E+04 -0.39181874843E+03  0.18740593370E+04  0.46999998093E+01 0.  1.
       -5    1    3    3    0  502  0.15183673820E+04  0.10262138522E+04  0.95898778954E+03  0.20683892398E+04  0.46999998093E+01 0. -1.
</event>
<event>
 5   0  0.9368546E-09  0.3900045E+04  0.7818609E-02  0.8025020E-01
       -2   -1    0    0    0  501  0.00000000000E+00  0.00000000000E+00  0.15910825270E+04  0.15910825270E+04  0.25500000920E-02 0. -1.
        2   -1    0    0  501    0  0.00000000000E+00  0.00000000000E+00 -0.23899377767E+04  0.23899377767E+04  0.25500000920E-02 0.  1.
    10030    2    1    2    0    0  0.00000000000E+00  0.00000000000E+00 -0.79885524970E+03  0.39810203036E+04  0.39000452495E+04 0.  0.
        5    1    3    3  502    0 -0.16588694629E+04 -0.31281590900E+03  0.59698749940E+03  0.17905635572E+04  0.46999998093E+01 0.  1.
       -5    1    3    3    0  502  0.16588694629E+04  0.31281590900E+03 -0.13958427491E+04  0.21904567465E+04  0.46999998093E+01 0. -1.
</event>
<event>
 5   0  0.9368546E-09  0.3924801E+04  0.7818609E-02  0.8019891E-01
       -2   -1    0    0    0  501  0.00000000000E+00  0.00000000000E+00  0.14776602159E+04  0.14776602159E+04  0.25500000920E-02 0. -1.
        2   -1    0    0  501    0  0.00000000000E+00  0.00000000000E+00 -0.26061571974E+04  0.26061571974E+04  0.25500000920E-02 0.  1.
    10030    2    1    2    0    0  0.00000000000E+00  0.00000000000E+00 -0.11284969816E+04  0.40838174133E+04  0.39248005335E+04 0.  0.
        5    1    3    3  502    0 -0.89274566749E+03  0.17392240272E+04 -0.74174011341E+03  0.20909556498E+04  0.46999998093E+01 0.  1.
       -5    1    3    3    0  502  0.89274566749E+03 -0.17392240272E+04 -0.38675686815E+03  0.19928617635E+04  0.46999998093E+01 0. -1.
</event>
<event>
 5   0  0.9368546E-09  0.3899245E+04  0.7818609E-02  0.8025186E-01
        2   -1    0    0  501    0  0.00000000000E+00  0.00000000000E+00  0.12564017946E+04  0.12564017946E+04  0.25500000920E-02 0.  1.
       -2   -1    0    0    0  501  0.00000000000E+00  0.00000000000E+00 -0.30253279236E+04  0.30253279236E+04  0.25500000920E-02 0. -1.
    10030    2    1    2    0    0  0.00000000000E+00  0.00000000000E+00 -0.17689261290E+04  0.42817297181E+04  0.38992447640E+04 0.  0.
        5    1    3    3  502    0 -0.63430101973E+03  0.15755952838E+04  0.16659349801E+03  0.17066381472E+04  0.46999998093E+01 0.  1.
       -5    1    3    3    0  502  0.63430101973E+03 -0.15755952838E+04 -0.19355196270E+04  0.25750915709E+04  0.46999998093E+01 0. -1.
</event>
<event>
 5   0  0.2904500E-09  0.3899257E+04  0.7818609E-02  0.8025184E-01
        1   -1    0    0  501    0  0.00000000000E+00  0.00000000000E+00  0.27577424954E+04  0.27577424954E+04  0.50400001928E-02 0. -1.
       -1   -1    0    0    0  501  0.00000000000E+00  0.00000000000E+00 -0.13783200741E+04  0.13783200741E+04  0.50400001928E-02 0.  1.
    10030    2    1    2    0    0  0.00000000000E+00  0.00000000000E+00  0.13794224213E+04  0.41360625695E+04  0.38992572835E+04 0.  0.
        3    1    3    3  502    0  0.12407527457E+04  0.84245835685E+03 -0.63167524343E+03  0.16273343487E+04  0.10100000352E+00 0.  1.
       -3    1    3    3    0  502 -0.12407527457E+04 -0.84245835685E+03  0.20110976647E+04  0.25087282209E+04  0.10100000352E+00 0. -1.
</event>
<event>
 5   0  0.9078515E-09  0.3900489E+04  0.7818609E-02  0.8024928E-01
       -2   -1    0    0    0  501  0.00000000000E+00  0.00000000000E+00  0.14916303707E+04  0.14916303707E+04  0.25500000920E-02 0. -1.
        2   -1    0    0  501    0  0.00000000000E+00  0.00000000000E+00 -0.25498630469E+04  0.25498630469E+04  0.25500000920E-02 0.  1.
    10030    2    1    2    0    0  0.00000000000E+00  0.00000000000E+00 -0.10582326762E+04  0.40414934176E+04  0.39004887703E+04 0.  0.
        3    1    3    3  502    0  0.18917297446E+02  0.89579734498E+03  0.12657411244E+04  0.15507776603E+04  0.10100000352E+00 0. -1.
       -3    1    3    3    0  502 -0.18917297446E+02 -0.89579734498E+03 -0.23239738006E+04  0.24907157573E+04  0.10100000352E+00 0.  1.
</event>
<event>
 5   0  0.2929054E-09  0.3899919E+04  0.7818609E-02  0.8025046E-01
        1   -1    0    0  501    0  0.00000000000E+00  0.00000000000E+00  0.13933807671E+04  0.13933807671E+04  0.50400001928E-02 0.  1.
       -1   -1    0    0    0  501  0.00000000000E+00  0.00000000000E+00 -0.27288612059E+04  0.27288612059E+04  0.50400001928E-02 0. -1.
    10030    2    1    2    0    0  0.00000000000E+00  0.00000000000E+00 -0.13354804389E+04  0.41222419730E+04  0.38999193429E+04 0.  0.
        1    1    3    3  502    0  0.17738717481E+03  0.19375542724E+04 -0.80458058938E+03  0.21054530850E+04  0.50400001928E-02 0. -1.
       -1    1    3    3    0  502 -0.17738717481E+03 -0.19375542724E+04 -0.53089984949E+03  0.20167888880E+04  0.50400001928E-02 0.  1.
</event>
<event>
 5   0  0.2904500E-09  0.3900349E+04  0.7818609E-02  0.8024957E-01
        4   -1    0    0  501    0  0.00000000000E+00  0.00000000000E+00  0.19274148006E+04  0.19274152190E+04  0.12699999809E+01 0.  1.
       -4   -1    0    0    0  501  0.00000000000E+00  0.00000000000E+00 -0.19732026194E+04  0.19732030281E+04  0.12699999809E+01 0. -1.
    10030    2    1    2    0    0  0.00000000000E+00  0.00000000000E+00 -0.45787818767E+02  0.39006182472E+04  0.39003494953E+04 0.  0.
        3    1    3    3  502    0 -0.33114498108E+03  0.16679049184E+04 -0.97774643956E+03  0.19615177607E+04  0.10100000352E+00 0. -1.
       -3    1    3    3    0  502  0.33114498108E+03 -0.16679049184E+04  0.93195862080E+03  0.19391004864E+04  0.10100000352E+00 0.  1.
</event>
<event>
 5   0  0.2904500E-09  0.3900380E+04  0.7818609E-02  0.8024950E-01
       -1   -1    0    0    0  501  0.00000000000E+00  0.00000000000E+00  0.17267060962E+04  0.17267060962E+04  0.50400001928E-02 0.  1.
        1   -1    0    0  501    0  0.00000000000E+00  0.00000000000E+00 -0.22025984121E+04  0.22025984121E+04  0.50400001928E-02 0. -1.
    10030    2    1    2    0    0  0.00000000000E+00  0.00000000000E+00 -0.47589231588E+03  0.39293045083E+04  0.39003795229E+04 0.  0.
        5    1    3    3  502    0 -0.18357241624E+04 -0.65682494875E+03 -0.19385168893E+03  0.19593118131E+04  0.46999998093E+01 0.  1.
       -5    1    3    3    0  502  0.18357241624E+04  0.65682494875E+03 -0.28204062695E+03  0.19699926952E+04  0.46999998093E+01 0. -1.
</event>
<event>
 5   0  0.6335942E-09  0.3902598E+04  0.7818609E-02  0.8024489E-01
        2   -1    0    0  501    0  0.00000000000E+00  0.00000000000E+00  0.29020248025E+04  0.29020248025E+04  0.25500000920E-02 0. -1.
       -2   -1    0    0    0  501  0.00000000000E+00  0.00000000000E+00 -0.13120380183E+04  0.13120380183E+04  0.25500000920E-02 0.  1.
    10030    2    1    2    0    0  0.00000000000E+00  0.00000000000E+00  0.15899867842E+04  0.42140628208E+04  0.39025975303E+04 0.  0.
        2    1    3    3  502    0 -0.22387943078E+03  0.64292616502E+03 -0.11796390676E+04  0.13619927984E+04  0.25500000920E-02 0.  1.
       -2    1    3    3    0  502  0.22387943078E+03 -0.64292616502E+03  0.27696258518E+04  0.28520700223E+04  0.25500000920E-02 0. -1.
</event>
<event>
 5   0  0.6335942E-09  0.3899958E+04  0.7818609E-02  0.8025038E-01
        2   -1    0    0  501    0  0.00000000000E+00  0.00000000000E+00  0.30152689904E+04  0.30152689904E+04  0.25500000920E-02 0.  1.
       -2   -1    0    0    0  501  0.00000000000E+00  0.00000000000E+00 -0.12610545268E+04  0.12610545268E+04  0.25500000920E-02 0. -1.
    10030    2    1    2    0    0  0.00000000000E+00  0.00000000000E+00  0.17542144636E+04  0.42763235172E+04  0.38999582612E+04 0.  0.
        2    1    3    3  502    0  0.13417340823E+04 -0.10938983199E+04  0.18612500326E+04  0.25418724527E+04  0.25500000920E-02 0.  1.
       -2    1    3    3    0  502 -0.13417340823E+04  0.10938983199E+04 -0.10703556906E+03  0.17344510644E+04  0.25500000920E-02 0. -1.
</event>
<event>
 5   0  0.2904500E-09  0.3899594E+04  0.7818609E-02  0.8025114E-01
        1   -1    0    0  501    0  0.00000000000E+00  0.00000000000E+00  0.22054766963E+04  0.22054766963E+04  0.50400001928E-02 0.  1.
       -1   -1    0    0    0  501  0.00000000000E+00  0.00000000000E+00 -0.17237584893E+04  0.17237584893E+04  0.50400001928E-02 0. -1.
    10030    2    1    2    0    0  0.00000000000E+00  0.00000000000E+00  0.48171820696E+03  0.39292351856E+04  0.38995944293E+04 0.  0.
        3    1    3    3  502    0  0.25591310389E+03 -0.13920303442E+04  0.15921227161E+04  0.21302804391E+04  0.10100000352E+00 0.  1.
       -3    1    3    3    0  502 -0.25591310389E+03  0.13920303442E+04 -0.11104045091E+04  0.17989547465E+04  0.10100000352E+00 0. -1.
</event>
<event>
 5   0  0.6335942E-09  0.3910080E+04  0.7818609E-02  0.8022936E-01
        2   -1    0    0  501    0  0.00000000000E+00  0.00000000000E+00  0.18854858117E+04  0.18854858117E+04  0.25500000920E-02 0. -1.
       -2   -1    0    0    0  501  0.00000000000E+00  0.00000000000E+00 -0.20271598032E+04  0.20271598032E+04  0.25500000920E-02 0.  1.
    10030    2    1    2    0    0  0.00000000000E+00  0.00000000000E+00 -0.14167399145E+03  0.39126456149E+04  0.39100798186E+04 0.  0.
        2    1    3    3  502    0  0.95095193921E+03 -0.15750497997E+03 -0.17728539589E+04  0.20179515775E+04  0.25500000920E-02 0.  1.
       -2    1    3    3    0  502 -0.95095193921E+03  0.15750497997E+03  0.16311799675E+04  0.18946940375E+04  0.25500000920E-02 0. -1.
</event>
<event>
 5   0  0.2904500E-09  0.3896434E+04  0.7818609E-02  0.8025771E-01
        1   -1    0    0  501    0  0.00000000000E+00  0.00000000000E+00  0.15160103908E+04  0.15160103908E+04  0.50400001928E-02 0. -1.
       -1   -1    0    0    0  501  0.00000000000E+00  0.00000000000E+00 -0.25036430848E+04  0.25036430848E+04  0.50400001928E-02 0.  1.
    10030    2    1    2    0    0  0.00000000000E+00  0.00000000000E+00 -0.98763269397E+03  0.40196534756E+04  0.38964337189E+04 0.  0.
        5    1    3    3  502    0  0.13317280092E+04 -0.25621033396E+03 -0.19367565399E+04  0.23643585199E+04  0.46999998093E+01 0.  1.
       -5    1    3    3    0  502 -0.13317280092E+04  0.25621033396E+03  0.94912384593E+03  0.16552949557E+04  0.46999998093E+01 0. -1.
</event>
<event>
 5   0  0.2904500E-09  0.3899231E+04  0.7818609E-02  0.8025189E-01
       -3   -1    0    0    0  501  0.00000000000E+00  0.00000000000E+00  0.20408561751E+04  0.20408561776E+04  0.10100000352E+00 0.  1.
        3   -1    0    0  501    0  0.00000000000E+00  0.00000000000E+00 -0.18624536016E+04  0.18624536044E+04  0.10100000352E+00 0. -1.
    10030    2    1    2    0    0  0.00000000000E+00  0.00000000000E+00  0.17840257343E+03  0.39033097819E+04  0.38992306646E+04 0.  0.
        4    1    3    3  502    0  0.42932224628E+03  0.10912900749E+04 -0.14699153608E+04  0.18803947457E+04  0.12699999809E+01 0. -1.
       -4    1    3    3    0  502 -0.42932224628E+03 -0.10912900749E+04  0.16483179342E+04  0.20229150363E+04  0.12699999809E+01 0.  1.
</event>
<event>
 5   0  0.2904500E-09  0.3899903E+04  0.7818609E-02  0.8025049E-01
        1   -1    0    0  501    0  0.00000000000E+00  0.00000000000E+00  0.16323574642E+04  0.16323574642E+04  0.50400001928E-02 0. -1.
       -1   -1    0    0    0  501  0.00000000000E+00  0.00000000000E+00 -0.23293365833E+04  0.23293365833E+04  0.50400001928E-02 0.  1.
    10030    2    1    2    0    0  0.00000000000E+00  0.00000000000E+00 -0.69697911911E+03  0.39616940475E+04  0.38999025415E+04 0.  0.
        4    1    3    3  502    0  0.14399923624E+04  0.10898548208E+04 -0.10956338144E+04  0.21122917891E+04  0.12699999809E+01 0.  1.
       -4    1    3    3    0  502 -0.14399923624E+04 -0.10898548208E+04  0.39865469533E+03  0.18494022584E+04  0.12699999809E+01 0. -1.
</event>
<event>
 5   0  0.2904500E-09  0.3899941E+04  0.7818609E-02  0.8025042E-01
        1   -1    0    0  501    0  0.00000000000E+00  0.00000000000E+00  0.24708761474E+04  0.24708761474E+04  0.50400001928E-02 0. -1.
       -1   -1    0    0    0  501  0.00000000000E+00  0.00000000000E+00 -0.15388810104E+04  0.15388810104E+04  0.50400001928E-02 0.  1.
    10030    2    1    2    0    0  0.00000000000E+00  0.00000000000E+00  0.93199513705E+03  0.40097571578E+04  0.38999407084E+04 0.  0.
        2    1    3    3  502    0 -0.13367079918E+04  0.14141102125E+04  0.33639887851E+03  0.19747557200E+04  0.25500000920E-02 0. -1.
       -2    1    3    3    0  502  0.13367079918E+04 -0.14141102125E+04  0.59559625854E+03  0.20350014377E+04  0.25500000920E-02 0.  1.
</event>
<event>
 5   0  0.2904500E-09  0.3900412E+04  0.7818609E-02  0.8024944E-01
        1   -1    0    0  501    0  0.00000000000E+00  0.00000000000E+00  0.21666498697E+04  0.21666498697E+04  0.50400001928E-02 0.  1.
       -1   -1    0    0    0  501  0.00000000000E+00  0.00000000000E+00 -0.17553842891E+04  0.17553842891E+04  0.50400001928E-02 0. -1.
    10030    2    1    2    0    0  0.00000000000E+00  0.00000000000E+00  0.41126558060E+03  0.39220341587E+04  0.39004118455E+04 0.  0.
        5    1    3    3  502    0 -0.18914979701E+04 -0.62412295303E+02  0.67900912426E+03  0.20106554519E+04  0.46999998093E+01 0.  1.
       -5    1    3    3    0  502  0.18914979701E+04  0.62412295303E+02 -0.26774354366E+03  0.19113787068E+04  0.46999998093E+01 0. -1.
</event>
<event>
 5   0  0.2929054E-09  0.3898509E+04  0.7818609E-02  0.8025339E-01
        1   -1    0    0  501    0  0.00000000000E+00  0.00000000000E+00  0.30427891981E+04  0.30427891981E+04  0.50400001928E-02 0. -1.
       -1   -1    0    0    0  501  0.00000000000E+00  0.00000000000E+00 -0.12487204473E+04  0.12487204473E+04  0.50400001928E-02 0.  1.
    10030    2    1    2    0    0  0.00000000000E+00  0.00000000000E+00  0.17940687508E+04  0.42915096455E+04  0.38985089912E+04 0.  0.
        1    1    3    3  502    0  0.46583567011E+03  0.61851981727E+03 -0.10721579450E+04  0.13225325308E+04  0.50400001928E-02 0.  1.
       -1    1    3    3    0  502 -0.46583567011E+03 -0.61851981727E+03  0.28662266958E+04  0.29689771147E+04  0.50400001928E-02 0. -1.
</event>
<event>
 5   0  0.9277261E-09  0.3899480E+04  0.7818609E-02  0.8025137E-01
       -2   -1    0    0    0  501  0.00000000000E+00  0.00000000000E+00  0.17821579100E+04  0.17821579100E+04  0.25500000920E-02 0.  1.
        2   -1    0    0  501    0  0.00000000000E+00  0.00000000000E+00 -0.21330805029E+04  0.21330805029E+04  0.25500000920E-02 0. -1.
    10030    2    1    2    0    0  0.00000000000E+00  0.00000000000E+00 -0.35092259293E+03  0.39152384129E+04  0.38994801145E+04 0.  0.
        1    1    3    3  502    0 -0.42297291185E+03 -0.13436725315E+04 -0.15289163101E+04  0.20789293012E+04  0.50400001928E-02 0. -1.
       -1    1    3    3    0  502  0.42297291185E+03  0.13436725315E+04  0.11779937171E+04  0.18363091117E+04  0.50400001928E-02 0.  1.
</event>
<event>
 5   0  0.9078515E-09  0.3899995E+04  0.7818609E-02  0.8025030E-01
        2   -1    0    0  501    0  0.00000000000E+00  0.00000000000E+00  0.21967182450E+04  0.21967182450E+04  0.25500000920E-02 0. -1.
       -2   -1    0    0    0  501  0.00000000000E+00  0.00000000000E+00 -0.17309866577E+04  0.17309866577E+04  0.25500000920E-02 0.  1.
    10030    2    1    2    0    0  0.00000000000E+00  0.00000000000E+00  0.46573158738E+03  0.39277049027E+04  0.38999948578E+04 0.  0.
        3    1    3    3  502    0 -0.15786667039E+04  0.13320540294E+03 -0.91211918618E+03  0.18280846976E+04  0.10100000352E+00 0.  1.
       -3    1    3    3    0  502  0.15786667039E+04 -0.13320540294E+03  0.13778507736E+04  0.20996202051E+04  0.10100000352E+00 0. -1.
</event>
<event>
 5   0  0.2904500E-09  0.3893035E+04  0.7818609E-02  0.8026479E-01
        1   -1    0    0  501    0  0.00000000000E+00  0.00000000000E+00  0.15440555141E+04  0.15440555141E+04  0.50400001928E-02 0.  1.
       -1   -1    0    0    0  501  0.00000000000E+00  0.00000000000E+00 -0.24538826599E+04  0.24538826599E+04  0.50400001928E-02 0. -1.
    10030    2    1    2    0    0  0.00000000000E+00  0.00000000000E+00 -0.90982714582E+03  0.39979381739E+04  0.38930353463E+04 0.  0.
        5    1    3    3  502    0 -0.41561662033E+03  0.72368169584E+03  0.13510106898E+04  0.15879875145E+04  0.46999998093E+01 0.  1.
       -5    1    3    3    0  502  0.41561662033E+03 -0.72368169584E+03 -0.22608378357E+04  0.24099506595E+04  0.46999998093E+01 0. -1.
</event>
<event>
 5   0  0.2929054E-09  0.3899578E+04  0.7818609E-02  0.8025117E-01
        1   -1    0    0  501    0  0.00000000000E+00  0.00000000000E+00  0.19966566713E+04  0.19966566713E+04  0.50400001928E-02 0. -1.
       -1   -1    0    0    0  501  0.00000000000E+00  0.00000000000E+00 -0.19040216969E+04  0.19040216969E+04  0.50400001928E-02 0.  1.
    10030    2    1    2    0    0  0.00000000000E+00  0.00000000000E+00  0.92634974395E+02  0.39006783682E+04  0.38995782456E+04 0.  0.
        1    1    3    3  502    0  0.12378083903E+04  0.13831427397E+04  0.64349862070E+03  0.19645212965E+04  0.50400001928E-02 0.  1.
       -1    1    3    3    0  502 -0.12378083903E+04 -0.13831427397E+04 -0.55086364631E+03  0.19361570717E+04  0.50400001928E-02 0. -1.
</event>
<event>
 5   0  0.2904500E-09  0.3900274E+04  0.7818609E-02  0.8024972E-01
       -1   -1    0    0    0  501  0.00000000000E+00  0.00000000000E+00  0.21276116122E+04  0.21276116122E+04  0.50400001928E-02 0. -1.
        1   -1    0    0  501    0  0.00000000000E+00  0.00000000000E+00 -0.17874660024E+04  0.17874660024E+04  0.50400001928E-02 0.  1.
    10030    2    1    2    0    0  0.00000000000E+00  0.00000000000E+00  0.34014560977E+03  0.39150776147E+04  0.39002735408E+04 0.  0.
        3    1    3    3  502    0 -0.34144324377E+03 -0.66192693272E+03  0.19792185423E+04  0.21147190833E+04  0.10100000352E+00 0. -1.
       -3    1    3    3    0  502  0.34144324377E+03  0.66192693272E+03 -0.16390729325E+04  0.18003585313E+04  0.10100000352E+00 0.  1.
</event>
<event>
 5   0  0.6335942E-09  0.3900815E+04  0.7818609E-02  0.8024860E-01
       -2   -1    0    0    0  501  0.00000000000E+00  0.00000000000E+00  0.18177345448E+04  0.18177345448E+04  0.25500000920E-02 0.  1.
        2   -1    0    0  501    0  0.00000000000E+00  0.00000000000E+00 -0.20927643942E+04  0.20927643942E+04  0.25500000920E-02 0. -1.
    10030    2    1    2    0    0  0.00000000000E+00  0.00000000000E+00 -0.27502984935E+03  0.39104989390E+04  0.39008153678E+04 0.  0.
        2    1    3    3  502    0  0.11258558372E+04  0.10630814574E+04  0.10513449754E+04  0.18716355971E+04  0.25500000920E-02 0.  1.
       -2    1    3    3    0  502 -0.11258558372E+04 -0.10630814574E+04 -0.13263748247E+04  0.20388633419E+04  0.25500000920E-02 0. -1.
</event>
<event>
 5   0  0.6335942E-09  0.3903979E+04  0.7818609E-02  0.8024202E-01
        2   -1    0    0  501    0  0.00000000000E+00  0.00000000000E+00  0.15880983964E+04  0.15880983964E+04  0.25500000920E-02 0.  1.
       -2   -1    0    0    0  501  0.00000000000E+00  0.00000000000E+00 -0.23992614795E+04  0.23992614795E+04  0.25500000920E-02 0. -1.
    10030    2    1    2    0    0  0.00000000000E+00  0.00000000000E+00 -0.81116308309E+03  0.39873598760E+04  0.39039791538E+04 0.  0.
        2    1    3    3  502    0  0.54017765503E+03 -0.15680337564E+04 -0.14570056361E+04  0.22075749554E+04  0.25500000920E-02 0. -1.
       -2    1    3    3    0  502 -0.54017765503E+03  0.15680337564E+04  0.64584255302E+03  0.17797849205E+04  0.25500000920E-02 0.  1.
</event>
<event>
 5   0  0.2904500E-09  0.3901284E+04  0.7818609E-02  0.8024762E-01
       -1   -1    0    0    0  501  0.00000000000E+00  0.00000000000E+00  0.15209605792E+04  0.15209605792E+04  0.50400001928E-02 0.  1.
        1   -1    0    0  501    0  0.00000000000E+00  0.00000000000E+00 -0.25017118527E+04  0.25017118527E+04  0.50400001928E-02 0. -1.
    10030    2    1    2    0    0  0.00000000000E+00  0.00000000000E+00 -0.98075127352E+03  0.40226724319E+04  0.39012844595E+04 0.  0.
        4    1    3    3  502    0 -0.18521176685E+04 -0.56430546706E+03 -0.73486725330E+03  0.20709447146E+04  0.12699999809E+01 0.  1.
       -4    1    3    3    0  502  0.18521176685E+04  0.56430546706E+03 -0.24588402021E+03  0.19517277173E+04  0.12699999809E+01 0. -1.
</event>
<event>
 5   0  0.9277261E-09  0.3896295E+04  0.7818609E-02  0.8025800E-01
        2   -1    0    0  501    0  0.00000000000E+00  0.00000000000E+00  0.21799498689E+04  0.21799498689E+04  0.25500000920E-02 0.  1.
       -2   -1    0    0    0  501  0.00000000000E+00  0.00000000000E+00 -0.17409933592E+04  0.17409933592E+04  0.25500000920E-02 0. -1.
    10030    2    1    2    0    0  0.00000000000E+00  0.00000000000E+00  0.43895650964E+03  0.39209432281E+04  0.38962947759E+04 0.  0.
        1    1    3    3  502    0  0.30565216364E+03 -0.10275096654E+04 -0.14174895643E+04  0.17772101796E+04  0.50400001928E-02 0. -1.
       -1    1    3    3    0  502 -0.30565216364E+03  0.10275096654E+04  0.18564460739E+04  0.21437330485E+04  0.50400001928E-02 0.  1.
</event>
<event>
 5   0  0.2904500E-09  0.3894455E+04  0.7818609E-02  0.8026183E-01
       -3   -1    0    0    0  501  0.00000000000E+00  0.00000000000E+00  0.17330337181E+04  0.17330337210E+04  0.10100000352E+00 0. -1.
        3   -1    0    0  501    0  0.00000000000E+00  0.00000000000E+00 -0.21878946349E+04  0.21878946373E+04  0.10100000352E+00 0.  1.
    10030    2    1    2    0    0  0.00000000000E+00  0.00000000000E+00 -0.45486091684E+03  0.39209283583E+04  0.38944551271E+04 0.  0.
        2    1    3    3  502    0  0.21075175398E+03  0.15709864122E+04  0.91131093005E+03  0.18283605280E+04  0.25500000920E-02 0. -1.
       -2    1    3    3    0  502 -0.21075175398E+03 -0.15709864122E+04 -0.13661718469E+04  0.20925678303E+04  0.25500000920E-02 0.  1.
</event>
<event>
 5   0  0.9368546E-09  0.3905508E+04  0.7818609E-02  0.8023885E-01
        2   -1    0    0  501    0  0.00000000000E+00  0.00000000000E+00  0.31048576159E+04  0.31048576159E+04  0.25500000920E-02 0.  1.
       -2   -1    0    0    0  501  0.00000000000E+00  0.00000000000E+00 -0.12281556654E+04  0.12281556654E+04  0.25500000920E-02 0. -1.
    10030    2    1    2    0    0  0.00000000000E+00  0.00000000000E+00  0.18767019504E+04  0.43330132813E+04  0.39055081468E+04 0.  0.
        5    1    3    3  502    0 -0.15426257569E+04  0.58676193722E+03  0.20962609045E+04  0.26680171789E+04  0.46999998093E+01 0.  1.
       -5    1    3    3    0  502  0.15426257569E+04 -0.58676193722E+03 -0.21955895407E+03  0.16649961024E+04  0.46999998093E+01 0. -1.
</event>
<event>
 5   0  0.9368546E-09  0.3902649E+04  0.7818609E-02  0.8024478E-01
        2   -1    0    0  501    0  0.00000000000E+00  0.00000000000E+00  0.29950513166E+04  0.29950513166E+04  0.25500000920E-02 0.  1.
       -2   -1    0    0    0  501  0.00000000000E+00  0.00000000000E+00 -0.12713197525E+04  0.12713197525E+04  0.25500000920E-02 0. -1.
    10030    2    1    2    0    0  0.00000000000E+00  0.00000000000E+00  0.17237315641E+04  0.42663710692E+04  0.39026493046E+04 0.  0.
        5    1    3    3  502    0  0.17820156455E+04 -0.55007253676E+03  0.23435997699E+03  0.18796558848E+04  0.46999998093E+01 0. -1.
       -5    1    3    3    0  502 -0.17820156455E+04  0.55007253676E+03  0.14893715871E+04  0.23867151843E+04  0.46999998093E+01 0.  1.
</event>
<event>
 5   0  0.6335942E-09  0.3899721E+04  0.7818609E-02  0.8025087E-01
       -2   -1    0    0    0  501  0.00000000000E+00  0.00000000000E+00  0.19021736746E+04  0.19021736746E+04  0.25500000920E-02 0. -1.
        2   -1    0    0  501    0  0.00000000000E+00  0.00000000000E+00 -0.19987425806E+04  0.19987425806E+04  0.25500000920E-02 0.  1.
    10030    2    1    2    0    0  0.00000000000E+00  0.00000000000E+00 -0.96568906055E+02  0.39009162552E+04  0.38997207690E+04 0.  0.
        2    1    3    3  502    0  0.11703300315E+04 -0.46809065851E+03  0.14398457185E+04  0.19136188075E+04  0.25500000920E-02 0. -1.
       -2    1    3    3    0  502 -0.11703300315E+04  0.46809065851E+03 -0.15364146245E+04  0.19872974477E+04  0.25500000920E-02 0.  1.
</event>
<event>
 5   0  0.2904500E-09  0.3899830E+04  0.7818609E-02  0.8025065E-01
       -1   -1    0    0    0  501  0.00000000000E+00  0.00000000000E+00  0.18100662700E+04  0.18100662700E+04  0.50400001928E-02 0. -1.
        1   -1    0    0  501    0  0.00000000000E+00  0.00000000000E+00 -0.21005683865E+04  0.21005683865E+04  0.50400001928E-02 0.  1.
    10030    2    1    2    0    0  0.00000000000E+00  0.00000000000E+00 -0.29050211644E+03  0.39106346565E+04  0.38998297318E+04 0.  0.
        5    1    3    3  502    0 -0.47671296324E+03  0.13643916123E+03 -0.20362847526E+04  0.20957930665E+04  0.46999998093E+01 0.  1.
       -5    1    3    3    0  502  0.47671296324E+03 -0.13643916123E+03  0.17457826362E+04  0.18148415900E+04  0.46999998093E+01 0. -1.
</event>
<event>
 5   0  0.9078515E-09  0.3900253E+04  0.7818609E-02  0.8024977E-01
       -2   -1    0    0    0  501  0.00000000000E+00  0.00000000000E+00  0.20858721355E+04  0.20858721355E+04  0.25500000920E-02 0.  1.
        2   -1    0    0  501    0  0.00000000000E+00  0.00000000000E+00 -0.18232146175E+04  0.18232146175E+04  0.25500000920E-02 0. -1.
    10030    2    1    2    0    0  0.00000000000E+00  0.00000000000E+00  0.26265751792E+03  0.39090867530E+04  0.39002525906E+04 0.  0.
        3    1    3    3  502    0  0.84565712260E+03 -0.97792766479E+03  0.15946061980E+04  0.20528632257E+04  0.10100000352E+00 0.  1.
       -3    1    3    3    0  502 -0.84565712260E+03  0.97792766479E+03 -0.13319486801E+04  0.18562235273E+04  0.10100000352E+00 0. -1.
</event>
<event>
 5   0  0.2904500E-09  0.3900497E+04  0.7818609E-02  0.8024926E-01
       -1   -1    0    0    0  501  0.00000000000E+00  0.00000000000E+00  0.18983181533E+04  0.18983181533E+04  0.50400001928E-02 0.  1.
        1   -1    0    0  501    0  0.00000000000E+00  0.00000000000E+00 -0.20035995990E+04  0.20035995990E+04  0.50400001928E-02 0. -1.
    10030    2    1    2    0    0  0.00000000000E+00  0.00000000000E+00 -0.10528144571E+03  0.39019177524E+04  0.39004971431E+04 0.  0.
        3    1    3    3  502    0  0.39532210516E+03 -0.11270819498E+04  0.14896328854E+04  0.19093452889E+04  0.10100000352E+00 0.  1.
       -3    1    3    3    0  502 -0.39532210516E+03  0.11270819498E+04 -0.15949143311E+04  0.19925724635E+04  0.10100000352E+00 0. -1.
</event>
<event>
 5   0  0.9434114E-09  0.3899681E+04  0.7818609E-02  0.8025096E-01
       -2   -1    0    0    0  501  0.00000000000E+00  0.00000000000E+00  0.15781071113E+04  0.15781071113E+04  0.25500000920E-02 0.  1.
        2   -1    0    0  501    0  0.00000000000E+00  0.00000000000E+00 -0.24091380209E+04  0.24091380209E+04  0.25500000920E-02 0. -1.
    10030    2    1    2    0    0  0.00000000000E+00  0.00000000000E+00 -0.83103090968E+03  0.39872451322E+04  0.38996809320E+04 0.  0.
        4    1    3    3  502    0  0.13273344059E+04  0.89462268430E+03 -0.15539390510E+04  0.22308954614E+04  0.12699999809E+01 0. -1.
       -4    1    3    3    0  502 -0.13273344059E+04 -0.89462268430E+03  0.72290814132E+03  0.17563496708E+04  0.12699999809E+01 0.  1.
</event>
<event>
 5   0  0.2904500E-09  0.3900855E+04  0.7818609E-02  0.8024851E-01
       -1   -1    0    0    0  501  0.00000000000E+00  0.00000000000E+00  0.15352137506E+04  0.15352137506E+04  0.50400001928E-02 0. -1.
        1   -1    0    0  501    0  0.00000000000E+00  0.00000000000E+00 -0.24779397735E+04  0.24779397735E+04  0.50400001928E-02 0.  1.
    10030    2    1    2    0    0  0.00000000000E+00  0.00000000000E+00 -0.94272602287E+03  0.40131535240E+04  0.39008548875E+04 0.  0.
        2    1    3    3  502    0  0.13374943601E+04  0.57423918251E+03 -0.18070159731E+04  0.23203337108E+04  0.25500000920E-02 0.  1.
       -2    1    3    3    0  502 -0.13374943601E+04 -0.57423918251E+03  0.86428995026E+03  0.16928198133E+04  0.25500000920E-02 0. -1.
</event>
<event>
 5   0  0.2929054E-09  0.3898468E+04  0.7818609E-02  0.8025348E-01
       -1   -1    0    0    0  501  0.00000000000E+00  0.00000000000E+00  0.19654569701E+04  0.19654569701E+04  0.50400001928E-02 0.  1.
        1   -1    0    0  501    0  0.00000000000E+00  0.00000000000E+00 -0.19331448390E+04  0.19331448390E+04  0.50400001928E-02 0. -1.
    10030    2    1    2    0    0  0.00000000000E+00  0.00000000000E+00  0.32312131042E+02  0.38986018091E+04  0.38984679032E+04 0.  0.
        1    1    3    3  502    0  0.64757382993E+03  0.13968022021E+04 -0.11793366854E+04  0.19393925014E+04  0.50400001928E-02 0. -1.
       -1    1    3    3    0  502 -0.64757382993E+03 -0.13968022021E+04  0.12116488164E+04  0.19592093077E+04  0.50400001928E-02 0.  1.
</event>
<event>
 5   0  0.9078515E-09  0.3895007E+04  0.7818609E-02  0.8026069E-01
        2   -1    0    0  501    0  0.00000000000E+00  0.00000000000E+00  0.16198912986E+04  0.16198912986E+04  0.25500000920E-02 0. -1.
       -2   -1    0    0    0  501  0.00000000000E+00  0.00000000000E+00 -0.23413726578E+04  0.23413726578E+04  0.25500000920E-02 0.  1.
    10030    2    1    2    0    0  0.00000000000E+00  0.00000000000E+00 -0.72148135927E+03  0.39612639564E+04  0.38950066470E+04 0.  0.
        3    1    3    3  502    0 -0.92042091736E+03 -0.11334453519E+03 -0.21023988380E+04  0.22978473694E+04  0.10100000352E+00 0.  1.
       -3    1    3    3    0  502  0.92042091736E+03  0.11334453519E+03  0.13809174787E+04  0.16634165870E+04  0.10100000352E+00 0. -1.
</event>
<event>
 5   0  0.2904500E-09  0.3899985E+04  0.7818609E-02  0.8025032E-01
        1   -1    0    0  501    0  0.00000000000E+00  0.00000000000E+00  0.14289145882E+04  0.14289145882E+04  0.50400001928E-02 0.  1.
       -1   -1    0    0    0  501  0.00000000000E+00  0.00000000000E+00 -0.26610903302E+04  0.26610903302E+04  0.50400001928E-02 0. -1.
    10030    2    1    2    0    0  0.00000000000E+00  0.00000000000E+00 -0.12321757420E+04  0.40900049184E+04  0.38999850222E+04 0.  0.
        5    1    3    3  502    0 -0.57696279310E+03  0.66994827634E+03 -0.24387953911E+04  0.25941206231E+04  0.46999998093E+01 0. -1.
       -5    1    3    3    0  502  0.57696279310E+03 -0.66994827634E+03  0.12066196491E+04  0.14958842954E+04  0.46999998093E+01 0.  1.
</event>
<event>
 5   0  0.9078515E-09  0.3899791E+04  0.7818609E-02  0.8025073E-01
        2   -1    0    0  501    0  0.00000000000E+00  0.00000000000E+00  0.22467243444E+04  0.22467243444E+04  0.25500000920E-02 0. -1.
       -2   -1    0    0    0  501  0.00000000000E+00  0.00000000000E+00 -0.16922821805E+04  0.16922821805E+04  0.25500000920E-02 0.  1.
    10030    2    1    2    0    0  0.00000000000E+00  0.00000000000E+00  0.55444216399E+03  0.39390065249E+04  0.38997905444E+04 0.  0.
        3    1    3    3  502    0  0.53779881977E+02 -0.33752210397E+03 -0.16617911661E+04  0.16965739997E+04  0.10100000352E+00 0.  1.
       -3    1    3    3    0  502 -0.53779881977E+02  0.33752210397E+03  0.22162333301E+04  0.22424325252E+04  0.10100000352E+00 0. -1.
</event>
<event>
 5   0  0.9277261E-09  0.3900084E+04  0.7818609E-02  0.8025012E-01
       -2   -1    0    0    0  501  0.00000000000E+00  0.00000000000E+00  0.19574727524E+04  0.19574727524E+04  0.25500000920E-02 0. -1.
        2   -1    0    0  501    0  0.00000000000E+00  0.00000000000E+00 -0.19426390934E+04  0.19426390934E+04  0.25500000920E-02 0.  1.
    10030    2    1    2    0    0  0.00000000000E+00  0.00000000000E+00  0.14833658968E+02  0.39001118458E+04  0.39000836366E+04 0.  0.
        1    1    3    3  502    0  0.30808629183E+03  0.14748900619E+04 -0.12305118452E+04  0.19453475934E+04  0.50400001928E-02 0.  1.
       -1    1    3    3    0  502 -0.30808629183E+03 -0.14748900619E+04  0.12453455042E+04  0.19547642524E+04  0.50400001928E-02 0. -1.
</event>
<event>
 5   0  0.9368546E-09  0.3900855E+04  0.7818609E-02  0.8024851E-01
       -2   -1    0    0    0  501  0.00000000000E+00  0.00000000000E+00  0.23627186939E+04  0.23627186939E+04  0.25500000920E-02 0. -1.
        2   -1    0    0  501    0  0.00000000000E+00  0.00000000000E+00 -0.16100806836E+04  0.16100806836E+04  0.25500000920E-02 0.  1.
    10030    2    1    2    0    0  0.00000000000E+00  0.00000000000E+00  0.75263801031E+03  0.39727993775E+04  0.39008551523E+04 0.  0.
        5    1    3    3  502    0  0.19475222176E+04  0.52006407026E+02  0.28188243321E+03  0.19685088901E+04  0.46999998093E+01 0.  1.
       -5    1    3    3    0  502 -0.19475222176E+04 -0.52006407026E+02  0.47075557709E+03  0.20042904874E+04  0.46999998093E+01 0. -1.
</event>
<event>
 5   0  0.9368546E-09  0.3927312E+04  0.7818609E-02  0.8019373E-01
        2   -1    0    0  501    0  0.00000000000E+00  0.00000000000E+00  0.12494466386E+04  0.12494466386E+04  0.25500000920E-02 0. -1.
       -2   -1    0    0    0  501  0.00000000000E+00  0.00000000000E+00 -0.30861220080E+04  0.30861220080E+04  0.25500000920E-02 0.  1.
    10030    2    1    2    0    0  0.00000000000E+00  0.00000000000E+00 -0.18366753693E+04  0.43355686466E+04  0.39273119403E+04 0.  0.
        5    1    3    3  502    0  0.13823721220E+04  0.62671781149E+03 -0.22937210844E+04  0.27504374928E+04  0.46999998093E+01 0.  1.
       -5    1    3    3    0  502 -0.13823721220E+04 -0.62671781149E+03  0.45704571505E+03  0.15851311537E+04  0.46999998093E+01 0. -1.
</event>
<event>
 5   0  0.9277261E-09  0.3899240E+04  0.7818609E-02  0.8025187E-01
        2   -1    0    0  501    0  0.00000000000E+00  0.00000000000E+00  0.21577737921E+04  0.21577737921E+04  0.25500000920E-02 0. -1.
       -2   -1    0    0    0  501  0.00000000000E+00  0.00000000000E+00 -0.17615463942E+04  0.17615463942E+04  0.25500000920E-02 0.  1.
    10030    2    1    2    0    0  0.00000000000E+00  0.00000000000E+00  0.39622739791E+03  0.39193201862E+04  0.38992402557E+04 0.  0.
        1    1    3    3  502    0 -0.46597498322E+03  0.74705448347E+03  0.19465529166E+04  0.21364202170E+04  0.50400001928E-02 0. -1.
       -1    1    3    3    0  502  0.46597498322E+03 -0.74705448347E+03 -0.15503255187E+04  0.17828999692E+04  0.50400001928E-02 0.  1.
</event>
<event>
 5   0  0.9078515E-09  0.3901100E+04  0.7818609E-02  0.8024800E-01
       -2   -1    0    0    0  501  0.00000000000E+00  0.00000000000E+00  0.14203507291E+04  0.14203507291E+04  0.25500000920E-02 0.  1.
        2   -1    0    0  501    0  0.00000000000E+00  0.00000000000E+00 -0.26786665491E+04  0.26786665491E+04  0.25500000920E-02 0. -1.
    10030    2    1    2    0    0  0.00000000000E+00  0.00000000000E+00 -0.12583158200E+04  0.40990172782E+04  0.39011003505E+04 0.  0.
        3    1    3    3  502    0 -0.21605619335E+03 -0.86155358390E+03 -0.24538351520E+04  0.26096478345E+04  0.10100000352E+00 0. -1.
       -3    1    3    3    0  502  0.21605619335E+03  0.86155358390E+03  0.11955193320E+04  0.14893694437E+04  0.10100000352E+00 0.  1.
</event>
<event>
 5   0  0.2904500E-09  0.3899080E+04  0.7818609E-02  0.8025221E-01
       -1   -1    0    0    0  501  0.00000000000E+00  0.00000000000E+00  0.12606488844E+04  0.12606488844E+04  0.50400001928E-02 0.  1.
        1   -1    0    0  501    0  0.00000000000E+00  0.00000000000E+00 -0.30148813298E+04  0.30148813298E+04  0.50400001928E-02 0. -1.
    10030    2    1    2    0    0  0.00000000000E+00  0.00000000000E+00 -0.17542324455E+04  0.42755302142E+04  0.38990802941E+04 0.  0.
        2    1    3    3  502    0 -0.64195195637E+03  0.16143602821E+04  0.92845973367E+02  0.17397936112E+04  0.25500000920E-02 0. -1.
       -2    1    3    3    0  502  0.64195195637E+03 -0.16143602821E+04 -0.18470784188E+04  0.25357366030E+04  0.25500000920E-02 0.  1.
</event>
<event>
 5   0  0.2904500E-09  0.3907106E+04  0.7818609E-02  0.8023553E-01
        1   -1    0    0  501    0  0.00000000000E+00  0.00000000000E+00  0.28123137657E+04  0.28123137657E+04  0.50400001928E-02 0. -1.
       -1   -1    0    0    0  501  0.00000000000E+00  0.00000000000E+00 -0.13570209106E+04  0.13570209106E+04  0.50400001928E-02 0.  1.
    10030    2    1    2    0    0  0.00000000000E+00  0.00000000000E+00  0.14552928551E+04  0.41693346762E+04  0.39071056229E+04 0.  0.
        4    1    3    3  502    0  0.45649886077E+03 -0.71664827612E+03  0.26047973940E+04  0.27398808438E+04  0.12699999809E+01 0. -1.
       -4    1    3    3    0  502 -0.45649886077E+03  0.71664827612E+03 -0.11495045388E+04  0.14294538325E+04  0.12699999809E+01 0.  1.
</event>
<event>
 5   0  0.2929054E-09  0.3899776E+04  0.7818609E-02  0.8025076E-01
       -1   -1    0    0    0  501  0.00000000000E+00  0.00000000000E+00  0.19980580938E+04  0.19980580938E+04  0.50400001928E-02 0.  1.
        1   -1    0    0  501    0  0.00000000000E+00  0.00000000000E+00 -0.19028793177E+04  0.19028793177E+04  0.50400001928E-02 0. -1.
    10030    2    1    2    0    0  0.00000000000E+00  0.00000000000E+00  0.95178776054E+02  0.39009374115E+04  0.38997761075E+04 0.  0.
        1    1    3    3  502    0 -0.11690004788E+04 -0.14533573493E+04 -0.52113397918E+03  0.19365924529E+04  0.50400001928E-02 0.  1.
       -1    1    3    3    0  502  0.11690004788E+04  0.14533573493E+04  0.61631275523E+03  0.19643449586E+04  0.50400001928E-02 0. -1.
</event>
<event>
 5   0  0.2929054E-09  0.3902439E+04  0.7818609E-02  0.8024522E-01
       -1   -1    0    0    0  501  0.00000000000E+00  0.00000000000E+00  0.13549811474E+04  0.13549811474E+04  0.50400001928E-02 0. -1.
        1   -1    0    0  501    0  0.00000000000E+00  0.00000000000E+00 -0.28098232562E+04  0.28098232562E+04  0.50400001928E-02 0.  1.
    10030    2    1    2    0    0  0.00000000000E+00  0.00000000000E+00 -0.14548421088E+04  0.41648044036E+04  0.39024390013E+04 0.  0.
        1    1    3    3  502    0  0.71835342592E+03 -0.96105399135E+03 -0.23695707912E+04  0.26560350437E+04  0.50400001928E-02 0.  1.
       -1    1    3    3    0  502 -0.71835342592E+03  0.96105399135E+03  0.91472868246E+03  0.15087693599E+04  0.50400001928E-02 0. -1.
</event>
<event>
 5   0  0.2904500E-09  0.3902035E+04  0.7818609E-02  0.8024606E-01
       -1   -1    0    0    0  501  0.00000000000E+00  0.00000000000E+00  0.22370937266E+04  0.22370937266E+04  0.50400001928E-02 0.  1.
        1   -1    0    0  501    0  0.00000000000E+00  0.00000000000E+00 -0.17015238469E+04  0.17015238469E+04  0.50400001928E-02 0. -1.
    10030    2    1    2    0    0  0.00000000000E+00  0.00000000000E+00  0.53556987975E+03  0.39386175735E+04  0.39020345071E+04 0.  0.
        2    1    3    3  502    0 -0.17909264690E+04  0.53291374633E+03 -0.29877382560E+03  0.18922686060E+04  0.25500000920E-02 0. -1.
       -2    1    3    3    0  502  0.17909264690E+04 -0.53291374633E+03  0.83434370535E+03  0.20463489675E+04  0.25500000920E-02 0.  1.
</event>
<event>
 5   0  0.2904500E-09  0.3899242E+04  0.7818609E-02  0.8025187E-01
       -1   -1    0    0    0  501  0.00000000000E+00  0.00000000000E+00  0.15640732570E+04  0.15640732570E+04  0.50400001928E-02 0.  1.
        1   -1    0    0  501    0  0.00000000000E+00  0.00000000000E+00 -0.24302074822E+04  0.24302074822E+04  0.50400001928E-02 0. -1.
    10030    2    1    2    0    0  0.00000000000E+00  0.00000000000E+00 -0.86613422521E+03  0.39942807392E+04  0.38992422504E+04 0.  0.
        5    1    3    3  502    0  0.11683471543E+04  0.13485500016E+04 -0.12379524860E+04  0.21716746136E+04  0.46999998093E+01 0.  1.
       -5    1    3    3    0  502 -0.11683471543E+04 -0.13485500016E+04  0.37181826077E+03  0.18226061255E+04  0.46999998093E+01 0. -1.
</event>
<event>
 5   0  0.2904500E-09  0.3899899E+04  0.7818609E-02  0.8025050E-01
        4   -1    0    0  501    0  0.00000000000E+00  0.00000000000E+00  0.24500487979E+04  0.24500491270E+04  0.12699999809E+01 0. -1.
       -4   -1    0    0    0  501  0.00000000000E+00  0.00000000000E+00 -0.15519288246E+04  0.15519293443E+04  0.12699999809E+01 0.  1.
    10030    2    1    2    0    0  0.00000000000E+00  0.00000000000E+00  0.89811997320E+03  0.40019784713E+04  0.38998989985E+04 0.  0.
        1    1    3    3  502    0  0.52438635662E+03  0.64520514730E+03 -0.13609194867E+04  0.15947954673E+04  0.50400001928E-02 0.  1.
       -1    1    3    3    0  502 -0.52438635662E+03 -0.64520514730E+03  0.22590394599E+04  0.24071830040E+04  0.50400001928E-02 0. -1.
</event>
<event>
 5   0  0.9434114E-09  0.3900782E+04  0.7818609E-02  0.8024867E-01
        2   -1    0    0  501    0  0.00000000000E+00  0.00000000000E+00  0.22958957989E+04  0.22958957989E+04  0.25500000920E-02 0. -1.
       -2   -1    0    0    0  501  0.00000000000E+00  0.00000000000E+00 -0.16568805135E+04  0.16568805135E+04  0.25500000920E-02 0.  1.
    10030    2    1    2    0    0  0.00000000000E+00  0.00000000000E+00  0.63901528537E+03  0.39527763123E+04  0.39007819781E+04 0.  0.
        4    1    3    3  502    0  0.14940554387E+04 -0.23482131172E+03  0.15674589498E+04  0.21781349533E+04  0.12699999809E+01 0.  1.
       -4    1    3    3    0  502 -0.14940554387E+04  0.23482131172E+03 -0.92844366442E+03  0.17746413591E+04  0.12699999809E+01 0. -1.
</event>
<event>
 5   0  0.9277261E-09  0.3900139E+04  0.7818609E-02  0.8025000E-01
       -2   -1    0    0    0  501  0.00000000000E+00  0.00000000000E+00  0.26509278504E+04  0.26509278504E+04  0.25500000920E-02 0.  1.
        2   -1    0    0  501    0  0.00000000000E+00  0.00000000000E+00 -0.14345053340E+04  0.14345053341E+04  0.25500000920E-02 0. -1.
    10030    2    1    2    0    0  0.00000000000E+00  0.00000000000E+00  0.12164225163E+04  0.40854331844E+04  0.39001385317E+04 0.  0.
        1    1    3    3  502    0  0.62309686933E+03 -0.17154520714E+04  0.13276793841E+04  0.22569355474E+04  0.50400001928E-02 0.  1.
       -1    1    3    3    0  502 -0.62309686933E+03  0.17154520714E+04 -0.11125686781E+03  0.18284976370E+04  0.50400001928E-02 0. -1.
</event>
<event>
 5   0  0.6335942E-09  0.3901142E+04  0.7818609E-02  0.8024792E-01
        2   -1    0    0  501    0  0.00000000000E+00  0.00000000000E+00  0.26438181790E+04  0.26438181790E+04  0.25500000920E-02 0.  1.
       -2   -1    0    0    0  501  0.00000000000E+00  0.00000000000E+00 -0.14391032183E+04  0.14391032183E+04  0.25500000920E-02 0. -1.
    10030    2    1    2    0    0  0.00000000000E+00  0.00000000000E+00  0.12047149608E+04  0.40829213973E+04  0.39011420123E+04 0.  0.
        2    1    3    3  502    0  0.18907934106E+03  0.16883078780E+04  0.16054494845E+04  0.23374350334E+04  0.25500000920E-02 0.  1.
       -2    1    3    3    0  502 -0.18907934106E+03 -0.16883078780E+04 -0.40073452373E+03  0.17454863639E+04  0.25500000920E-02 0. -1.
</event>
<event>
 5   0  0.2904500E-09  0.3900653E+04  0.7818609E-02  0.8024893E-01
        1   -1    0    0  501    0  0.00000000000E+00  0.00000000000E+00  0.21601609222E+04  0.21601609222E+04  0.50400001928E-02 0.  1.
       -1   -1    0    0    0  501  0.00000000000E+00  0.00000000000E+00 -0.17608749149E+04  0.17608749149E+04  0.50400001928E-02 0. -1.
    10030    2    1    2    0    0  0.00000000000E+00  0.00000000000E+00  0.39928600728E+03  0.39210358371E+04  0.39006528582E+04 0.  0.
        2    1    3    3  502    0  0.80396995794E+03 -0.14518041861E+04 -0.83024481534E+03  0.18556426222E+04  0.25500000920E-02 0. -1.
       -2    1    3    3    0  502 -0.80396995794E+03  0.14518041861E+04  0.12295308226E+04  0.20653932148E+04  0.25500000920E-02 0.  1.
</event>
<event>
 5   0  0.2904500E-09  0.3899377E+04  0.7818609E-02  0.8025159E-01
        1   -1    0    0  501    0  0.00000000000E+00  0.00000000000E+00  0.12071222375E+04  0.12071222375E+04  0.50400001928E-02 0. -1.
       -1   -1    0    0    0  501  0.00000000000E+00  0.00000000000E+00 -0.31490473253E+04  0.31490473253E+04  0.50400001928E-02 0.  1.
    10030    2    1    2    0    0  0.00000000000E+00  0.00000000000E+00 -0.19419250878E+04  0.43561695628E+04  0.38993769006E+04 0.  0.
        2    1    3    3  502    0  0.15434665948E+04  0.96864423325E+03 -0.19639804567E+03  0.18327937615E+04  0.25500000920E-02 0.  1.
       -2    1    3    3    0  502 -0.15434665948E+04 -0.96864423325E+03 -0.17455270422E+04  0.25233758013E+04  0.25500000920E-02 0. -1.
</event>
<event>
 5   0  0.2904500E-09  0.3899129E+04  0.7818609E-02  0.8025210E-01
        1   -1    0    0  501    0  0.00000000000E+00  0.00000000000E+00  0.12722522277E+04  0.12722522277E+04  0.50400001928E-02 0.  1.
       -1   -1    0    0    0  501  0.00000000000E+00  0.00000000000E+00 -0.29874594627E+04  0.29874594628E+04  0.50400001928E-02 0. -1.
    10030    2    1    2    0    0  0.00000000000E+00  0.00000000000E+00 -0.17152072350E+04  0.42597116905E+04  0.38991291113E+04 0.  0.
        4    1    3    3  502    0  0.18138719153E+04 -0.42275141526E+03 -0.14870360196E+04  0.23833018736E+04  0.12699999809E+01 0.  1.
       -4    1    3    3    0  502 -0.18138719153E+04  0.42275141526E+03 -0.22817121540E+03  0.18764098168E+04  0.12699999809E+01 0. -1.
</event>
<event>
 5   0  0.2904500E-09  0.3899173E+04  0.7818609E-02  0.8025201E-01
        1   -1    0    0  501    0  0.00000000000E+00  0.00000000000E+00  0.19094973077E+04  0.19094973077E+04  0.50400001928E-02 0. -1.
       -1   -1    0    0    0  501  0.00000000000E+00  0.00000000000E+00 -0.19905174683E+04  0.19905174683E+04  0.50400001928E-02 0.  1.
    10030    2    1    2    0    0  0.00000000000E+00  0.00000000000E+00 -0.81020160610E+02  0.39000147760E+04  0.38991731157E+04 0.  0.
        2    1    3    3  502    0  0.43383707800E+03 -0.18658492120E+04 -0.40291390998E+03  0.19575360816E+04  0.25500000920E-02 0.  1.
       -2    1    3    3    0  502 -0.43383707800E+03  0.18658492120E+04  0.32189374937E+03  0.19424786943E+04  0.25500000920E-02 0. -1.
</event>
<event>
 5   0  0.9368546E-09  0.3903194E+04  0.7818609E-02  0.8024365E-01
       -2   -1    0    0    0  501  0.00000000000E+00  0.00000000000E+00  0.15953724942E+04  0.15953724942E+04  0.25500000920E-02 0.  1.
        2   -1    0    0  501    0  0.00000000000E+00  0.00000000000E+00 -0.23873609092E+04  0.23873609092E+04  0.25500000920E-02 0. -1.
    10030    2    1    2    0    0  0.00000000000E+00  0.00000000000E+00 -0.79198841500E+03  0.39827334034E+04  0.39031935275E+04 0.  0.
        5    1    3    3  502    0 -0.26388482906E+03  0.10592979239E+04  0.12546738187E+04  0.16631222973E+04  0.46999998093E+01 0.  1.
       -5    1    3    3    0  502  0.26388482906E+03 -0.10592979239E+04 -0.20466622337E+04  0.23196111061E+04  0.46999998093E+01 0. -1.
</event>
<event>
 5   0  0.9277261E-09  0.3906337E+04  0.7818609E-02  0.8023712E-01
       -2   -1    0    0    0  501  0.00000000000E+00  0.00000000000E+00  0.15566269709E+04  0.15566269709E+04  0.25500000920E-02 0. -1.
        2   -1    0    0  501    0  0.00000000000E+00  0.00000000000E+00 -0.24507272482E+04  0.24507272482E+04  0.25500000920E-02 0.  1.
    10030    2    1    2    0    0  0.00000000000E+00  0.00000000000E+00 -0.89410027727E+03  0.40073542191E+04  0.39063374831E+04 0.  0.
        1    1    3    3  502    0  0.27707765146E+03  0.12416376657E+04 -0.19674116062E+04  0.23428923462E+04  0.50400001928E-02 0.  1.
       -1    1    3    3    0  502 -0.27707765146E+03 -0.12416376657E+04  0.10733113289E+04  0.16644618729E+04  0.50400001928E-02 0. -1.
</event>
<event>
 5   0  0.9277261E-09  0.3899782E+04  0.7818609E-02  0.8025075E-01
       -2   -1    0    0    0  501  0.00000000000E+00  0.00000000000E+00  0.13123479016E+04  0.13123479016E+04  0.25500000920E-02 0. -1.
        2   -1    0    0  501    0  0.00000000000E+00  0.00000000000E+00 -0.28971550138E+04  0.28971550138E+04  0.25500000920E-02 0.  1.
    10030    2    1    2    0    0  0.00000000000E+00  0.00000000000E+00 -0.15848071122E+04  0.42095029153E+04  0.38997822005E+04 0.  0.
        1    1    3    3  502    0  0.33956448348E+03  0.49211410225E+03 -0.27957660726E+04  0.28589837811E+04  0.50400001928E-02 0.  1.
       -1    1    3    3    0  502 -0.33956448348E+03 -0.49211410225E+03  0.12109589604E+04  0.13505191342E+04  0.50400001928E-02 0. -1.
</event>
<event>
 5   0  0.9277261E-09  0.3898976E+04  0.7818609E-02  0.8025242E-01
        2   -1    0    0  501    0  0.00000000000E+00  0.00000000000E+00  0.19760376789E+04  0.19760376789E+04  0.25500000920E-02 0. -1.
       -2   -1    0    0    0  501  0.00000000000E+00  0.00000000000E+00 -0.19232954812E+04  0.19232954812E+04  0.25500000920E-02 0.  1.
    10030    2    1    2    0    0  0.00000000000E+00  0.00000000000E+00  0.52742197706E+02  0.38993331602E+04  0.38989764496E+04 0.  0.
        1    1    3    3  502    0 -0.54528798363E+03 -0.10863751427E+04  0.15506346812E+04  0.19702836979E+04  0.50400001928E-02 0. -1.
       -1    1    3    3    0  502  0.54528798363E+03  0.10863751427E+04 -0.14978924835E+04  0.19290494623E+04  0.50400001928E-02 0.  1.
</event>
<event>
 5   0  0.2904500E-09  0.3898561E+04  0.7818609E-02  0.8025329E-01
       -1   -1    0    0    0  501  0.00000000000E+00  0.00000000000E+00  0.17968031791E+04  0.17968031791E+04  0.50400001928E-02 0. -1.
        1   -1    0    0  501    0  0.00000000000E+00  0.00000000000E+00 -0.21146969646E+04  0.21146969646E+04  0.50400001928E-02 0.  1.
    10030    2    1    2    0    0  0.00000000000E+00  0.00000000000E+00 -0.31789378548E+03  0.39115001437E+04  0.38985608775E+04 0.  0.
        4    1    3    3  502    0 -0.53837394554E+03 -0.93869938288E+03  0.14677576595E+04  0.18235452274E+04  0.12699999809E+01 0. -1.
       -4    1    3    3    0  502  0.53837394554E+03  0.93869938288E+03 -0.17856514449E+04  0.20879549163E+04  0.12699999809E+01 0.  1.
</event>
<event>
 5   0  0.6335942E-09  0.3898954E+04  0.7818609E-02  0.8025247E-01
        2   -1    0    0  501    0  0.00000000000E+00  0.00000000000E+00  0.23314238900E+04  0.23314238900E+04  0.25500000920E-02 0. -1.
       -2   -1    0    0    0  501  0.00000000000E+00  0.00000000000E+00 -0.16301028307E+04  0.16301028307E+04  0.25500000920E-02 0.  1.
    10030    2    1    2    0    0  0.00000000000E+00  0.00000000000E+00  0.70132105930E+03  0.39615267206E+04  0.38989540559E+04 0.  0.
        2    1    3    3  502    0 -0.10036925149E+04  0.13007128897E+04 -0.71556517967E+03  0.17920061976E+04  0.25500000920E-02 0.  1.
       -2    1    3    3    0  502  0.10036925149E+04 -0.13007128897E+04  0.14168862390E+04  0.21695205231E+04  0.25500000920E-02 0. -1.
</event>
<event>
 5   0  0.6335942E-09  0.3898885E+04  0.7818609E-02  0.8025261E-01
       -2   -1    0    0    0  501  0.00000000000E+00  0.00000000000E+00  0.15174517739E+04  0.15174517739E+04  0.25500000920E-02 0.  1.
        2   -1    0    0  501    0  0.00000000000E+00  0.00000000000E+00 -0.25044125264E+04  0.25044125264E+04  0.25500000920E-02 0. -1.
    10030    2    1    2    0    0  0.00000000000E+00  0.00000000000E+00 -0.98696075247E+03  0.40218643004E+04  0.38988845743E+04 0.  0.
        2    1    3    3  502    0  0.14999581200E+04 -0.95698206670E+03  0.32828805422E+03  0.18092711472E+04  0.25500000920E-02 0.  1.
       -2    1    3    3    0  502 -0.14999581200E+04  0.95698206670E+03 -0.13152488067E+04  0.22125931531E+04  0.25500000920E-02 0. -1.
</event>
<event>
 5   0  0.2904500E-09  0.3902871E+04  0.7818609E-02  0.8024432E-01
        1   -1    0    0  501    0  0.00000000000E+00  0.00000000000E+00  0.17429388065E+04  0.17429388065E+04  0.50400001928E-02 0.  1.
       -1   -1    0    0    0  501  0.00000000000E+00  0.00000000000E+00 -0.21848733810E+04  0.21848733810E+04  0.50400001928E-02 0. -1.
    10030    2    1    2    0    0  0.00000000000E+00  0.00000000000E+00 -0.44193457449E+03  0.39278121875E+04  0.39028710474E+04 0.  0.
        4    1    3    3  502    0  0.15120950487E+04  0.71823480340E+02 -0.14603030978E+04  0.21033489484E+04  0.12699999809E+01 0.  1.
       -4    1    3    3    0  502 -0.15120950487E+04 -0.71823480340E+02  0.10183685233E+04  0.18244632391E+04  0.12699999809E+01 0. -1.
</event>
<event>
 5   0  0.2904500E-09  0.3900221E+04  0.7818609E-02  0.8024983E-01
        1   -1    0    0  501    0  0.00000000000E+00  0.00000000000E+00  0.22981105465E+04  0.22981105465E+04  0.50400001928E-02 0. -1.
       -1   -1    0    0    0  501  0.00000000000E+00  0.00000000000E+00 -0.16548076510E+04  0.16548076510E+04  0.50400001928E-02 0.  1.
    10030    2    1    2    0    0  0.00000000000E+00  0.00000000000E+00  0.64330289549E+03  0.39529181975E+04  0.39002209759E+04 0.  0.
        2    1    3    3  502    0 -0.10678062388E+04 -0.13119585704E+03  0.19701295621E+04  0.22447345072E+04  0.25500000920E-02 0. -1.
       -2    1    3    3    0  502  0.10678062388E+04  0.13119585704E+03 -0.13268266666E+04  0.17081836903E+04  0.25500000920E-02 0.  1.
</event>
<event>
 5   0  0.2904500E-09  0.3898428E+04  0.7818609E-02  0.8025356E-01
       -1   -1    0    0    0  501  0.00000000000E+00  0.00000000000E+00  0.16606293987E+04  0.16606293988E+04  0.50400001928E-02 0.  1.
        1   -1    0    0  501    0  0.00000000000E+00  0.00000000000E+00 -0.22879494453E+04  0.22879494453E+04  0.50400001928E-02 0. -1.
    10030    2    1    2    0    0  0.00000000000E+00  0.00000000000E+00 -0.62732004658E+03  0.39485788441E+04  0.38984284586E+04 0.  0.
        5    1    3    3  502    0 -0.43372601463E+03  0.19276718530E+03  0.16011990529E+04  0.16700712382E+04  0.46999998093E+01 0.  1.
       -5    1    3    3    0  502  0.43372601463E+03 -0.19276718530E+03 -0.22285190995E+04  0.22785076059E+04  0.46999998093E+01 0. -1.
</event>
<event>
 5   0  0.6335942E-09  0.3900010E+04  0.7818609E-02  0.8025027E-01
       -2   -1    0    0    0  501  0.00000000000E+00  0.00000000000E+00  0.16786579895E+04  0.16786579895E+04  0.25500000920E-02 0.  1.
        2   -1    0    0  501    0  0.00000000000E+00  0.00000000000E+00 -0.22652135120E+04  0.22652135120E+04  0.25500000920E-02 0. -1.
    10030    2    1    2    0    0  0.00000000000E+00  0.00000000000E+00 -0.58655552258E+03  0.39438715015E+04  0.39000096204E+04 0.  0.
        2    1    3    3  502    0  0.81592346500E+03 -0.46918688167E+03 -0.20203055886E+04  0.22287893803E+04  0.25500000920E-02 0. -1.
       -2    1    3    3    0  502 -0.81592346500E+03  0.46918688167E+03  0.14337500660E+04  0.17150821212E+04  0.25500000920E-02 0.  1.
</event>
<event>
 5   0  0.2904500E-09  0.3903650E+04  0.7818609E-02  0.8024270E-01
       -1   -1    0    0    0  501  0.00000000000E+00  0.00000000000E+00  0.22457609572E+04  0.22457609572E+04  0.50400001928E-02 0.  1.
        1   -1    0    0  501    0  0.00000000000E+00  0.00000000000E+00 -0.16963610522E+04  0.16963610523E+04  0.50400001928E-02 0. -1.
    10030    2    1    2    0    0  0.00000000000E+00  0.00000000000E+00  0.54939990495E+03  0.39421220095E+04  0.39036503022E+04 0.  0.
        5    1    3    3  502    0  0.55086536374E+03  0.17679825519E+04 -0.34813143703E+03  0.18842591489E+04  0.46999998093E+01 0. -1.
       -5    1    3    3    0  502 -0.55086536374E+03 -0.17679825519E+04  0.89753134199E+03  0.20578628605E+04  0.46999998093E+01 0.  1.
</event>
<event>
 5   0  0.9277261E-09  0.3903830E+04  0.7818609E-02  0.8024233E-01
        2   -1    0    0  501    0  0.00000000000E+00  0.00000000000E+00  0.28285051486E+04  0.28285051486E+04  0.25500000920E-02 0.  1.
       -2   -1    0    0    0  501  0.00000000000E+00  0.00000000000E+00 -0.13469913073E+04  0.13469913073E+04  0.25500000920E-02 0. -1.
    10030    2    1    2    0    0  0.00000000000E+00  0.00000000000E+00  0.14815138414E+04  0.41754964559E+04  0.39038298364E+04 0.  0.
        1    1    3    3  502    0 -0.13331015744E+04  0.94308737526E+03 -0.40295329593E+03  0.16819467779E+04  0.50400001928E-02 0. -1.
       -1    1    3    3    0  502  0.13331015744E+04 -0.94308737526E+03  0.18844671373E+04  0.24935496780E+04  0.50400001928E-02 0.  1.
</event>
<event>
 5   0  0.2904500E-09  0.3899777E+04  0.7818609E-02  0.8025076E-01
        1   -1    0    0  501    0  0.00000000000E+00  0.00000000000E+00  0.27388351505E+04  0.27388351505E+04  0.50400001928E-02 0.  1.
       -1   -1    0    0    0  501  0.00000000000E+00  0.00000000000E+00 -0.13882052147E+04  0.13882052148E+04  0.50400001928E-02 0. -1.
    10030    2    1    2    0    0  0.00000000000E+00  0.00000000000E+00  0.13506299357E+04  0.41270403652E+04  0.38997770389E+04 0.  0.
        5    1    3    3  502    0  0.33330315991E+03 -0.18083800476E+04 -0.11108771042E+02  0.18388787039E+04  0.46999998093E+01 0. -1.
       -5    1    3    3    0  502 -0.33330315991E+03  0.18083800476E+04  0.13617387068E+04  0.22881616613E+04  0.46999998093E+01 0.  1.
</event>
<event>
 5   0  0.2929054E-09  0.3899460E+04  0.7818609E-02  0.8025142E-01
        1   -1    0    0  501    0  0.00000000000E+00  0.00000000000E+00  0.14909285139E+04  0.14909285139E+04  0.50400001928E-02 0. -1.
       -1   -1    0    0    0  501  0.00000000000E+00  0.00000000000E+00 -0.25497178901E+04  0.25497178901E+04  0.50400001928E-02 0.  1.
    10030    2    1    2    0    0  0.00000000000E+00  0.00000000000E+00 -0.10587893762E+04  0.40406464040E+04  0.38994600164E+04 0.  0.
        1    1    3    3  502    0 -0.11512215572E+04 -0.15380541869E+04 -0.18490412979E+03  0.19300547383E+04  0.50400001928E-02 0. -1.
       -1    1    3    3    0  502  0.11512215572E+04  0.15380541869E+04 -0.87388524638E+03  0.21105916657E+04  0.50400001928E-02 0.  1.
</event>
<event>
 5   0  0.2929054E-09  0.3899038E+04  0.7818609E-02  0.8025229E-01
       -1   -1    0    0    0  501  0.00000000000E+00  0.00000000000E+00  0.24681521818E+04  0.24681521818E+04  0.50400001928E-02 0.  1.
        1   -1    0    0  501    0  0.00000000000E+00  0.00000000000E+00 -0.15398658961E+04  0.15398658961E+04  0.50400001928E-02 0. -1.
    10030    2    1    2    0    0  0.00000000000E+00  0.00000000000E+00  0.92828628575E+03  0.40080180779E+04  0.38990375074E+04 0.  0.
        1    1    3    3  502    0 -0.77348564255E+03  0.12628041890E+04 -0.83923539570E+03  0.17021370416E+04  0.50400001928E-02 0. -1.
       -1    1    3    3    0  502  0.77348564255E+03 -0.12628041890E+04  0.17675216815E+04  0.23058810363E+04  0.50400001928E-02 0.  1.
</event>
<event>
 5   0  0.2904500E-09  0.3900575E+04  0.7818609E-02  0.8024910E-01
       -1   -1    0    0    0  501  0.00000000000E+00  0.00000000000E+00  0.29920498651E+04  0.29920498651E+04  0.50400001928E-02 0. -1.
        1   -1    0    0  501    0  0.00000000000E+00  0.00000000000E+00 -0.12712426528E+04  0.12712426528E+04  0.50400001928E-02 0.  1.
    10030    2    1    2    0    0  0.00000000000E+00  0.00000000000E+00  0.17208072124E+04  0.42632925179E+04  0.39005750385E+04 0.  0.
        5    1    3    3  502    0  0.14310916321E+04  0.79609682828E+03 -0.29724127115E+03  0.16643821325E+04  0.46999998093E+01 0.  1.
       -5    1    3    3    0  502 -0.14310916321E+04 -0.79609682828E+03  0.20180484835E+04  0.25989103854E+04  0.46999998093E+01 0. -1.
</event>
<event>
 5   0  0.6335942E-09  0.3900177E+04  0.7818609E-02  0.8024992E-01
        2   -1    0    0  501    0  0.00000000000E+00  0.00000000000E+00  0.26055937300E+04  0.26055937300E+04  0.25500000920E-02 0.  1.
       -2   -1    0    0    0  501  0.00000000000E+00  0.00000000000E+00 -0.14594924376E+04  0.14594924376E+04  0.25500000920E-02 0. -1.
    10030    2    1    2    0    0  0.00000000000E+00  0.00000000000E+00  0.11461012924E+04  0.40650861676E+04  0.39001765829E+04 0.  0.
        2    1    3    3  502    0 -0.24019870352E+03 -0.15086996326E+04  0.18363101988E+04  0.23887036537E+04  0.25500000920E-02 0.  1.
       -2    1    3    3    0  502  0.24019870352E+03  0.15086996326E+04 -0.69020890643E+03  0.16763825140E+04  0.25500000920E-02 0. -1.
</event>
<event>
 5   0  0.9277261E-09  0.3900208E+04  0.7818609E-02  0.8024986E-01
        2   -1    0    0  501    0  0.00000000000E+00  0.00000000000E+00  0.17972617029E+04  0.17972617029E+04  0.25500000920E-02 0. -1.
       -2   -1    0    0    0  501  0.00000000000E+00  0.00000000000E+00 -0.21159443505E+04  0.21159443505E+04  0.25500000920E-02 0.  1.
    10030    2    1    2    0    0  0.00000000000E+00  0.00000000000E+00 -0.31868264764E+03  0.39132060534E+04  0.39002080697E+04 0.  0.
        1    1    3    3  502    0 -0.13120588294E+04  0.31734648894E+03  0.12527218775E+04  0.18416077943E+04  0.50400001928E-02 0. -1.
       -1    1    3    3    0  502  0.13120588294E+04 -0.31734648894E+03 -0.15714045251E+04  0.20715982591E+04  0.50400001928E-02 0.  1.
</event>
<event>
 5   0  0.6335942E-09  0.3900205E+04  0.7818609E-02  0.8024987E-01
       -2   -1    0    0    0  501  0.00000000000E+00  0.00000000000E+00  0.27516640010E+04  0.27516640010E+04  0.25500000920E-02 0.  1.
        2   -1    0    0  501    0  0.00000000000E+00  0.00000000000E+00 -0.13820361243E+04  0.13820361243E+04  0.25500000920E-02 0. -1.
    10030    2    1    2    0    0  0.00000000000E+00  0.00000000000E+00  0.13696278767E+04  0.41337001253E+04  0.39002046363E+04 0.  0.
        2    1    3    3  502    0  0.10647749202E+04 -0.16330346967E+04  0.73620494486E+03  0.20838775569E+04  0.25500000920E-02 0.  1.
       -2    1    3    3    0  502 -0.10647749202E+04  0.16330346967E+04  0.63342293184E+03  0.20498225684E+04  0.25500000920E-02 0. -1.
</event>
<event>
 5   0  0.9277261E-09  0.3898395E+04  0.7818609E-02  0.8025363E-01
       -2   -1    0    0    0  501  0.00000000000E+00  0.00000000000E+00  0.19116016906E+04  0.19116016906E+04  0.25500000920E-02 0.  1.
        2   -1    0    0  501    0  0.00000000000E+00  0.00000000000E+00 -0.19875324695E+04  0.19875324695E+04  0.25500000920E-02 0. -1.
    10030    2    1    2    0    0  0.00000000000E+00  0.00000000000E+00 -0.75930778839E+02  0.38991341601E+04  0.38983947613E+04 0.  0.
        1    1    3    3  502    0 -0.11765587312E+04  0.79832105419E+03  0.12956154694E+04  0.19235972547E+04  0.50400001928E-02 0.  1.
       -1    1    3    3    0  502  0.11765587312E+04 -0.79832105419E+03 -0.13715462482E+04  0.19755369054E+04  0.50400001928E-02 0. -1.
</event>
<event>
 5   0  0.9078515E-09  0.3899925E+04  0.7818609E-02  0.8025045E-01
       -2   -1    0    0    0  501  0.00000000000E+00  0.00000000000E+00  0.17479049442E+04  0.17479049442E+04  0.25500000920E-02 0. -1.
        2   -1    0    0  501    0  0.00000000000E+00  0.00000000000E+00 -0.21753776219E+04  0.21753776219E+04  0.25500000920E-02 0.  1.
    10030    2    1    2    0    0  0.00000000000E+00  0.00000000000E+00 -0.42747267774E+03  0.39232825661E+04  0.38999247690E+04 0.  0.
        3    1    3    3  502    0 -0.13945759332E+04  0.94693761623E+03  0.77234892456E+03  0.18541994914E+04  0.10100000352E+00 0. -1.
       -3    1    3    3    0  502  0.13945759332E+04 -0.94693761623E+03 -0.11998216023E+04  0.20690830747E+04  0.10100000352E+00 0.  1.
</event>
<event>
 5   0  0.9277261E-09  0.3901045E+04  0.7818609E-02  0.8024812E-01
       -2   -1    0    0    0  501  0.00000000000E+00  0.00000000000E+00  0.30892286810E+04  0.30892286811E+04  0.25500000920E-02 0.  1.
        2   -1    0    0  501    0  0.00000000000E+00  0.00000000000E+00 -0.12315495370E+04  0.12315495370E+04  0.25500000920E-02 0. -1.
    10030    2    1    2    0    0  0.00000000000E+00  0.00000000000E+00  0.18576791440E+04  0.43207782181E+04  0.39010450661E+04 0.  0.
        1    1    3    3  502    0  0.30417984331E+02  0.13622332682E+04  0.24746921051E+04  0.28250142912E+04  0.50400001928E-02 0.  1.
       -1    1    3    3    0  502 -0.30417984331E+02 -0.13622332682E+04 -0.61701296109E+03  0.14957639268E+04  0.50400001928E-02 0. -1.
</event>
<event>
 5   0  0.2929054E-09  0.3896899E+04  0.7818609E-02  0.8025675E-01
        1   -1    0    0  501    0  0.00000000000E+00  0.00000000000E+00  0.25184552484E+04  0.25184552484E+04  0.50400001928E-02 0.  1.
       -1   -1    0    0    0  501  0.00000000000E+00  0.00000000000E+00 -0.15074537195E+04  0.15074537195E+04  0.50400001928E-02 0. -1.
    10030    2    1    2    0    0  0.00000000000E+00  0.00000000000E+00  0.10110015290E+04  0.40259089679E+04  0.38968986292E+04 0.  0.
        1    1    3    3  502    0 -0.18630110691E+03 -0.14031122825E+04  0.18888687410E+04  0.23603510969E+04  0.50400001928E-02 0.  1.
       -1    1    3    3    0  502  0.18630110691E+03  0.14031122825E+04 -0.87786721200E+03  0.16655578710E+04  0.50400001928E-02 0. -1.
</event>
<event>
 5   0  0.2904500E-09  0.3899746E+04  0.7818609E-02  0.8025082E-01
        1   -1    0    0  501    0  0.00000000000E+00  0.00000000000E+00  0.19109115461E+04  0.19109115461E+04  0.50400001928E-02 0. -1.
       -1   -1    0    0    0  501  0.00000000000E+00  0.00000000000E+00 -0.19896290918E+04  0.19896290918E+04  0.50400001928E-02 0.  1.
    10030    2    1    2    0    0  0.00000000000E+00  0.00000000000E+00 -0.78717545722E+02  0.39005406379E+04  0.38997462502E+04 0.  0.
        3    1    3    3  502    0  0.33564185190E+03  0.55714264123E+03  0.17992054919E+04  0.19131659070E+04  0.10100000352E+00 0. -1.
       -3    1    3    3    0  502 -0.33564185190E+03 -0.55714264123E+03 -0.18779230376E+04  0.19873747309E+04  0.10100000352E+00 0.  1.
</event>
<event>
 5   0  0.2904500E-09  0.3909107E+04  0.7818609E-02  0.8023138E-01
        1   -1    0    0  501    0  0.00000000000E+00  0.00000000000E+00  0.24763207805E+04  0.24763207805E+04  0.50400001928E-02 0. -1.
       -1   -1    0    0    0  501  0.00000000000E+00  0.00000000000E+00 -0.15427238893E+04  0.15427238893E+04  0.50400001928E-02 0.  1.
    10030    2    1    2    0    0  0.00000000000E+00  0.00000000000E+00  0.93359689125E+03  0.40190446698E+04  0.39091069188E+04 0.  0.
        5    1    3    3  502    0  0.36086070534E+03  0.92169071640E+03  0.21995824584E+04  0.24120363402E+04  0.46999998093E+01 0. -1.
       -5    1    3    3    0  502 -0.36086070534E+03 -0.92169071640E+03 -0.12659855671E+04  0.16070083296E+04  0.46999998093E+01 0.  1.
</event>
<event>
 5   0  0.2904500E-09  0.3901795E+04  0.7818609E-02  0.8024656E-01
       -1   -1    0    0    0  501  0.00000000000E+00  0.00000000000E+00  0.14283604865E+04  0.14283604865E+04  0.50400001928E-02 0. -1.
        1   -1    0    0  501    0  0.00000000000E+00  0.00000000000E+00 -0.26645940631E+04  0.26645940631E+04  0.50400001928E-02 0.  1.
    10030    2    1    2    0    0  0.00000000000E+00  0.00000000000E+00 -0.12362335766E+04  0.40929545496E+04  0.39017949061E+04 0.  0.
        3    1    3    3  502    0 -0.18266677902E+04  0.66916298748E+03 -0.77195271922E+03  0.20929417886E+04  0.10100000352E+00 0.  1.
       -3    1    3    3    0  502  0.18266677902E+04 -0.66916298748E+03 -0.46428085741E+03  0.20000127610E+04  0.10100000352E+00 0. -1.
</event>
<event>
 5   0  0.6335942E-09  0.3893960E+04  0.7818609E-02  0.8026287E-01
       -2   -1    0    0    0  501  0.00000000000E+00  0.00000000000E+00  0.18839419429E+04  0.18839419429E+04  0.25500000920E-02 0.  1.
        2   -1    0    0  501    0  0.00000000000E+00  0.00000000000E+00 -0.20121274338E+04  0.20121274338E+04  0.25500000920E-02 0. -1.
    10030    2    1    2    0    0  0.00000000000E+00  0.00000000000E+00 -0.12818549092E+03  0.38960693767E+04  0.38939600753E+04 0.  0.
        2    1    3    3  502    0  0.10980197587E+04 -0.12651283677E+04 -0.10568671378E+04  0.19806981911E+04  0.25500000920E-02 0. -1.
       -2    1    3    3    0  502 -0.10980197587E+04  0.12651283677E+04  0.92868164689E+03  0.19153711856E+04  0.25500000920E-02 0.  1.
</event>
<event>
 5   0  0.9277261E-09  0.3898854E+04  0.7818609E-02  0.8025268E-01
        2   -1    0    0  501    0  0.00000000000E+00  0.00000000000E+00  0.23104408366E+04  0.23104408366E+04  0.25500000920E-02 0. -1.
       -2   -1    0    0    0  501  0.00000000000E+00  0.00000000000E+00 -0.16448228189E+04  0.16448228189E+04  0.25500000920E-02 0.  1.
    10030    2    1    2    0    0  0.00000000000E+00  0.00000000000E+00  0.66561801774E+03  0.39552636555E+04  0.38988540931E+04 0.  0.
        1    1    3    3  502    0  0.14414215143E+03  0.16883652621E+04  0.13105541060E+04  0.21421732617E+04  0.50400001928E-02 0. -1.
       -1    1    3    3    0  502 -0.14414215143E+03 -0.16883652621E+04 -0.64493608830E+03  0.18130903938E+04  0.50400001928E-02 0.  1.
</event>
<event>
 5   0  0.2904500E-09  0.3902375E+04  0.7818609E-02  0.8024535E-01
        1   -1    0    0  501    0  0.00000000000E+00  0.00000000000E+00  0.11655025006E+04  0.11655025006E+04  0.50400001928E-02 0.  1.
       -1   -1    0    0    0  501  0.00000000000E+00  0.00000000000E+00 -0.32665156578E+04  0.32665156578E+04  0.50400001928E-02 0. -1.
    10030    2    1    2    0    0  0.00000000000E+00  0.00000000000E+00 -0.21010131573E+04  0.44320181584E+04  0.39023747474E+04 0.  0.
        3    1    3    3  502    0  0.66335755024E+01  0.11874997382E+04  0.70782373206E+03  0.13824666645E+04  0.10100000352E+00 0.  1.
       -3    1    3    3    0  502 -0.66335755024E+01 -0.11874997382E+04 -0.28088368893E+04  0.30495514938E+04  0.10100000352E+00 0. -1.
</event>
<event>
 5   0  0.2904500E-09  0.3893161E+04  0.7818609E-02  0.8026453E-01
        1   -1    0    0  501    0  0.00000000000E+00  0.00000000000E+00  0.27611314894E+04  0.27611314894E+04  0.50400001928E-02 0. -1.
       -1   -1    0    0    0  501  0.00000000000E+00  0.00000000000E+00 -0.13723274108E+04  0.13723274108E+04  0.50400001928E-02 0.  1.
    10030    2    1    2    0    0  0.00000000000E+00  0.00000000000E+00  0.13888040786E+04  0.41334589002E+04  0.38931614032E+04 0.  0.
        2    1    3    3  502    0 -0.12311829050E+04  0.34923534684E+03  0.22517002047E+04  0.25899672749E+04  0.25500000920E-02 0. -1.
       -2    1    3    3    0  502  0.12311829050E+04 -0.34923534684E+03 -0.86289612612E+03  0.15434916254E+04  0.25500000920E-02 0.  1.
</event>
<event>
 5   0  0.6335942E-09  0.3894703E+04  0.7818609E-02  0.8026132E-01
        2   -1    0    0  501    0  0.00000000000E+00  0.00000000000E+00  0.18964062987E+04  0.18964062987E+04  0.25500000920E-02 0.  1.
       -2   -1    0    0    0  501  0.00000000000E+00  0.00000000000E+00 -0.19996655595E+04  0.19996655595E+04  0.25500000920E-02 0. -1.
    10030    2    1    2    0    0  0.00000000000E+00  0.00000000000E+00 -0.10325926084E+03  0.38960718582E+04  0.38947032556E+04 0.  0.
        2    1    3    3  502    0 -0.18368500425E+04 -0.46301806762E+03 -0.50320220614E+03  0.19600041505E+04  0.25500000920E-02 0. -1.
       -2    1    3    3    0  502  0.18368500425E+04  0.46301806762E+03  0.39994294530E+03  0.19360677078E+04  0.25500000920E-02 0.  1.
</event>
<event>
 5   0  0.2904500E-09  0.3899586E+04  0.7818609E-02  0.8025115E-01
        1   -1    0    0  501    0  0.00000000000E+00  0.00000000000E+00  0.26517267529E+04  0.26517267529E+04  0.50400001928E-02 0. -1.
       -1   -1    0    0    0  501  0.00000000000E+00  0.00000000000E+00 -0.14336669292E+04  0.14336669292E+04  0.50400001928E-02 0.  1.
    10030    2    1    2    0    0  0.00000000000E+00  0.00000000000E+00  0.12180598237E+04  0.40853936821E+04  0.38995861067E+04 0.  0.
        2    1    3    3  502    0  0.68063130232E+03  0.62101496623E+03 -0.11912106034E+04  0.15059552648E+04  0.25500000920E-02 0.  1.
       -2    1    3    3    0  502 -0.68063130232E+03 -0.62101496623E+03  0.24092704270E+04  0.25794384173E+04  0.25500000920E-02 0. -1.
</event>
<event>
 5   0  0.2904500E-09  0.3898162E+04  0.7818609E-02  0.8025412E-01
       -3   -1    0    0    0  501  0.00000000000E+00  0.00000000000E+00  0.15770447929E+04  0.15770447961E+04  0.10100000352E+00 0.  1.
        3   -1    0    0  501    0  0.00000000000E+00  0.00000000000E+00 -0.24088828331E+04  0.24088828352E+04  0.10100000352E+00 0. -1.
    10030    2    1    2    0    0  0.00000000000E+00  0.00000000000E+00 -0.83183804022E+03  0.39859276314E+04  0.38981616895E+04 0.  0.
        1    1    3    3  502    0 -0.52204014347E+03 -0.15754776451E+04  0.62897915009E+03  0.17749001360E+04  0.50400001928E-02 0.  1.
       -1    1    3    3    0  502  0.52204014347E+03  0.15754776451E+04 -0.14608171903E+04  0.22110274954E+04  0.50400001928E-02 0. -1.
</event>
<event>
 5   0  0.9434114E-09  0.3908929E+04  0.7818609E-02  0.8023175E-01
       -2   -1    0    0    0  501  0.00000000000E+00  0.00000000000E+00  0.26179007131E+04  0.26179007131E+04  0.25500000920E-02 0.  1.
        2   -1    0    0  501    0  0.00000000000E+00  0.00000000000E+00 -0.14591585980E+04  0.14591585980E+04  0.25500000920E-02 0. -1.
    10030    2    1    2    0    0  0.00000000000E+00  0.00000000000E+00  0.11587421151E+04  0.40770593111E+04  0.39089294361E+04 0.  0.
        4    1    3    3  502    0 -0.16618180055E+04  0.56030076108E+03 -0.32049768122E+03  0.17827777211E+04  0.12699999809E+01 0. -1.
       -4    1    3    3    0  502  0.16618180055E+04 -0.56030076108E+03  0.14792397964E+04  0.22942815900E+04  0.12699999809E+01 0.  1.
</event>
<event>
 5   0  0.2904500E-09  0.3899181E+04  0.7818609E-02  0.8025200E-01
        1   -1    0    0  501    0  0.00000000000E+00  0.00000000000E+00  0.21291918946E+04  0.21291918946E+04  0.50400001928E-02 0. -1.
       -1   -1    0    0    0  501  0.00000000000E+00  0.00000000000E+00 -0.17851387026E+04  0.17851387026E+04  0.50400001928E-02 0.  1.
    10030    2    1    2    0    0  0.00000000000E+00  0.00000000000E+00  0.34405319205E+03  0.39143305972E+04  0.38991808659E+04 0.  0.
        2    1    3    3  502    0 -0.14675649443E+04 -0.10988049695E+04  0.83776506287E+03  0.20156809091E+04  0.25500000920E-02 0. -1.
       -2    1    3    3    0  502  0.14675649443E+04  0.10988049695E+04 -0.49371187082E+03  0.18986496881E+04  0.25500000920E-02 0.  1.
</event>
<event>
 5   0  0.2929054E-09  0.3899355E+04  0.7818609E-02  0.8025163E-01
       -1   -1    0    0    0  501  0.00000000000E+00  0.00000000000E+00  0.19390939563E+04  0.19390939563E+04  0.50400001928E-02 0. -1.
        1   -1    0    0  501    0  0.00000000000E+00  0.00000000000E+00 -0.19603187011E+04  0.19603187011E+04  0.50400001928E-02 0.  1.
    10030    2    1    2    0    0  0.00000000000E+00  0.00000000000E+00 -0.21224744849E+02  0.38994126574E+04  0.38993548931E+04 0.  0.
        1    1    3    3  502    0  0.11846042934E+04  0.29791918923E+02 -0.15588818176E+04  0.19581336553E+04  0.50400001928E-02 0.  1.
       -1    1    3    3    0  502 -0.11846042934E+04 -0.29791918923E+02  0.15376570728E+04  0.19412790021E+04  0.50400001928E-02 0. -1.
</event>
<event>
 5   0  0.2904500E-09  0.3893453E+04  0.7818609E-02  0.8026392E-01
       -1   -1    0    0    0  501  0.00000000000E+00  0.00000000000E+00  0.19632472892E+04  0.19632472892E+04  0.50400001928E-02 0.  1.
        1   -1    0    0  501    0  0.00000000000E+00  0.00000000000E+00 -0.19303452055E+04  0.19303452056E+04  0.50400001928E-02 0. -1.
    10030    2    1    2    0    0  0.00000000000E+00  0.00000000000E+00  0.32902083662E+02  0.38935924948E+04  0.38934534758E+04 0.  0.
        2    1    3    3  502    0 -0.15562628388E+04  0.10643254113E+04  0.50123879929E+03  0.19508928567E+04  0.25500000920E-02 0. -1.
       -2    1    3    3    0  502  0.15562628388E+04 -0.10643254113E+04 -0.46833671563E+03  0.19426996381E+04  0.25500000920E-02 0.  1.
</event>
<event>
 5   0  0.9434114E-09  0.3899947E+04  0.7818609E-02  0.8025040E-01
       -2   -1    0    0    0  501  0.00000000000E+00  0.00000000000E+00  0.23454284156E+04  0.23454284156E+04  0.25500000920E-02 0. -1.
        2   -1    0    0  501    0  0.00000000000E+00  0.00000000000E+00 -0.16211952607E+04  0.16211952607E+04  0.25500000920E-02 0.  1.
    10030    2    1    2    0    0  0.00000000000E+00  0.00000000000E+00  0.72423315496E+03  0.39666236763E+04  0.38999474005E+04 0.  0.
        4    1    3    3  502    0  0.71757221325E+03 -0.77495368588E+03  0.20293278819E+04  0.22877142220E+04  0.12699999809E+01 0. -1.
       -4    1    3    3    0  502 -0.71757221325E+03  0.77495368588E+03 -0.13050947270E+04  0.16789094543E+04  0.12699999809E+01 0.  1.
</event>
<event>
 5   0  0.9078515E-09  0.3886087E+04  0.7818609E-02  0.8027929E-01
       -2   -1    0    0    0  501  0.00000000000E+00  0.00000000000E+00  0.16931551388E+04  0.16931551388E+04  0.25500000920E-02 0. -1.
        2   -1    0    0  501    0  0.00000000000E+00  0.00000000000E+00 -0.22298123592E+04  0.22298123592E+04  0.25500000920E-02 0.  1.
    10030    2    1    2    0    0  0.00000000000E+00  0.00000000000E+00 -0.53665722043E+03  0.39229674979E+04  0.38860871089E+04 0.  0.
        3    1    3    3  502    0  0.13663288537E+04 -0.57621260707E+03 -0.15358492882E+04  0.21348790484E+04  0.10100000352E+00 0.  1.
       -3    1    3    3    0  502 -0.13663288537E+04  0.57621260707E+03  0.99919206775E+03  0.17880884496E+04  0.10100000352E+00 0. -1.
</event>
<event>
 5   0  0.2904500E-09  0.3898303E+04  0.7818609E-02  0.8025382E-01
        1   -1    0    0  501    0  0.00000000000E+00  0.00000000000E+00  0.36070840704E+04  0.36070840704E+04  0.50400001928E-02 0. -1.
       -1   -1    0    0    0  501  0.00000000000E+00  0.00000000000E+00 -0.10532583541E+04  0.10532583541E+04  0.50400001928E-02 0.  1.
    10030    2    1    2    0    0  0.00000000000E+00  0.00000000000E+00  0.25538257163E+04  0.46603424246E+04  0.38983029289E+04 0.  0.
        3    1    3    3  502    0  0.59124074564E+03 -0.13839826724E+04 -0.20385080131E+03  0.15187260504E+04  0.10100000352E+00 0.  1.
       -3    1    3    3    0  502 -0.59124074564E+03  0.13839826724E+04  0.27576765176E+04  0.31416163742E+04  0.10100000352E+00 0. -1.
</event>
<event>
 5   0  0.9434114E-09  0.3898021E+04  0.7818609E-02  0.8025441E-01
        2   -1    0    0  501    0  0.00000000000E+00  0.00000000000E+00  0.21433373223E+04  0.21433373223E+04  0.25500000920E-02 0. -1.
       -2   -1    0    0    0  501  0.00000000000E+00  0.00000000000E+00 -0.17723019882E+04  0.17723019882E+04  0.25500000920E-02 0.  1.
    10030    2    1    2    0    0  0.00000000000E+00  0.00000000000E+00  0.37103533414E+03  0.39156393105E+04  0.38980205221E+04 0.  0.
        4    1    3    3  502    0 -0.52480588163E+03 -0.86749467731E+02 -0.16979753409E+04  0.17793449792E+04  0.12699999809E+01 0.  1.
       -4    1    3    3    0  502  0.52480588163E+03  0.86749467731E+02  0.20690106751E+04  0.21362943313E+04  0.12699999809E+01 0. -1.
</event>
<event>
 5   0  0.2904500E-09  0.3900550E+04  0.7818609E-02  0.8024915E-01
       -1   -1    0    0    0  501  0.00000000000E+00  0.00000000000E+00  0.22896031999E+04  0.22896031999E+04  0.50400001928E-02 0. -1.
        1   -1    0    0  501    0  0.00000000000E+00  0.00000000000E+00 -0.16612365153E+04  0.16612365153E+04  0.50400001928E-02 0.  1.
    10030    2    1    2    0    0  0.00000000000E+00  0.00000000000E+00  0.62836668462E+03  0.39508397152E+04  0.39005499311E+04 0.  0.
        4    1    3    3  502    0 -0.88121151889E+03  0.74299225584E+03 -0.12793132358E+04  0.17219800236E+04  0.12699999809E+01 0.  1.
       -4    1    3    3    0  502  0.88121151889E+03 -0.74299225584E+03  0.19076799205E+04  0.22288596917E+04  0.12699999809E+01 0. -1.
</event>
<event>
 5   0  0.2904500E-09  0.3899796E+04  0.7818609E-02  0.8025072E-01
        1   -1    0    0  501    0  0.00000000000E+00  0.00000000000E+00  0.21063292143E+04  0.21063292143E+04  0.50400001928E-02 0. -1.
       -1   -1    0    0    0  501  0.00000000000E+00  0.00000000000E+00 -0.18050842970E+04  0.18050842970E+04  0.50400001928E-02 0.  1.
    10030    2    1    2    0    0  0.00000000000E+00  0.00000000000E+00  0.30124491724E+03  0.39114135113E+04  0.38997957839E+04 0.  0.
        5    1    3    3  502    0  0.15195770307E+04 -0.68720987711E+03  0.11639331175E+04  0.20337487946E+04  0.46999998093E+01 0. -1.
       -5    1    3    3    0  502 -0.15195770307E+04  0.68720987711E+03 -0.86268820029E+03  0.18776647167E+04  0.46999998093E+01 0.  1.
</event>
<event>
 5   0  0.2904500E-09  0.3900394E+04  0.7818609E-02  0.8024947E-01
        1   -1    0    0  501    0  0.00000000000E+00  0.00000000000E+00  0.14287598638E+04  0.14287598639E+04  0.50400001928E-02 0.  1.
       -1   -1    0    0    0  501  0.00000000000E+00  0.00000000000E+00 -0.26619367006E+04  0.26619367006E+04  0.50400001928E-02 0. -1.
    10030    2    1    2    0    0  0.00000000000E+00  0.00000000000E+00 -0.12331768368E+04  0.40906965645E+04  0.39003939893E+04 0.  0.
        2    1    3    3  502    0  0.91513163698E+03  0.11944461386E+04  0.68454647351E+03  0.16531096048E+04  0.25500000920E-02 0.  1.
       -2    1    3    3    0  502 -0.91513163698E+03 -0.11944461386E+04 -0.19177233103E+04  0.24375869597E+04  0.25500000920E-02 0. -1.
</event>
<event>
 5   0  0.9368546E-09  0.3900632E+04  0.7818609E-02  0.8024898E-01
        2   -1    0    0  501    0  0.00000000000E+00  0.00000000000E+00  0.23717048710E+04  0.23717048710E+04  0.25500000920E-02 0. -1.
       -2   -1    0    0    0  501  0.00000000000E+00  0.00000000000E+00 -0.16037966067E+04  0.16037966067E+04  0.25500000920E-02 0.  1.
    10030    2    1    2    0    0  0.00000000000E+00  0.00000000000E+00  0.76790826423E+03  0.39755014777E+04  0.39006318587E+04 0.  0.
        5    1    3    3  502    0  0.53217481233E+03  0.97209243372E+03  0.20196057292E+04  0.23036933654E+04  0.46999998093E+01 0. -1.
       -5    1    3    3    0  502 -0.53217481233E+03 -0.97209243372E+03 -0.12516974649E+04  0.16718081123E+04  0.46999998093E+01 0.  1.
</event>
<event>
 5   0  0.2904500E-09  0.3896006E+04  0.7818609E-02  0.8025860E-01
        1   -1    0    0  501    0  0.00000000000E+00  0.00000000000E+00  0.14915341645E+04  0.14915341645E+04  0.50400001928E-02 0. -1.
       -1   -1    0    0    0  501  0.00000000000E+00  0.00000000000E+00 -0.25441695150E+04  0.25441695150E+04  0.50400001928E-02 0.  1.
    10030    2    1    2    0    0  0.00000000000E+00  0.00000000000E+00 -0.10526353504E+04  0.40357036795E+04  0.38960060328E+04 0.  0.
        5    1    3    3  502    0 -0.14658185263E+04  0.12555918016E+04 -0.25312055342E+03  0.19465936476E+04  0.46999998093E+01 0. -1.
       -5    1    3    3    0  502  0.14658185263E+04 -0.12555918016E+04 -0.79951479702E+03  0.20891100318E+04  0.46999998093E+01 0.  1.
</event>
<event>
 5   0  0.2904500E-09  0.3896166E+04  0.7818609E-02  0.8025827E-01
        1   -1    0    0  501    0  0.00000000000E+00  0.00000000000E+00  0.26126724247E+04  0.26126724247E+04  0.50400001928E-02 0. -1.
       -1   -1    0    0    0  501  0.00000000000E+00  0.00000000000E+00 -0.14525458729E+04  0.14525458729E+04  0.50400001928E-02 0.  1.
    10030    2    1    2    0    0  0.00000000000E+00  0.00000000000E+00  0.11601265518E+04  0.40652182977E+04  0.38961655755E+04 0.  0.
        5    1    3    3  502    0 -0.11989202883E+04 -0.15335415897E+04  0.65983170327E+03  0.20553733558E+04  0.46999998093E+01 0.  1.
       -5    1    3    3    0  502  0.11989202883E+04  0.15335415897E+04  0.50029484853E+03  0.20098449419E+04  0.46999998093E+01 0. -1.
</event>
<event>
 5   0  0.2904500E-09  0.3908550E+04  0.7818609E-02  0.8023253E-01
        1   -1    0    0  501    0  0.00000000000E+00  0.00000000000E+00  0.19064381545E+04  0.19064381545E+04  0.50400001928E-02 0.  1.
       -1   -1    0    0    0  501  0.00000000000E+00  0.00000000000E+00 -0.20033120636E+04  0.20033120637E+04  0.50400001928E-02 0. -1.
    10030    2    1    2    0    0  0.00000000000E+00  0.00000000000E+00 -0.96873909110E+02  0.39097502182E+04  0.39085498864E+04 0.  0.
        2    1    3    3  502    0  0.13036035785E+04 -0.14454832713E+04 -0.22280737206E+03  0.19591955754E+04  0.25500000920E-02 0. -1.
       -2    1    3    3    0  502 -0.13036035785E+04  0.14454832713E+04  0.12593346295E+03  0.19505546428E+04  0.25500000920E-02 0.  1.
</event>
<event>
 5   0  0.9368546E-09  0.3899434E+04  0.7818609E-02  0.8025147E-01
        2   -1    0    0  501    0  0.00000000000E+00  0.00000000000E+00  0.29133833205E+04  0.29133833205E+04  0.25500000920E-02 0. -1.
       -2   -1    0    0    0  501  0.00000000000E+00  0.00000000000E+00 -0.13048046800E+04  0.13048046800E+04  0.25500000920E-02 0.  1.
    10030    2    1    2    0    0  0.00000000000E+00  0.00000000000E+00  0.16085786405E+04  0.42181880006E+04  0.38994339032E+04 0.  0.
        5    1    3    3  502    0  0.45080361429E+03 -0.79150794688E+03 -0.10604765866E+04  0.13979776141E+04  0.46999998093E+01 0.  1.
       -5    1    3    3    0  502 -0.45080361429E+03  0.79150794688E+03  0.26690552271E+04  0.28202103865E+04  0.46999998093E+01 0. -1.
</event>
<event>
 5   0  0.9368546E-09  0.3902605E+04  0.7818609E-02  0.8024488E-01
       -2   -1    0    0    0  501  0.00000000000E+00  0.00000000000E+00  0.27053373316E+04  0.27053373316E+04  0.25500000920E-02 0.  1.
        2   -1    0    0  501    0  0.00000000000E+00  0.00000000000E+00 -0.14074334128E+04  0.14074334128E+04  0.25500000920E-02 0. -1.
    10030    2    1    2    0    0  0.00000000000E+00  0.00000000000E+00  0.12979039187E+04  0.41127707444E+04  0.39026053623E+04 0.  0.
        5    1    3    3  502    0 -0.42305069995E+03 -0.61830283410E+03 -0.12498230472E+04  0.14571719283E+04  0.46999998093E+01 0. -1.
       -5    1    3    3    0  502  0.42305069995E+03  0.61830283410E+03  0.25477269659E+04  0.26555988161E+04  0.46999998093E+01 0.  1.
</event>
<event>
 5   0  0.9434114E-09  0.3898832E+04  0.7818609E-02  0.8025272E-01
        2   -1    0    0  501    0  0.00000000000E+00  0.00000000000E+00  0.18132094396E+04  0.18132094396E+04  0.25500000920E-02 0.  1.
       -2   -1    0    0    0  501  0.00000000000E+00  0.00000000000E+00 -0.20958539769E+04  0.20958539769E+04  0.25500000920E-02 0. -1.
    10030    2    1    2    0    0  0.00000000000E+00  0.00000000000E+00 -0.28264453732E+03  0.39090634165E+04  0.38988317301E+04 0.  0.
        4    1    3    3  502    0 -0.10868258167E+04  0.15091713242E+04  0.44453313129E+03  0.19121714775E+04  0.12699999809E+01 0.  1.
       -4    1    3    3    0  502  0.10868258167E+04 -0.15091713242E+04 -0.72717766861E+03  0.19968919390E+04  0.12699999809E+01 0. -1.
</event>
<event>
 5   0  0.2904500E-09  0.3901390E+04  0.7818609E-02  0.8024740E-01
        1   -1    0    0  501    0  0.00000000000E+00  0.00000000000E+00  0.19174726171E+04  0.19174726171E+04  0.50400001928E-02 0. -1.
       -1   -1    0    0    0  501  0.00000000000E+00  0.00000000000E+00 -0.19844929793E+04  0.19844929793E+04  0.50400001928E-02 0.  1.
    10030    2    1    2    0    0  0.00000000000E+00  0.00000000000E+00 -0.67020362199E+02  0.39019655963E+04  0.39013899813E+04 0.  0.
        5    1    3    3  502    0 -0.14242469516E+04  0.63017282079E+03  0.11412233274E+04  0.19308055149E+04  0.46999998093E+01 0. -1.
       -5    1    3    3    0  502  0.14242469516E+04 -0.63017282079E+03 -0.12082436896E+04  0.19711600815E+04  0.46999998093E+01 0.  1.
</event>
<event>
 5   0  0.2904500E-09  0.3913142E+04  0.7818609E-02  0.8022301E-01
       -1   -1    0    0    0  501  0.00000000000E+00  0.00000000000E+00  0.12728910288E+04  0.12728910288E+04  0.50400001928E-02 0.  1.
        1   -1    0    0  501    0  0.00000000000E+00  0.00000000000E+00 -0.30074615139E+04  0.30074615139E+04  0.50400001928E-02 0. -1.
    10030    2    1    2    0    0  0.00000000000E+00  0.00000000000E+00 -0.17345704850E+04  0.42803525427E+04  0.39131423590E+04 0.  0.
        2    1    3    3  502    0 -0.13396006776E+04  0.33298121437E+03 -0.23840454257E+04  0.27548283170E+04  0.25500000920E-02 0. -1.
       -2    1    3    3    0  502  0.13396006776E+04 -0.33298121437E+03  0.64947494068E+03  0.15255242257E+04  0.25500000920E-02 0.  1.
</event>
<event>
 5   0  0.2929054E-09  0.3900241E+04  0.7818609E-02  0.8024979E-01
        1   -1    0    0  501    0  0.00000000000E+00  0.00000000000E+00  0.28044067221E+04  0.28044067221E+04  0.50400001928E-02 0.  1.
       -1   -1    0    0    0  501  0.00000000000E+00  0.00000000000E+00 -0.13560690862E+04  0.13560690862E+04  0.50400001928E-02 0. -1.
    10030    2    1    2    0    0  0.00000000000E+00  0.00000000000E+00  0.14483376359E+04  0.41604758083E+04  0.39002406392E+04 0.  0.
        1    1    3    3  502    0  0.66001392555E+03 -0.15008870180E+04  0.18504023742E+04  0.24723003800E+04  0.50400001928E-02 0.  1.
       -1    1    3    3    0  502 -0.66001392555E+03  0.15008870180E+04 -0.40206473832E+03  0.16881754283E+04  0.50400001928E-02 0. -1.
</event>
<event>
 5   0  0.9368546E-09  0.3905401E+04  0.7818609E-02  0.8023907E-01
        2   -1    0    0  501    0  0.00000000000E+00  0.00000000000E+00  0.31278671014E+04  0.31278671014E+04  0.25500000920E-02 0.  1.
       -2   -1    0    0    0  501  0.00000000000E+00  0.00000000000E+00 -0.12190540937E+04  0.12190540937E+04  0.25500000920E-02 0. -1.
    10030    2    1    2    0    0  0.00000000000E+00  0.00000000000E+00  0.19088130077E+04  0.43469211951E+04  0.39054009754E+04 0.  0.
        5    1    3    3  502    0 -0.14231130631E+04  0.64251398376E+03 -0.35073722458E+03  0.16003479935E+04  0.46999998093E+01 0. -1.
       -5    1    3    3    0  502  0.14231130631E+04 -0.64251398376E+03  0.22595502322E+04  0.27465732016E+04  0.46999998093E+01 0.  1.
</event>
<event>
 5   0  0.9078515E-09  0.3900918E+04  0.7818609E-02  0.8024838E-01
       -2   -1    0    0    0  501  0.00000000000E+00  0.00000000000E+00  0.18590274079E+04  0.18590274079E+04  0.25500000920E-02 0.  1.
        2   -1    0    0  501    0  0.00000000000E+00  0.00000000000E+00 -0.20463871351E+04  0.20463871351E+04  0.25500000920E-02 0. -1.
    10030    2    1    2    0    0  0.00000000000E+00  0.00000000000E+00 -0.18735972720E+03  0.39054145431E+04  0.39009177236E+04 0.  0.
        3    1    3    3  502    0  0.17084316345E+04  0.71612094221E+03 -0.70489318177E+03  0.19820298337E+04  0.10100000352E+00 0. -1.
       -3    1    3    3    0  502 -0.17084316345E+04 -0.71612094221E+03  0.51753345457E+03  0.19233847094E+04  0.10100000352E+00 0.  1.
</event>
<event>
 5   0  0.9434114E-09  0.3899330E+04  0.7818609E-02  0.8025169E-01
        2   -1    0    0  501    0  0.00000000000E+00  0.00000000000E+00  0.12327011776E+04  0.12327011776E+04  0.25500000920E-02 0. -1.
       -2   -1    0    0    0  501  0.00000000000E+00  0.00000000000E+00 -0.30836294898E+04  0.30836294898E+04  0.25500000920E-02 0.  1.
    10030    2    1    2    0    0  0.00000000000E+00  0.00000000000E+00 -0.18509283123E+04  0.43163306674E+04  0.38993300467E+04 0.  0.
        4    1    3    3  502    0  0.63811556924E+03 -0.10477601509E+04 -0.26028365826E+04  0.28774559427E+04  0.12699999809E+01 0.  1.
       -4    1    3    3    0  502 -0.63811556924E+03  0.10477601509E+04  0.75190827034E+03  0.14388747247E+04  0.12699999809E+01 0. -1.
</event>
<event>
 5   0  0.2904500E-09  0.3900072E+04  0.7818609E-02  0.8025014E-01
        1   -1    0    0  501    0  0.00000000000E+00  0.00000000000E+00  0.17561313301E+04  0.17561313301E+04  0.50400001928E-02 0.  1.
       -1   -1    0    0    0  501  0.00000000000E+00  0.00000000000E+00 -0.21653506533E+04  0.21653506533E+04  0.50400001928E-02 0. -1.
    10030    2    1    2    0    0  0.00000000000E+00  0.00000000000E+00 -0.40921932319E+03  0.39214819835E+04  0.39000718573E+04 0.  0.
        5    1    3    3  502    0  0.27320846577E+03 -0.10985900500E+04  0.13918961512E+04  0.17941404486E+04  0.46999998093E+01 0.  1.
       -5    1    3    3    0  502 -0.27320846577E+03  0.10985900500E+04 -0.18011154744E+04  0.21273415348E+04  0.46999998093E+01 0. -1.
</event>
<event>
 5   0  0.6335942E-09  0.3898827E+04  0.7818609E-02  0.8025273E-01
        2   -1    0    0  501    0  0.00000000000E+00  0.00000000000E+00  0.21391380781E+04  0.21391380781E+04  0.25500000920E-02 0.  1.
       -2   -1    0    0    0  501  0.00000000000E+00  0.00000000000E+00 -0.17765159723E+04  0.17765159723E+04  0.25500000920E-02 0. -1.
    10030    2    1    2    0    0  0.00000000000E+00  0.00000000000E+00  0.36262210581E+03  0.39156540503E+04  0.38988269839E+04 0.  0.
        2    1    3    3  502    0  0.92812846689E+03  0.14648906813E+04  0.10755954890E+04  0.20406451958E+04  0.25500000920E-02 0.  1.
       -2    1    3    3    0  502 -0.92812846689E+03 -0.14648906813E+04 -0.71297338319E+03  0.18750088545E+04  0.25500000920E-02 0. -1.
</event>
<event>
 5   0  0.2904500E-09  0.3902372E+04  0.7818609E-02  0.8024536E-01
        1   -1    0    0  501    0  0.00000000000E+00  0.00000000000E+00  0.13770201013E+04  0.13770201013E+04  0.50400001928E-02 0. -1.
       -1   -1    0    0    0  501  0.00000000000E+00  0.00000000000E+00 -0.27647580580E+04  0.27647580580E+04  0.50400001928E-02 0.  1.
    10030    2    1    2    0    0  0.00000000000E+00  0.00000000000E+00 -0.13877379567E+04  0.41417781593E+04  0.39023723150E+04 0.  0.
        2    1    3    3  502    0  0.70329090089E+03 -0.52921798545E+03  0.11543527516E+04  0.14516266884E+04  0.25500000920E-02 0. -1.
       -2    1    3    3    0  502 -0.70329090089E+03  0.52921798545E+03 -0.25420907083E+04  0.26901514709E+04  0.25500000920E-02 0.  1.
</event>
<event>
 5   0  0.6335942E-09  0.3899656E+04  0.7818609E-02  0.8025101E-01
       -2   -1    0    0    0  501  0.00000000000E+00  0.00000000000E+00  0.26713643259E+04  0.26713643259E+04  0.25500000920E-02 0. -1.
        2   -1    0    0  501    0  0.00000000000E+00  0.00000000000E+00 -0.14231788342E+04  0.14231788342E+04  0.25500000920E-02 0.  1.
    10030    2    1    2    0    0  0.00000000000E+00  0.00000000000E+00  0.12481854917E+04  0.40945431601E+04  0.38996559679E+04 0.  0.
        2    1    3    3  502    0  0.13934473086E+04  0.28933828057E+03  0.20235242098E+04  0.24738759610E+04  0.25500000920E-02 0. -1.
       -2    1    3    3    0  502 -0.13934473086E+04 -0.28933828057E+03 -0.77533871813E+03  0.16206671991E+04  0.25500000920E-02 0.  1.
</event>
<event>
 5   0  0.2904500E-09  0.3895694E+04  0.7818609E-02  0.8025925E-01
       -1   -1    0    0    0  501  0.00000000000E+00  0.00000000000E+00  0.22255618886E+04  0.22255618886E+04  0.50400001928E-02 0.  1.
        1   -1    0    0  501    0  0.00000000000E+00  0.00000000000E+00 -0.17047866626E+04  0.17047866626E+04  0.50400001928E-02 0. -1.
    10030    2    1    2    0    0  0.00000000000E+00  0.00000000000E+00  0.52077522599E+03  0.39303485511E+04  0.38956941484E+04 0.  0.
        5    1    3    3  502    0  0.28076370805E+03  0.13075317502E+04 -0.11684089180E+04  0.17758572655E+04  0.46999998093E+01 0. -1.
       -5    1    3    3    0  502 -0.28076370805E+03 -0.13075317502E+04  0.16891841440E+04  0.21544912857E+04  0.46999998093E+01 0.  1.
</event>
<event>
 5   0  0.9434114E-09  0.3900594E+04  0.7818609E-02  0.8024906E-01
       -2   -1    0    0    0  501  0.00000000000E+00  0.00000000000E+00  0.28556452358E+04  0.28556452358E+04  0.25500000920E-02 0.  1.
        2   -1    0    0  501    0  0.00000000000E+00  0.00000000000E+00 -0.13319786372E+04  0.13319786372E+04  0.25500000920E-02 0. -1.
    10030    2    1    2    0    0  0.00000000000E+00  0.00000000000E+00  0.15236665986E+04  0.41876238730E+04  0.39005940314E+04 0.  0.
        4    1    3    3  502    0  0.94049113798E+03  0.20419699525E+03  0.25829585460E+04  0.27564282064E+04  0.12699999809E+01 0.  1.
       -4    1    3    3    0  502 -0.94049113798E+03 -0.20419699525E+03 -0.10592919474E+04  0.14311956666E+04  0.12699999809E+01 0. -1.
</event>
<event>
 5   0  0.2929054E-09  0.3899798E+04  0.7818609E-02  0.8025071E-01
       -1   -1    0    0    0  501  0.00000000000E+00  0.00000000000E+00  0.14993959944E+04  0.14993959944E+04  0.50400001928E-02 0. -1.
        1   -1    0    0  501    0  0.00000000000E+00  0.00000000000E+00 -0.25357590892E+04  0.25357590892E+04  0.50400001928E-02 0.  1.
    10030    2    1    2    0    0  0.00000000000E+00  0.00000000000E+00 -0.10363630948E+04  0.40351550835E+04  0.38997984671E+04 0.  0.
        1    1    3    3  502    0 -0.16161922197E+04 -0.99993500863E+03 -0.96939009479E+03  0.21334630225E+04  0.50400001928E-02 0.  1.
       -1    1    3    3    0  502  0.16161922197E+04  0.99993500863E+03 -0.66972999994E+02  0.19016920611E+04  0.50400001928E-02 0. -1.
</event>
<event>
 5   0  0.2904500E-09  0.3899335E+04  0.7818609E-02  0.8025168E-01
        1   -1    0    0  501    0  0.00000000000E+00  0.00000000000E+00  0.12993016658E+04  0.12993016658E+04  0.50400001928E-02 0.  1.
       -1   -1    0    0    0  501  0.00000000000E+00  0.00000000000E+00 -0.29255741585E+04  0.29255741585E+04  0.50400001928E-02 0. -1.
    10030    2    1    2    0    0  0.00000000000E+00  0.00000000000E+00 -0.16262724927E+04  0.42248758243E+04  0.38993350087E+04 0.  0.
        5    1    3    3  502    0  0.13419222313E+03 -0.13136898705E+03 -0.29157461706E+04  0.29217910920E+04  0.46999998093E+01 0. -1.
       -5    1    3    3    0  502 -0.13419222313E+03  0.13136898705E+03  0.12894736779E+04  0.13030847323E+04  0.46999998093E+01 0.  1.
</event>
<event>
 5   0  0.2904500E-09  0.3900532E+04  0.7818609E-02  0.8024919E-01
        1   -1    0    0  501    0  0.00000000000E+00  0.00000000000E+00  0.24358514249E+04  0.24358514249E+04  0.50400001928E-02 0.  1.
       -1   -1    0    0    0  501  0.00000000000E+00  0.00000000000E+00 -0.15614814047E+04  0.15614814047E+04  0.50400001928E-02 0. -1.
    10030    2    1    2    0    0  0.00000000000E+00  0.00000000000E+00  0.87437002017E+03  0.39973328296E+04  0.39005316072E+04 0.  0.
        4    1    3    3  502    0  0.75986634159E+02 -0.27492026444E+03 -0.15399903651E+04  0.15661823194E+04  0.12699999809E+01 0. -1.
       -4    1    3    3    0  502 -0.75986634159E+02  0.27492026444E+03  0.24143603852E+04  0.24311505102E+04  0.12699999809E+01 0.  1.
</event>
<event>
 5   0  0.6335942E-09  0.3899933E+04  0.7818609E-02  0.8025043E-01
        2   -1    0    0  501    0  0.00000000000E+00  0.00000000000E+00  0.22798423463E+04  0.22798423463E+04  0.25500000920E-02 0. -1.
       -2   -1    0    0    0  501  0.00000000000E+00  0.00000000000E+00 -0.16678211912E+04  0.16678211912E+04  0.25500000920E-02 0.  1.
    10030    2    1    2    0    0  0.00000000000E+00  0.00000000000E+00  0.61202115515E+03  0.39476635375E+04  0.38999330137E+04 0.  0.
        2    1    3    3  502    0 -0.16558918250E+04 -0.97131734869E+03 -0.40131064404E+02  0.19201681256E+04  0.25500000920E-02 0.  1.
       -2    1    3    3    0  502  0.16558918250E+04  0.97131734869E+03  0.65215221956E+03  0.20274954120E+04  0.25500000920E-02 0. -1.
</event>
<event>
 5   0  0.9277261E-09  0.3900381E+04  0.7818609E-02  0.8024950E-01
        2   -1    0    0  501    0  0.00000000000E+00  0.00000000000E+00  0.20814059823E+04  0.20814059823E+04  0.25500000920E-02 0. -1.
       -2   -1    0    0    0  501  0.00000000000E+00  0.00000000000E+00 -0.18272466615E+04  0.18272466615E+04  0.25500000920E-02 0.  1.
    10030    2    1    2    0    0  0.00000000000E+00  0.00000000000E+00  0.25415932073E+03  0.39086526438E+04  0.39003805622E+04 0.  0.
        1    1    3    3  502    0 -0.14114229428E+04  0.50768545066E+03  0.13760707857E+04  0.20355417086E+04  0.50400001928E-02 0. -1.
       -1    1    3    3    0  502  0.14114229428E+04 -0.50768545066E+03 -0.11219114650E+04  0.18731109352E+04  0.50400001928E-02 0.  1.
</event>
<event>
 5   0  0.2904500E-09  0.3900211E+04  0.7818609E-02  0.8024985E-01
       -1   -1    0    0    0  501  0.00000000000E+00  0.00000000000E+00  0.26395256373E+04  0.26395256373E+04  0.50400001928E-02 0. -1.
        1   -1    0    0  501    0  0.00000000000E+00  0.00000000000E+00 -0.14407554137E+04  0.14407554137E+04  0.50400001928E-02 0.  1.
    10030    2    1    2    0    0  0.00000000000E+00  0.00000000000E+00  0.11987702236E+04  0.40802810510E+04  0.39002106874E+04 0.  0.
        3    1    3    3  502    0  0.60247713203E+03 -0.16683811425E+04 -0.24822938220E+03  0.17911147835E+04  0.10100000352E+00 0.  1.
       -3    1    3    3    0  502 -0.60247713203E+03  0.16683811425E+04  0.14469996058E+04  0.22891662675E+04  0.10100000352E+00 0. -1.
</event>
<event>
 5   0  0.9368546E-09  0.3898204E+04  0.7818609E-02  0.8025403E-01
        2   -1    0    0  501    0  0.00000000000E+00  0.00000000000E+00  0.22782742629E+04  0.22782742629E+04  0.25500000920E-02 0. -1.
       -2   -1    0    0    0  501  0.00000000000E+00  0.00000000000E+00 -0.16674893197E+04  0.16674893197E+04  0.25500000920E-02 0.  1.
    10030    2    1    2    0    0  0.00000000000E+00  0.00000000000E+00  0.61078494315E+03  0.39457635826E+04  0.38982036893E+04 0.  0.
        5    1    3    3  502    0  0.11381619969E+04  0.15765651393E+04  0.16957062859E+03  0.19518572330E+04  0.46999998093E+01 0. -1.
       -5    1    3    3    0  502 -0.11381619969E+04 -0.15765651393E+04  0.44121431456E+03  0.19939063496E+04  0.46999998093E+01 0.  1.
</event>
<event>
 5   0  0.9078515E-09  0.3899563E+04  0.7818609E-02  0.8025120E-01
        2   -1    0    0  501    0  0.00000000000E+00  0.00000000000E+00  0.27375865828E+04  0.27375865828E+04  0.25500000920E-02 0.  1.
       -2   -1    0    0    0  501  0.00000000000E+00  0.00000000000E+00 -0.13886858483E+04  0.13886858483E+04  0.25500000920E-02 0. -1.
    10030    2    1    2    0    0  0.00000000000E+00  0.00000000000E+00  0.13489007345E+04  0.41262724311E+04  0.38995629222E+04 0.  0.
        3    1    3    3  502    0 -0.17078699111E+04  0.74392186849E+03  0.12835995882E+04  0.22622703845E+04  0.10100000352E+00 0.  1.
       -3    1    3    3    0  502  0.17078699111E+04 -0.74392186849E+03  0.65301146235E+02  0.18640020465E+04  0.10100000352E+00 0. -1.
</event>
<event>
 5   0  0.9368546E-09  0.3913537E+04  0.7818609E-02  0.8022220E-01
        2   -1    0    0  501    0  0.00000000000E+00  0.00000000000E+00  0.20227082415E+04  0.20227082415E+04  0.25500000920E-02 0. -1.
       -2   -1    0    0    0  501  0.00000000000E+00  0.00000000000E+00 -0.18929779326E+04  0.18929779326E+04  0.25500000920E-02 0.  1.
    10030    2    1    2    0    0  0.00000000000E+00  0.00000000000E+00  0.12973030886E+03  0.39156861740E+04  0.39135365414E+04 0.  0.
        5    1    3    3  502    0  0.11753378051E+04  0.15366518008E+04  0.35862864204E+03  0.19675757434E+04  0.46999998093E+01 0. -1.
       -5    1    3    3    0  502 -0.11753378051E+04 -0.15366518008E+04 -0.22889833318E+03  0.19481104307E+04  0.46999998093E+01 0.  1.
</event>
<event>
 5   0  0.2904500E-09  0.3900776E+04  0.7818609E-02  0.8024868E-01
        1   -1    0    0  501    0  0.00000000000E+00  0.00000000000E+00  0.14553765755E+04  0.14553765755E+04  0.50400001928E-02 0. -1.
       -1   -1    0    0    0  501  0.00000000000E+00  0.00000000000E+00 -0.26137653409E+04  0.26137653409E+04  0.50400001928E-02 0.  1.
    10030    2    1    2    0    0  0.00000000000E+00  0.00000000000E+00 -0.11583887655E+04  0.40691419164E+04  0.39007757439E+04 0.  0.
        4    1    3    3  502    0  0.10624575862E+04  0.82081549177E+03 -0.20549858332E+04  0.24546939894E+04  0.12699999809E+01 0.  1.
       -4    1    3    3    0  502 -0.10624575862E+04 -0.82081549177E+03  0.89659706776E+03  0.16144479270E+04  0.12699999809E+01 0. -1.
</event>
<event>
 5   0  0.9434114E-09  0.3896575E+04  0.7818609E-02  0.8025742E-01
        2   -1    0    0  501    0  0.00000000000E+00  0.00000000000E+00  0.16711703619E+04  0.16711703619E+04  0.25500000920E-02 0.  1.
       -2   -1    0    0    0  501  0.00000000000E+00  0.00000000000E+00 -0.22713568171E+04  0.22713568171E+04  0.25500000920E-02 0. -1.
    10030    2    1    2    0    0  0.00000000000E+00  0.00000000000E+00 -0.60018645527E+03  0.39425271790E+04  0.38965750059E+04 0.  0.
        4    1    3    3  502    0 -0.52454941024E+03  0.50251719372E+03  0.15290278094E+04  0.16928092830E+04  0.12699999809E+01 0.  1.
       -4    1    3    3    0  502  0.52454941024E+03 -0.50251719372E+03 -0.21292142647E+04  0.22497178960E+04  0.12699999809E+01 0. -1.
</event>
<event>
 5   0  0.2904500E-09  0.3893174E+04  0.7818609E-02  0.8026450E-01
       -1   -1    0    0    0  501  0.00000000000E+00  0.00000000000E+00  0.27689813652E+04  0.27689813652E+04  0.50400001928E-02 0.  1.
        1   -1    0    0  501    0  0.00000000000E+00  0.00000000000E+00 -0.13684455882E+04  0.13684455882E+04  0.50400001928E-02 0. -1.
    10030    2    1    2    0    0  0.00000000000E+00  0.00000000000E+00  0.14005357770E+04  0.41374269534E+04  0.38931736838E+04 0.  0.
        4    1    3    3  502    0  0.38059687077E+03 -0.14896888698E+04 -0.56843571228E+03  0.16392521706E+04  0.12699999809E+01 0. -1.
       -4    1    3    3    0  502 -0.38059687077E+03  0.14896888698E+04  0.19689714892E+04  0.24981747828E+04  0.12699999809E+01 0.  1.
</event>
<event>
 5   0  0.2929054E-09  0.3898820E+04  0.7818609E-02  0.8025275E-01
       -1   -1    0    0    0  501  0.00000000000E+00  0.00000000000E+00  0.18206374643E+04  0.18206374643E+04  0.50400001928E-02 0.  1.
        1   -1    0    0  501    0  0.00000000000E+00  0.00000000000E+00 -0.20872903404E+04  0.20872903404E+04  0.50400001928E-02 0. -1.
    10030    2    1    2    0    0  0.00000000000E+00  0.00000000000E+00 -0.26665287611E+03  0.39079278048E+04  0.38988198177E+04 0.  0.
        1    1    3    3  502    0 -0.20729030468E+03  0.16801656959E+04 -0.11021624115E+04  0.20200712902E+04  0.50400001928E-02 0. -1.
       -1    1    3    3    0  502  0.20729030468E+03 -0.16801656959E+04  0.83550953537E+03  0.18878565146E+04  0.50400001928E-02 0.  1.
</event>
<event>
 5   0  0.2904500E-09  0.3899451E+04  0.7818609E-02  0.8025143E-01
       -1   -1    0    0    0  501  0.00000000000E+00  0.00000000000E+00  0.12931492975E+04  0.12931492976E+04  0.50400001928E-02 0.  1.
        1   -1    0    0  501    0  0.00000000000E+00  0.00000000000E+00 -0.29396676886E+04  0.29396676886E+04  0.50400001928E-02 0. -1.
    10030    2    1    2    0    0  0.00000000000E+00  0.00000000000E+00 -0.16465183910E+04  0.42328169861E+04  0.38994508365E+04 0.  0.
        2    1    3    3  502    0  0.12160564831E+04  0.14419648786E+04 -0.28775564883E+03  0.19081036122E+04  0.25500000920E-02 0.  1.
       -2    1    3    3    0  502 -0.12160564831E+04 -0.14419648786E+04 -0.13587627422E+04  0.23247133739E+04  0.25500000920E-02 0. -1.
</event>
<event>
 5   0  0.6335942E-09  0.3900547E+04  0.7818609E-02  0.8024915E-01
       -2   -1    0    0    0  501  0.00000000000E+00  0.00000000000E+00  0.18049434034E+04  0.18049434034E+04  0.25500000920E-02 0.  1.
        2   -1    0    0  501    0  0.00000000000E+00  0.00000000000E+00 -0.21073055329E+04  0.21073055329E+04  0.25500000920E-02 0. -1.
    10030    2    1    2    0    0  0.00000000000E+00  0.00000000000E+00 -0.30236212952E+03  0.39122489364E+04  0.39005472543E+04 0.  0.
        2    1    3    3  502    0  0.97639248049E+03 -0.13567333935E+04 -0.11589337857E+04  0.20340096600E+04  0.25500000920E-02 0.  1.
       -2    1    3    3    0  502 -0.97639248049E+03  0.13567333935E+04  0.85657165623E+03  0.18782392764E+04  0.25500000920E-02 0. -1.
</event>
<event>
 5   0  0.2904500E-09  0.3912200E+04  0.7818609E-02  0.8022497E-01
       -1   -1    0    0    0  501  0.00000000000E+00  0.00000000000E+00  0.13972748735E+04  0.13972748735E+04  0.50400001928E-02 0. -1.
        1   -1    0    0  501    0  0.00000000000E+00  0.00000000000E+00 -0.27384212478E+04  0.27384212479E+04  0.50400001928E-02 0.  1.
    10030    2    1    2    0    0  0.00000000000E+00  0.00000000000E+00 -0.13411463744E+04  0.41356961213E+04  0.39121999962E+04 0.  0.
        4    1    3    3  502    0 -0.64353539249E+03  0.12933265966E+04 -0.20648180490E+04  0.25199814831E+04  0.12699999809E+01 0.  1.
       -4    1    3    3    0  502  0.64353539249E+03 -0.12933265966E+04  0.72367167458E+03  0.16157146383E+04  0.12699999809E+01 0. -1.
</event>
<event>
 5   0  0.2929054E-09  0.3900504E+04  0.7818609E-02  0.8024924E-01
       -1   -1    0    0    0  501  0.00000000000E+00  0.00000000000E+00  0.32454548597E+04  0.32454548597E+04  0.50400001928E-02 0.  1.
        1   -1    0    0  501    0  0.00000000000E+00  0.00000000000E+00 -0.11719411308E+04  0.11719411308E+04  0.50400001928E-02 0. -1.
    10030    2    1    2    0    0  0.00000000000E+00  0.00000000000E+00  0.20735137288E+04  0.44173959905E+04  0.39005035769E+04 0.  0.
        1    1    3    3  502    0  0.16294432821E+04 -0.65028761498E+03  0.72103821227E+02  0.17558924662E+04  0.50400001928E-02 0. -1.
       -1    1    3    3    0  502 -0.16294432821E+04  0.65028761498E+03  0.20014099076E+04  0.26615035243E+04  0.50400001928E-02 0.  1.
</event>
<event>
 5   0  0.9277261E-09  0.3907119E+04  0.7818609E-02  0.8023550E-01
        2   -1    0    0  501    0  0.00000000000E+00  0.00000000000E+00  0.21604238420E+04  0.21604238420E+04  0.25500000920E-02 0. -1.
       -2   -1    0    0    0  501  0.00000000000E+00  0.00000000000E+00 -0.17665023498E+04  0.17665023498E+04  0.25500000920E-02 0.  1.
    10030    2    1    2    0    0  0.00000000000E+00  0.00000000000E+00  0.39392149217E+03  0.39269261919E+04  0.39071185258E+04 0.  0.
        1    1    3    3  502    0  0.13678003595E+04  0.12760952762E+04 -0.36900753607E+03  0.19066891564E+04  0.50400001928E-02 0. -1.
       -1    1    3    3    0  502 -0.13678003595E+04 -0.12760952762E+04  0.76292902824E+03  0.20202370355E+04  0.50400001928E-02 0.  1.
</event>
<event>
 5   0  0.9368546E-09  0.3901997E+04  0.7818609E-02  0.8024614E-01
        2   -1    0    0  501    0  0.00000000000E+00  0.00000000000E+00  0.26442026469E+04  0.26442026469E+04  0.25500000920E-02 0. -1.
       -2   -1    0    0    0  501  0.00000000000E+00  0.00000000000E+00 -0.14395247646E+04  0.14395247646E+04  0.25500000920E-02 0.  1.
    10030    2    1    2    0    0  0.00000000000E+00  0.00000000000E+00  0.12046778824E+04  0.40837274115E+04  0.39019970235E+04 0.  0.
        5    1    3    3  502    0  0.59020166742E+03 -0.14691861602E+04  0.17953994908E+04  0.23938102271E+04  0.46999998093E+01 0. -1.
       -5    1    3    3    0  502 -0.59020166742E+03  0.14691861602E+04 -0.59072160848E+03  0.16899171844E+04  0.46999998093E+01 0.  1.
</event>
<event>
 5   0  0.2904500E-09  0.3899770E+04  0.7818609E-02  0.8025077E-01
       -1   -1    0    0    0  501  0.00000000000E+00  0.00000000000E+00  0.27531471786E+04  0.27531471786E+04  0.50400001928E-02 0. -1.
        1   -1    0    0  501    0  0.00000000000E+00  0.00000000000E+00 -0.13809835971E+04  0.13809835971E+04  0.50400001928E-02 0.  1.
    10030    2    1    2    0    0  0.00000000000E+00  0.00000000000E+00  0.13721635814E+04  0.41341307757E+04  0.38997697850E+04 0.  0.
        2    1    3    3  502    0  0.18235610850E+04 -0.48100919945E+03  0.12111304029E+04  0.22413348107E+04  0.25500000920E-02 0.  1.
       -2    1    3    3    0  502 -0.18235610850E+04  0.48100919945E+03  0.16103317852E+03  0.18927959650E+04  0.25500000920E-02 0. -1.
</event>
<event>
 5   0  0.9434114E-09  0.3898959E+04  0.7818609E-02  0.8025246E-01
        2   -1    0    0  501    0  0.00000000000E+00  0.00000000000E+00  0.20042189290E+04  0.20042189290E+04  0.25500000920E-02 0. -1.
       -2   -1    0    0    0  501  0.00000000000E+00  0.00000000000E+00 -0.18962350770E+04  0.18962350770E+04  0.25500000920E-02 0.  1.
    10030    2    1    2    0    0  0.00000000000E+00  0.00000000000E+00  0.10798385198E+03  0.39004540060E+04  0.38989589560E+04 0.  0.
        4    1    3    3  502    0 -0.17770209497E+04 -0.72084762078E+03  0.40490253325E+03  0.19599419436E+04  0.12699999809E+01 0. -1.
       -4    1    3    3    0  502  0.17770209497E+04  0.72084762078E+03 -0.29691868126E+03  0.19405120624E+04  0.12699999809E+01 0.  1.
</event>
<event>
 5   0  0.6335942E-09  0.3900206E+04  0.7818609E-02  0.8024986E-01
       -2   -1    0    0    0  501  0.00000000000E+00  0.00000000000E+00  0.19546658902E+04  0.19546658902E+04  0.25500000920E-02 0.  1.
        2   -1    0    0  501    0  0.00000000000E+00  0.00000000000E+00 -0.19455509273E+04  0.19455509273E+04  0.25500000920E-02 0. -1.
    10030    2    1    2    0    0  0.00000000000E+00  0.00000000000E+00  0.91149629065E+01  0.39002168175E+04  0.39002061665E+04 0.  0.
        2    1    3    3  502    0  0.11931102157E+04 -0.71506939144E+03  0.13713332556E+04  0.19533026185E+04  0.25500000920E-02 0.  1.
       -2    1    3    3    0  502 -0.11931102157E+04  0.71506939144E+03 -0.13622182927E+04  0.19469141990E+04  0.25500000920E-02 0. -1.
</event>
<event>
 5   0  0.2929054E-09  0.3903579E+04  0.7818609E-02  0.8024285E-01
       -1   -1    0    0    0  501  0.00000000000E+00  0.00000000000E+00  0.24751235737E+04  0.24751235737E+04  0.50400001928E-02 0. -1.
        1   -1    0    0  501    0  0.00000000000E+00  0.00000000000E+00 -0.15391078095E+04  0.15391078096E+04  0.50400001928E-02 0.  1.
    10030    2    1    2    0    0  0.00000000000E+00  0.00000000000E+00  0.93601576414E+03  0.40142313833E+04  0.39035788819E+04 0.  0.
        1    1    3    3  502    0  0.35406973902E+03 -0.67684105742E+02  0.24405938570E+04  0.24670721297E+04  0.50400001928E-02 0. -1.
       -1    1    3    3    0  502 -0.35406973902E+03  0.67684105742E+02 -0.15045780929E+04  0.15471592535E+04  0.50400001928E-02 0.  1.
</event>
<event>
 5   0  0.6335942E-09  0.3900306E+04  0.7818609E-02  0.8024966E-01
       -2   -1    0    0    0  501  0.00000000000E+00  0.00000000000E+00  0.25914644697E+04  0.25914644697E+04  0.25500000920E-02 0.  1.
        2   -1    0    0  501    0  0.00000000000E+00  0.00000000000E+00 -0.14675473431E+04  0.14675473431E+04  0.25500000920E-02 0. -1.
    10030    2    1    2    0    0  0.00000000000E+00  0.00000000000E+00  0.11239171266E+04  0.40590118128E+04  0.39003060378E+04 0.  0.
        2    1    3    3  502    0  0.16085210640E+04 -0.10962082562E+04  0.68546465625E+03  0.20637040363E+04  0.25500000920E-02 0.  1.
       -2    1    3    3    0  502 -0.16085210640E+04  0.10962082562E+04  0.43845247036E+03  0.19953077765E+04  0.25500000920E-02 0. -1.
</event>
<event>
 5   0  0.2904500E-09  0.3898988E+04  0.7818609E-02  0.8025240E-01
       -1   -1    0    0    0  501  0.00000000000E+00  0.00000000000E+00  0.13543747726E+04  0.13543747727E+04  0.50400001928E-02 0. -1.
        1   -1    0    0  501    0  0.00000000000E+00  0.00000000000E+00 -0.28061110055E+04  0.28061110055E+04  0.50400001928E-02 0.  1.
    10030    2    1    2    0    0  0.00000000000E+00  0.00000000000E+00 -0.14517362329E+04  0.41604857782E+04  0.38989875379E+04 0.  0.
        2    1    3    3  502    0 -0.13420936681E+04 -0.38157036134E+02 -0.22341208868E+04  0.26065240283E+04  0.25500000920E-02 0.  1.
       -2    1    3    3    0  502  0.13420936681E+04  0.38157036134E+02  0.78238465390E+03  0.15539617499E+04  0.25500000920E-02 0. -1.
</event>
<event>
 5   0  0.2904500E-09  0.3900126E+04  0.7818609E-02  0.8025003E-01
        1   -1    0    0  501    0  0.00000000000E+00  0.00000000000E+00  0.28593729026E+04  0.28593729026E+04  0.50400001928E-02 0. -1.
       -1   -1    0    0    0  501  0.00000000000E+00  0.00000000000E+00 -0.13299229339E+04  0.13299229339E+04  0.50400001928E-02 0.  1.
    10030    2    1    2    0    0  0.00000000000E+00  0.00000000000E+00  0.15294499687E+04  0.41892958365E+04  0.39001259466E+04 0.  0.
        4    1    3    3  502    0  0.14227082496E+04 -0.77518091096E+03  0.19304257188E+04  0.25202280209E+04  0.12699999809E+01 0. -1.
       -4    1    3    3    0  502 -0.14227082496E+04  0.77518091096E+03 -0.40097575007E+03  0.16690678157E+04  0.12699999809E+01 0.  1.
</event>
<event>
 5   0  0.9434114E-09  0.3900534E+04  0.7818609E-02  0.8024918E-01
       -2   -1    0    0    0  501  0.00000000000E+00  0.00000000000E+00  0.19101335828E+04  0.19101335828E+04  0.25500000920E-02 0. -1.
        2   -1    0    0  501    0  0.00000000000E+00  0.00000000000E+00 -0.19912435512E+04  0.19912435512E+04  0.25500000920E-02 0.  1.
    10030    2    1    2    0    0  0.00000000000E+00  0.00000000000E+00 -0.81109968383E+02  0.39013771339E+04  0.39005339012E+04 0.  0.
        4    1    3    3  502    0  0.59645019034E+03  0.11480821846E+04  0.14191076290E+04  0.19203420549E+04  0.12699999809E+01 0. -1.
       -4    1    3    3    0  502 -0.59645019034E+03 -0.11480821846E+04 -0.15002175974E+04  0.19810350791E+04  0.12699999809E+01 0.  1.
</event>
<event>
 5   0  0.6335942E-09  0.3899520E+04  0.7818609E-02  0.8025129E-01
       -2   -1    0    0    0  501  0.00000000000E+00  0.00000000000E+00  0.26847996218E+04  0.26847996218E+04  0.25500000920E-02 0. -1.
        2   -1    0    0  501    0  0.00000000000E+00  0.00000000000E+00 -0.14159580950E+04  0.14159580950E+04  0.25500000920E-02 0.  1.
    10030    2    1    2    0    0  0.00000000000E+00  0.00000000000E+00  0.12688415268E+04  0.41007577168E+04  0.38995198463E+04 0.  0.
        2    1    3    3  502    0  0.12307202629E+04 -0.14355361264E+04  0.13435215598E+03  0.18956494500E+04  0.25500000920E-02 0. -1.
       -2    1    3    3    0  502 -0.12307202629E+04  0.14355361264E+04  0.11344893708E+04  0.22051082667E+04  0.25500000920E-02 0.  1.
</event>
<event>
 5   0  0.2929054E-09  0.3894281E+04  0.7818609E-02  0.8026220E-01
       -1   -1    0    0    0  501  0.00000000000E+00  0.00000000000E+00  0.17745332076E+04  0.17745332076E+04  0.50400001928E-02 0. -1.
        1   -1    0    0  501    0  0.00000000000E+00  0.00000000000E+00 -0.21365367185E+04  0.21365367185E+04  0.50400001928E-02 0.  1.
    10030    2    1    2    0    0  0.00000000000E+00  0.00000000000E+00 -0.36200351086E+03  0.39110699261E+04  0.38942806043E+04 0.  0.
        1    1    3    3  502    0  0.82251975412E+03 -0.16615835376E+04  0.41650585789E+03  0.19002304408E+04  0.50400001928E-02 0. -1.
       -1    1    3    3    0  502 -0.82251975412E+03  0.16615835376E+04 -0.77850936875E+03  0.20108394853E+04  0.50400001928E-02 0.  1.
</event>
<event>
 5   0  0.2904500E-09  0.3899140E+04  0.7818609E-02  0.8025208E-01
       -1   -1    0    0    0  501  0.00000000000E+00  0.00000000000E+00  0.12299597283E+04  0.12299597283E+04  0.50400001928E-02 0. -1.
        1   -1    0    0  501    0  0.00000000000E+00  0.00000000000E+00 -0.30902020946E+04  0.30902020946E+04  0.50400001928E-02 0.  1.
    10030    2    1    2    0    0  0.00000000000E+00  0.00000000000E+00 -0.18602423663E+04  0.43201618229E+04  0.38991404841E+04 0.  0.
        2    1    3    3  502    0 -0.10735049650E+04 -0.54546595137E+03 -0.26289365795E+04  0.28915832260E+04  0.25500000920E-02 0.  1.
       -2    1    3    3    0  502  0.10735049650E+04  0.54546595137E+03  0.76869421324E+03  0.14285785968E+04  0.25500000920E-02 0. -1.
</event>
<event>
 5   0  0.9277261E-09  0.3899656E+04  0.7818609E-02  0.8025101E-01
        2   -1    0    0  501    0  0.00000000000E+00  0.00000000000E+00  0.19704908229E+04  0.19704908229E+04  0.25500000920E-02 0.  1.
       -2   -1    0    0    0  501  0.00000000000E+00  0.00000000000E+00 -0.19293820944E+04  0.19293820944E+04  0.25500000920E-02 0. -1.
    10030    2    1    2    0    0  0.00000000000E+00  0.00000000000E+00  0.41108728518E+02  0.38998729172E+04  0.38996562468E+04 0.  0.
        1    1    3    3  502    0  0.65514736174E+03  0.16042546009E+04  0.91446018031E+03  0.19593591584E+04  0.50400001928E-02 0.  1.
       -1    1    3    3    0  502 -0.65514736174E+03 -0.16042546009E+04 -0.87335145179E+03  0.19405137589E+04  0.50400001928E-02 0. -1.
</event>
<event>
 5   0  0.9368546E-09  0.3900624E+04  0.7818609E-02  0.8024899E-01
        2   -1    0    0  501    0  0.00000000000E+00  0.00000000000E+00  0.20624662358E+04  0.20624662358E+04  0.25500000920E-02 0. -1.
       -2   -1    0    0    0  501  0.00000000000E+00  0.00000000000E+00 -0.18442567152E+04  0.18442567152E+04  0.25500000920E-02 0.  1.
    10030    2    1    2    0    0  0.00000000000E+00  0.00000000000E+00  0.21820952064E+03  0.39067229511E+04  0.39006241579E+04 0.  0.
        5    1    3    3  502    0  0.12334112240E+04 -0.11335444174E+04 -0.89119046160E+03  0.18974901113E+04  0.46999998093E+01 0.  1.
       -5    1    3    3    0  502 -0.12334112240E+04  0.11335444174E+04  0.11093999822E+04  0.20092328397E+04  0.46999998093E+01 0. -1.
</event>
<event>
 5   0  0.2929054E-09  0.3902203E+04  0.7818609E-02  0.8024571E-01
        1   -1    0    0  501    0  0.00000000000E+00  0.00000000000E+00  0.29521761991E+04  0.29521761991E+04  0.50400001928E-02 0. -1.
       -1   -1    0    0    0  501  0.00000000000E+00  0.00000000000E+00 -0.12894883775E+04  0.12894883775E+04  0.50400001928E-02 0.  1.
    10030    2    1    2    0    0  0.00000000000E+00  0.00000000000E+00  0.16626878216E+04  0.42416645767E+04  0.39022029149E+04 0.  0.
        1    1    3    3  502    0 -0.10840400311E+04 -0.93594312167E+01  0.25946741232E+04  0.28120391522E+04  0.50400001928E-02 0. -1.
       -1    1    3    3    0  502  0.10840400311E+04  0.93594312167E+01 -0.93198630160E+03  0.14296254245E+04  0.50400001928E-02 0.  1.
</event>
<event>
 5   0  0.9434114E-09  0.3899684E+04  0.7818609E-02  0.8025095E-01
        2   -1    0    0  501    0  0.00000000000E+00  0.00000000000E+00  0.21837139302E+04  0.21837139302E+04  0.25500000920E-02 0.  1.
       -2   -1    0    0    0  501  0.00000000000E+00  0.00000000000E+00 -0.17410170822E+04  0.17410170822E+04  0.25500000920E-02 0. -1.
    10030    2    1    2    0    0  0.00000000000E+00  0.00000000000E+00  0.44269684804E+03  0.39247310124E+04  0.38996837078E+04 0.  0.
        4    1    3    3  502    0 -0.16532362730E+04  0.75212507100E+03  0.93512817432E+03  0.20428775323E+04  0.12699999809E+01 0.  1.
       -4    1    3    3    0  502  0.16532362730E+04 -0.75212507100E+03 -0.49243132628E+03  0.18818534801E+04  0.12699999809E+01 0. -1.
</event>
<event>
 5   0  0.9434114E-09  0.3900337E+04  0.7818609E-02  0.8024959E-01
       -2   -1    0    0    0  501  0.00000000000E+00  0.00000000000E+00  0.28423109185E+04  0.28423109185E+04  0.25500000920E-02 0.  1.
        2   -1    0    0  501    0  0.00000000000E+00  0.00000000000E+00 -0.13380509479E+04  0.13380509479E+04  0.25500000920E-02 0. -1.
    10030    2    1    2    0    0  0.00000000000E+00  0.00000000000E+00  0.15042599707E+04  0.41803618664E+04  0.39003368156E+04 0.  0.
        4    1    3    3  502    0 -0.56914973184E+03  0.14895064976E+04  0.19555006336E+04  0.25232014118E+04  0.12699999809E+01 0.  1.
       -4    1    3    3    0  502  0.56914973184E+03 -0.14895064976E+04 -0.45124066297E+03  0.16571604546E+04  0.12699999809E+01 0. -1.
</event>
<event>
 5   0  0.9434114E-09  0.3900716E+04  0.7818609E-02  0.8024880E-01
       -2   -1    0    0    0  501  0.00000000000E+00  0.00000000000E+00  0.26105326560E+04  0.26105326560E+04  0.25500000920E-02 0.  1.
        2   -1    0    0  501    0  0.00000000000E+00  0.00000000000E+00 -0.14571345216E+04  0.14571345216E+04  0.25500000920E-02 0. -1.
    10030    2    1    2    0    0  0.00000000000E+00  0.00000000000E+00  0.11533981344E+04  0.40676671776E+04  0.39007164741E+04 0.  0.
        4    1    3    3  502    0 -0.10372835055E+04  0.16406645912E+04  0.37840722893E+03  0.19776073967E+04  0.12699999809E+01 0.  1.
       -4    1    3    3    0  502  0.10372835055E+04 -0.16406645912E+04  0.77499090546E+03  0.20900597810E+04  0.12699999809E+01 0. -1.
</event>
<event>
 5   0  0.9078515E-09  0.3898311E+04  0.7818609E-02  0.8025381E-01
        2   -1    0    0  501    0  0.00000000000E+00  0.00000000000E+00  0.19280157870E+04  0.19280157870E+04  0.25500000920E-02 0. -1.
       -2   -1    0    0    0  501  0.00000000000E+00  0.00000000000E+00 -0.19705265072E+04  0.19705265072E+04  0.25500000920E-02 0.  1.
    10030    2    1    2    0    0  0.00000000000E+00  0.00000000000E+00 -0.42510720262E+02  0.38985422942E+04  0.38983105134E+04 0.  0.
        3    1    3    3  502    0 -0.95246982414E+03  0.10160657417E+04  0.13425037782E+04  0.19344003624E+04  0.10100000352E+00 0. -1.
       -3    1    3    3    0  502  0.95246982414E+03 -0.10160657417E+04 -0.13850144985E+04  0.19641419318E+04  0.10100000352E+00 0.  1.
</event>
<event>
 5   0  0.2929054E-09  0.3898599E+04  0.7818609E-02  0.8025321E-01
        1   -1    0    0  501    0  0.00000000000E+00  0.00000000000E+00  0.19235841901E+04  0.19235841901E+04  0.50400001928E-02 0. -1.
       -1   -1    0    0    0  501  0.00000000000E+00  0.00000000000E+00 -0.19753583403E+04  0.19753583403E+04  0.50400001928E-02 0.  1.
    10030    2    1    2    0    0  0.00000000000E+00  0.00000000000E+00 -0.51774150225E+02  0.38989425304E+04  0.38985987601E+04 0.  0.
        1    1    3    3  502    0 -0.87284099919E+03  0.15553443803E+04 -0.81260790201E+03  0.19599181497E+04  0.50400001928E-02 0. -1.
       -1    1    3    3    0  502  0.87284099919E+03 -0.15553443803E+04  0.76083375178E+03  0.19390243807E+04  0.50400001928E-02 0.  1.
</event>
<event>
 5   0  0.6335942E-09  0.3899573E+04  0.7818609E-02  0.8025118E-01
        2   -1    0    0  501    0  0.00000000000E+00  0.00000000000E+00  0.20599501046E+04  0.20599501046E+04  0.25500000920E-02 0.  1.
       -2   -1    0    0    0  501  0.00000000000E+00  0.00000000000E+00 -0.18455147087E+04  0.18455147087E+04  0.25500000920E-02 0. -1.
    10030    2    1    2    0    0  0.00000000000E+00  0.00000000000E+00  0.21443539589E+03  0.39054648133E+04  0.38995734214E+04 0.  0.
        2    1    3    3  502    0 -0.15208756810E+02 -0.11429307710E+04 -0.14747718992E+04  0.18658708980E+04  0.25500000920E-02 0. -1.
       -2    1    3    3    0  502  0.15208756810E+02  0.11429307710E+04  0.16892072951E+04  0.20395939153E+04  0.25500000920E-02 0.  1.
</event>
<event>
 5   0  0.9277261E-09  0.3900551E+04  0.7818609E-02  0.8024915E-01
       -2   -1    0    0    0  501  0.00000000000E+00  0.00000000000E+00  0.27376687030E+04  0.27376687030E+04  0.25500000920E-02 0.  1.
        2   -1    0    0  501    0  0.00000000000E+00  0.00000000000E+00 -0.13893476606E+04  0.13893476606E+04  0.25500000920E-02 0. -1.
    10030    2    1    2    0    0  0.00000000000E+00  0.00000000000E+00  0.13483210424E+04  0.41270163636E+04  0.39005505294E+04 0.  0.
        1    1    3    3  502    0 -0.63327802860E+02 -0.83854801250E+03  0.25359854543E+04  0.26717775739E+04  0.50400001928E-02 0.  1.
       -1    1    3    3    0  502  0.63327802860E+02  0.83854801250E+03 -0.11876644119E+04  0.14552387898E+04  0.50400001928E-02 0. -1.
</event>
<event>
 5   0  0.2904500E-09  0.3901114E+04  0.7818609E-02  0.8024798E-01
       -1   -1    0    0    0  501  0.00000000000E+00  0.00000000000E+00  0.26433227904E+04  0.26433227904E+04  0.50400001928E-02 0.  1.
        1   -1    0    0  501    0  0.00000000000E+00  0.00000000000E+00 -0.14393521944E+04  0.14393521944E+04  0.50400001928E-02 0. -1.
    10030    2    1    2    0    0  0.00000000000E+00  0.00000000000E+00  0.12039705960E+04  0.40826749848E+04  0.39011139224E+04 0.  0.
        2    1    3    3  502    0  0.17766413907E+04  0.71188080605E+03  0.20839195703E+03  0.19252678050E+04  0.25500000920E-02 0. -1.
       -2    1    3    3    0  502 -0.17766413907E+04 -0.71188080605E+03  0.99557863893E+03  0.21574071798E+04  0.25500000920E-02 0.  1.
</event>
<event>
 5   0  0.2904500E-09  0.3899617E+04  0.7818609E-02  0.8025109E-01
       -1   -1    0    0    0  501  0.00000000000E+00  0.00000000000E+00  0.18385310721E+04  0.18385310721E+04  0.50400001928E-02 0.  1.
        1   -1    0    0  501    0  0.00000000000E+00  0.00000000000E+00 -0.20678206719E+04  0.20678206719E+04  0.50400001928E-02 0. -1.
    10030    2    1    2    0    0  0.00000000000E+00  0.00000000000E+00 -0.22928959976E+03  0.39063517440E+04  0.38996166770E+04 0.  0.
        2    1    3    3  502    0  0.14406786392E+04  0.23866011811E+03 -0.14088665202E+04  0.20291422979E+04  0.25500000920E-02 0. -1.
       -2    1    3    3    0  502 -0.14406786392E+04 -0.23866011811E+03  0.11795769205E+04  0.18772094461E+04  0.25500000920E-02 0.  1.
</event>
<event>
 5   0  0.9434114E-09  0.3900574E+04  0.7818609E-02  0.8024910E-01
       -2   -1    0    0    0  501  0.00000000000E+00  0.00000000000E+00  0.14197169811E+04  0.14197169811E+04  0.25500000920E-02 0. -1.
        2   -1    0    0  501    0  0.00000000000E+00  0.00000000000E+00 -0.26791388313E+04  0.26791388313E+04  0.25500000920E-02 0.  1.
    10030    2    1    2    0    0  0.00000000000E+00  0.00000000000E+00 -0.12594218503E+04  0.40988558124E+04  0.39005737493E+04 0.  0.
        4    1    3    3  502    0 -0.16864876904E+03  0.95910975352E+03 -0.24053666024E+04  0.25950190811E+04  0.12699999809E+01 0.  1.
       -4    1    3    3    0  502  0.16864876904E+03 -0.95910975352E+03  0.11459447521E+04  0.15038367313E+04  0.12699999809E+01 0. -1.
</event>
<event>
 5   0  0.6335942E-09  0.3903349E+04  0.7818609E-02  0.8024333E-01
        2   -1    0    0  501    0  0.00000000000E+00  0.00000000000E+00  0.24852052186E+04  0.24852052186E+04  0.25500000920E-02 0. -1.
       -2   -1    0    0    0  501  0.00000000000E+00  0.00000000000E+00 -0.15326838124E+04  0.15326838124E+04  0.25500000920E-02 0.  1.
    10030    2    1    2    0    0  0.00000000000E+00  0.00000000000E+00  0.95252140624E+03  0.40178890310E+04  0.39033492332E+04 0.  0.
        2    1    3    3  502    0 -0.14877056345E+04 -0.12091112513E+04  0.85280330770E+03  0.20982115133E+04  0.25500000920E-02 0.  1.
       -2    1    3    3    0  502  0.14877056345E+04  0.12091112513E+04  0.99718098542E+02  0.19196775177E+04  0.25500000920E-02 0. -1.
</event>
<event>
 5   0  0.9434114E-09  0.3904232E+04  0.7818609E-02  0.8024150E-01
       -2   -1    0    0    0  501  0.00000000000E+00  0.00000000000E+00  0.19408847838E+04  0.19408847838E+04  0.25500000920E-02 0. -1.
        2   -1    0    0  501    0  0.00000000000E+00  0.00000000000E+00 -0.19634121740E+04  0.19634121740E+04  0.25500000920E-02 0.  1.
    10030    2    1    2    0    0  0.00000000000E+00  0.00000000000E+00 -0.22527390227E+02  0.39042969579E+04  0.39042319670E+04 0.  0.
        4    1    3    3  502    0 -0.16297894910E+04 -0.78899743468E+03  0.71814851735E+03  0.19479398458E+04  0.12699999809E+01 0. -1.
       -4    1    3    3    0  502  0.16297894910E+04  0.78899743468E+03 -0.74067590758E+03  0.19563571121E+04  0.12699999809E+01 0.  1.
</event>
<event>
 5   0  0.2904500E-09  0.3900834E+04  0.7818609E-02  0.8024856E-01
       -1   -1    0    0    0  501  0.00000000000E+00  0.00000000000E+00  0.15087776696E+04  0.15087776696E+04  0.50400001928E-02 0. -1.
        1   -1    0    0  501    0  0.00000000000E+00  0.00000000000E+00 -0.25213294560E+04  0.25213294560E+04  0.50400001928E-02 0.  1.
    10030    2    1    2    0    0  0.00000000000E+00  0.00000000000E+00 -0.10125517864E+04  0.40301071257E+04  0.39008335423E+04 0.  0.
        3    1    3    3  502    0  0.78458252410E+03  0.17568783864E+04 -0.17642393563E+03  0.19321792921E+04  0.10100000352E+00 0.  1.
       -3    1    3    3    0  502 -0.78458252410E+03 -0.17568783864E+04 -0.83612785077E+03  0.20979278335E+04  0.10100000352E+00 0. -1.
</event>
<event>
 5   0  0.2904500E-09  0.3897589E+04  0.7818609E-02  0.8025531E-01
       -3   -1    0    0    0  501  0.00000000000E+00  0.00000000000E+00  0.13706875937E+04  0.13706875975E+04  0.10100000352E+00 0.  1.
        3   -1    0    0  501    0  0.00000000000E+00  0.00000000000E+00 -0.27707258931E+04  0.27707258949E+04  0.10100000352E+00 0. -1.
    10030    2    1    2    0    0  0.00000000000E+00  0.00000000000E+00 -0.14000382994E+04  0.41414134924E+04  0.38975888027E+04 0.  0.
        5    1    3    3  502    0  0.54578237659E+03 -0.15614156685E+04 -0.17949592063E+04  0.24408600809E+04  0.46999998093E+01 0. -1.
       -5    1    3    3    0  502 -0.54578237659E+03  0.15614156685E+04  0.39492090698E+03  0.17005534114E+04  0.46999998093E+01 0.  1.
</event>
<event>
 5   0  0.2904500E-09  0.3900394E+04  0.7818609E-02  0.8024947E-01
        1   -1    0    0  501    0  0.00000000000E+00  0.00000000000E+00  0.28206254801E+04  0.28206254801E+04  0.50400001928E-02 0. -1.
       -1   -1    0    0    0  501  0.00000000000E+00  0.00000000000E+00 -0.13483778366E+04  0.13483778366E+04  0.50400001928E-02 0.  1.
    10030    2    1    2    0    0  0.00000000000E+00  0.00000000000E+00  0.14722476435E+04  0.41690033167E+04  0.39003942789E+04 0.  0.
        3    1    3    3  502    0 -0.16700938420E+04  0.30496582681E+03  0.17619307647E+04  0.24467565523E+04  0.10100000352E+00 0. -1.
       -3    1    3    3    0  502  0.16700938420E+04 -0.30496582681E+03 -0.28968312121E+03  0.17222467644E+04  0.10100000352E+00 0.  1.
</event>
<event>
 5   0  0.6335942E-09  0.3901125E+04  0.7818609E-02  0.8024795E-01
       -2   -1    0    0    0  501  0.00000000000E+00  0.00000000000E+00  0.23309577186E+04  0.23309577186E+04  0.25500000920E-02 0.  1.
        2   -1    0    0  501    0  0.00000000000E+00  0.00000000000E+00 -0.16322449731E+04  0.16322449731E+04  0.25500000920E-02 0. -1.
    10030    2    1    2    0    0  0.00000000000E+00  0.00000000000E+00  0.69871274545E+03  0.39632026917E+04  0.39011249755E+04 0.  0.
        2    1    3    3  502    0 -0.19475349973E+04  0.32863591025E+02  0.45454842476E+03  0.20001467075E+04  0.25500000920E-02 0.  1.
       -2    1    3    3    0  502  0.19475349973E+04 -0.32863591025E+02  0.24416432069E+03  0.19630559841E+04  0.25500000920E-02 0. -1.
</event>
<event>
 5   0  0.9368546E-09  0.3900276E+04  0.7818609E-02  0.8024972E-01
        2   -1    0    0  501    0  0.00000000000E+00  0.00000000000E+00  0.30693433844E+04  0.30693433844E+04  0.25500000920E-02 0. -1.
       -2   -1    0    0    0  501  0.00000000000E+00  0.00000000000E+00 -0.12390398257E+04  0.12390398257E+04  0.25500000920E-02 0.  1.
    10030    2    1    2    0    0  0.00000000000E+00  0.00000000000E+00  0.18303035587E+04  0.43083832101E+04  0.39002762425E+04 0.  0.
        5    1    3    3  502    0 -0.34763999205E+03  0.51500996573E+03 -0.11267594454E+04  0.12867391991E+04  0.46999998093E+01 0.  1.
       -5    1    3    3    0  502  0.34763999205E+03 -0.51500996573E+03  0.29570630041E+04  0.30216440109E+04  0.46999998093E+01 0. -1.
</event>
<event>
 5   0  0.2904500E-09  0.3900175E+04  0.7818609E-02  0.8024993E-01
       -1   -1    0    0    0  501  0.00000000000E+00  0.00000000000E+00  0.25132347644E+04  0.25132347644E+04  0.50400001928E-02 0.  1.
        1   -1    0    0  501    0  0.00000000000E+00  0.00000000000E+00 -0.15131264743E+04  0.15131264743E+04  0.50400001928E-02 0. -1.
    10030    2    1    2    0    0  0.00000000000E+00  0.00000000000E+00  0.10001082901E+04  0.40263612386E+04  0.39001754104E+04 0.  0.
        2    1    3    3  502    0  0.15053590939E+04 -0.87676392292E+03  0.14047761776E+04  0.22379046198E+04  0.25500000920E-02 0.  1.
       -2    1    3    3    0  502 -0.15053590939E+04  0.87676392292E+03 -0.40466788753E+03  0.17884566188E+04  0.25500000920E-02 0. -1.
</event>
<event>
 5   0  0.2929054E-09  0.3900267E+04  0.7818609E-02  0.8024974E-01
        1   -1    0    0  501    0  0.00000000000E+00  0.00000000000E+00  0.24878918178E+04  0.24878918178E+04  0.50400001928E-02 0. -1.
       -1   -1    0    0    0  501  0.00000000000E+00  0.00000000000E+00 -0.15286117283E+04  0.15286117284E+04  0.50400001928E-02 0.  1.
    10030    2    1    2    0    0  0.00000000000E+00  0.00000000000E+00  0.95928008947E+03  0.40165035462E+04  0.39002669712E+04 0.  0.
        1    1    3    3  502    0 -0.17198649170E+04  0.66629923434E+03 -0.17258387328E+03  0.18524781229E+04  0.50400001928E-02 0.  1.
       -1    1    3    3    0  502  0.17198649170E+04 -0.66629923434E+03  0.11318639628E+04  0.21640254233E+04  0.50400001928E-02 0. -1.
</event>
<event>
 5   0  0.6335942E-09  0.3899308E+04  0.7818609E-02  0.8025173E-01
       -2   -1    0    0    0  501  0.00000000000E+00  0.00000000000E+00  0.18082334734E+04  0.18082334734E+04  0.25500000920E-02 0.  1.
        2   -1    0    0  501    0  0.00000000000E+00  0.00000000000E+00 -0.21021349852E+04  0.21021349853E+04  0.25500000920E-02 0. -1.
    10030    2    1    2    0    0  0.00000000000E+00  0.00000000000E+00 -0.29390151185E+03  0.39103684587E+04  0.38993080647E+04 0.  0.
        2    1    3    3  502    0 -0.16935967708E+04 -0.95044878287E+02 -0.11108468691E+04  0.20276302221E+04  0.25500000920E-02 0.  1.
       -2    1    3    3    0  502  0.16935967708E+04  0.95044878287E+02  0.81694535722E+03  0.18827382366E+04  0.25500000920E-02 0. -1.
</event>
<event>
 5   0  0.9434114E-09  0.3901277E+04  0.7818609E-02  0.8024764E-01
        2   -1    0    0  501    0  0.00000000000E+00  0.00000000000E+00  0.25090573062E+04  0.25090573062E+04  0.25500000920E-02 0.  1.
       -2   -1    0    0    0  501  0.00000000000E+00  0.00000000000E+00 -0.15165021560E+04  0.15165021560E+04  0.25500000920E-02 0. -1.
    10030    2    1    2    0    0  0.00000000000E+00  0.00000000000E+00  0.99255515024E+03  0.40255594623E+04  0.39012771316E+04 0.  0.
        4    1    3    3  502    0 -0.59996751886E+02  0.77275213830E+03  0.23433427295E+04  0.24681981764E+04  0.12699999809E+01 0.  1.
       -4    1    3    3    0  502  0.59996751886E+02 -0.77275213830E+03 -0.13507875792E+04  0.15573612858E+04  0.12699999809E+01 0. -1.
</event>
<event>
 5   0  0.2929054E-09  0.3889273E+04  0.7818609E-02  0.8027264E-01
       -1   -1    0    0    0  501  0.00000000000E+00  0.00000000000E+00  0.15593062724E+04  0.15593062724E+04  0.50400001928E-02 0.  1.
        1   -1    0    0  501    0  0.00000000000E+00  0.00000000000E+00 -0.24251877504E+04  0.24251877504E+04  0.50400001928E-02 0. -1.
    10030    2    1    2    0    0  0.00000000000E+00  0.00000000000E+00 -0.86588147803E+03  0.39844940228E+04  0.38892726677E+04 0.  0.
        1    1    3    3  502    0 -0.15385045482E+04 -0.32087059098E+03 -0.16062562479E+04  0.22472234679E+04  0.50400001928E-02 0. -1.
       -1    1    3    3    0  502  0.15385045482E+04  0.32087059098E+03  0.74037476989E+03  0.17372705549E+04  0.50400001928E-02 0.  1.
</event>
<event>
 5   0  0.9277261E-09  0.3899389E+04  0.7818609E-02  0.8025156E-01
       -2   -1    0    0    0  501  0.00000000000E+00  0.00000000000E+00  0.23245824352E+04  0.23245824352E+04  0.25500000920E-02 0.  1.
        2   -1    0    0  501    0  0.00000000000E+00  0.00000000000E+00 -0.16352652604E+04  0.16352652605E+04  0.25500000920E-02 0. -1.
    10030    2    1    2    0    0  0.00000000000E+00  0.00000000000E+00  0.68931717478E+03  0.39598476957E+04  0.38993891324E+04 0.  0.
        1    1    3    3  502    0  0.16913163771E+04 -0.86141009250E+03 -0.10804520346E+03  0.19011186710E+04  0.50400001928E-02 0. -1.
       -1    1    3    3    0  502 -0.16913163771E+04  0.86141009250E+03  0.79736237825E+03  0.20587290247E+04  0.50400001928E-02 0.  1.
</event>
<event>
 5   0  0.2904500E-09  0.3901349E+04  0.7818609E-02  0.8024749E-01
       -1   -1    0    0    0  501  0.00000000000E+00  0.00000000000E+00  0.26666832848E+04  0.26666832848E+04  0.50400001928E-02 0.  1.
        1   -1    0    0  501    0  0.00000000000E+00  0.00000000000E+00 -0.14269149458E+04  0.14269149458E+04  0.50400001928E-02 0. -1.
    10030    2    1    2    0    0  0.00000000000E+00  0.00000000000E+00  0.12397683390E+04  0.40935982306E+04  0.39013486052E+04 0.  0.
        2    1    3    3  502    0 -0.55195609581E+03 -0.11613794883E+03  0.25792503244E+04  0.26402037404E+04  0.25500000920E-02 0.  1.
       -2    1    3    3    0  502  0.55195609581E+03  0.11613794883E+03 -0.13394819854E+04  0.14533944902E+04  0.25500000920E-02 0. -1.
</event>
<event>
 5   0  0.2904500E-09  0.3899481E+04  0.7818609E-02  0.8025137E-01
        1   -1    0    0  501    0  0.00000000000E+00  0.00000000000E+00  0.21677740143E+04  0.21677740143E+04  0.50400001928E-02 0.  1.
       -1   -1    0    0    0  501  0.00000000000E+00  0.00000000000E+00 -0.17536369643E+04  0.17536369643E+04  0.50400001928E-02 0. -1.
    10030    2    1    2    0    0  0.00000000000E+00  0.00000000000E+00  0.41413705004E+03  0.39214109786E+04  0.38994813203E+04 0.  0.
        4    1    3    3  502    0  0.41348175049E+03 -0.18180383816E+04 -0.36645123293E+03  0.19001365303E+04  0.12699999809E+01 0. -1.
       -4    1    3    3    0  502 -0.41348175049E+03  0.18180383816E+04  0.78058828297E+03  0.20212744483E+04  0.12699999809E+01 0.  1.
</event>
<event>
 5   0  0.2929054E-09  0.3900149E+04  0.7818609E-02  0.8024998E-01
       -1   -1    0    0    0  501  0.00000000000E+00  0.00000000000E+00  0.22900599224E+04  0.22900599224E+04  0.50400001928E-02 0. -1.
        1   -1    0    0  501    0  0.00000000000E+00  0.00000000000E+00 -0.16605634458E+04  0.16605634458E+04  0.50400001928E-02 0.  1.
    10030    2    1    2    0    0  0.00000000000E+00  0.00000000000E+00  0.62949647663E+03  0.39506233682E+04  0.39001486104E+04 0.  0.
        1    1    3    3  502    0  0.39623056046E+03  0.11244250439E+03 -0.16160015988E+04  0.16676639773E+04  0.50400001928E-02 0.  1.
       -1    1    3    3    0  502 -0.39623056046E+03 -0.11244250439E+03  0.22454980754E+04  0.22829593909E+04  0.50400001928E-02 0. -1.
</event>
<event>
 5   0  0.2929054E-09  0.3899256E+04  0.7818609E-02  0.8025184E-01
       -1   -1    0    0    0  501  0.00000000000E+00  0.00000000000E+00  0.27812463778E+04  0.27812463778E+04  0.50400001928E-02 0.  1.
        1   -1    0    0  501    0  0.00000000000E+00  0.00000000000E+00 -0.13666710989E+04  0.13666710989E+04  0.50400001928E-02 0. -1.
    10030    2    1    2    0    0  0.00000000000E+00  0.00000000000E+00  0.14145752789E+04  0.41479174767E+04  0.38992558487E+04 0.  0.
        1    1    3    3  502    0 -0.97599155026E+03 -0.66108019884E+03  0.23592061980E+04  0.26373168979E+04  0.50400001928E-02 0.  1.
       -1    1    3    3    0  502  0.97599155026E+03  0.66108019884E+03 -0.94463091903E+03  0.15106005788E+04  0.50400001928E-02 0. -1.
</event>
<event>
 5   0  0.2929054E-09  0.3899427E+04  0.7818609E-02  0.8025148E-01
        1   -1    0    0  501    0  0.00000000000E+00  0.00000000000E+00  0.12325036052E+04  0.12325036052E+04  0.50400001928E-02 0. -1.
       -1   -1    0    0    0  501  0.00000000000E+00  0.00000000000E+00 -0.30842774989E+04  0.30842774989E+04  0.50400001928E-02 0.  1.
    10030    2    1    2    0    0  0.00000000000E+00  0.00000000000E+00 -0.18517738937E+04  0.43167811041E+04  0.38994272076E+04 0.  0.
        1    1    3    3  502    0  0.11521430079E+04 -0.12250985309E+04 -0.20179160187E+04  0.26268393516E+04  0.50400001928E-02 0.  1.
       -1    1    3    3    0  502 -0.11521430079E+04  0.12250985309E+04  0.16614212494E+03  0.16899417524E+04  0.50400001928E-02 0. -1.
</event>
<event>
 5   0  0.2904500E-09  0.3899967E+04  0.7818609E-02  0.8025036E-01
       -1   -1    0    0    0  501  0.00000000000E+00  0.00000000000E+00  0.30414827563E+04  0.30414827563E+04  0.50400001928E-02 0. -1.
        1   -1    0    0  501    0  0.00000000000E+00  0.00000000000E+00 -0.12501917285E+04  0.12501917285E+04  0.50400001928E-02 0.  1.
    10030    2    1    2    0    0  0.00000000000E+00  0.00000000000E+00  0.17912910278E+04  0.42916744848E+04  0.38999674790E+04 0.  0.
        2    1    3    3  502    0  0.19407744363E+04 -0.18522314843E+03  0.85269235042E+03  0.21279091314E+04  0.25500000920E-02 0. -1.
       -2    1    3    3    0  502 -0.19407744363E+04  0.18522314843E+03  0.93859867735E+03  0.21637653533E+04  0.25500000920E-02 0.  1.
</event>
<event>
 5   0  0.2904500E-09  0.3900969E+04  0.7818609E-02  0.8024828E-01
       -1   -1    0    0    0  501  0.00000000000E+00  0.00000000000E+00  0.20067738409E+04  0.20067738409E+04  0.50400001928E-02 0. -1.
        1   -1    0    0  501    0  0.00000000000E+00  0.00000000000E+00 -0.18957740551E+04  0.18957740551E+04  0.50400001928E-02 0.  1.
    10030    2    1    2    0    0  0.00000000000E+00  0.00000000000E+00  0.11099978578E+03  0.39025478961E+04  0.39009689987E+04 0.  0.
        4    1    3    3  502    0 -0.10994848917E+04 -0.14905034198E+04 -0.55623815886E+03  0.19338743428E+04  0.12699999809E+01 0.  1.
       -4    1    3    3    0  502  0.10994848917E+04  0.14905034198E+04  0.66723794464E+03  0.19686735532E+04  0.12699999809E+01 0. -1.
</event>
<event>
 5   0  0.6335942E-09  0.3900429E+04  0.7818609E-02  0.8024940E-01
        2   -1    0    0  501    0  0.00000000000E+00  0.00000000000E+00  0.23749324858E+04  0.23749324858E+04  0.25500000920E-02 0. -1.
       -2   -1    0    0    0  501  0.00000000000E+00  0.00000000000E+00 -0.16014507369E+04  0.16014507369E+04  0.25500000920E-02 0.  1.
    10030    2    1    2    0    0  0.00000000000E+00  0.00000000000E+00  0.77348174882E+03  0.39763832227E+04  0.39004294018E+04 0.  0.
        2    1    3    3  502    0  0.15492629739E+04  0.98743400224E+03  0.10537722281E+04  0.21179418263E+04  0.25500000920E-02 0. -1.
       -2    1    3    3    0  502 -0.15492629739E+04 -0.98743400224E+03 -0.28029047925E+03  0.18584413964E+04  0.25500000920E-02 0.  1.
</event>
<event>
 5   0  0.9368546E-09  0.3898422E+04  0.7818609E-02  0.8025358E-01
       -2   -1    0    0    0  501  0.00000000000E+00  0.00000000000E+00  0.13059259294E+04  0.13059259294E+04  0.25500000920E-02 0. -1.
        2   -1    0    0  501    0  0.00000000000E+00  0.00000000000E+00 -0.29093707680E+04  0.29093707680E+04  0.25500000920E-02 0.  1.
    10030    2    1    2    0    0  0.00000000000E+00  0.00000000000E+00 -0.16034448386E+04  0.42152966975E+04  0.38984215905E+04 0.  0.
        5    1    3    3  502    0  0.10956206442E+04  0.57031165321E+03  0.82874347357E+03  0.14874400199E+04  0.46999998093E+01 0. -1.
       -5    1    3    3    0  502 -0.10956206442E+04 -0.57031165321E+03 -0.24321883122E+04  0.27278566776E+04  0.46999998093E+01 0.  1.
</event>
<event>
 5   0  0.2904500E-09  0.3899705E+04  0.7818609E-02  0.8025091E-01
       -1   -1    0    0    0  501  0.00000000000E+00  0.00000000000E+00  0.21032328684E+04  0.21032328684E+04  0.50400001928E-02 0.  1.
        1   -1    0    0  501    0  0.00000000000E+00  0.00000000000E+00 -0.18076576208E+04  0.18076576208E+04  0.50400001928E-02 0. -1.
    10030    2    1    2    0    0  0.00000000000E+00  0.00000000000E+00  0.29557524768E+03  0.39108904892E+04  0.38997050775E+04 0.  0.
        5    1    3    3  502    0 -0.19941907181E+03 -0.17681160863E+04 -0.65193324816E+03  0.18950043564E+04  0.46999998093E+01 0. -1.
       -5    1    3    3    0  502  0.19941907181E+03  0.17681160863E+04  0.94750849583E+03  0.20158861328E+04  0.46999998093E+01 0.  1.
</event>
<event>
 5   0  0.9434114E-09  0.3900848E+04  0.7818609E-02  0.8024853E-01
       -2   -1    0    0    0  501  0.00000000000E+00  0.00000000000E+00  0.24503565257E+04  0.24503565257E+04  0.25500000920E-02 0.  1.
        2   -1    0    0  501    0  0.00000000000E+00  0.00000000000E+00 -0.15524901822E+04  0.15524901822E+04  0.25500000920E-02 0. -1.
    10030    2    1    2    0    0  0.00000000000E+00  0.00000000000E+00  0.89786634353E+03  0.40028467079E+04  0.39008483432E+04 0.  0.
        4    1    3    3  502    0 -0.49116730496E+03 -0.13185298929E+04  0.18349493831E+04  0.23123164255E+04  0.12699999809E+01 0.  1.
       -4    1    3    3    0  502  0.49116730496E+03  0.13185298929E+04 -0.93708303956E+03  0.16905302825E+04  0.12699999809E+01 0. -1.
</event>
<event>
 5   0  0.9434114E-09  0.3898167E+04  0.7818609E-02  0.8025410E-01
        2   -1    0    0  501    0  0.00000000000E+00  0.00000000000E+00  0.25408276296E+04  0.25408276296E+04  0.25500000920E-02 0.  1.
       -2   -1    0    0    0  501  0.00000000000E+00  0.00000000000E+00 -0.14951533661E+04  0.14951533662E+04  0.25500000920E-02 0. -1.
    10030    2    1    2    0    0  0.00000000000E+00  0.00000000000E+00  0.10456742634E+04  0.40359809957E+04  0.38981672530E+04 0.  0.
        4    1    3    3  502    0 -0.60297663475E+03  0.17551942913E+04  0.11394051609E+04  0.21777358783E+04  0.12699999809E+01 0.  1.
       -4    1    3    3    0  502  0.60297663475E+03 -0.17551942913E+04 -0.93730897443E+02  0.18582451174E+04  0.12699999809E+01 0. -1.
</event>
<event>
 5   0  0.6335942E-09  0.3899493E+04  0.7818609E-02  0.8025135E-01
        2   -1    0    0  501    0  0.00000000000E+00  0.00000000000E+00  0.26668887352E+04  0.26668887352E+04  0.25500000920E-02 0.  1.
       -2   -1    0    0    0  501  0.00000000000E+00  0.00000000000E+00 -0.14254483453E+04  0.14254483453E+04  0.25500000920E-02 0. -1.
    10030    2    1    2    0    0  0.00000000000E+00  0.00000000000E+00  0.12414403900E+04  0.40923370805E+04  0.38994933695E+04 0.  0.
        2    1    3    3  502    0  0.73405582057E+03  0.34982911481E+03 -0.12390031890E+04  0.14820078473E+04  0.25500000920E-02 0. -1.
       -2    1    3    3    0  502 -0.73405582057E+03 -0.34982911481E+03  0.24804435789E+04  0.26103292332E+04  0.25500000920E-02 0.  1.
</event>
<event>
 5   0  0.9368546E-09  0.3904208E+04  0.7818609E-02  0.8024155E-01
        2   -1    0    0  501    0  0.00000000000E+00  0.00000000000E+00  0.16686847110E+04  0.16686847110E+04  0.25500000920E-02 0. -1.
       -2   -1    0    0    0  501  0.00000000000E+00  0.00000000000E+00 -0.22836609727E+04  0.22836609728E+04  0.25500000920E-02 0.  1.
    10030    2    1    2    0    0  0.00000000000E+00  0.00000000000E+00 -0.61497626171E+03  0.39523456838E+04  0.39042080633E+04 0.  0.
        5    1    3    3  502    0  0.83932395958E+03 -0.41827477772E+03  0.14257165264E+04  0.17064900241E+04  0.46999998093E+01 0. -1.
       -5    1    3    3    0  502 -0.83932395958E+03  0.41827477772E+03 -0.20406927881E+04  0.22458556597E+04  0.46999998093E+01 0.  1.
</event>
<event>
 5   0  0.2904500E-09  0.3900977E+04  0.7818609E-02  0.8024826E-01
        1   -1    0    0  501    0  0.00000000000E+00  0.00000000000E+00  0.19387112967E+04  0.19387112967E+04  0.50400001928E-02 0. -1.
       -1   -1    0    0    0  501  0.00000000000E+00  0.00000000000E+00 -0.19623373268E+04  0.19623373268E+04  0.50400001928E-02 0.  1.
    10030    2    1    2    0    0  0.00000000000E+00  0.00000000000E+00 -0.23626030122E+02  0.39010486235E+04  0.39009770793E+04 0.  0.
        2    1    3    3  502    0  0.14347211442E+04 -0.52000772798E+03  0.12029408156E+04  0.19431673641E+04  0.25500000920E-02 0. -1.
       -2    1    3    3    0  502 -0.14347211442E+04  0.52000772798E+03 -0.12265668457E+04  0.19578812594E+04  0.25500000920E-02 0.  1.
</event>
<event>
 5   0  0.9277261E-09  0.3898915E+04  0.7818609E-02  0.8025255E-01
       -2   -1    0    0    0  501  0.00000000000E+00  0.00000000000E+00  0.25554477122E+04  0.25554477122E+04  0.25500000920E-02 0.  1.
        2   -1    0    0  501    0  0.00000000000E+00  0.00000000000E+00 -0.14871696622E+04  0.14871696622E+04  0.25500000920E-02 0. -1.
    10030    2    1    2    0    0  0.00000000000E+00  0.00000000000E+00  0.10682780500E+04  0.40426173744E+04  0.38989148803E+04 0.  0.
        1    1    3    3  502    0  0.19835037897E+03 -0.12607941520E+04 -0.99375332177E+03  0.16175569329E+04  0.50400001928E-02 0. -1.
       -1    1    3    3    0  502 -0.19835037897E+03  0.12607941520E+04  0.20620313718E+04  0.24250604415E+04  0.50400001928E-02 0.  1.
</event>
<event>
 5   0  0.2904500E-09  0.3899065E+04  0.7818609E-02  0.8025224E-01
       -1   -1    0    0    0  501  0.00000000000E+00  0.00000000000E+00  0.20632111205E+04  0.20632111205E+04  0.50400001928E-02 0. -1.
        1   -1    0    0  501    0  0.00000000000E+00  0.00000000000E+00 -0.18421172273E+04  0.18421172273E+04  0.50400001928E-02 0.  1.
    10030    2    1    2    0    0  0.00000000000E+00  0.00000000000E+00  0.22109389314E+03  0.39053283478E+04  0.38990648872E+04 0.  0.
        4    1    3    3  502    0  0.19011476967E+04  0.27501828707E+03  0.44376366784E+03  0.19715287035E+04  0.12699999809E+01 0.  1.
       -4    1    3    3    0  502 -0.19011476967E+04 -0.27501828707E+03 -0.22266977470E+03  0.19337996443E+04  0.12699999809E+01 0. -1.
</event>
<event>
 5   0  0.9368546E-09  0.3898215E+04  0.7818609E-02  0.8025401E-01
        2   -1    0    0  501    0  0.00000000000E+00  0.00000000000E+00  0.24949729633E+04  0.24949729633E+04  0.25500000920E-02 0. -1.
       -2   -1    0    0    0  501  0.00000000000E+00  0.00000000000E+00 -0.15226695467E+04  0.15226695467E+04  0.25500000920E-02 0.  1.
    10030    2    1    2    0    0  0.00000000000E+00  0.00000000000E+00  0.97230341656E+03  0.40176425100E+04  0.38982146431E+04 0.  0.
        5    1    3    3  502    0 -0.14198412462E+04 -0.82188136220E+03 -0.59849674536E+03  0.17463271693E+04  0.46999998093E+01 0.  1.
       -5    1    3    3    0  502  0.14198412462E+04  0.82188136220E+03  0.15708001619E+04  0.22713153407E+04  0.46999998093E+01 0. -1.
</event>
<event>
 5   0  0.2929054E-09  0.3902376E+04  0.7818609E-02  0.8024535E-01
       -1   -1    0    0    0  501  0.00000000000E+00  0.00000000000E+00  0.14801096525E+04  0.14801096525E+04  0.50400001928E-02 0. -1.
        1   -1    0    0  501    0  0.00000000000E+00  0.00000000000E+00 -0.25721982418E+04  0.25721982418E+04  0.50400001928E-02 0.  1.
    10030    2    1    2    0    0  0.00000000000E+00  0.00000000000E+00 -0.10920885893E+04  0.40523078943E+04  0.39023764277E+04 0.  0.
        1    1    3    3  502    0 -0.31664532362E+03 -0.13121579269E+04  0.91702826964E+03  0.16318589196E+04  0.50400001928E-02 0. -1.
       -1    1    3    3    0  502  0.31664532362E+03  0.13121579269E+04 -0.20091168590E+04  0.24204489747E+04  0.50400001928E-02 0.  1.
</event>
<event>
 5   0  0.2904500E-09  0.3900152E+04  0.7818609E-02  0.8024998E-01
        1   -1    0    0  501    0  0.00000000000E+00  0.00000000000E+00  0.14202797587E+04  0.14202797587E+04  0.50400001928E-02 0. -1.
       -1   -1    0    0    0  501  0.00000000000E+00  0.00000000000E+00 -0.26774986195E+04  0.26774986195E+04  0.50400001928E-02 0.  1.
    10030    2    1    2    0    0  0.00000000000E+00  0.00000000000E+00 -0.12572188608E+04  0.40977783782E+04  0.39001523525E+04 0.  0.
        5    1    3    3  502    0 -0.15036031277E+04  0.11329732457E+04 -0.11626195573E+04  0.22127261616E+04  0.46999998093E+01 0.  1.
       -5    1    3    3    0  502  0.15036031277E+04 -0.11329732457E+04 -0.94599303517E+02  0.18850522166E+04  0.46999998093E+01 0. -1.
</event>
<event>
 5   0  0.9368546E-09  0.3900125E+04  0.7818609E-02  0.8025003E-01
        2   -1    0    0  501    0  0.00000000000E+00  0.00000000000E+00  0.31864607661E+04  0.31864607661E+04  0.25500000920E-02 0.  1.
       -2   -1    0    0    0  501  0.00000000000E+00  0.00000000000E+00 -0.11934069285E+04  0.11934069285E+04  0.25500000920E-02 0. -1.
    10030    2    1    2    0    0  0.00000000000E+00  0.00000000000E+00  0.19930538376E+04  0.43798676945E+04  0.39001253085E+04 0.  0.
        5    1    3    3  502    0 -0.82576902597E+03 -0.43548214929E+02 -0.98675904188E+03  0.12874418154E+04  0.46999998093E+01 0. -1.
       -5    1    3    3    0  502  0.82576902597E+03  0.43548214929E+02  0.29798128795E+04  0.30924258792E+04  0.46999998093E+01 0.  1.
</event>
<event>
 5   0  0.9434114E-09  0.3901385E+04  0.7818609E-02  0.8024741E-01
       -2   -1    0    0    0  501  0.00000000000E+00  0.00000000000E+00  0.19946996008E+04  0.19946996008E+04  0.25500000920E-02 0. -1.
        2   -1    0    0  501    0  0.00000000000E+00  0.00000000000E+00 -0.19076564288E+04  0.19076564288E+04  0.25500000920E-02 0.  1.
    10030    2    1    2    0    0  0.00000000000E+00  0.00000000000E+00  0.87043172031E+02  0.39023560295E+04  0.39013851473E+04 0.  0.
        4    1    3    3  502    0  0.88439990658E+03  0.60893944091E+03 -0.15854503831E+04  0.19148433271E+04  0.12699999809E+01 0.  1.
       -4    1    3    3    0  502 -0.88439990658E+03 -0.60893944091E+03  0.16724935551E+04  0.19875127024E+04  0.12699999809E+01 0. -1.
</event>
<event>
 5   0  0.9078515E-09  0.3899699E+04  0.7818609E-02  0.8025092E-01
       -2   -1    0    0    0  501  0.00000000000E+00  0.00000000000E+00  0.11938538599E+04  0.11938538599E+04  0.25500000920E-02 0. -1.
        2   -1    0    0  501    0  0.00000000000E+00  0.00000000000E+00 -0.31845711545E+04  0.31845711545E+04  0.25500000920E-02 0.  1.
    10030    2    1    2    0    0  0.00000000000E+00  0.00000000000E+00 -0.19907172946E+04  0.43784250145E+04  0.38996987397E+04 0.  0.
        3    1    3    3  502    0 -0.32170463311E+03 -0.47221296031E+03 -0.30884652911E+04  0.31408751671E+04  0.10100000352E+00 0.  1.
       -3    1    3    3    0  502  0.32170463311E+03  0.47221296031E+03  0.10977479965E+04  0.12375498474E+04  0.10100000352E+00 0. -1.
</event>
<event>
 5   0  0.2929054E-09  0.3902875E+04  0.7818609E-02  0.8024431E-01
        1   -1    0    0  501    0  0.00000000000E+00  0.00000000000E+00  0.19523461533E+04  0.19523461534E+04  0.50400001928E-02 0. -1.
       -1   -1    0    0    0  501  0.00000000000E+00  0.00000000000E+00 -0.19505295091E+04  0.19505295091E+04  0.50400001928E-02 0.  1.
    10030    2    1    2    0    0  0.00000000000E+00  0.00000000000E+00  0.18166442410E+01  0.39028756625E+04  0.39028752397E+04 0.  0.
        1    1    3    3  502    0  0.45835905101E+03  0.58234591469E+03  0.18061478370E+04  0.19522781034E+04  0.50400001928E-02 0. -1.
       -1    1    3    3    0  502 -0.45835905101E+03 -0.58234591469E+03 -0.18043311928E+04  0.19505975590E+04  0.50400001928E-02 0.  1.
</event>
<event>
 5   0  0.2904500E-09  0.3898403E+04  0.7818609E-02  0.8025361E-01
        1   -1    0    0  501    0  0.00000000000E+00  0.00000000000E+00  0.23324525549E+04  0.23324525549E+04  0.50400001928E-02 0. -1.
       -1   -1    0    0    0  501  0.00000000000E+00  0.00000000000E+00 -0.16289232579E+04  0.16289232579E+04  0.50400001928E-02 0.  1.
    10030    2    1    2    0    0  0.00000000000E+00  0.00000000000E+00  0.70352929701E+03  0.39613758129E+04  0.38984028600E+04 0.  0.
        2    1    3    3  502    0 -0.19236574371E+04  0.10746014880E+03  0.51387541825E+02  0.19273417700E+04  0.25500000920E-02 0. -1.
       -2    1    3    3    0  502  0.19236574371E+04 -0.10746014880E+03  0.65214175519E+03  0.20340340429E+04  0.25500000920E-02 0.  1.
</event>
<event>
 5   0  0.2904500E-09  0.3900885E+04  0.7818609E-02  0.8024845E-01
       -3   -1    0    0    0  501  0.00000000000E+00  0.00000000000E+00  0.29142004228E+04  0.29142004246E+04  0.10100000352E+00 0.  1.
        3   -1    0    0  501    0  0.00000000000E+00  0.00000000000E+00 -0.13054100910E+04  0.13054100949E+04  0.10100000352E+00 0. -1.
    10030    2    1    2    0    0  0.00000000000E+00  0.00000000000E+00  0.16087903319E+04  0.42196105195E+04  0.39008853616E+04 0.  0.
        1    1    3    3  502    0  0.10295624417E+04 -0.49283198666E+03 -0.90639179007E+03  0.14575418572E+04  0.50400001928E-02 0. -1.
       -1    1    3    3    0  502 -0.10295624417E+04  0.49283198666E+03  0.25151821219E+04  0.27620686622E+04  0.50400001928E-02 0.  1.
</event>
<event>
 5   0  0.2904500E-09  0.3901512E+04  0.7818609E-02  0.8024715E-01
        1   -1    0    0  501    0  0.00000000000E+00  0.00000000000E+00  0.29616049713E+04  0.29616049713E+04  0.50400001928E-02 0. -1.
       -1   -1    0    0    0  501  0.00000000000E+00  0.00000000000E+00 -0.12849281927E+04  0.12849281927E+04  0.50400001928E-02 0.  1.
    10030    2    1    2    0    0  0.00000000000E+00  0.00000000000E+00  0.16766767786E+04  0.42465331640E+04  0.39015123854E+04 0.  0.
        4    1    3    3  502    0  0.26014997342E+03  0.14422489575E+04  0.22397087670E+04  0.26765756178E+04  0.12699999809E+01 0. -1.
       -4    1    3    3    0  502 -0.26014997342E+03 -0.14422489575E+04 -0.56303198844E+03  0.15699575462E+04  0.12699999809E+01 0.  1.
</event>
<event>
 5   0  0.2904500E-09  0.3898817E+04  0.7818609E-02  0.8025275E-01
       -1   -1    0    0    0  501  0.00000000000E+00  0.00000000000E+00  0.18169820690E+04  0.18169820690E+04  0.50400001928E-02 0. -1.
        1   -1    0    0  501    0  0.00000000000E+00  0.00000000000E+00 -0.20914866685E+04  0.20914866685E+04  0.50400001928E-02 0.  1.
    10030    2    1    2    0    0  0.00000000000E+00  0.00000000000E+00 -0.27450459948E+03  0.39084687375E+04  0.38988171407E+04 0.  0.
        2    1    3    3  502    0  0.19415523898E+04 -0.11265000191E+03 -0.27129219517E+03  0.19636484310E+04  0.25500000920E-02 0. -1.
       -2    1    3    3    0  502 -0.19415523898E+04  0.11265000191E+03 -0.32124043091E+01  0.19448203065E+04  0.25500000920E-02 0.  1.
</event>
<event>
 5   0  0.2904500E-09  0.3900023E+04  0.7818609E-02  0.8025024E-01
       -1   -1    0    0    0  501  0.00000000000E+00  0.00000000000E+00  0.28368883980E+04  0.28368883980E+04  0.50400001928E-02 0. -1.
        1   -1    0    0  501    0  0.00000000000E+00  0.00000000000E+00 -0.13403927310E+04  0.13403927310E+04  0.50400001928E-02 0.  1.
    10030    2    1    2    0    0  0.00000000000E+00  0.00000000000E+00  0.14964956670E+04  0.41772811290E+04  0.39000228652E+04 0.  0.
        3    1    3    3  502    0  0.16838826917E+03  0.54689101757E+03  0.27449358685E+04  0.28039467410E+04  0.10100000352E+00 0. -1.
       -3    1    3    3    0  502 -0.16838826917E+03 -0.54689101757E+03 -0.12484402015E+04  0.13733343880E+04  0.10100000352E+00 0.  1.
</event>
<event>
 5   0  0.9434114E-09  0.3900918E+04  0.7818609E-02  0.8024838E-01
        2   -1    0    0  501    0  0.00000000000E+00  0.00000000000E+00  0.25256048926E+04  0.25256048926E+04  0.25500000920E-02 0. -1.
       -2   -1    0    0    0  501  0.00000000000E+00  0.00000000000E+00 -0.15062884746E+04  0.15062884746E+04  0.25500000920E-02 0.  1.
    10030    2    1    2    0    0  0.00000000000E+00  0.00000000000E+00  0.10193164180E+04  0.40318933672E+04  0.39009176054E+04 0.  0.
        4    1    3    3  502    0  0.19483628919E+04  0.22216198676E+02  0.60021506831E+03  0.20388406654E+04  0.12699999809E+01 0. -1.
       -4    1    3    3    0  502 -0.19483628919E+04 -0.22216198676E+02  0.41910134973E+03  0.19930527018E+04  0.12699999809E+01 0.  1.
</event>
<event>
 5   0  0.2904500E-09  0.3900372E+04  0.7818609E-02  0.8024952E-01
       -1   -1    0    0    0  501  0.00000000000E+00  0.00000000000E+00  0.27201156161E+04  0.27201156161E+04  0.50400001928E-02 0.  1.
        1   -1    0    0  501    0  0.00000000000E+00  0.00000000000E+00 -0.13981849375E+04  0.13981849375E+04  0.50400001928E-02 0. -1.
    10030    2    1    2    0    0  0.00000000000E+00  0.00000000000E+00  0.13219306786E+04  0.41183005537E+04  0.39003716145E+04 0.  0.
        5    1    3    3  502    0 -0.10692085023E+04 -0.15862901178E+04  0.26073560126E+03  0.19306807875E+04  0.46999998093E+01 0. -1.
       -5    1    3    3    0  502  0.10692085023E+04  0.15862901178E+04  0.10611950773E+04  0.21876197662E+04  0.46999998093E+01 0.  1.
</event>
<event>
 5   0  0.6335942E-09  0.3899352E+04  0.7818609E-02  0.8025164E-01
       -2   -1    0    0    0  501  0.00000000000E+00  0.00000000000E+00  0.19280772850E+04  0.19280772850E+04  0.25500000920E-02 0.  1.
        2   -1    0    0  501    0  0.00000000000E+00  0.00000000000E+00 -0.19715165194E+04  0.19715165194E+04  0.25500000920E-02 0. -1.
    10030    2    1    2    0    0  0.00000000000E+00  0.00000000000E+00 -0.43439234456E+02  0.38995938044E+04  0.38993518528E+04 0.  0.
        2    1    3    3  502    0 -0.18733474323E+04 -0.53625349439E+03  0.43382853486E+02  0.19490716981E+04  0.25500000920E-02 0.  1.
       -2    1    3    3    0  502  0.18733474323E+04  0.53625349439E+03 -0.86822087943E+02  0.19505221063E+04  0.25500000920E-02 0. -1.
</event>
<event>
 5   0  0.2904500E-09  0.3899399E+04  0.7818609E-02  0.8025154E-01
       -1   -1    0    0    0  501  0.00000000000E+00  0.00000000000E+00  0.20654755774E+04  0.20654755774E+04  0.50400001928E-02 0.  1.
        1   -1    0    0  501    0  0.00000000000E+00  0.00000000000E+00 -0.18404127651E+04  0.18404127651E+04  0.50400001928E-02 0. -1.
    10030    2    1    2    0    0  0.00000000000E+00  0.00000000000E+00  0.22506281237E+03  0.39058883425E+04  0.38993987324E+04 0.  0.
        2    1    3    3  502    0 -0.38125816529E+03 -0.17993476409E+04 -0.53531999241E+03  0.19156140571E+04  0.25500000920E-02 0. -1.
       -2    1    3    3    0  502  0.38125816529E+03  0.17993476409E+04  0.76038280478E+03  0.19902742854E+04  0.25500000920E-02 0.  1.
</event>
<event>
 5   0  0.9078515E-09  0.3898946E+04  0.7818609E-02  0.8025248E-01
        2   -1    0    0  501    0  0.00000000000E+00  0.00000000000E+00  0.24037227769E+04  0.24037227769E+04  0.25500000920E-02 0.  1.
       -2   -1    0    0    0  501  0.00000000000E+00  0.00000000000E+00 -0.15810664325E+04  0.15810664325E+04  0.25500000920E-02 0. -1.
    10030    2    1    2    0    0  0.00000000000E+00  0.00000000000E+00  0.82265634444E+03  0.39847892094E+04  0.38989462143E+04 0.  0.
        3    1    3    3  502    0  0.38100115028E+03  0.85354332284E+03  0.21597681261E+04  0.23533585467E+04  0.10100000352E+00 0.  1.
       -3    1    3    3    0  502 -0.38100115028E+03 -0.85354332284E+03 -0.13371117816E+04  0.16314306627E+04  0.10100000352E+00 0. -1.
</event>
<event>
 5   0  0.2904500E-09  0.3901801E+04  0.7818609E-02  0.8024655E-01
       -1   -1    0    0    0  501  0.00000000000E+00  0.00000000000E+00  0.14958096364E+04  0.14958096364E+04  0.50400001928E-02 0. -1.
        1   -1    0    0  501    0  0.00000000000E+00  0.00000000000E+00 -0.25444501240E+04  0.25444501240E+04  0.50400001928E-02 0.  1.
    10030    2    1    2    0    0  0.00000000000E+00  0.00000000000E+00 -0.10486404876E+04  0.40402597604E+04  0.39018011301E+04 0.  0.
        4    1    3    3  502    0  0.35170938258E+03 -0.71552425790E+03  0.13194078318E+04  0.15415943347E+04  0.12699999809E+01 0. -1.
       -4    1    3    3    0  502 -0.35170938258E+03  0.71552425790E+03 -0.23680483194E+04  0.24986654257E+04  0.12699999809E+01 0.  1.
</event>
<event>
 5   0  0.9277261E-09  0.3900224E+04  0.7818609E-02  0.8024983E-01
        2   -1    0    0  501    0  0.00000000000E+00  0.00000000000E+00  0.17136967162E+04  0.17136967162E+04  0.25500000920E-02 0. -1.
       -2   -1    0    0    0  501  0.00000000000E+00  0.00000000000E+00 -0.22191422888E+04  0.22191422888E+04  0.25500000920E-02 0.  1.
    10030    2    1    2    0    0  0.00000000000E+00  0.00000000000E+00 -0.50544557266E+03  0.39328390050E+04  0.39002240208E+04 0.  0.
        1    1    3    3  502    0  0.13843749764E+04  0.34998745014E+03  0.10865219356E+04  0.17943007571E+04  0.50400001928E-02 0. -1.
       -1    1    3    3    0  502 -0.13843749764E+04 -0.34998745014E+03 -0.15919675083E+04  0.21385382479E+04  0.50400001928E-02 0.  1.
</event>
<event>
 5   0  0.2904500E-09  0.3899273E+04  0.7818609E-02  0.8025180E-01
       -1   -1    0    0    0  501  0.00000000000E+00  0.00000000000E+00  0.20591116049E+04  0.20591116049E+04  0.50400001928E-02 0.  1.
        1   -1    0    0  501    0  0.00000000000E+00  0.00000000000E+00 -0.18459816921E+04  0.18459816921E+04  0.50400001928E-02 0. -1.
    10030    2    1    2    0    0  0.00000000000E+00  0.00000000000E+00  0.21312991281E+03  0.39050932970E+04  0.38992729192E+04 0.  0.
        3    1    3    3  502    0 -0.95051468071E+03 -0.10983961035E+04 -0.11958107828E+04  0.18814663422E+04  0.10100000352E+00 0. -1.
       -3    1    3    3    0  502  0.95051468071E+03  0.10983961035E+04  0.14089406956E+04  0.20236269548E+04  0.10100000352E+00 0.  1.
</event>
<event>
 5   0  0.2904500E-09  0.3899944E+04  0.7818609E-02  0.8025041E-01
       -1   -1    0    0    0  501  0.00000000000E+00  0.00000000000E+00  0.31990817332E+04  0.31990817332E+04  0.50400001928E-02 0. -1.
        1   -1    0    0  501    0  0.00000000000E+00  0.00000000000E+00 -0.11885879191E+04  0.11885879191E+04  0.50400001928E-02 0.  1.
    10030    2    1    2    0    0  0.00000000000E+00  0.00000000000E+00  0.20104938141E+04  0.43876696523E+04  0.38999435382E+04 0.  0.
        5    1    3    3  502    0 -0.96375348226E+03  0.16603783154E+04  0.13895678666E+04  0.23699362588E+04  0.46999998093E+01 0. -1.
       -5    1    3    3    0  502  0.96375348226E+03 -0.16603783154E+04  0.62092594750E+03  0.20177333935E+04  0.46999998093E+01 0.  1.
</event>
<event>
 5   0  0.2904500E-09  0.3899125E+04  0.7818609E-02  0.8025211E-01
       -1   -1    0    0    0  501  0.00000000000E+00  0.00000000000E+00  0.17777663716E+04  0.17777663716E+04  0.50400001928E-02 0. -1.
        1   -1    0    0  501    0  0.00000000000E+00  0.00000000000E+00 -0.21379606966E+04  0.21379606966E+04  0.50400001928E-02 0.  1.
    10030    2    1    2    0    0  0.00000000000E+00  0.00000000000E+00 -0.36019432498E+03  0.39157270683E+04  0.38991253534E+04 0.  0.
        3    1    3    3  502    0  0.11257260642E+04 -0.15917026601E+04 -0.17582577321E+03  0.19574706237E+04  0.10100000352E+00 0. -1.
       -3    1    3    3    0  502 -0.11257260642E+04  0.15917026601E+04 -0.18436855177E+03  0.19582564446E+04  0.10100000352E+00 0.  1.
</event>
<event>
 5   0  0.9078515E-09  0.3899656E+04  0.7818609E-02  0.8025101E-01
       -2   -1    0    0    0  501  0.00000000000E+00  0.00000000000E+00  0.17708125752E+04  0.17708125752E+04  0.25500000920E-02 0. -1.
        2   -1    0    0  501    0  0.00000000000E+00  0.00000000000E+00 -0.21469403493E+04  0.21469403493E+04  0.25500000920E-02 0.  1.
    10030    2    1    2    0    0  0.00000000000E+00  0.00000000000E+00 -0.37612777415E+03  0.39177529245E+04  0.38996558662E+04 0.  0.
        3    1    3    3  502    0  0.22401419446E+03  0.37370656821E+03 -0.20974072227E+04  0.21421848721E+04  0.10100000352E+00 0.  1.
       -3    1    3    3    0  502 -0.22401419446E+03 -0.37370656821E+03  0.17212794485E+04  0.17755680524E+04  0.10100000352E+00 0. -1.
</event>
<event>
 5   0  0.9277261E-09  0.3904619E+04  0.7818609E-02  0.8024069E-01
        2   -1    0    0  501    0  0.00000000000E+00  0.00000000000E+00  0.30925131261E+04  0.30925131261E+04  0.25500000920E-02 0. -1.
       -2   -1    0    0    0  501  0.00000000000E+00  0.00000000000E+00 -0.12324968126E+04  0.12324968126E+04  0.25500000920E-02 0.  1.
    10030    2    1    2    0    0  0.00000000000E+00  0.00000000000E+00  0.18600163135E+04  0.43250099387E+04  0.39046190958E+04 0.  0.
        1    1    3    3  502    0  0.10169103684E+04 -0.95132923300E+03  0.24456802908E+04  0.28143358172E+04  0.50400001928E-02 0. -1.
       -1    1    3    3    0  502 -0.10169103684E+04  0.95132923300E+03 -0.58566397733E+03  0.15106741215E+04  0.50400001928E-02 0.  1.
</event>
<event>
 5   0  0.9434114E-09  0.3897962E+04  0.7818609E-02  0.8025453E-01
        2   -1    0    0  501    0  0.00000000000E+00  0.00000000000E+00  0.17200273507E+04  0.17200273507E+04  0.25500000920E-02 0.  1.
       -2   -1    0    0    0  501  0.00000000000E+00  0.00000000000E+00 -0.22084112413E+04  0.22084112413E+04  0.25500000920E-02 0. -1.
    10030    2    1    2    0    0  0.00000000000E+00  0.00000000000E+00 -0.48838389064E+03  0.39284385921E+04  0.38979624096E+04 0.  0.
        4    1    3    3  502    0  0.62044553784E+02 -0.84743404963E+03 -0.20119102114E+04  0.21839822131E+04  0.12699999809E+01 0. -1.
       -4    1    3    3    0  502 -0.62044553784E+02  0.84743404963E+03  0.15235263208E+04  0.17444563790E+04  0.12699999809E+01 0.  1.
</event>
<event>
 5   0  0.2904500E-09  0.3898835E+04  0.7818609E-02  0.8025271E-01
       -1   -1    0    0    0  501  0.00000000000E+00  0.00000000000E+00  0.17206617312E+04  0.17206617312E+04  0.50400001928E-02 0.  1.
        1   -1    0    0  501    0  0.00000000000E+00  0.00000000000E+00 -0.22085859062E+04  0.22085859062E+04  0.50400001928E-02 0. -1.
    10030    2    1    2    0    0  0.00000000000E+00  0.00000000000E+00 -0.48792417502E+03  0.39292476373E+04  0.38988353383E+04 0.  0.
        2    1    3    3  502    0  0.10812817000E+04  0.15713657795E+04  0.16150534238E+03  0.19142738842E+04  0.25500000920E-02 0.  1.
       -2    1    3    3    0  502 -0.10812817000E+04 -0.15713657795E+04 -0.64942951741E+03  0.20149737532E+04  0.25500000920E-02 0. -1.
</event>
<event>
 5   0  0.9368546E-09  0.3901535E+04  0.7818609E-02  0.8024710E-01
        2   -1    0    0  501    0  0.00000000000E+00  0.00000000000E+00  0.18441746583E+04  0.18441746583E+04  0.25500000920E-02 0. -1.
       -2   -1    0    0    0  501  0.00000000000E+00  0.00000000000E+00 -0.20635213657E+04  0.20635213657E+04  0.25500000920E-02 0.  1.
    10030    2    1    2    0    0  0.00000000000E+00  0.00000000000E+00 -0.21934670744E+03  0.39076960240E+04  0.39015349849E+04 0.  0.
        5    1    3    3  502    0 -0.11501637854E+04 -0.14005480173E+04  0.61331155821E+03  0.19132654388E+04  0.46999998093E+01 0. -1.
       -5    1    3    3    0  502  0.11501637854E+04  0.14005480173E+04 -0.83265826565E+03  0.19944305852E+04  0.46999998093E+01 0.  1.
</event>
<event>
 5   0  0.6335942E-09  0.3901312E+04  0.7818609E-02  0.8024756E-01
       -2   -1    0    0    0  501  0.00000000000E+00  0.00000000000E+00  0.25356437825E+04  0.25356437825E+04  0.25500000920E-02 0. -1.
        2   -1    0    0  501    0  0.00000000000E+00  0.00000000000E+00 -0.15006283468E+04  0.15006283468E+04  0.25500000920E-02 0.  1.
    10030    2    1    2    0    0  0.00000000000E+00  0.00000000000E+00  0.10350154357E+04  0.40362721292E+04  0.39013120548E+04 0.  0.
        2    1    3    3  502    0  0.17007260978E+04  0.95526418977E+03  0.52552200826E+03  0.20201911575E+04  0.25500000920E-02 0.  1.
       -2    1    3    3    0  502 -0.17007260978E+04 -0.95526418977E+03  0.50949342746E+03  0.20160809717E+04  0.25500000920E-02 0. -1.
</event>
<event>
 5   0  0.2904500E-09  0.3900206E+04  0.7818609E-02  0.8024986E-01
       -1   -1    0    0    0  501  0.00000000000E+00  0.00000000000E+00  0.19268995329E+04  0.19268995329E+04  0.50400001928E-02 0.  1.
        1   -1    0    0  501    0  0.00000000000E+00  0.00000000000E+00 -0.19735856058E+04  0.19735856058E+04  0.50400001928E-02 0. -1.
    10030    2    1    2    0    0  0.00000000000E+00  0.00000000000E+00 -0.46686072915E+02  0.39004851387E+04  0.39002057289E+04 0.  0.
        5    1    3    3  502    0 -0.54537817085E+03 -0.15892984679E+04  0.96646122720E+03  0.19383953062E+04  0.46999998093E+01 0.  1.
       -5    1    3    3    0  502  0.54537817085E+03  0.15892984679E+04 -0.10131473001E+04  0.19620898325E+04  0.46999998093E+01 0. -1.
</event>
<event>
 5   0  0.2904500E-09  0.3898718E+04  0.7818609E-02  0.8025296E-01
       -1   -1    0    0    0  501  0.00000000000E+00  0.00000000000E+00  0.16620455981E+04  0.16620455981E+04  0.50400001928E-02 0.  1.
        1   -1    0    0  501    0  0.00000000000E+00  0.00000000000E+00 -0.22863398368E+04  0.22863398368E+04  0.50400001928E-02 0. -1.
    10030    2    1    2    0    0  0.00000000000E+00  0.00000000000E+00 -0.62429423865E+03  0.39483854349E+04  0.38987182825E+04 0.  0.
        4    1    3    3  502    0 -0.39880611047E+03  0.15509066168E+04 -0.14379023731E+04  0.21521901624E+04  0.12699999809E+01 0. -1.
       -4    1    3    3    0  502  0.39880611047E+03 -0.15509066168E+04  0.81360813446E+03  0.17961952725E+04  0.12699999809E+01 0.  1.
</event>
<event>
 5   0  0.2904500E-09  0.3890954E+04  0.7818609E-02  0.8026913E-01
        1   -1    0    0  501    0  0.00000000000E+00  0.00000000000E+00  0.24631364821E+04  0.24631364821E+04  0.50400001928E-02 0.  1.
       -1   -1    0    0    0  501  0.00000000000E+00  0.00000000000E+00 -0.15366104646E+04  0.15366104646E+04  0.50400001928E-02 0. -1.
    10030    2    1    2    0    0  0.00000000000E+00  0.00000000000E+00  0.92652601751E+03  0.39997469467E+04  0.38909542758E+04 0.  0.
        3    1    3    3  502    0  0.24758189268E+03  0.12177699505E+04  0.20019864629E+04  0.23563128514E+04  0.10100000352E+00 0.  1.
       -3    1    3    3    0  502 -0.24758189268E+03 -0.12177699505E+04 -0.10754604454E+04  0.16434340953E+04  0.10100000352E+00 0. -1.
</event>
<event>
 5   0  0.2904500E-09  0.3897826E+04  0.7818609E-02  0.8025481E-01
       -1   -1    0    0    0  501  0.00000000000E+00  0.00000000000E+00  0.17554557723E+04  0.17554557723E+04  0.50400001928E-02 0.  1.
        1   -1    0    0  501    0  0.00000000000E+00  0.00000000000E+00 -0.21636902054E+04  0.21636902054E+04  0.50400001928E-02 0. -1.
    10030    2    1    2    0    0  0.00000000000E+00  0.00000000000E+00 -0.40823443318E+03  0.39191459777E+04  0.38978262971E+04 0.  0.
        3    1    3    3  502    0 -0.54536591491E+03 -0.18600474439E+04 -0.37131579023E+00  0.19383499742E+04  0.10100000352E+00 0. -1.
       -3    1    3    3    0  502  0.54536591491E+03  0.18600474439E+04 -0.40786311739E+03  0.19807960035E+04  0.10100000352E+00 0.  1.
</event>
<event>
 5   0  0.6335942E-09  0.3900362E+04  0.7818609E-02  0.8024954E-01
       -2   -1    0    0    0  501  0.00000000000E+00  0.00000000000E+00  0.16698066663E+04  0.16698066663E+04  0.25500000920E-02 0. -1.
        2   -1    0    0  501    0  0.00000000000E+00  0.00000000000E+00 -0.22776326997E+04  0.22776326997E+04  0.25500000920E-02 0.  1.
    10030    2    1    2    0    0  0.00000000000E+00  0.00000000000E+00 -0.60782603339E+03  0.39474393660E+04  0.39003621706E+04 0.  0.
        2    1    3    3  502    0 -0.73441085991E+03 -0.11192034941E+03 -0.21288187800E+04  0.22547183580E+04  0.25500000920E-02 0.  1.
       -2    1    3    3    0  502  0.73441085991E+03  0.11192034941E+03  0.15209927466E+04  0.16927210080E+04  0.25500000920E-02 0. -1.
</event>
<event>
 5   0  0.6335942E-09  0.3899968E+04  0.7818609E-02  0.8025036E-01
       -2   -1    0    0    0  501  0.00000000000E+00  0.00000000000E+00  0.17026929966E+04  0.17026929966E+04  0.25500000920E-02 0. -1.
        2   -1    0    0  501    0  0.00000000000E+00  0.00000000000E+00 -0.22331903078E+04  0.22331903078E+04  0.25500000920E-02 0.  1.
    10030    2    1    2    0    0  0.00000000000E+00  0.00000000000E+00 -0.53049731122E+03  0.39358833044E+04  0.38999679471E+04 0.  0.
        2    1    3    3  502    0 -0.11535607956E+04 -0.88476484559E+03  0.10463063419E+04  0.17911639518E+04  0.25500000920E-02 0. -1.
       -2    1    3    3    0  502  0.11535607956E+04  0.88476484559E+03 -0.15768036531E+04  0.21447193526E+04  0.25500000920E-02 0.  1.
</event>
<event>
 5   0  0.2904500E-09  0.3899396E+04  0.7818609E-02  0.8025155E-01
       -1   -1    0    0    0  501  0.00000000000E+00  0.00000000000E+00  0.26290763533E+04  0.26290763533E+04  0.50400001928E-02 0. -1.
        1   -1    0    0  501    0  0.00000000000E+00  0.00000000000E+00 -0.14458776805E+04  0.14458776805E+04  0.50400001928E-02 0.  1.
    10030    2    1    2    0    0  0.00000000000E+00  0.00000000000E+00  0.11831986728E+04  0.40749540338E+04  0.38993962710E+04 0.  0.
        4    1    3    3  502    0  0.14899922747E+04 -0.10595366996E+04 -0.11610975965E+03  0.18319874687E+04  0.12699999809E+01 0.  1.
       -4    1    3    3    0  502 -0.14899922747E+04  0.10595366996E+04  0.12993084324E+04  0.22429665650E+04  0.12699999809E+01 0. -1.
</event>
<event>
 5   0  0.2929054E-09  0.3899626E+04  0.7818609E-02  0.8025107E-01
       -1   -1    0    0    0  501  0.00000000000E+00  0.00000000000E+00  0.16277310513E+04  0.16277310513E+04  0.50400001928E-02 0. -1.
        1   -1    0    0  501    0  0.00000000000E+00  0.00000000000E+00 -0.23356259975E+04  0.23356259975E+04  0.50400001928E-02 0.  1.
    10030    2    1    2    0    0  0.00000000000E+00  0.00000000000E+00 -0.70789494614E+03  0.39633570488E+04  0.38996261156E+04 0.  0.
        1    1    3    3  502    0 -0.33615806484E+03  0.11513070619E+04  0.12084662717E+04  0.17026159065E+04  0.50400001928E-02 0. -1.
       -1    1    3    3    0  502  0.33615806484E+03 -0.11513070619E+04 -0.19163612178E+04  0.22607411423E+04  0.50400001928E-02 0.  1.
</event>
<event>
 5   0  0.2904500E-09  0.3900315E+04  0.7818609E-02  0.8024964E-01
        1   -1    0    0  501    0  0.00000000000E+00  0.00000000000E+00  0.24644435063E+04  0.24644435063E+04  0.50400001928E-02 0. -1.
       -1   -1    0    0    0  501  0.00000000000E+00  0.00000000000E+00 -0.15431936867E+04  0.15431936867E+04  0.50400001928E-02 0.  1.
    10030    2    1    2    0    0  0.00000000000E+00  0.00000000000E+00  0.92124981964E+03  0.40076371930E+04  0.39003146848E+04 0.  0.
        4    1    3    3  502    0  0.19050714001E+03  0.77512673510E+03  0.22889105256E+04  0.24240931155E+04  0.12699999809E+01 0. -1.
       -4    1    3    3    0  502 -0.19050714001E+03 -0.77512673510E+03 -0.13676607059E+04  0.15835440775E+04  0.12699999809E+01 0.  1.
</event>
<event>
 5   0  0.2904500E-09  0.3900570E+04  0.7818609E-02  0.8024911E-01
       -3   -1    0    0    0  501  0.00000000000E+00  0.00000000000E+00  0.20766368524E+04  0.20766368548E+04  0.10100000352E+00 0. -1.
        3   -1    0    0  501    0  0.00000000000E+00  0.00000000000E+00 -0.18316204860E+04  0.18316204887E+04  0.10100000352E+00 0.  1.
    10030    2    1    2    0    0  0.00000000000E+00  0.00000000000E+00  0.24501636640E+03  0.39082573436E+04  0.39005695025E+04 0.  0.
        3    1    3    3  502    0  0.92914672314E+03 -0.34849193079E+03  0.18047605239E+04  0.20595923912E+04  0.10100000352E+00 0. -1.
       -3    1    3    3    0  502 -0.92914672314E+03  0.34849193079E+03 -0.15597441575E+04  0.18486649524E+04  0.10100000352E+00 0.  1.
</event>
<event>
 5   0  0.2904500E-09  0.3900460E+04  0.7818609E-02  0.8024934E-01
        1   -1    0    0  501    0  0.00000000000E+00  0.00000000000E+00  0.23595047826E+04  0.23595047826E+04  0.50400001928E-02 0.  1.
       -1   -1    0    0    0  501  0.00000000000E+00  0.00000000000E+00 -0.16119470626E+04  0.16119470626E+04  0.50400001928E-02 0. -1.
    10030    2    1    2    0    0  0.00000000000E+00  0.00000000000E+00  0.74755772005E+03  0.39714518452E+04  0.39004598721E+04 0.  0.
        5    1    3    3  502    0  0.47825617776E+03 -0.12132679779E+04 -0.11026569131E+04  0.17078122015E+04  0.46999998093E+01 0. -1.
       -5    1    3    3    0  502 -0.47825617776E+03  0.12132679779E+04  0.18502146331E+04  0.22636396437E+04  0.46999998093E+01 0.  1.
</event>
<event>
 5   0  0.9434114E-09  0.3900364E+04  0.7818609E-02  0.8024953E-01
       -2   -1    0    0    0  501  0.00000000000E+00  0.00000000000E+00  0.13598241781E+04  0.13598241781E+04  0.25500000920E-02 0.  1.
        2   -1    0    0  501    0  0.00000000000E+00  0.00000000000E+00 -0.27968394559E+04  0.27968394559E+04  0.25500000920E-02 0. -1.
    10030    2    1    2    0    0  0.00000000000E+00  0.00000000000E+00 -0.14370152778E+04  0.41566636340E+04  0.39003640417E+04 0.  0.
        4    1    3    3  502    0  0.80111041837E+03 -0.86812075288E+03 -0.23721806961E+04  0.26500291341E+04  0.12699999809E+01 0. -1.
       -4    1    3    3    0  502 -0.80111041837E+03  0.86812075288E+03  0.93516541822E+03  0.15066344999E+04  0.12699999809E+01 0.  1.
</event>
<event>
 5   0  0.9277261E-09  0.3900148E+04  0.7818609E-02  0.8024998E-01
        2   -1    0    0  501    0  0.00000000000E+00  0.00000000000E+00  0.18971486462E+04  0.18971486462E+04  0.25500000920E-02 0. -1.
       -2   -1    0    0    0  501  0.00000000000E+00  0.00000000000E+00 -0.20044761169E+04  0.20044761169E+04  0.25500000920E-02 0.  1.
    10030    2    1    2    0    0  0.00000000000E+00  0.00000000000E+00 -0.10732747067E+03  0.39016247631E+04  0.39001482800E+04 0.  0.
        1    1    3    3  502    0  0.15547814579E+04 -0.11614315780E+04 -0.24483934990E+03  0.19560713176E+04  0.50400001928E-02 0.  1.
       -1    1    3    3    0  502 -0.15547814579E+04  0.11614315780E+04  0.13751187922E+03  0.19455534455E+04  0.50400001928E-02 0. -1.
</event>
<event>
 5   0  0.9277261E-09  0.3875381E+04  0.7818609E-02  0.8030169E-01
        2   -1    0    0  501    0  0.00000000000E+00  0.00000000000E+00  0.21450818988E+04  0.21450818988E+04  0.25500000920E-02 0.  1.
       -2   -1    0    0    0  501  0.00000000000E+00  0.00000000000E+00 -0.17503505134E+04  0.17503505134E+04  0.25500000920E-02 0. -1.
    10030    2    1    2    0    0  0.00000000000E+00  0.00000000000E+00  0.39473138544E+03  0.38954324122E+04  0.38753813763E+04 0.  0.
        1    1    3    3  502    0 -0.96336494030E+03  0.86102952052E+03  0.16488596272E+04  0.20947987764E+04  0.50400001928E-02 0.  1.
       -1    1    3    3    0  502  0.96336494030E+03 -0.86102952052E+03 -0.12541282418E+04  0.18006336358E+04  0.50400001928E-02 0. -1.
</event>
<event>
 5   0  0.9078515E-09  0.3900199E+04  0.7818609E-02  0.8024988E-01
        2   -1    0    0  501    0  0.00000000000E+00  0.00000000000E+00  0.25551485973E+04  0.25551485973E+04  0.25500000920E-02 0. -1.
       -2   -1    0    0    0  501  0.00000000000E+00  0.00000000000E+00 -0.14883236755E+04  0.14883236755E+04  0.25500000920E-02 0.  1.
    10030    2    1    2    0    0  0.00000000000E+00  0.00000000000E+00  0.10668249218E+04  0.40434722728E+04  0.39001990471E+04 0.  0.
        3    1    3    3  502    0 -0.31626776500E+02  0.38915351892E+03 -0.14473880832E+04  0.14991240735E+04  0.10100000352E+00 0.  1.
       -3    1    3    3    0  502  0.31626776500E+02 -0.38915351892E+03  0.25142130050E+04  0.25443481993E+04  0.10100000352E+00 0. -1.
</event>
<event>
 5   0  0.9078515E-09  0.3900692E+04  0.7818609E-02  0.8024885E-01
        2   -1    0    0  501    0  0.00000000000E+00  0.00000000000E+00  0.23464800606E+04  0.23464800606E+04  0.25500000920E-02 0. -1.
       -2   -1    0    0    0  501  0.00000000000E+00  0.00000000000E+00 -0.16210873427E+04  0.16210873427E+04  0.25500000920E-02 0.  1.
    10030    2    1    2    0    0  0.00000000000E+00  0.00000000000E+00  0.72539271791E+03  0.39675674033E+04  0.39006917982E+04 0.  0.
        3    1    3    3  502    0  0.12919589977E+04  0.13603711164E+04  0.90482723798E+03  0.20829018140E+04  0.10100000352E+00 0.  1.
       -3    1    3    3    0  502 -0.12919589977E+04 -0.13603711164E+04 -0.17943452007E+03  0.18846655893E+04  0.10100000352E+00 0. -1.
</event>
<event>
 5   0  0.9368546E-09  0.3899637E+04  0.7818609E-02  0.8025105E-01
       -2   -1    0    0    0  501  0.00000000000E+00  0.00000000000E+00  0.12705447523E+04  0.12705447523E+04  0.25500000920E-02 0.  1.
        2   -1    0    0  501    0  0.00000000000E+00  0.00000000000E+00 -0.29922532923E+04  0.29922532923E+04  0.25500000920E-02 0. -1.
    10030    2    1    2    0    0  0.00000000000E+00  0.00000000000E+00 -0.17217085399E+04  0.42627980446E+04  0.38996367616E+04 0.  0.
        5    1    3    3  502    0  0.60277207962E+03 -0.62301074582E+03 -0.27700101320E+04  0.29024911354E+04  0.46999998093E+01 0. -1.
       -5    1    3    3    0  502 -0.60277207962E+03  0.62301074582E+03  0.10483015921E+04  0.13603069093E+04  0.46999998093E+01 0.  1.
</event>
<event>
 5   0  0.2929054E-09  0.3901852E+04  0.7818609E-02  0.8024644E-01
        1   -1    0    0  501    0  0.00000000000E+00  0.00000000000E+00  0.20737232917E+04  0.20737232917E+04  0.50400001928E-02 0.  1.
       -1   -1    0    0    0  501  0.00000000000E+00  0.00000000000E+00 -0.18354001038E+04  0.18354001038E+04  0.50400001928E-02 0. -1.
    10030    2    1    2    0    0  0.00000000000E+00  0.00000000000E+00  0.23832318789E+03  0.39091233956E+04  0.39018518398E+04 0.  0.
        1    1    3    3  502    0  0.11467584382E+04  0.24863186532E+03 -0.14423447310E+04  0.18593630746E+04  0.50400001928E-02 0. -1.
       -1    1    3    3    0  502 -0.11467584382E+04 -0.24863186532E+03  0.16806679189E+04  0.20497603210E+04  0.50400001928E-02 0.  1.
</event>
<event>
 5   0  0.9434114E-09  0.3899328E+04  0.7818609E-02  0.8025169E-01
       -2   -1    0    0    0  501  0.00000000000E+00  0.00000000000E+00  0.20428697976E+04  0.20428697976E+04  0.25500000920E-02 0. -1.
        2   -1    0    0  501    0  0.00000000000E+00  0.00000000000E+00 -0.18607104508E+04  0.18607104508E+04  0.25500000920E-02 0.  1.
    10030    2    1    2    0    0  0.00000000000E+00  0.00000000000E+00  0.18215934676E+03  0.39035802484E+04  0.38993277277E+04 0.  0.
        4    1    3    3  502    0 -0.19432963475E+04  0.15606741021E+03  0.11183483143E+03  0.19527586571E+04  0.12699999809E+01 0.  1.
       -4    1    3    3    0  502  0.19432963475E+04 -0.15606741021E+03  0.70324515322E+02  0.19508215913E+04  0.12699999809E+01 0. -1.
</event>
<event>
 5   0  0.2904500E-09  0.3900226E+04  0.7818609E-02  0.8024982E-01
        1   -1    0    0  501    0  0.00000000000E+00  0.00000000000E+00  0.20113622520E+04  0.20113622521E+04  0.50400001928E-02 0.  1.
       -1   -1    0    0    0  501  0.00000000000E+00  0.00000000000E+00 -0.18907285386E+04  0.18907285386E+04  0.50400001928E-02 0. -1.
    10030    2    1    2    0    0  0.00000000000E+00  0.00000000000E+00  0.12063371348E+03  0.39020907906E+04  0.39002256403E+04 0.  0.
        3    1    3    3  502    0  0.94371590366E+03 -0.69398156590E+03  0.16201422522E+04  0.19992676279E+04  0.10100000352E+00 0.  1.
       -3    1    3    3    0  502 -0.94371590366E+03  0.69398156590E+03 -0.14995085387E+04  0.19028231627E+04  0.10100000352E+00 0. -1.
</event>
<event>
 5   0  0.2904500E-09  0.3902317E+04  0.7818609E-02  0.8024547E-01
       -1   -1    0    0    0  501  0.00000000000E+00  0.00000000000E+00  0.18598060149E+04  0.18598060149E+04  0.50400001928E-02 0.  1.
        1   -1    0    0  501    0  0.00000000000E+00  0.00000000000E+00 -0.20469984807E+04  0.20469984808E+04  0.50400001928E-02 0. -1.
    10030    2    1    2    0    0  0.00000000000E+00  0.00000000000E+00 -0.18719246582E+03  0.39068044957E+04  0.39023173049E+04 0.  0.
        2    1    3    3  502    0 -0.15951508507E+04 -0.54343092224E+03  0.89099621043E+03  0.19062260230E+04  0.25500000920E-02 0.  1.
       -2    1    3    3    0  502  0.15951508507E+04  0.54343092224E+03 -0.10781886763E+04  0.20005784727E+04  0.25500000920E-02 0. -1.
</event>
<event>
 5   0  0.2904500E-09  0.3900003E+04  0.7818609E-02  0.8025029E-01
        1   -1    0    0  501    0  0.00000000000E+00  0.00000000000E+00  0.18829923303E+04  0.18829923303E+04  0.50400001928E-02 0. -1.
       -1   -1    0    0    0  501  0.00000000000E+00  0.00000000000E+00 -0.20193949295E+04  0.20193949295E+04  0.50400001928E-02 0.  1.
    10030    2    1    2    0    0  0.00000000000E+00  0.00000000000E+00 -0.13640259912E+03  0.39023872598E+04  0.39000026483E+04 0.  0.
        4    1    3    3  502    0 -0.62078942951E+02  0.18008011608E+04  0.67775096117E+03  0.19251198908E+04  0.12699999809E+01 0. -1.
       -4    1    3    3    0  502  0.62078942951E+02 -0.18008011608E+04 -0.81415356030E+03  0.19772673690E+04  0.12699999809E+01 0.  1.
</event>
<event>
 5   0  0.9434114E-09  0.3899840E+04  0.7818609E-02  0.8025062E-01
       -2   -1    0    0    0  501  0.00000000000E+00  0.00000000000E+00  0.15609171279E+04  0.15609171279E+04  0.25500000920E-02 0. -1.
        2   -1    0    0  501    0  0.00000000000E+00  0.00000000000E+00 -0.24358681491E+04  0.24358681491E+04  0.25500000920E-02 0.  1.
    10030    2    1    2    0    0  0.00000000000E+00  0.00000000000E+00 -0.87495102128E+03  0.39967852770E+04  0.38998401584E+04 0.  0.
        4    1    3    3  502    0 -0.36627253182E+03  0.17941504036E+04  0.24929873784E+03  0.18480483522E+04  0.12699999809E+01 0. -1.
       -4    1    3    3    0  502  0.36627253182E+03 -0.17941504036E+04 -0.11242497591E+04  0.21487369248E+04  0.12699999809E+01 0.  1.
</event>
<event>
 5   0  0.2904500E-09  0.3898735E+04  0.7818609E-02  0.8025292E-01
        1   -1    0    0  501    0  0.00000000000E+00  0.00000000000E+00  0.16170296190E+04  0.16170296190E+04  0.50400001928E-02 0. -1.
       -1   -1    0    0    0  501  0.00000000000E+00  0.00000000000E+00 -0.23500082805E+04  0.23500082805E+04  0.50400001928E-02 0.  1.
    10030    2    1    2    0    0  0.00000000000E+00  0.00000000000E+00 -0.73297866149E+03  0.39670378995E+04  0.38987346637E+04 0.  0.
        5    1    3    3  502    0 -0.12919107228E+04  0.73116679045E+03 -0.16521010364E+04  0.22210578821E+04  0.46999998093E+01 0.  1.
       -5    1    3    3    0  502  0.12919107228E+04 -0.73116679045E+03  0.91912237486E+03  0.17459800174E+04  0.46999998093E+01 0. -1.
</event>
<event>
 5   0  0.2904500E-09  0.3897270E+04  0.7818609E-02  0.8025597E-01
       -1   -1    0    0    0  501  0.00000000000E+00  0.00000000000E+00  0.20014254331E+04  0.20014254331E+04  0.50400001928E-02 0.  1.
        1   -1    0    0  501    0  0.00000000000E+00  0.00000000000E+00 -0.18972373624E+04  0.18972373624E+04  0.50400001928E-02 0. -1.
    10030    2    1    2    0    0  0.00000000000E+00  0.00000000000E+00  0.10418807073E+03  0.38986627955E+04  0.38972703831E+04 0.  0.
        3    1    3    3  502    0  0.12128648338E+04 -0.13215066427E+04 -0.70959653990E+03  0.19289759385E+04  0.10100000352E+00 0. -1.
       -3    1    3    3    0  502 -0.12128648338E+04  0.13215066427E+04  0.81378461063E+03  0.19696868570E+04  0.10100000352E+00 0.  1.
</event>
<event>
 5   0  0.2904500E-09  0.3900820E+04  0.7818609E-02  0.8024859E-01
        1   -1    0    0  501    0  0.00000000000E+00  0.00000000000E+00  0.21034944842E+04  0.21034944842E+04  0.50400001928E-02 0.  1.
       -1   -1    0    0    0  501  0.00000000000E+00  0.00000000000E+00 -0.18084661713E+04  0.18084661713E+04  0.50400001928E-02 0. -1.
    10030    2    1    2    0    0  0.00000000000E+00  0.00000000000E+00  0.29502831284E+03  0.39119606555E+04  0.39008197170E+04 0.  0.
        5    1    3    3  502    0 -0.72358674786E+03 -0.17993375237E+04 -0.60159923490E+02  0.19403181729E+04  0.46999998093E+01 0. -1.
       -5    1    3    3    0  502  0.72358674786E+03  0.17993375237E+04  0.35518823633E+03  0.19716424826E+04  0.46999998093E+01 0.  1.
</event>
<event>
 5   0  0.9078515E-09  0.3902023E+04  0.7818609E-02  0.8024608E-01
       -2   -1    0    0    0  501  0.00000000000E+00  0.00000000000E+00  0.21602240609E+04  0.21602240609E+04  0.25500000920E-02 0. -1.
        2   -1    0    0  501    0  0.00000000000E+00  0.00000000000E+00 -0.17620610903E+04  0.17620610903E+04  0.25500000920E-02 0.  1.
    10030    2    1    2    0    0  0.00000000000E+00  0.00000000000E+00  0.39816297060E+03  0.39222851512E+04  0.39020234566E+04 0.  0.
        3    1    3    3  502    0  0.13765701555E+03 -0.14909470859E+04  0.14564059166E+04  0.20887773628E+04  0.10100000352E+00 0. -1.
       -3    1    3    3    0  502 -0.13765701555E+03  0.14909470859E+04 -0.10582429460E+04  0.18335077884E+04  0.10100000352E+00 0.  1.
</event>
<event>
 5   0  0.9277261E-09  0.3900658E+04  0.7818609E-02  0.8024892E-01
       -2   -1    0    0    0  501  0.00000000000E+00  0.00000000000E+00  0.16785516540E+04  0.16785516540E+04  0.25500000920E-02 0.  1.
        2   -1    0    0  501    0  0.00000000000E+00  0.00000000000E+00 -0.22661103343E+04  0.22661103343E+04  0.25500000920E-02 0. -1.
    10030    2    1    2    0    0  0.00000000000E+00  0.00000000000E+00 -0.58755868029E+03  0.39446619883E+04  0.39006580213E+04 0.  0.
        1    1    3    3  502    0  0.59068679012E+03 -0.35325917539E+03  0.15516578693E+04  0.16974525243E+04  0.50400001928E-02 0.  1.
       -1    1    3    3    0  502 -0.59068679012E+03  0.35325917539E+03 -0.21392165496E+04  0.22472094640E+04  0.50400001928E-02 0. -1.
</event>
<event>
 5   0  0.9368546E-09  0.3899393E+04  0.7818609E-02  0.8025155E-01
        2   -1    0    0  501    0  0.00000000000E+00  0.00000000000E+00  0.20416399119E+04  0.20416399119E+04  0.25500000920E-02 0.  1.
       -2   -1    0    0    0  501  0.00000000000E+00  0.00000000000E+00 -0.18618940371E+04  0.18618940371E+04  0.25500000920E-02 0. -1.
    10030    2    1    2    0    0  0.00000000000E+00  0.00000000000E+00  0.17974587484E+03  0.39035339490E+04  0.38993933774E+04 0.  0.
        5    1    3    3  502    0  0.17895326105E+03  0.93694054836E+03  0.17920941283E+04  0.20301490870E+04  0.46999998093E+01 0.  1.
       -5    1    3    3    0  502 -0.17895326105E+03 -0.93694054836E+03 -0.16123482534E+04  0.18733848620E+04  0.46999998093E+01 0. -1.
</event>
<event>
 5   0  0.9368546E-09  0.3899281E+04  0.7818609E-02  0.8025179E-01
        2   -1    0    0  501    0  0.00000000000E+00  0.00000000000E+00  0.21419410562E+04  0.21419410562E+04  0.25500000920E-02 0. -1.
       -2   -1    0    0    0  501  0.00000000000E+00  0.00000000000E+00 -0.17746044163E+04  0.17746044163E+04  0.25500000920E-02 0.  1.
    10030    2    1    2    0    0  0.00000000000E+00  0.00000000000E+00  0.36733663995E+03  0.39165454725E+04  0.38992809890E+04 0.  0.
        5    1    3    3  502    0  0.14775085941E+04 -0.27568143629E+03  0.14309571509E+04  0.20752571787E+04  0.46999998093E+01 0. -1.
       -5    1    3    3    0  502 -0.14775085941E+04  0.27568143629E+03 -0.10636205109E+04  0.18412882939E+04  0.46999998093E+01 0.  1.
</event>
<event>
 5   0  0.9277261E-09  0.3900875E+04  0.7818609E-02  0.8024847E-01
        2   -1    0    0  501    0  0.00000000000E+00  0.00000000000E+00  0.13858540633E+04  0.13858540633E+04  0.25500000920E-02 0.  1.
       -2   -1    0    0    0  501  0.00000000000E+00  0.00000000000E+00 -0.27450267804E+04  0.27450267804E+04  0.25500000920E-02 0. -1.
    10030    2    1    2    0    0  0.00000000000E+00  0.00000000000E+00 -0.13591727171E+04  0.41308808437E+04  0.39008750390E+04 0.  0.
        1    1    3    3  502    0 -0.11624598833E+04  0.10957117563E+04  0.50546297311E+03  0.16755267979E+04  0.50400001928E-02 0.  1.
       -1    1    3    3    0  502  0.11624598833E+04 -0.10957117563E+04 -0.18646356902E+04  0.24553540458E+04  0.50400001928E-02 0. -1.
</event>
<event>
 5   0  0.2904500E-09  0.3901091E+04  0.7818609E-02  0.8024802E-01
        3   -1    0    0  501    0  0.00000000000E+00  0.00000000000E+00  0.28059797767E+04  0.28059797785E+04  0.10100000352E+00 0.  1.
       -3   -1    0    0    0  501  0.00000000000E+00  0.00000000000E+00 -0.13558998833E+04  0.13558998871E+04  0.10100000352E+00 0. -1.
    10030    2    1    2    0    0  0.00000000000E+00  0.00000000000E+00  0.14500798934E+04  0.41618796656E+04  0.39010909568E+04 0.  0.
        4    1    3    3  502    0  0.11850147655E+04 -0.15142318650E+04  0.37530192075E+03  0.19590842963E+04  0.12699999809E+01 0.  1.
       -4    1    3    3    0  502 -0.11850147655E+04  0.15142318650E+04  0.10747779726E+04  0.22027953693E+04  0.12699999809E+01 0. -1.
</event>
<event>
 5   0  0.9277261E-09  0.3897706E+04  0.7818609E-02  0.8025506E-01
        2   -1    0    0  501    0  0.00000000000E+00  0.00000000000E+00  0.22387525247E+04  0.22387525247E+04  0.25500000920E-02 0. -1.
       -2   -1    0    0    0  501  0.00000000000E+00  0.00000000000E+00 -0.16964933164E+04  0.16964933164E+04  0.25500000920E-02 0.  1.
    10030    2    1    2    0    0  0.00000000000E+00  0.00000000000E+00  0.54225920835E+03  0.39352458411E+04  0.38977063488E+04 0.  0.
        1    1    3    3  502    0 -0.12859406238E+03 -0.17215720630E+04  0.11840963161E+04  0.20934256344E+04  0.50400001928E-02 0. -1.
       -1    1    3    3    0  502  0.12859406238E+03  0.17215720630E+04 -0.64183710776E+03  0.18418202067E+04  0.50400001928E-02 0.  1.
</event>
<event>
 5   0  0.9078515E-09  0.3897482E+04  0.7818609E-02  0.8025553E-01
       -2   -1    0    0    0  501  0.00000000000E+00  0.00000000000E+00  0.15102019222E+04  0.15102019222E+04  0.25500000920E-02 0. -1.
        2   -1    0    0  501    0  0.00000000000E+00  0.00000000000E+00 -0.25146251127E+04  0.25146251127E+04  0.25500000920E-02 0.  1.
    10030    2    1    2    0    0  0.00000000000E+00  0.00000000000E+00 -0.10044231905E+04  0.40248270349E+04  0.38974820995E+04 0.  0.
        3    1    3    3  502    0  0.13231876102E+04  0.12370554248E+04 -0.12443441394E+04  0.21976177837E+04  0.10100000352E+00 0.  1.
       -3    1    3    3    0  502 -0.13231876102E+04 -0.12370554248E+04  0.23992094889E+03  0.18272092512E+04  0.10100000352E+00 0. -1.
</event>
<event>
 5   0  0.2904500E-09  0.3900885E+04  0.7818609E-02  0.8024845E-01
       -1   -1    0    0    0  501  0.00000000000E+00  0.00000000000E+00  0.18866311779E+04  0.18866311779E+04  0.50400001928E-02 0. -1.
        1   -1    0    0  501    0  0.00000000000E+00  0.00000000000E+00 -0.20164120952E+04  0.20164120952E+04  0.50400001928E-02 0.  1.
    10030    2    1    2    0    0  0.00000000000E+00  0.00000000000E+00 -0.12978091727E+03  0.39030432731E+04  0.39008849900E+04 0.  0.
        4    1    3    3  502    0  0.16673191490E+04  0.60201877671E+03 -0.87887887085E+03  0.19785877374E+04  0.12699999809E+01 0.  1.
       -4    1    3    3    0  502 -0.16673191490E+04 -0.60201877671E+03  0.74909795358E+03  0.19244555357E+04  0.12699999809E+01 0. -1.
</event>
<event>
 5   0  0.2904500E-09  0.3899301E+04  0.7818609E-02  0.8025175E-01
       -1   -1    0    0    0  501  0.00000000000E+00  0.00000000000E+00  0.16623411917E+04  0.16623411917E+04  0.50400001928E-02 0. -1.
        1   -1    0    0  501    0  0.00000000000E+00  0.00000000000E+00 -0.22866171696E+04  0.22866171696E+04  0.50400001928E-02 0.  1.
    10030    2    1    2    0    0  0.00000000000E+00  0.00000000000E+00 -0.62427597791E+03  0.39489583613E+04  0.38993014301E+04 0.  0.
        2    1    3    3  502    0 -0.94252150345E+03  0.12656492946E+04 -0.14716742521E+04  0.21577859082E+04  0.25500000920E-02 0.  1.
       -2    1    3    3    0  502  0.94252150345E+03 -0.12656492946E+04  0.84739827421E+03  0.17911724531E+04  0.25500000920E-02 0. -1.
</event>
<event>
 5   0  0.2929054E-09  0.3897567E+04  0.7818609E-02  0.8025536E-01
        1   -1    0    0  501    0  0.00000000000E+00  0.00000000000E+00  0.21312045921E+04  0.21312045921E+04  0.50400001928E-02 0.  1.
       -1   -1    0    0    0  501  0.00000000000E+00  0.00000000000E+00 -0.17819763917E+04  0.17819763917E+04  0.50400001928E-02 0. -1.
    10030    2    1    2    0    0  0.00000000000E+00  0.00000000000E+00  0.34922820039E+03  0.39131809839E+04  0.38975665583E+04 0.  0.
        1    1    3    3  502    0 -0.49431432767E+03  0.16473275859E+04 -0.74542019167E+03  0.18744828866E+04  0.50400001928E-02 0. -1.
       -1    1    3    3    0  502  0.49431432767E+03 -0.16473275859E+04  0.10946483921E+04  0.20386980973E+04  0.50400001928E-02 0.  1.
</event>
<event>
 5   0  0.9078515E-09  0.3906104E+04  0.7818609E-02  0.8023761E-01
       -2   -1    0    0    0  501  0.00000000000E+00  0.00000000000E+00  0.29680772559E+04  0.29680772559E+04  0.25500000920E-02 0. -1.
        2   -1    0    0  501    0  0.00000000000E+00  0.00000000000E+00 -0.12851460299E+04  0.12851460299E+04  0.25500000920E-02 0.  1.
    10030    2    1    2    0    0  0.00000000000E+00  0.00000000000E+00  0.16829312260E+04  0.42532232858E+04  0.39061043006E+04 0.  0.
        3    1    3    3  502    0 -0.83207654266E+03  0.96155910824E+03  0.24555839457E+04  0.27652919947E+04  0.10100000352E+00 0. -1.
       -3    1    3    3    0  502  0.83207654266E+03 -0.96155910824E+03 -0.77265271969E+03  0.14879312911E+04  0.10100000352E+00 0.  1.
</event>
<event>
 5   0  0.2929054E-09  0.3901273E+04  0.7818609E-02  0.8024765E-01
        1   -1    0    0  501    0  0.00000000000E+00  0.00000000000E+00  0.23785026696E+04  0.23785026696E+04  0.50400001928E-02 0.  1.
       -1   -1    0    0    0  501  0.00000000000E+00  0.00000000000E+00 -0.15997386271E+04  0.15997386271E+04  0.50400001928E-02 0. -1.
    10030    2    1    2    0    0  0.00000000000E+00  0.00000000000E+00  0.77876404249E+03  0.39782412967E+04  0.39012729180E+04 0.  0.
        1    1    3    3  502    0 -0.90180227049E+03 -0.47930105246E+03 -0.13053345593E+04  0.16573699483E+04  0.50400001928E-02 0. -1.
       -1    1    3    3    0  502  0.90180227049E+03  0.47930105246E+03  0.20840986017E+04  0.23208713484E+04  0.50400001928E-02 0.  1.
</event>
<event>
 5   0  0.2904500E-09  0.3903956E+04  0.7818609E-02  0.8024207E-01
        3   -1    0    0  501    0  0.00000000000E+00  0.00000000000E+00  0.19713436862E+04  0.19713436888E+04  0.10100000352E+00 0. -1.
       -3   -1    0    0    0  501  0.00000000000E+00  0.00000000000E+00 -0.19328028451E+04  0.19328028478E+04  0.10100000352E+00 0.  1.
    10030    2    1    2    0    0  0.00000000000E+00  0.00000000000E+00  0.38540841050E+02  0.39041465365E+04  0.39039562987E+04 0.  0.
        1    1    3    3  502    0  0.19385155377E+03  0.15217509711E+04 -0.11878154279E+04  0.19401571930E+04  0.50400001928E-02 0.  1.
       -1    1    3    3    0  502 -0.19385155377E+03 -0.15217509711E+04  0.12263562690E+04  0.19639893435E+04  0.50400001928E-02 0. -1.
</event>
<event>
 5   0  0.9368546E-09  0.3894629E+04  0.7818609E-02  0.8026147E-01
        2   -1    0    0  501    0  0.00000000000E+00  0.00000000000E+00  0.19016704995E+04  0.19016704995E+04  0.25500000920E-02 0. -1.
       -2   -1    0    0    0  501  0.00000000000E+00  0.00000000000E+00 -0.19940541116E+04  0.19940541116E+04  0.25500000920E-02 0.  1.
    10030    2    1    2    0    0  0.00000000000E+00  0.00000000000E+00 -0.92383612092E+02  0.38957246112E+04  0.38946290599E+04 0.  0.
        5    1    3    3  502    0  0.15402608604E+04 -0.14550496237E+03 -0.12290795614E+04  0.19759134269E+04  0.46999998093E+01 0.  1.
       -5    1    3    3    0  502 -0.15402608604E+04  0.14550496237E+03  0.11366959493E+04  0.19198111843E+04  0.46999998093E+01 0. -1.
</event>
<event>
 5   0  0.9434114E-09  0.3900337E+04  0.7818609E-02  0.8024959E-01
        2   -1    0    0  501    0  0.00000000000E+00  0.00000000000E+00  0.33422382972E+04  0.33422382972E+04  0.25500000920E-02 0.  1.
       -2   -1    0    0    0  501  0.00000000000E+00  0.00000000000E+00 -0.11379072579E+04  0.11379072579E+04  0.25500000920E-02 0. -1.
    10030    2    1    2    0    0  0.00000000000E+00  0.00000000000E+00  0.22043310393E+04  0.44801455550E+04  0.39003370192E+04 0.  0.
        4    1    3    3  502    0 -0.14867810640E+04  0.12496131791E+04  0.13047481067E+04  0.23397479062E+04  0.12699999809E+01 0.  1.
       -4    1    3    3    0  502  0.14867810640E+04 -0.12496131791E+04  0.89958293258E+03  0.21403976488E+04  0.12699999809E+01 0. -1.
</event>
<event>
 5   0  0.9434114E-09  0.3900430E+04  0.7818609E-02  0.8024940E-01
        2   -1    0    0  501    0  0.00000000000E+00  0.00000000000E+00  0.14778313586E+04  0.14778313586E+04  0.25500000920E-02 0.  1.
       -2   -1    0    0    0  501  0.00000000000E+00  0.00000000000E+00 -0.25735947439E+04  0.25735947439E+04  0.25500000920E-02 0. -1.
    10030    2    1    2    0    0  0.00000000000E+00  0.00000000000E+00 -0.10957633853E+04  0.40514261025E+04  0.39004302413E+04 0.  0.
        4    1    3    3  502    0 -0.31236107607E+02  0.19423129654E+04 -0.36862609318E+03  0.19772309322E+04  0.12699999809E+01 0. -1.
       -4    1    3    3    0  502  0.31236107607E+02 -0.19423129654E+04 -0.72713729209E+03  0.20741951702E+04  0.12699999809E+01 0.  1.
</event>
<event>
 5   0  0.9368546E-09  0.3901749E+04  0.7818609E-02  0.8024665E-01
        2   -1    0    0  501    0  0.00000000000E+00  0.00000000000E+00  0.21056421035E+04  0.21056421035E+04  0.25500000920E-02 0. -1.
       -2   -1    0    0    0  501  0.00000000000E+00  0.00000000000E+00 -0.18074828979E+04  0.18074828979E+04  0.25500000920E-02 0.  1.
    10030    2    1    2    0    0  0.00000000000E+00  0.00000000000E+00  0.29815920562E+03  0.39131250014E+04  0.39017493980E+04 0.  0.
        5    1    3    3  502    0  0.99490377509E+03 -0.14766082099E+04 -0.65054329088E+03  0.18956355110E+04  0.46999998093E+01 0.  1.
       -5    1    3    3    0  502 -0.99490377509E+03  0.14766082099E+04  0.94870249650E+03  0.20174894904E+04  0.46999998093E+01 0. -1.
</event>
<event>
 5   0  0.2904500E-09  0.3900504E+04  0.7818609E-02  0.8024924E-01
        1   -1    0    0  501    0  0.00000000000E+00  0.00000000000E+00  0.16721156461E+04  0.16721156461E+04  0.50400001928E-02 0. -1.
       -1   -1    0    0    0  501  0.00000000000E+00  0.00000000000E+00 -0.22746527436E+04  0.22746527436E+04  0.50400001928E-02 0.  1.
    10030    2    1    2    0    0  0.00000000000E+00  0.00000000000E+00 -0.60253709751E+03  0.39467683898E+04  0.39005037839E+04 0.  0.
        4    1    3    3  502    0 -0.70067858979E+03  0.17112014375E+04 -0.92855718659E+03  0.20691498030E+04  0.12699999809E+01 0.  1.
       -4    1    3    3    0  502  0.70067858979E+03 -0.17112014375E+04  0.32602008908E+03  0.18776185867E+04  0.12699999809E+01 0. -1.
</event>
<event>
 5   0  0.9434114E-09  0.3900066E+04  0.7818609E-02  0.8025015E-01
        2   -1    0    0  501    0  0.00000000000E+00  0.00000000000E+00  0.12526363497E+04  0.12526363497E+04  0.25500000920E-02 0. -1.
       -2   -1    0    0    0  501  0.00000000000E+00  0.00000000000E+00 -0.30357007591E+04  0.30357007591E+04  0.25500000920E-02 0.  1.
    10030    2    1    2    0    0  0.00000000000E+00  0.00000000000E+00 -0.17830644094E+04  0.42883371088E+04  0.39000662136E+04 0.  0.
        4    1    3    3  502    0 -0.90054901005E+03 -0.12232949900E+04  0.45298043841E+03  0.15851283994E+04  0.12699999809E+01 0. -1.
       -4    1    3    3    0  502  0.90054901005E+03  0.12232949900E+04 -0.22360448478E+04  0.27032087094E+04  0.12699999809E+01 0.  1.
</event>
<event>
 5   0  0.2904500E-09  0.3901981E+04  0.7818609E-02  0.8024617E-01
        1   -1    0    0  501    0  0.00000000000E+00  0.00000000000E+00  0.22174838602E+04  0.22174838602E+04  0.50400001928E-02 0.  1.
       -1   -1    0    0    0  501  0.00000000000E+00  0.00000000000E+00 -0.17165238099E+04  0.17165238099E+04  0.50400001928E-02 0. -1.
    10030    2    1    2    0    0  0.00000000000E+00  0.00000000000E+00  0.50096005030E+03  0.39340076701E+04  0.39019809554E+04 0.  0.
        4    1    3    3  502    0  0.89830504051E+03  0.12621142270E+04 -0.94520426448E+03  0.18147443297E+04  0.12699999809E+01 0. -1.
       -4    1    3    3    0  502 -0.89830504051E+03 -0.12621142270E+04  0.14461643148E+04  0.21192633404E+04  0.12699999809E+01 0.  1.
</event>
<event>
 5   0  0.2904500E-09  0.3894726E+04  0.7818609E-02  0.8026127E-01
        1   -1    0    0  501    0  0.00000000000E+00  0.00000000000E+00  0.30077003464E+04  0.30077003464E+04  0.50400001928E-02 0.  1.
       -1   -1    0    0    0  501  0.00000000000E+00  0.00000000000E+00 -0.12608378735E+04  0.12608378735E+04  0.50400001928E-02 0. -1.
    10030    2    1    2    0    0  0.00000000000E+00  0.00000000000E+00  0.17468624728E+04  0.42685382199E+04  0.38947259256E+04 0.  0.
        2    1    3    3  502    0 -0.12671904372E+03 -0.23618959268E+03 -0.12405244575E+04  0.12691509640E+04  0.25500000920E-02 0. -1.
       -2    1    3    3    0  502  0.12671904372E+03  0.23618959268E+03  0.29873869303E+04  0.29993872559E+04  0.25500000920E-02 0.  1.
</event>
<event>
 5   0  0.9368546E-09  0.3899612E+04  0.7818609E-02  0.8025110E-01
        2   -1    0    0  501    0  0.00000000000E+00  0.00000000000E+00  0.19580236838E+04  0.19580236838E+04  0.25500000920E-02 0. -1.
       -2   -1    0    0    0  501  0.00000000000E+00  0.00000000000E+00 -0.19416230722E+04  0.19416230722E+04  0.25500000920E-02 0.  1.
    10030    2    1    2    0    0  0.00000000000E+00  0.00000000000E+00  0.16400611582E+02  0.38996467560E+04  0.38996122681E+04 0.  0.
        5    1    3    3  502    0 -0.60598528442E+03  0.23527675175E+03  0.18464626173E+04  0.19575544952E+04  0.46999998093E+01 0. -1.
       -5    1    3    3    0  502  0.60598528442E+03 -0.23527675175E+03 -0.18300620057E+04  0.19420922608E+04  0.46999998093E+01 0.  1.
</event>
<event>
 5   0  0.2904500E-09  0.3899341E+04  0.7818609E-02  0.8025166E-01
        1   -1    0    0  501    0  0.00000000000E+00  0.00000000000E+00  0.33279964120E+04  0.33279964120E+04  0.50400001928E-02 0.  1.
       -1   -1    0    0    0  501  0.00000000000E+00  0.00000000000E+00 -0.11421930873E+04  0.11421930873E+04  0.50400001928E-02 0. -1.
    10030    2    1    2    0    0  0.00000000000E+00  0.00000000000E+00  0.21858033247E+04  0.44701894993E+04  0.38993407116E+04 0.  0.
        4    1    3    3  502    0 -0.14364105308E+03  0.18527019253E+04  0.17692518381E+04  0.25658119291E+04  0.12699999809E+01 0.  1.
       -4    1    3    3    0  502  0.14364105308E+03 -0.18527019253E+04  0.41655148661E+03  0.19043775702E+04  0.12699999809E+01 0. -1.
</event>
<event>
 5   0  0.2904500E-09  0.3900342E+04  0.7818609E-02  0.8024958E-01
       -1   -1    0    0    0  501  0.00000000000E+00  0.00000000000E+00  0.12430410213E+04  0.12430410213E+04  0.50400001928E-02 0. -1.
        1   -1    0    0  501    0  0.00000000000E+00  0.00000000000E+00 -0.30595663436E+04  0.30595663436E+04  0.50400001928E-02 0.  1.
    10030    2    1    2    0    0  0.00000000000E+00  0.00000000000E+00 -0.18165253223E+04  0.43026073649E+04  0.39003417658E+04 0.  0.
        4    1    3    3  502    0  0.17931688149E+04 -0.65996653642E+03 -0.47796236908E+03  0.19696344502E+04  0.12699999809E+01 0.  1.
       -4    1    3    3    0  502 -0.17931688149E+04  0.65996653642E+03 -0.13385629533E+04  0.23329729147E+04  0.12699999809E+01 0. -1.
</event>
<event>
 5   0  0.9434114E-09  0.3901452E+04  0.7818609E-02  0.8024727E-01
       -2   -1    0    0    0  501  0.00000000000E+00  0.00000000000E+00  0.15455847107E+04  0.15455847107E+04  0.25500000920E-02 0. -1.
        2   -1    0    0  501    0  0.00000000000E+00  0.00000000000E+00 -0.24620660533E+04  0.24620660533E+04  0.25500000920E-02 0.  1.
    10030    2    1    2    0    0  0.00000000000E+00  0.00000000000E+00 -0.91648134258E+03  0.40076507640E+04  0.39014518573E+04 0.  0.
        4    1    3    3  502    0  0.18421976946E+03  0.18859844366E+04 -0.93393999344E+03  0.21126096996E+04  0.12699999809E+01 0.  1.
       -4    1    3    3    0  502 -0.18421976946E+03 -0.18859844366E+04  0.17458650852E+02  0.18950410644E+04  0.12699999809E+01 0. -1.
</event>
<event>
 5   0  0.6335942E-09  0.3891059E+04  0.7818609E-02  0.8026891E-01
        2   -1    0    0  501    0  0.00000000000E+00  0.00000000000E+00  0.23553889036E+04  0.23553889036E+04  0.25500000920E-02 0.  1.
       -2   -1    0    0    0  501  0.00000000000E+00  0.00000000000E+00 -0.16069894987E+04  0.16069894987E+04  0.25500000920E-02 0. -1.
    10030    2    1    2    0    0  0.00000000000E+00  0.00000000000E+00  0.74839940491E+03  0.39623784023E+04  0.38910591018E+04 0.  0.
        2    1    3    3  502    0 -0.79674961013E+03 -0.11864528427E+04  0.17184730599E+04  0.22350905903E+04  0.25500000920E-02 0.  1.
       -2    1    3    3    0  502  0.79674961013E+03  0.11864528427E+04 -0.97007365502E+03  0.17272878120E+04  0.25500000920E-02 0. -1.
</event>
<event>
 5   0  0.2904500E-09  0.3900419E+04  0.7818609E-02  0.8024942E-01
        1   -1    0    0  501    0  0.00000000000E+00  0.00000000000E+00  0.21446601704E+04  0.21446601704E+04  0.50400001928E-02 0. -1.
       -1   -1    0    0    0  501  0.00000000000E+00  0.00000000000E+00 -0.17733887602E+04  0.17733887602E+04  0.50400001928E-02 0.  1.
    10030    2    1    2    0    0  0.00000000000E+00  0.00000000000E+00  0.37127141015E+03  0.39180489306E+04  0.39004185625E+04 0.  0.
        3    1    3    3  502    0 -0.14415388188E+04 -0.10702572173E+04 -0.57927292932E+03  0.18865422905E+04  0.10100000352E+00 0.  1.
       -3    1    3    3    0  502  0.14415388188E+04  0.10702572173E+04  0.95054433947E+03  0.20315066401E+04  0.10100000352E+00 0. -1.
</event>
<event>
 5   0  0.6335942E-09  0.3899942E+04  0.7818609E-02  0.8025041E-01
       -2   -1    0    0    0  501  0.00000000000E+00  0.00000000000E+00  0.12531733641E+04  0.12531733641E+04  0.25500000920E-02 0.  1.
        2   -1    0    0  501    0  0.00000000000E+00  0.00000000000E+00 -0.30342069191E+04  0.30342069191E+04  0.25500000920E-02 0. -1.
    10030    2    1    2    0    0  0.00000000000E+00  0.00000000000E+00 -0.17810335551E+04  0.42873802832E+04  0.38999422007E+04 0.  0.
        2    1    3    3  502    0  0.30935758518E+03 -0.19252747356E+04 -0.88882469293E+03  0.21429872277E+04  0.25500000920E-02 0. -1.
       -2    1    3    3    0  502 -0.30935758518E+03  0.19252747356E+04 -0.89220886214E+03  0.21443930556E+04  0.25500000920E-02 0.  1.
</event>
<event>
 5   0  0.2904500E-09  0.3915556E+04  0.7818609E-02  0.8021802E-01
        1   -1    0    0  501    0  0.00000000000E+00  0.00000000000E+00  0.20242700065E+04  0.20242700065E+04  0.50400001928E-02 0.  1.
       -1   -1    0    0    0  501  0.00000000000E+00  0.00000000000E+00 -0.18934696586E+04  0.18934696586E+04  0.50400001928E-02 0. -1.
    10030    2    1    2    0    0  0.00000000000E+00  0.00000000000E+00  0.13080034791E+03  0.39177396652E+04  0.39155555612E+04 0.  0.
        5    1    3    3  502    0 -0.78789762218E+03 -0.16648733141E+04 -0.59851040346E+03  0.19367040579E+04  0.46999998093E+01 0. -1.
       -5    1    3    3    0  502  0.78789762218E+03  0.16648733141E+04  0.72931075136E+03  0.19810356072E+04  0.46999998093E+01 0.  1.
</event>
<event>
 5   0  0.9434114E-09  0.3896668E+04  0.7818609E-02  0.8025723E-01
        2   -1    0    0  501    0  0.00000000000E+00  0.00000000000E+00  0.18510888346E+04  0.18510888346E+04  0.25500000920E-02 0.  1.
       -2   -1    0    0    0  501  0.00000000000E+00  0.00000000000E+00 -0.20506875612E+04  0.20506875612E+04  0.25500000920E-02 0. -1.
    10030    2    1    2    0    0  0.00000000000E+00  0.00000000000E+00 -0.19959872652E+03  0.39017763958E+04  0.38966677291E+04 0.  0.
        4    1    3    3  502    0  0.11287584823E+04  0.12577786730E+04 -0.10705549621E+04  0.20005480353E+04  0.12699999809E+01 0. -1.
       -4    1    3    3    0  502 -0.11287584823E+04 -0.12577786730E+04  0.87095623561E+03  0.19012283605E+04  0.12699999809E+01 0.  1.
</event>
<event>
 5   0  0.6335942E-09  0.3898844E+04  0.7818609E-02  0.8025270E-01
        2   -1    0    0  501    0  0.00000000000E+00  0.00000000000E+00  0.16741873806E+04  0.16741873806E+04  0.25500000920E-02 0.  1.
       -2   -1    0    0    0  501  0.00000000000E+00  0.00000000000E+00 -0.22699045207E+04  0.22699045207E+04  0.25500000920E-02 0. -1.
    10030    2    1    2    0    0  0.00000000000E+00  0.00000000000E+00 -0.59571714015E+03  0.39440919013E+04  0.38988436766E+04 0.  0.
        2    1    3    3  502    0  0.12605032828E+04  0.16021125208E+03  0.11977137084E+04  0.17461541451E+04  0.25500000920E-02 0.  1.
       -2    1    3    3    0  502 -0.12605032828E+04 -0.16021125208E+03 -0.17934308486E+04  0.21979377561E+04  0.25500000920E-02 0. -1.
</event>
<event>
 5   0  0.2904500E-09  0.3900846E+04  0.7818609E-02  0.8024853E-01
       -1   -1    0    0    0  501  0.00000000000E+00  0.00000000000E+00  0.17393769640E+04  0.17393769640E+04  0.50400001928E-02 0. -1.
        1   -1    0    0  501    0  0.00000000000E+00  0.00000000000E+00 -0.21870766149E+04  0.21870766149E+04  0.50400001928E-02 0.  1.
    10030    2    1    2    0    0  0.00000000000E+00  0.00000000000E+00 -0.44769965086E+03  0.39264535789E+04  0.39008464120E+04 0.  0.
        3    1    3    3  502    0  0.10198986383E+04  0.16294945085E+04  0.10801906956E+03  0.19253866404E+04  0.10100000352E+00 0. -1.
       -3    1    3    3    0  502 -0.10198986383E+04 -0.16294945085E+04 -0.55571872041E+03  0.20010669384E+04  0.10100000352E+00 0.  1.
</event>
<event>
 5   0  0.9434114E-09  0.3899983E+04  0.7818609E-02  0.8025033E-01
        2   -1    0    0  501    0  0.00000000000E+00  0.00000000000E+00  0.20939836378E+04  0.20939836378E+04  0.25500000920E-02 0. -1.
       -2   -1    0    0    0  501  0.00000000000E+00  0.00000000000E+00 -0.18159008120E+04  0.18159008121E+04  0.25500000920E-02 0.  1.
    10030    2    1    2    0    0  0.00000000000E+00  0.00000000000E+00  0.27808282576E+03  0.39098844499E+04  0.38999828658E+04 0.  0.
        4    1    3    3  502    0 -0.19493947026E+03 -0.14149401837E+03 -0.18009277961E+04  0.18169657383E+04  0.12699999809E+01 0.  1.
       -4    1    3    3    0  502  0.19493947026E+03  0.14149401837E+03  0.20790106219E+04  0.20929187116E+04  0.12699999809E+01 0. -1.
</event>
<event>
 5   0  0.9368546E-09  0.3906554E+04  0.7818609E-02  0.8023667E-01
        2   -1    0    0  501    0  0.00000000000E+00  0.00000000000E+00  0.17814875980E+04  0.17814875980E+04  0.25500000920E-02 0.  1.
       -2   -1    0    0    0  501  0.00000000000E+00  0.00000000000E+00 -0.21416324822E+04  0.21416324822E+04  0.25500000920E-02 0. -1.
    10030    2    1    2    0    0  0.00000000000E+00  0.00000000000E+00 -0.36014488421E+03  0.39231200803E+04  0.39065543420E+04 0.  0.
        5    1    3    3  502    0 -0.15545990558E+04 -0.29985997363E+03  0.96870819122E+03  0.18561012574E+04  0.46999998093E+01 0.  1.
       -5    1    3    3    0  502  0.15545990558E+04  0.29985997363E+03 -0.13288530754E+04  0.20670188229E+04  0.46999998093E+01 0. -1.
</event>
<event>
 5   0  0.9277261E-09  0.3897521E+04  0.7818609E-02  0.8025545E-01
       -2   -1    0    0    0  501  0.00000000000E+00  0.00000000000E+00  0.14054919887E+04  0.14054919887E+04  0.25500000920E-02 0.  1.
        2   -1    0    0  501    0  0.00000000000E+00  0.00000000000E+00 -0.27020203373E+04  0.27020203373E+04  0.25500000920E-02 0. -1.
    10030    2    1    2    0    0  0.00000000000E+00  0.00000000000E+00 -0.12965283486E+04  0.41075123260E+04  0.38975212314E+04 0.  0.
        1    1    3    3  502    0 -0.77027508487E+03  0.17111760342E+04 -0.12021478729E+04  0.22285884849E+04  0.50400001928E-02 0. -1.
       -1    1    3    3    0  502  0.77027508487E+03 -0.17111760342E+04 -0.94380475622E+02  0.18789238411E+04  0.50400001928E-02 0.  1.
</event>
<event>
 5   0  0.2904500E-09  0.3900823E+04  0.7818609E-02  0.8024858E-01
        1   -1    0    0  501    0  0.00000000000E+00  0.00000000000E+00  0.24102992105E+04  0.24102992105E+04  0.50400001928E-02 0. -1.
       -1   -1    0    0    0  501  0.00000000000E+00  0.00000000000E+00 -0.15782712552E+04  0.15782712552E+04  0.50400001928E-02 0.  1.
    10030    2    1    2    0    0  0.00000000000E+00  0.00000000000E+00  0.83202795524E+03  0.39885704657E+04  0.39008234825E+04 0.  0.
        4    1    3    3  502    0 -0.22094822808E+03 -0.10828833602E+04  0.20592265005E+04  0.23370643732E+04  0.12699999809E+01 0. -1.
       -4    1    3    3    0  502  0.22094822808E+03  0.10828833602E+04 -0.12271985453E+04  0.16515060925E+04  0.12699999809E+01 0.  1.
</event>
<event>
 5   0  0.9434114E-09  0.3899118E+04  0.7818609E-02  0.8025213E-01
       -2   -1    0    0    0  501  0.00000000000E+00  0.00000000000E+00  0.15403444854E+04  0.15403444854E+04  0.25500000920E-02 0.  1.
        2   -1    0    0  501    0  0.00000000000E+00  0.00000000000E+00 -0.24674876058E+04  0.24674876058E+04  0.25500000920E-02 0. -1.
    10030    2    1    2    0    0  0.00000000000E+00  0.00000000000E+00 -0.92714312042E+03  0.40078320912E+04  0.38991183241E+04 0.  0.
        4    1    3    3  502    0  0.89511152071E+02 -0.69778762917E+03 -0.23324682689E+04  0.24362532011E+04  0.12699999809E+01 0. -1.
       -4    1    3    3    0  502 -0.89511152071E+02  0.69778762917E+03  0.14053251485E+04  0.15715788900E+04  0.12699999809E+01 0.  1.
</event>
<event>
 5   0  0.2904500E-09  0.3898623E+04  0.7818609E-02  0.8025316E-01
        1   -1    0    0  501    0  0.00000000000E+00  0.00000000000E+00  0.18463820473E+04  0.18463820473E+04  0.50400001928E-02 0.  1.
       -1   -1    0    0    0  501  0.00000000000E+00  0.00000000000E+00 -0.20579792652E+04  0.20579792652E+04  0.50400001928E-02 0. -1.
    10030    2    1    2    0    0  0.00000000000E+00  0.00000000000E+00 -0.21159721782E+03  0.39043613125E+04  0.38986233309E+04 0.  0.
        2    1    3    3  502    0  0.19281096650E+04  0.23867985771E+03 -0.26490664802E+03  0.19608035310E+04  0.25500000920E-02 0. -1.
       -2    1    3    3    0  502 -0.19281096650E+04 -0.23867985771E+03  0.53309430200E+02  0.19435577815E+04  0.25500000920E-02 0.  1.
</event>
<event>
 5   0  0.9277261E-09  0.3901646E+04  0.7818609E-02  0.8024687E-01
        2   -1    0    0  501    0  0.00000000000E+00  0.00000000000E+00  0.16875507865E+04  0.16875507865E+04  0.25500000920E-02 0.  1.
       -2   -1    0    0    0  501  0.00000000000E+00  0.00000000000E+00 -0.22551676868E+04  0.22551676868E+04  0.25500000920E-02 0. -1.
    10030    2    1    2    0    0  0.00000000000E+00  0.00000000000E+00 -0.56761690032E+03  0.39427184732E+04  0.39016458083E+04 0.  0.
        1    1    3    3  502    0 -0.16433137039E+04 -0.33503923607E+03 -0.12907816472E+04  0.21163290103E+04  0.50400001928E-02 0. -1.
       -1    1    3    3    0  502  0.16433137039E+04  0.33503923607E+03  0.72316474691E+03  0.18263894629E+04  0.50400001928E-02 0.  1.
</event>
<event>
 5   0  0.2904500E-09  0.3899073E+04  0.7818609E-02  0.8025222E-01
        1   -1    0    0  501    0  0.00000000000E+00  0.00000000000E+00  0.19874248845E+04  0.19874248846E+04  0.50400001928E-02 0. -1.
       -1   -1    0    0    0  501  0.00000000000E+00  0.00000000000E+00 -0.19123704644E+04  0.19123704644E+04  0.50400001928E-02 0.  1.
    10030    2    1    2    0    0  0.00000000000E+00  0.00000000000E+00  0.75054420145E+02  0.38997953490E+04  0.38990730434E+04 0.  0.
        4    1    3    3  502    0 -0.10913065571E+04  0.14348791230E+04  0.77986611618E+03  0.19641845309E+04  0.12699999809E+01 0. -1.
       -4    1    3    3    0  502  0.10913065571E+04 -0.14348791230E+04 -0.70481169603E+03  0.19356108181E+04  0.12699999809E+01 0.  1.
</event>
<event>
 5   0  0.2904500E-09  0.3905386E+04  0.7818609E-02  0.8023910E-01
        1   -1    0    0  501    0  0.00000000000E+00  0.00000000000E+00  0.18510322940E+04  0.18510322940E+04  0.50400001928E-02 0.  1.
       -1   -1    0    0    0  501  0.00000000000E+00  0.00000000000E+00 -0.20599374049E+04  0.20599374050E+04  0.50400001928E-02 0. -1.
    10030    2    1    2    0    0  0.00000000000E+00  0.00000000000E+00 -0.20890511094E+03  0.39109696990E+04  0.39053863626E+04 0.  0.
        4    1    3    3  502    0  0.18443838949E+04  0.20720012871E+03  0.50331311283E+03  0.19230209430E+04  0.12699999809E+01 0.  1.
       -4    1    3    3    0  502 -0.18443838949E+04 -0.20720012871E+03 -0.71221822377E+03  0.19879487559E+04  0.12699999809E+01 0. -1.
</event>
<event>
 5   0  0.9277261E-09  0.3907792E+04  0.7818609E-02  0.8023411E-01
       -2   -1    0    0    0  501  0.00000000000E+00  0.00000000000E+00  0.14623654715E+04  0.14623654715E+04  0.25500000920E-02 0.  1.
        2   -1    0    0  501    0  0.00000000000E+00  0.00000000000E+00 -0.26106399702E+04  0.26106399702E+04  0.25500000920E-02 0. -1.
    10030    2    1    2    0    0  0.00000000000E+00  0.00000000000E+00 -0.11482744988E+04  0.40730054417E+04  0.39077920881E+04 0.  0.
        1    1    3    3  502    0 -0.62228978764E+03  0.75719854685E+03 -0.23359000761E+04  0.25331844356E+04  0.50400001928E-02 0. -1.
       -1    1    3    3    0  502  0.62228978764E+03 -0.75719854685E+03  0.11876255773E+04  0.15398210062E+04  0.50400001928E-02 0.  1.
</event>
<event>
 5   0  0.9434114E-09  0.3899987E+04  0.7818609E-02  0.8025032E-01
       -2   -1    0    0    0  501  0.00000000000E+00  0.00000000000E+00  0.24894569468E+04  0.24894569468E+04  0.25500000920E-02 0.  1.
        2   -1    0    0  501    0  0.00000000000E+00  0.00000000000E+00 -0.15274311455E+04  0.15274311455E+04  0.25500000920E-02 0. -1.
    10030    2    1    2    0    0  0.00000000000E+00  0.00000000000E+00  0.96202580127E+03  0.40168880923E+04  0.38999867056E+04 0.  0.
        4    1    3    3  502    0 -0.50579448442E+03  0.45540536266E+03 -0.14011235118E+04  0.15576812296E+04  0.12699999809E+01 0. -1.
       -4    1    3    3    0  502  0.50579448442E+03 -0.45540536266E+03  0.23631493131E+04  0.24592068627E+04  0.12699999809E+01 0.  1.
</event>
<event>
 5   0  0.2904500E-09  0.3900943E+04  0.7818609E-02  0.8024833E-01
        1   -1    0    0  501    0  0.00000000000E+00  0.00000000000E+00  0.18945632489E+04  0.18945632489E+04  0.50400001928E-02 0. -1.
       -1   -1    0    0    0  501  0.00000000000E+00  0.00000000000E+00 -0.20080294416E+04  0.20080294416E+04  0.50400001928E-02 0.  1.
    10030    2    1    2    0    0  0.00000000000E+00  0.00000000000E+00 -0.11346619266E+03  0.39025926905E+04  0.39009428515E+04 0.  0.
        5    1    3    3  502    0 -0.20433578950E+03 -0.12575867907E+04 -0.15341918268E+04  0.19942528181E+04  0.46999998093E+01 0.  1.
       -5    1    3    3    0  502  0.20433578950E+03  0.12575867907E+04  0.14207256341E+04  0.19083398724E+04  0.46999998093E+01 0. -1.
</event>
<event>
 5   0  0.9434114E-09  0.3892701E+04  0.7818609E-02  0.8026549E-01
       -2   -1    0    0    0  501  0.00000000000E+00  0.00000000000E+00  0.18203435151E+04  0.18203435151E+04  0.25500000920E-02 0.  1.
        2   -1    0    0  501    0  0.00000000000E+00  0.00000000000E+00 -0.20810797128E+04  0.20810797128E+04  0.25500000920E-02 0. -1.
    10030    2    1    2    0    0  0.00000000000E+00  0.00000000000E+00 -0.26073619763E+03  0.39014232279E+04  0.38927008411E+04 0.  0.
        4    1    3    3  502    0  0.46474007564E+03 -0.72605896153E+03 -0.18793092532E+04  0.20675951818E+04  0.12699999809E+01 0. -1.
       -4    1    3    3    0  502 -0.46474007564E+03  0.72605896153E+03  0.16185730556E+04  0.18338280461E+04  0.12699999809E+01 0.  1.
</event>
<event>
 5   0  0.9277261E-09  0.3898273E+04  0.7818609E-02  0.8025389E-01
        2   -1    0    0  501    0  0.00000000000E+00  0.00000000000E+00  0.20016600094E+04  0.20016600094E+04  0.25500000920E-02 0. -1.
       -2   -1    0    0    0  501  0.00000000000E+00  0.00000000000E+00 -0.18979911205E+04  0.18979911205E+04  0.25500000920E-02 0.  1.
    10030    2    1    2    0    0  0.00000000000E+00  0.00000000000E+00  0.10366888885E+03  0.38996511299E+04  0.38982729120E+04 0.  0.
        1    1    3    3  502    0  0.66943608103E+03  0.36683984941E+03 -0.17422367597E+04  0.19021317169E+04  0.50400001928E-02 0.  1.
       -1    1    3    3    0  502 -0.66943608103E+03 -0.36683984941E+03  0.18459056486E+04  0.19975194130E+04  0.50400001928E-02 0. -1.
</event>
<event>
 5   0  0.2904500E-09  0.3899926E+04  0.7818609E-02  0.8025045E-01
        1   -1    0    0  501    0  0.00000000000E+00  0.00000000000E+00  0.16876749052E+04  0.16876749052E+04  0.50400001928E-02 0. -1.
       -1   -1    0    0    0  501  0.00000000000E+00  0.00000000000E+00 -0.22530147817E+04  0.22530147817E+04  0.50400001928E-02 0.  1.
    10030    2    1    2    0    0  0.00000000000E+00  0.00000000000E+00 -0.56533987652E+03  0.39406896869E+04  0.38999264137E+04 0.  0.
        4    1    3    3  502    0 -0.57219487607E+03  0.18262202787E+04 -0.66056750477E+03  0.20245588467E+04  0.12699999809E+01 0.  1.
       -4    1    3    3    0  502  0.57219487607E+03 -0.18262202787E+04  0.95227628242E+02  0.19161308402E+04  0.12699999809E+01 0. -1.
</event>
<event>
 5   0  0.2904500E-09  0.3901256E+04  0.7818609E-02  0.8024768E-01
       -1   -1    0    0    0  501  0.00000000000E+00  0.00000000000E+00  0.21230949121E+04  0.21230949121E+04  0.50400001928E-02 0. -1.
        1   -1    0    0  501    0  0.00000000000E+00  0.00000000000E+00 -0.17921712151E+04  0.17921712151E+04  0.50400001928E-02 0.  1.
    10030    2    1    2    0    0  0.00000000000E+00  0.00000000000E+00  0.33092369700E+03  0.39152661272E+04  0.39012559969E+04 0.  0.
        4    1    3    3  502    0 -0.26805254410E+03 -0.48325784733E+03  0.20428903849E+04  0.21163159147E+04  0.12699999809E+01 0. -1.
       -4    1    3    3    0  502  0.26805254410E+03  0.48325784733E+03 -0.17119666879E+04  0.17989502124E+04  0.12699999809E+01 0.  1.
</event>
<event>
 5   0  0.2929054E-09  0.3900683E+04  0.7818609E-02  0.8024887E-01
        1   -1    0    0  501    0  0.00000000000E+00  0.00000000000E+00  0.21890355685E+04  0.21890355685E+04  0.50400001928E-02 0.  1.
       -1   -1    0    0    0  501  0.00000000000E+00  0.00000000000E+00 -0.17376752385E+04  0.17376752385E+04  0.50400001928E-02 0. -1.
    10030    2    1    2    0    0  0.00000000000E+00  0.00000000000E+00  0.45136032999E+03  0.39267108070E+04  0.39006834804E+04 0.  0.
        1    1    3    3  502    0  0.16381886356E+04 -0.31838252225E+03 -0.79041272810E+03  0.18465594269E+04  0.50400001928E-02 0. -1.
       -1    1    3    3    0  502 -0.16381886356E+04  0.31838252225E+03  0.12417730581E+04  0.20801513801E+04  0.50400001928E-02 0.  1.
</event>
<event>
 5   0  0.2904500E-09  0.3901790E+04  0.7818609E-02  0.8024657E-01
       -1   -1    0    0    0  501  0.00000000000E+00  0.00000000000E+00  0.17730570664E+04  0.17730570664E+04  0.50400001928E-02 0. -1.
        1   -1    0    0  501    0  0.00000000000E+00  0.00000000000E+00 -0.21465697606E+04  0.21465697606E+04  0.50400001928E-02 0.  1.
    10030    2    1    2    0    0  0.00000000000E+00  0.00000000000E+00 -0.37351269420E+03  0.39196268270E+04  0.39017896830E+04 0.  0.
        5    1    3    3  502    0 -0.53864780851E+03 -0.12052204914E+04 -0.16297318913E+04  0.20973187698E+04  0.46999998093E+01 0.  1.
       -5    1    3    3    0  502  0.53864780851E+03  0.12052204914E+04  0.12562191971E+04  0.18223080573E+04  0.46999998093E+01 0. -1.
</event>
<event>
 5   0  0.2904500E-09  0.3899209E+04  0.7818609E-02  0.8025194E-01
       -1   -1    0    0    0  501  0.00000000000E+00  0.00000000000E+00  0.16208560897E+04  0.16208560897E+04  0.50400001928E-02 0.  1.
        1   -1    0    0  501    0  0.00000000000E+00  0.00000000000E+00 -0.23450314973E+04  0.23450314973E+04  0.50400001928E-02 0. -1.
    10030    2    1    2    0    0  0.00000000000E+00  0.00000000000E+00 -0.72417540764E+03  0.39658875870E+04  0.38992094496E+04 0.  0.
        3    1    3    3  502    0 -0.63854448661E+03 -0.12676364283E+04  0.99729941254E+03  0.17347182204E+04  0.10100000352E+00 0.  1.
       -3    1    3    3    0  502  0.63854448661E+03  0.12676364283E+04 -0.17214748202E+04  0.22311693666E+04  0.10100000352E+00 0. -1.
</event>
<event>
 5   0  0.9434114E-09  0.3900030E+04  0.7818609E-02  0.8025023E-01
       -2   -1    0    0    0  501  0.00000000000E+00  0.00000000000E+00  0.20069436905E+04  0.20069436905E+04  0.25500000920E-02 0.  1.
        2   -1    0    0  501    0  0.00000000000E+00  0.00000000000E+00 -0.18947015360E+04  0.18947015360E+04  0.25500000920E-02 0. -1.
    10030    2    1    2    0    0  0.00000000000E+00  0.00000000000E+00  0.11224215450E+03  0.39016452265E+04  0.39000304066E+04 0.  0.
        4    1    3    3  502    0 -0.33604773026E+03  0.87181450148E+03  0.17684281686E+04  0.20000820989E+04  0.12699999809E+01 0.  1.
       -4    1    3    3    0  502  0.33604773026E+03 -0.87181450148E+03 -0.16561860141E+04  0.19015631276E+04  0.12699999809E+01 0. -1.
</event>
<event>
 5   0  0.9277261E-09  0.3900363E+04  0.7818609E-02  0.8024954E-01
       -2   -1    0    0    0  501  0.00000000000E+00  0.00000000000E+00  0.14926163470E+04  0.14926163470E+04  0.25500000920E-02 0.  1.
        2   -1    0    0  501    0  0.00000000000E+00  0.00000000000E+00 -0.25480143973E+04  0.25480143973E+04  0.25500000920E-02 0. -1.
    10030    2    1    2    0    0  0.00000000000E+00  0.00000000000E+00 -0.10553980504E+04  0.40406307443E+04  0.39003630302E+04 0.  0.
        1    1    3    3  502    0  0.25243015731E+03 -0.12754780582E+04  0.97806583321E+03  0.16270150692E+04  0.50400001928E-02 0.  1.
       -1    1    3    3    0  502 -0.25243015731E+03  0.12754780582E+04 -0.20334638836E+04  0.24136156751E+04  0.50400001928E-02 0. -1.
</event>
<event>
 5   0  0.2904500E-09  0.3901631E+04  0.7818609E-02  0.8024690E-01
        1   -1    0    0  501    0  0.00000000000E+00  0.00000000000E+00  0.16057073156E+04  0.16057073156E+04  0.50400001928E-02 0. -1.
       -1   -1    0    0    0  501  0.00000000000E+00  0.00000000000E+00 -0.23700959422E+04  0.23700959422E+04  0.50400001928E-02 0.  1.
    10030    2    1    2    0    0  0.00000000000E+00  0.00000000000E+00 -0.76438862666E+03  0.39758032578E+04  0.39016306299E+04 0.  0.
        2    1    3    3  502    0 -0.18732821651E+04  0.39117705416E+03  0.37872855687E+01  0.19136927395E+04  0.25500000920E-02 0. -1.
       -2    1    3    3    0  502  0.18732821651E+04 -0.39117705416E+03 -0.76817591223E+03  0.20621105183E+04  0.25500000920E-02 0.  1.
</event>
<event>
 5   0  0.9078515E-09  0.3896851E+04  0.7818609E-02  0.8025685E-01
        2   -1    0    0  501    0  0.00000000000E+00  0.00000000000E+00  0.30027852750E+04  0.30027852750E+04  0.25500000920E-02 0.  1.
       -2   -1    0    0    0  501  0.00000000000E+00  0.00000000000E+00 -0.12642800366E+04  0.12642800366E+04  0.25500000920E-02 0. -1.
    10030    2    1    2    0    0  0.00000000000E+00  0.00000000000E+00  0.17385052384E+04  0.42670653116E+04  0.38968507682E+04 0.  0.
        3    1    3    3  502    0  0.80679755443E+03  0.16275868910E+04  0.97760597073E+02  0.18192082141E+04  0.10100000352E+00 0. -1.
       -3    1    3    3    0  502 -0.80679755443E+03 -0.16275868910E+04  0.16407446413E+04  0.24478570975E+04  0.10100000352E+00 0.  1.
</event>
<event>
 5   0  0.2904500E-09  0.3899961E+04  0.7818609E-02  0.8025037E-01
       -1   -1    0    0    0  501  0.00000000000E+00  0.00000000000E+00  0.26751282837E+04  0.26751282837E+04  0.50400001928E-02 0.  1.
        1   -1    0    0  501    0  0.00000000000E+00  0.00000000000E+00 -0.14213985148E+04  0.14213985148E+04  0.50400001928E-02 0. -1.
    10030    2    1    2    0    0  0.00000000000E+00  0.00000000000E+00  0.12537297689E+04  0.40965267985E+04  0.38999607020E+04 0.  0.
        2    1    3    3  502    0  0.10023937687E+04  0.16272428117E+04  0.10332916758E+04  0.21726491026E+04  0.25500000920E-02 0.  1.
       -2    1    3    3    0  502 -0.10023937687E+04 -0.16272428117E+04  0.22043809311E+03  0.19238776959E+04  0.25500000920E-02 0. -1.
</event>
<event>
 5   0  0.6335942E-09  0.3898989E+04  0.7818609E-02  0.8025240E-01
       -2   -1    0    0    0  501  0.00000000000E+00  0.00000000000E+00  0.14515576319E+04  0.14515576319E+04  0.25500000920E-02 0. -1.
        2   -1    0    0  501    0  0.00000000000E+00  0.00000000000E+00 -0.26182415698E+04  0.26182415698E+04  0.25500000920E-02 0.  1.
    10030    2    1    2    0    0  0.00000000000E+00  0.00000000000E+00 -0.11666839379E+04  0.40697992017E+04  0.38989888601E+04 0.  0.
        2    1    3    3  502    0 -0.10067415759E+04  0.79595282576E+03  0.94841298948E+03  0.15957934390E+04  0.25500000920E-02 0. -1.
       -2    1    3    3    0  502  0.10067415759E+04 -0.79595282576E+03 -0.21150969274E+04  0.24740057626E+04  0.25500000920E-02 0.  1.
</event>
<event>
 5   0  0.9277261E-09  0.3899461E+04  0.7818609E-02  0.8025141E-01
        2   -1    0    0  501    0  0.00000000000E+00  0.00000000000E+00  0.25274815912E+04  0.25274815912E+04  0.25500000920E-02 0. -1.
       -2   -1    0    0    0  501  0.00000000000E+00  0.00000000000E+00 -0.15040458482E+04  0.15040458482E+04  0.25500000920E-02 0.  1.
    10030    2    1    2    0    0  0.00000000000E+00  0.00000000000E+00  0.10234357431E+04  0.40315274394E+04  0.38994605748E+04 0.  0.
        1    1    3    3  502    0  0.14749782463E+04 -0.40955827499E+03  0.17601533321E+04  0.23326891264E+04  0.50400001928E-02 0.  1.
       -1    1    3    3    0  502 -0.14749782463E+04  0.40955827499E+03 -0.73671758902E+03  0.16988383130E+04  0.50400001928E-02 0. -1.
</event>
<event>
 5   0  0.2904500E-09  0.3900404E+04  0.7818609E-02  0.8024945E-01
       -3   -1    0    0    0  501  0.00000000000E+00  0.00000000000E+00  0.20319143604E+04  0.20319143629E+04  0.10100000352E+00 0. -1.
        3   -1    0    0  501    0  0.00000000000E+00  0.00000000000E+00 -0.18717753281E+04  0.18717753308E+04  0.10100000352E+00 0.  1.
    10030    2    1    2    0    0  0.00000000000E+00  0.00000000000E+00  0.16013903234E+03  0.39036896937E+04  0.39004036605E+04 0.  0.
        4    1    3    3  502    0  0.15128500063E+03 -0.96737141201E+03 -0.16079429356E+04  0.18825983898E+04  0.12699999809E+01 0.  1.
       -4    1    3    3    0  502 -0.15128500063E+03  0.96737141201E+03  0.17680819680E+04  0.20210913039E+04  0.12699999809E+01 0. -1.
</event>
<event>
 5   0  0.9434114E-09  0.3900524E+04  0.7818609E-02  0.8024920E-01
       -2   -1    0    0    0  501  0.00000000000E+00  0.00000000000E+00  0.21058022223E+04  0.21058022223E+04  0.25500000920E-02 0.  1.
        2   -1    0    0  501    0  0.00000000000E+00  0.00000000000E+00 -0.18062105995E+04  0.18062105995E+04  0.25500000920E-02 0. -1.
    10030    2    1    2    0    0  0.00000000000E+00  0.00000000000E+00  0.29959162281E+03  0.39120128218E+04  0.39005242183E+04 0.  0.
        4    1    3    3  502    0 -0.15709156578E+03  0.17027821580E+04  0.10903082779E+04  0.20280331830E+04  0.12699999809E+01 0. -1.
       -4    1    3    3    0  502  0.15709156578E+03 -0.17027821580E+04 -0.79071665512E+03  0.18839796388E+04  0.12699999809E+01 0.  1.
</event>
<event>
 5   0  0.9434114E-09  0.3900269E+04  0.7818609E-02  0.8024973E-01
        2   -1    0    0  501    0  0.00000000000E+00  0.00000000000E+00  0.23205966074E+04  0.23205966074E+04  0.25500000920E-02 0.  1.
       -2   -1    0    0    0  501  0.00000000000E+00  0.00000000000E+00 -0.16388132357E+04  0.16388132357E+04  0.25500000920E-02 0. -1.
    10030    2    1    2    0    0  0.00000000000E+00  0.00000000000E+00  0.68178337173E+03  0.39594098431E+04  0.39002689317E+04 0.  0.
        4    1    3    3  502    0 -0.15719928441E+04 -0.72876083149E+03  0.12493176174E+04  0.21361296715E+04  0.12699999809E+01 0.  1.
       -4    1    3    3    0  502  0.15719928441E+04  0.72876083149E+03 -0.56753424566E+03  0.18232801716E+04  0.12699999809E+01 0. -1.
</event>
<event>
 5   0  0.2904500E-09  0.3903445E+04  0.7818609E-02  0.8024313E-01
        1   -1    0    0  501    0  0.00000000000E+00  0.00000000000E+00  0.19615064238E+04  0.19615064238E+04  0.50400001928E-02 0.  1.
       -1   -1    0    0    0  501  0.00000000000E+00  0.00000000000E+00 -0.19419874715E+04  0.19419874715E+04  0.50400001928E-02 0. -1.
    10030    2    1    2    0    0  0.00000000000E+00  0.00000000000E+00  0.19518952251E+02  0.39034938953E+04  0.39034450939E+04 0.  0.
        5    1    3    3  502    0  0.15626907683E+04  0.10704410772E+04  0.48024625401E+03  0.19540995603E+04  0.46999998093E+01 0. -1.
       -5    1    3    3    0  502 -0.15626907683E+04 -0.10704410772E+04 -0.46072730175E+03  0.19493943351E+04  0.46999998093E+01 0.  1.
</event>
<event>
 5   0  0.2904500E-09  0.3900403E+04  0.7818609E-02  0.8024945E-01
        1   -1    0    0  501    0  0.00000000000E+00  0.00000000000E+00  0.24542952297E+04  0.24542952297E+04  0.50400001928E-02 0.  1.
       -1   -1    0    0    0  501  0.00000000000E+00  0.00000000000E+00 -0.15496449600E+04  0.15496449600E+04  0.50400001928E-02 0. -1.
    10030    2    1    2    0    0  0.00000000000E+00  0.00000000000E+00  0.90465026966E+03  0.40039401897E+04  0.39004031756E+04 0.  0.
        2    1    3    3  502    0  0.53548348062E+03  0.88079533174E+03 -0.12471399924E+04  0.16179929342E+04  0.25500000920E-02 0. -1.
       -2    1    3    3    0  502 -0.53548348062E+03 -0.88079533174E+03  0.21517902620E+04  0.23859472555E+04  0.25500000920E-02 0.  1.
</event>
<event>
 5   0  0.2904500E-09  0.3900286E+04  0.7818609E-02  0.8024970E-01
       -1   -1    0    0    0  501  0.00000000000E+00  0.00000000000E+00  0.22287140071E+04  0.22287140071E+04  0.50400001928E-02 0. -1.
        1   -1    0    0  501    0  0.00000000000E+00  0.00000000000E+00 -0.17063912402E+04  0.17063912403E+04  0.50400001928E-02 0.  1.
    10030    2    1    2    0    0  0.00000000000E+00  0.00000000000E+00  0.52232276686E+03  0.39351052474E+04  0.39002861735E+04 0.  0.
        5    1    3    3  502    0  0.18769281945E+03  0.18869435028E+04 -0.19815169949E+03  0.19065861018E+04  0.46999998093E+01 0.  1.
       -5    1    3    3    0  502 -0.18769281945E+03 -0.18869435028E+04  0.72047446634E+03  0.20285191456E+04  0.46999998093E+01 0. -1.
</event>
<event>
 5   0  0.9277261E-09  0.3901499E+04  0.7818609E-02  0.8024717E-01
        2   -1    0    0  501    0  0.00000000000E+00  0.00000000000E+00  0.30449055090E+04  0.30449055090E+04  0.25500000920E-02 0.  1.
       -2   -1    0    0    0  501  0.00000000000E+00  0.00000000000E+00 -0.12497675953E+04  0.12497675953E+04  0.25500000920E-02 0. -1.
    10030    2    1    2    0    0  0.00000000000E+00  0.00000000000E+00  0.17951379137E+04  0.42946731043E+04  0.39014993199E+04 0.  0.
        1    1    3    3  502    0 -0.12583794045E+04 -0.12641231408E+04  0.17670406379E+04  0.25107685391E+04  0.50400001928E-02 0.  1.
       -1    1    3    3    0  502  0.12583794045E+04  0.12641231408E+04  0.28097275795E+02  0.17839045652E+04  0.50400001928E-02 0. -1.
</event>
<event>
 5   0  0.6335942E-09  0.3900748E+04  0.7818609E-02  0.8024874E-01
        2   -1    0    0  501    0  0.00000000000E+00  0.00000000000E+00  0.20239361396E+04  0.20239361396E+04  0.25500000920E-02 0.  1.
       -2   -1    0    0    0  501  0.00000000000E+00  0.00000000000E+00 -0.18794851217E+04  0.18794851217E+04  0.25500000920E-02 0. -1.
    10030    2    1    2    0    0  0.00000000000E+00  0.00000000000E+00  0.14445101797E+03  0.39034212613E+04  0.39007475497E+04 0.  0.
        2    1    3    3  502    0 -0.20637065431E+03  0.17233202684E+04  0.96251856946E+03  0.19846570462E+04  0.25500000920E-02 0.  1.
       -2    1    3    3    0  502  0.20637065431E+03 -0.17233202684E+04 -0.81806755149E+03  0.19187642151E+04  0.25500000920E-02 0. -1.
</event>
<event>
 5   0  0.9368546E-09  0.3900993E+04  0.7818609E-02  0.8024823E-01
       -2   -1    0    0    0  501  0.00000000000E+00  0.00000000000E+00  0.14014784805E+04  0.14014784805E+04  0.25500000920E-02 0. -1.
        2   -1    0    0  501    0  0.00000000000E+00  0.00000000000E+00 -0.27145882750E+04  0.27145882750E+04  0.25500000920E-02 0.  1.
    10030    2    1    2    0    0  0.00000000000E+00  0.00000000000E+00 -0.13131097946E+04  0.41160667555E+04  0.39009932329E+04 0.  0.
        5    1    3    3  502    0 -0.38280759670E+03  0.17174344685E+04  0.23144604634E+03  0.17747428468E+04  0.46999998093E+01 0. -1.
       -5    1    3    3    0  502  0.38280759670E+03 -0.17174344685E+04 -0.15445558409E+04  0.23413239087E+04  0.46999998093E+01 0.  1.
</event>
<event>
 5   0  0.2904500E-09  0.3900876E+04  0.7818609E-02  0.8024847E-01
       -1   -1    0    0    0  501  0.00000000000E+00  0.00000000000E+00  0.16788194387E+04  0.16788194387E+04  0.50400001928E-02 0. -1.
        1   -1    0    0  501    0  0.00000000000E+00  0.00000000000E+00 -0.22660019758E+04  0.22660019759E+04  0.50400001928E-02 0.  1.
    10030    2    1    2    0    0  0.00000000000E+00  0.00000000000E+00 -0.58718253711E+03  0.39448214146E+04  0.39008758839E+04 0.  0.
        4    1    3    3  502    0 -0.16798071703E+04 -0.26272673940E+03 -0.12600929912E+04  0.21162734767E+04  0.12699999809E+01 0.  1.
       -4    1    3    3    0  502  0.16798071703E+04  0.26272673940E+03  0.67291045410E+03  0.18285479379E+04  0.12699999809E+01 0. -1.
</event>
<event>
 5   0  0.2929054E-09  0.3901617E+04  0.7818609E-02  0.8024693E-01
        1   -1    0    0  501    0  0.00000000000E+00  0.00000000000E+00  0.21340090392E+04  0.21340090392E+04  0.50400001928E-02 0. -1.
       -1   -1    0    0    0  501  0.00000000000E+00  0.00000000000E+00 -0.17833351455E+04  0.17833351455E+04  0.50400001928E-02 0.  1.
    10030    2    1    2    0    0  0.00000000000E+00  0.00000000000E+00  0.35067389365E+03  0.39173441847E+04  0.39016167523E+04 0.  0.
        1    1    3    3  502    0  0.88100876994E+03 -0.14799937818E+04  0.10950508702E+04  0.20410032962E+04  0.50400001928E-02 0. -1.
       -1    1    3    3    0  502 -0.88100876994E+03  0.14799937818E+04 -0.74437697650E+03  0.18763408885E+04  0.50400001928E-02 0.  1.
</event>
<event>
 5   0  0.6335942E-09  0.3898999E+04  0.7818609E-02  0.8025237E-01
        2   -1    0    0  501    0  0.00000000000E+00  0.00000000000E+00  0.27672357654E+04  0.27672357654E+04  0.25500000920E-02 0.  1.
       -2   -1    0    0    0  501  0.00000000000E+00  0.00000000000E+00 -0.13734099247E+04  0.13734099247E+04  0.25500000920E-02 0. -1.
    10030    2    1    2    0    0  0.00000000000E+00  0.00000000000E+00  0.13938258406E+04  0.41406456901E+04  0.38989993918E+04 0.  0.
        2    1    3    3  502    0 -0.54493762581E+03  0.16728398754E+03 -0.12829280352E+04  0.14038679753E+04  0.25500000920E-02 0. -1.
       -2    1    3    3    0  502  0.54493762581E+03 -0.16728398754E+03  0.26767538758E+04  0.27367777148E+04  0.25500000920E-02 0.  1.
</event>
<event>
 5   0  0.2904500E-09  0.3899542E+04  0.7818609E-02  0.8025124E-01
       -1   -1    0    0    0  501  0.00000000000E+00  0.00000000000E+00  0.19024181659E+04  0.19024181659E+04  0.50400001928E-02 0. -1.
        1   -1    0    0  501    0  0.00000000000E+00  0.00000000000E+00 -0.19983024569E+04  0.19983024569E+04  0.50400001928E-02 0.  1.
    10030    2    1    2    0    0  0.00000000000E+00  0.00000000000E+00 -0.95884290970E+02  0.39007206228E+04  0.38995419706E+04 0.  0.
        5    1    3    3  502    0  0.87117903177E+03  0.90291025474E+03  0.14449515705E+04  0.19136632317E+04  0.46999998093E+01 0. -1.
       -5    1    3    3    0  502 -0.87117903177E+03 -0.90291025474E+03 -0.15408358615E+04  0.19870573911E+04  0.46999998093E+01 0.  1.
</event>
<event>
 5   0  0.2904500E-09  0.3901668E+04  0.7818609E-02  0.8024682E-01
        1   -1    0    0  501    0  0.00000000000E+00  0.00000000000E+00  0.28614857949E+04  0.28614857949E+04  0.50400001928E-02 0.  1.
       -1   -1    0    0    0  501  0.00000000000E+00  0.00000000000E+00 -0.13299918914E+04  0.13299918914E+04  0.50400001928E-02 0. -1.
    10030    2    1    2    0    0  0.00000000000E+00  0.00000000000E+00  0.15314939035E+04  0.41914776863E+04  0.39016677996E+04 0.  0.
        4    1    3    3  502    0  0.61628991443E+03 -0.16404442991E+04  0.16866740264E+04  0.24322297673E+04  0.12699999809E+01 0.  1.
       -4    1    3    3    0  502 -0.61628991443E+03  0.16404442991E+04 -0.15518012287E+03  0.17592479190E+04  0.12699999809E+01 0. -1.
</event>
<event>
 5   0  0.6335942E-09  0.3900303E+04  0.7818609E-02  0.8024966E-01
        2   -1    0    0  501    0  0.00000000000E+00  0.00000000000E+00  0.17628836142E+04  0.17628836142E+04  0.25500000920E-02 0.  1.
       -2   -1    0    0    0  501  0.00000000000E+00  0.00000000000E+00 -0.21573128477E+04  0.21573128477E+04  0.25500000920E-02 0. -1.
    10030    2    1    2    0    0  0.00000000000E+00  0.00000000000E+00 -0.39442923358E+03  0.39201964619E+04  0.39003033061E+04 0.  0.
        2    1    3    3  502    0 -0.31598754034E+03 -0.19113171910E+04  0.27779618674E+02  0.19374605125E+04  0.25500000920E-02 0. -1.
       -2    1    3    3    0  502  0.31598754034E+03  0.19113171910E+04 -0.42220885226E+03  0.19827359494E+04  0.25500000920E-02 0.  1.
</event>
<event>
 5   0  0.2904500E-09  0.3899792E+04  0.7818609E-02  0.8025072E-01
        1   -1    0    0  501    0  0.00000000000E+00  0.00000000000E+00  0.14601952876E+04  0.14601952876E+04  0.50400001928E-02 0.  1.
       -1   -1    0    0    0  501  0.00000000000E+00  0.00000000000E+00 -0.26038261027E+04  0.26038261027E+04  0.50400001928E-02 0. -1.
    10030    2    1    2    0    0  0.00000000000E+00  0.00000000000E+00 -0.11436308151E+04  0.40640213903E+04  0.38997920995E+04 0.  0.
        5    1    3    3  502    0 -0.64708803359E+03 -0.11671527645E+03 -0.24848018741E+04  0.25703322398E+04  0.46999998093E+01 0. -1.
       -5    1    3    3    0  502  0.64708803359E+03  0.11671527645E+03  0.13411710590E+04  0.14936891506E+04  0.46999998093E+01 0.  1.
</event>
<event>
 5   0  0.9078515E-09  0.3900058E+04  0.7818609E-02  0.8025017E-01
        2   -1    0    0  501    0  0.00000000000E+00  0.00000000000E+00  0.19583709494E+04  0.19583709494E+04  0.25500000920E-02 0.  1.
       -2   -1    0    0    0  501  0.00000000000E+00  0.00000000000E+00 -0.19417223079E+04  0.19417223079E+04  0.25500000920E-02 0. -1.
    10030    2    1    2    0    0  0.00000000000E+00  0.00000000000E+00  0.16648641423E+02  0.39000932573E+04  0.39000577224E+04 0.  0.
        3    1    3    3  502    0  0.57010774209E+03 -0.42241735241E+03  0.18246980191E+04  0.19578003290E+04  0.10100000352E+00 0.  1.
       -3    1    3    3    0  502 -0.57010774209E+03  0.42241735241E+03 -0.18080493776E+04  0.19422929283E+04  0.10100000352E+00 0. -1.
</event>
<event>
 5   0  0.9277261E-09  0.3907473E+04  0.7818609E-02  0.8023477E-01
        2   -1    0    0  501    0  0.00000000000E+00  0.00000000000E+00  0.16172549679E+04  0.16172549679E+04  0.25500000920E-02 0. -1.
       -2   -1    0    0    0  501  0.00000000000E+00  0.00000000000E+00 -0.23602252922E+04  0.23602252922E+04  0.25500000920E-02 0.  1.
    10030    2    1    2    0    0  0.00000000000E+00  0.00000000000E+00 -0.74297032435E+03  0.39774802601E+04  0.39074728811E+04 0.  0.
        1    1    3    3  502    0 -0.11911378317E+04 -0.89828383678E+03 -0.16555787402E+04  0.22286013889E+04  0.50400001928E-02 0.  1.
       -1    1    3    3    0  502  0.11911378317E+04  0.89828383678E+03  0.91260841580E+03  0.17488788712E+04  0.50400001928E-02 0. -1.
</event>
<event>
 5   0  0.2929054E-09  0.3904036E+04  0.7818609E-02  0.8024190E-01
        1   -1    0    0  501    0  0.00000000000E+00  0.00000000000E+00  0.28603250876E+04  0.28603250877E+04  0.50400001928E-02 0.  1.
       -1   -1    0    0    0  501  0.00000000000E+00  0.00000000000E+00 -0.13321472189E+04  0.13321472190E+04  0.50400001928E-02 0. -1.
    10030    2    1    2    0    0  0.00000000000E+00  0.00000000000E+00  0.15281778687E+04  0.41924723066E+04  0.39040359173E+04 0.  0.
        1    1    3    3  502    0  0.45779808473E+03 -0.83666159744E+03 -0.10649153473E+04  0.14295546202E+04  0.50400001928E-02 0. -1.
       -1    1    3    3    0  502 -0.45779808473E+03  0.83666159744E+03  0.25930932160E+04  0.27629176864E+04  0.50400001928E-02 0.  1.
</event>
<event>
 5   0  0.2904500E-09  0.3899070E+04  0.7818609E-02  0.8025223E-01
        1   -1    0    0  501    0  0.00000000000E+00  0.00000000000E+00  0.17249984111E+04  0.17249984111E+04  0.50400001928E-02 0.  1.
       -1   -1    0    0    0  501  0.00000000000E+00  0.00000000000E+00 -0.22032984270E+04  0.22032984270E+04  0.50400001928E-02 0. -1.
    10030    2    1    2    0    0  0.00000000000E+00  0.00000000000E+00 -0.47830001590E+03  0.39282968382E+04  0.38990697793E+04 0.  0.
        2    1    3    3  502    0  0.11441893125E+04  0.51421333066E+03 -0.17426842378E+04  0.21472151464E+04  0.25500000920E-02 0. -1.
       -2    1    3    3    0  502 -0.11441893125E+04 -0.51421333066E+03  0.12643842219E+04  0.17810816918E+04  0.25500000920E-02 0.  1.
</event>
<event>
 5   0  0.2904500E-09  0.3900912E+04  0.7818609E-02  0.8024840E-01
       -1   -1    0    0    0  501  0.00000000000E+00  0.00000000000E+00  0.16137495446E+04  0.16137495446E+04  0.50400001928E-02 0. -1.
        1   -1    0    0  501    0  0.00000000000E+00  0.00000000000E+00 -0.23574152585E+04  0.23574152585E+04  0.50400001928E-02 0.  1.
    10030    2    1    2    0    0  0.00000000000E+00  0.00000000000E+00 -0.74366571389E+03  0.39711648030E+04  0.39009115856E+04 0.  0.
        4    1    3    3  502    0  0.36567794435E+02  0.24092352882E+03 -0.23418573092E+04  0.23545017774E+04  0.12699999809E+01 0.  1.
       -4    1    3    3    0  502 -0.36567794435E+02 -0.24092352882E+03  0.15981915953E+04  0.16166630256E+04  0.12699999809E+01 0. -1.
</event>
<event>
 5   0  0.2904500E-09  0.3914735E+04  0.7818609E-02  0.8021972E-01
        1   -1    0    0  501    0  0.00000000000E+00  0.00000000000E+00  0.23110232692E+04  0.23110232692E+04  0.50400001928E-02 0. -1.
       -1   -1    0    0    0  501  0.00000000000E+00  0.00000000000E+00 -0.16578317107E+04  0.16578317107E+04  0.50400001928E-02 0.  1.
    10030    2    1    2    0    0  0.00000000000E+00  0.00000000000E+00  0.65319155845E+03  0.39688549799E+04  0.39147350663E+04 0.  0.
        2    1    3    3  502    0 -0.67689490475E+03 -0.14134930150E+04 -0.86227886859E+03  0.17887632775E+04  0.25500000920E-02 0.  1.
       -2    1    3    3    0  502  0.67689490475E+03  0.14134930150E+04  0.15154704270E+04  0.21800917024E+04  0.25500000920E-02 0. -1.
</event>
<event>
 5   0  0.2929054E-09  0.3890928E+04  0.7818609E-02  0.8026919E-01
        1   -1    0    0  501    0  0.00000000000E+00  0.00000000000E+00  0.24622567923E+04  0.24622567923E+04  0.50400001928E-02 0.  1.
       -1   -1    0    0    0  501  0.00000000000E+00  0.00000000000E+00 -0.15371383462E+04  0.15371383462E+04  0.50400001928E-02 0. -1.
    10030    2    1    2    0    0  0.00000000000E+00  0.00000000000E+00  0.92511844605E+03  0.39993951385E+04  0.38909275674E+04 0.  0.
        1    1    3    3  502    0 -0.63771660460E+03  0.16107923765E+04  0.13723870665E+04  0.22101540237E+04  0.50400001928E-02 0.  1.
       -1    1    3    3    0  502  0.63771660460E+03 -0.16107923765E+04 -0.44726862047E+03  0.17892411148E+04  0.50400001928E-02 0. -1.
</event>
<event>
 5   0  0.9078515E-09  0.3900757E+04  0.7818609E-02  0.8024872E-01
       -2   -1    0    0    0  501  0.00000000000E+00  0.00000000000E+00  0.22076260806E+04  0.22076260806E+04  0.25500000920E-02 0. -1.
        2   -1    0    0  501    0  0.00000000000E+00  0.00000000000E+00 -0.17231071266E+04  0.17231071267E+04  0.25500000920E-02 0.  1.
    10030    2    1    2    0    0  0.00000000000E+00  0.00000000000E+00  0.48451895397E+03  0.39307332073E+04  0.39007569688E+04 0.  0.
        3    1    3    3  502    0 -0.83668760382E+03 -0.17589255567E+04  0.34358548054E+03  0.19778564794E+04  0.10100000352E+00 0. -1.
       -3    1    3    3    0  502  0.83668760382E+03  0.17589255567E+04  0.14093347344E+03  0.19528767279E+04  0.10100000352E+00 0.  1.
</event>
<event>
 5   0  0.6335942E-09  0.3899740E+04  0.7818609E-02  0.8025083E-01
        2   -1    0    0  501    0  0.00000000000E+00  0.00000000000E+00  0.14276804966E+04  0.14276804966E+04  0.25500000920E-02 0.  1.
       -2   -1    0    0    0  501  0.00000000000E+00  0.00000000000E+00 -0.26630564008E+04  0.26630564008E+04  0.25500000920E-02 0. -1.
    10030    2    1    2    0    0  0.00000000000E+00  0.00000000000E+00 -0.12353759042E+04  0.40907368974E+04  0.38997403425E+04 0.  0.
        2    1    3    3  502    0  0.14144720828E+03  0.17969516211E+04  0.16233840237E+03  0.18098055692E+04  0.25500000920E-02 0. -1.
       -2    1    3    3    0  502 -0.14144720828E+03 -0.17969516211E+04 -0.13977143065E+04  0.22809313282E+04  0.25500000920E-02 0.  1.
</event>
<event>
 5   0  0.2904500E-09  0.3898873E+04  0.7818609E-02  0.8025264E-01
       -1   -1    0    0    0  501  0.00000000000E+00  0.00000000000E+00  0.24374818547E+04  0.24374818547E+04  0.50400001928E-02 0.  1.
        1   -1    0    0  501    0  0.00000000000E+00  0.00000000000E+00 -0.15591100456E+04  0.15591100456E+04  0.50400001928E-02 0. -1.
    10030    2    1    2    0    0  0.00000000000E+00  0.00000000000E+00  0.87837180912E+03  0.39965919003E+04  0.38988728862E+04 0.  0.
        2    1    3    3  502    0 -0.15832176306E+04  0.30083420952E+03  0.15635936245E+04  0.22454185155E+04  0.25500000920E-02 0.  1.
       -2    1    3    3    0  502  0.15832176306E+04 -0.30083420952E+03 -0.68522181536E+03  0.17511733848E+04  0.25500000920E-02 0. -1.
</event>
<event>
 5   0  0.2904500E-09  0.3897611E+04  0.7818609E-02  0.8025526E-01
        1   -1    0    0  501    0  0.00000000000E+00  0.00000000000E+00  0.13374208363E+04  0.13374208363E+04  0.50400001928E-02 0.  1.
       -1   -1    0    0    0  501  0.00000000000E+00  0.00000000000E+00 -0.28396769479E+04  0.28396769479E+04  0.50400001928E-02 0. -1.
    10030    2    1    2    0    0  0.00000000000E+00  0.00000000000E+00 -0.15022561116E+04  0.41770977842E+04  0.38976111240E+04 0.  0.
        4    1    3    3  502    0 -0.87309361180E+03  0.16274687771E+04 -0.84517211044E+02  0.18488082235E+04  0.12699999809E+01 0. -1.
       -4    1    3    3    0  502  0.87309361180E+03 -0.16274687771E+04 -0.14177389006E+04  0.23282895607E+04  0.12699999809E+01 0.  1.
</event>
<event>
 5   0  0.2929054E-09  0.3899015E+04  0.7818609E-02  0.8025234E-01
       -1   -1    0    0    0  501  0.00000000000E+00  0.00000000000E+00  0.21741597979E+04  0.21741597979E+04  0.50400001928E-02 0. -1.
        1   -1    0    0  501    0  0.00000000000E+00  0.00000000000E+00 -0.17480682672E+04  0.17480682672E+04  0.50400001928E-02 0.  1.
    10030    2    1    2    0    0  0.00000000000E+00  0.00000000000E+00  0.42609153070E+03  0.39222280651E+04  0.38990151323E+04 0.  0.
        1    1    3    3  502    0  0.95003996994E+03  0.10466504995E+04  0.15636209192E+04  0.21078338625E+04  0.50400001928E-02 0. -1.
       -1    1    3    3    0  502 -0.95003996994E+03 -0.10466504995E+04 -0.11375293885E+04  0.18143942026E+04  0.50400001928E-02 0.  1.
</event>
<event>
 5   0  0.2929054E-09  0.3897663E+04  0.7818609E-02  0.8025515E-01
       -1   -1    0    0    0  501  0.00000000000E+00  0.00000000000E+00  0.18548499330E+04  0.18548499330E+04  0.50400001928E-02 0.  1.
        1   -1    0    0  501    0  0.00000000000E+00  0.00000000000E+00 -0.20475750218E+04  0.20475750219E+04  0.50400001928E-02 0. -1.
    10030    2    1    2    0    0  0.00000000000E+00  0.00000000000E+00 -0.19272508887E+03  0.39024249548E+04  0.38976630907E+04 0.  0.
        1    1    3    3  502    0  0.24167008125E+03  0.88103262707E+03 -0.18198957215E+04  0.20363308560E+04  0.50400001928E-02 0. -1.
       -1    1    3    3    0  502 -0.24167008125E+03 -0.88103262707E+03  0.16271706326E+04  0.18660940988E+04  0.50400001928E-02 0.  1.
</event>
<event>
 5   0  0.2904500E-09  0.3896009E+04  0.7818609E-02  0.8025860E-01
       -1   -1    0    0    0  501  0.00000000000E+00  0.00000000000E+00  0.19755912363E+04  0.19755912363E+04  0.50400001928E-02 0.  1.
        1   -1    0    0  501    0  0.00000000000E+00  0.00000000000E+00 -0.19208033190E+04  0.19208033190E+04  0.50400001928E-02 0. -1.
    10030    2    1    2    0    0  0.00000000000E+00  0.00000000000E+00  0.54787917323E+02  0.38963945554E+04  0.38960093448E+04 0.  0.
        2    1    3    3  502    0  0.19804992896E+03 -0.33031449778E+03  0.19371352651E+04  0.19750504999E+04  0.25500000920E-02 0.  1.
       -2    1    3    3    0  502 -0.19804992896E+03  0.33031449778E+03 -0.18823473478E+04  0.19213440555E+04  0.25500000920E-02 0. -1.
</event>
<event>
 5   0  0.2904500E-09  0.3900637E+04  0.7818609E-02  0.8024897E-01
       -1   -1    0    0    0  501  0.00000000000E+00  0.00000000000E+00  0.18453159945E+04  0.18453159945E+04  0.50400001928E-02 0. -1.
        1   -1    0    0  501    0  0.00000000000E+00  0.00000000000E+00 -0.20612955019E+04  0.20612955019E+04  0.50400001928E-02 0.  1.
    10030    2    1    2    0    0  0.00000000000E+00  0.00000000000E+00 -0.21597950737E+03  0.39066114964E+04  0.39006366450E+04 0.  0.
        4    1    3    3  502    0 -0.16440650577E+04  0.81715145475E+03 -0.76706578803E+03  0.19897431870E+04  0.12699999809E+01 0.  1.
       -4    1    3    3    0  502  0.16440650577E+04 -0.81715145475E+03  0.55108628065E+03  0.19168683094E+04  0.12699999809E+01 0. -1.
</event>
<event>
 5   0  0.2904500E-09  0.3900782E+04  0.7818609E-02  0.8024867E-01
       -1   -1    0    0    0  501  0.00000000000E+00  0.00000000000E+00  0.20945987508E+04  0.20945987508E+04  0.50400001928E-02 0. -1.
        1   -1    0    0  501    0  0.00000000000E+00  0.00000000000E+00 -0.18161118347E+04  0.18161118347E+04  0.50400001928E-02 0.  1.
    10030    2    1    2    0    0  0.00000000000E+00  0.00000000000E+00  0.27848691618E+03  0.39107105855E+04  0.39007822704E+04 0.  0.
        3    1    3    3  502    0 -0.65947262342E+03  0.17804367393E+04 -0.30817310170E+03  0.19234941628E+04  0.10100000352E+00 0.  1.
       -3    1    3    3    0  502  0.65947262342E+03 -0.17804367393E+04  0.58666001788E+03  0.19872164227E+04  0.10100000352E+00 0. -1.
</event>
<event>
 5   0  0.6335942E-09  0.3897173E+04  0.7818609E-02  0.8025617E-01
       -2   -1    0    0    0  501  0.00000000000E+00  0.00000000000E+00  0.31111506814E+04  0.31111506814E+04  0.25500000920E-02 0. -1.
        2   -1    0    0  501    0  0.00000000000E+00  0.00000000000E+00 -0.12204452830E+04  0.12204452830E+04  0.25500000920E-02 0.  1.
    10030    2    1    2    0    0  0.00000000000E+00  0.00000000000E+00  0.18907053984E+04  0.43315959645E+04  0.38971729107E+04 0.  0.
        2    1    3    3  502    0  0.19382569830E+04  0.20037186261E+03  0.94579514273E+03  0.21659911051E+04  0.25500000920E-02 0.  1.
       -2    1    3    3    0  502 -0.19382569830E+04 -0.20037186261E+03  0.94491025565E+03  0.21656048593E+04  0.25500000920E-02 0. -1.
</event>
<event>
 5   0  0.2904500E-09  0.3877306E+04  0.7818609E-02  0.8029766E-01
       -1   -1    0    0    0  501  0.00000000000E+00  0.00000000000E+00  0.11626013666E+04  0.11626013666E+04  0.50400001928E-02 0.  1.
        1   -1    0    0  501    0  0.00000000000E+00  0.00000000000E+00 -0.32327290620E+04  0.32327290620E+04  0.50400001928E-02 0. -1.
    10030    2    1    2    0    0  0.00000000000E+00  0.00000000000E+00 -0.20701276954E+04  0.43953304286E+04  0.38773058818E+04 0.  0.
        5    1    3    3  502    0 -0.12519639949E+04  0.59128489237E+03 -0.25733115458E+04  0.29221543543E+04  0.46999998093E+01 0. -1.
       -5    1    3    3    0  502  0.12519639949E+04 -0.59128489237E+03  0.50318385042E+03  0.14731760743E+04  0.46999998093E+01 0.  1.
</event>
<event>
 5   0  0.9277261E-09  0.3899257E+04  0.7818609E-02  0.8025184E-01
        2   -1    0    0  501    0  0.00000000000E+00  0.00000000000E+00  0.32189664915E+04  0.32189664915E+04  0.25500000920E-02 0. -1.
       -2   -1    0    0    0  501  0.00000000000E+00  0.00000000000E+00 -0.11808297722E+04  0.11808297722E+04  0.25500000920E-02 0.  1.
    10030    2    1    2    0    0  0.00000000000E+00  0.00000000000E+00  0.20381367193E+04  0.43997962637E+04  0.38992570928E+04 0.  0.
        1    1    3    3  502    0  0.16335091601E+03  0.19351803165E+04  0.12126914456E+04  0.22895909943E+04  0.50400001928E-02 0.  1.
       -1    1    3    3    0  502 -0.16335091601E+03 -0.19351803165E+04  0.82544527368E+03  0.21102052694E+04  0.50400001928E-02 0. -1.
</event>
<event>
 5   0  0.2904500E-09  0.3902009E+04  0.7818609E-02  0.8024612E-01
       -1   -1    0    0    0  501  0.00000000000E+00  0.00000000000E+00  0.10347330659E+04  0.10347330659E+04  0.50400001928E-02 0. -1.
        1   -1    0    0  501    0  0.00000000000E+00  0.00000000000E+00 -0.36786469375E+04  0.36786469375E+04  0.50400001928E-02 0.  1.
    10030    2    1    2    0    0  0.00000000000E+00  0.00000000000E+00 -0.26439138715E+04  0.47133800034E+04  0.39020085208E+04 0.  0.
        3    1    3    3  502    0  0.12325374056E+04 -0.12343101326E+04 -0.23776050744E+04  0.29488431392E+04  0.10100000352E+00 0.  1.
       -3    1    3    3    0  502 -0.12325374056E+04  0.12343101326E+04 -0.26630879718E+03  0.17645368642E+04  0.10100000352E+00 0. -1.
</event>
<event>
 5   0  0.9277261E-09  0.3900271E+04  0.7818609E-02  0.8024973E-01
       -2   -1    0    0    0  501  0.00000000000E+00  0.00000000000E+00  0.28613473820E+04  0.28613473820E+04  0.25500000920E-02 0. -1.
        2   -1    0    0  501    0  0.00000000000E+00  0.00000000000E+00 -0.13291040340E+04  0.13291040340E+04  0.25500000920E-02 0.  1.
    10030    2    1    2    0    0  0.00000000000E+00  0.00000000000E+00  0.15322433481E+04  0.41904514160E+04  0.39002709383E+04 0.  0.
        1    1    3    3  502    0 -0.63295028110E+03 -0.18349221462E+04  0.96844866002E+03  0.21692068016E+04  0.50400001928E-02 0.  1.
       -1    1    3    3    0  502  0.63295028110E+03  0.18349221462E+04  0.56379468803E+03  0.20212446144E+04  0.50400001928E-02 0. -1.
</event>
<event>
 5   0  0.2929054E-09  0.3898340E+04  0.7818609E-02  0.8025375E-01
       -1   -1    0    0    0  501  0.00000000000E+00  0.00000000000E+00  0.18607941495E+04  0.18607941495E+04  0.50400001928E-02 0.  1.
        1   -1    0    0  501    0  0.00000000000E+00  0.00000000000E+00 -0.20417432057E+04  0.20417432057E+04  0.50400001928E-02 0. -1.
    10030    2    1    2    0    0  0.00000000000E+00  0.00000000000E+00 -0.18094905617E+03  0.39025373553E+04  0.38983400632E+04 0.  0.
        1    1    3    3  502    0 -0.70038049464E+03  0.50269353508E+02 -0.19107292612E+04  0.20356684786E+04  0.50400001928E-02 0. -1.
       -1    1    3    3    0  502  0.70038049464E+03 -0.50269353508E+02  0.17297802050E+04  0.18668688767E+04  0.50400001928E-02 0.  1.
</event>
<event>
 5   0  0.9368546E-09  0.3907372E+04  0.7818609E-02  0.8023498E-01
        2   -1    0    0  501    0  0.00000000000E+00  0.00000000000E+00  0.12221053710E+04  0.12221053710E+04  0.25500000920E-02 0.  1.
       -2   -1    0    0    0  501  0.00000000000E+00  0.00000000000E+00 -0.31232072864E+04  0.31232072864E+04  0.25500000920E-02 0. -1.
    10030    2    1    2    0    0  0.00000000000E+00  0.00000000000E+00 -0.19011019154E+04  0.43453126574E+04  0.39073716994E+04 0.  0.
        5    1    3    3  502    0  0.16053997330E+04  0.10858996728E+04 -0.12238150227E+04  0.22922110945E+04  0.46999998093E+01 0.  1.
       -5    1    3    3    0  502 -0.16053997330E+04 -0.10858996728E+04 -0.67728689277E+03  0.20531015628E+04  0.46999998093E+01 0. -1.
</event>
<event>
 5   0  0.9368546E-09  0.3900214E+04  0.7818609E-02  0.8024985E-01
        2   -1    0    0  501    0  0.00000000000E+00  0.00000000000E+00  0.22669705289E+04  0.22669705289E+04  0.25500000920E-02 0. -1.
       -2   -1    0    0    0  501  0.00000000000E+00  0.00000000000E+00 -0.16775329940E+04  0.16775329940E+04  0.25500000920E-02 0.  1.
    10030    2    1    2    0    0  0.00000000000E+00  0.00000000000E+00  0.58943753492E+03  0.39445035229E+04  0.39002142806E+04 0.  0.
        5    1    3    3  502    0 -0.11428683938E+04  0.15582447907E+04  0.55964910341E+03  0.20118409983E+04  0.46999998093E+01 0.  1.
       -5    1    3    3    0  502  0.11428683938E+04 -0.15582447907E+04  0.29788431515E+02  0.19326625246E+04  0.46999998093E+01 0. -1.
</event>
<event>
 5   0  0.9078515E-09  0.3899285E+04  0.7818609E-02  0.8025178E-01
       -2   -1    0    0    0  501  0.00000000000E+00  0.00000000000E+00  0.17576731943E+04  0.17576731943E+04  0.25500000920E-02 0.  1.
        2   -1    0    0  501    0  0.00000000000E+00  0.00000000000E+00 -0.21625785706E+04  0.21625785706E+04  0.25500000920E-02 0. -1.
    10030    2    1    2    0    0  0.00000000000E+00  0.00000000000E+00 -0.40490537632E+03  0.39202517649E+04  0.38992852597E+04 0.  0.
        3    1    3    3  502    0 -0.87403309201E+03 -0.11688183640E+04  0.10971837370E+04  0.18258922140E+04  0.10100000352E+00 0.  1.
       -3    1    3    3    0  502  0.87403309201E+03  0.11688183640E+04 -0.15020891134E+04  0.20943595509E+04  0.10100000352E+00 0. -1.
</event>
<event>
 5   0  0.6335942E-09  0.3899762E+04  0.7818609E-02  0.8025079E-01
       -2   -1    0    0    0  501  0.00000000000E+00  0.00000000000E+00  0.16080692805E+04  0.16080692805E+04  0.25500000920E-02 0.  1.
        2   -1    0    0  501    0  0.00000000000E+00  0.00000000000E+00 -0.23643478264E+04  0.23643478264E+04  0.25500000920E-02 0. -1.
    10030    2    1    2    0    0  0.00000000000E+00  0.00000000000E+00 -0.75627854592E+03  0.39724171069E+04  0.38997615866E+04 0.  0.
        2    1    3    3  502    0  0.17068270157E+04  0.75682544227E+03  0.19446523010E+03  0.18771946988E+04  0.25500000920E-02 0.  1.
       -2    1    3    3    0  502 -0.17068270157E+04 -0.75682544227E+03 -0.95074377602E+03  0.20952224081E+04  0.25500000920E-02 0. -1.
</event>
<event>
 5   0  0.9368546E-09  0.3900032E+04  0.7818609E-02  0.8025023E-01
       -2   -1    0    0    0  501  0.00000000000E+00  0.00000000000E+00  0.23931551567E+04  0.23931551567E+04  0.25500000920E-02 0. -1.
        2   -1    0    0  501    0  0.00000000000E+00  0.00000000000E+00 -0.15889327603E+04  0.15889327603E+04  0.25500000920E-02 0.  1.
    10030    2    1    2    0    0  0.00000000000E+00  0.00000000000E+00  0.80422239640E+03  0.39820879169E+04  0.39000321172E+04 0.  0.
        5    1    3    3  502    0  0.80795489112E+03 -0.17703975175E+04  0.52899182602E+03  0.20166687675E+04  0.46999998093E+01 0. -1.
       -5    1    3    3    0  502 -0.80795489112E+03  0.17703975175E+04  0.27523057039E+03  0.19654191494E+04  0.46999998093E+01 0.  1.
</event>
<event>
 5   0  0.9368546E-09  0.3899405E+04  0.7818609E-02  0.8025153E-01
        2   -1    0    0  501    0  0.00000000000E+00  0.00000000000E+00  0.29372137857E+04  0.29372137857E+04  0.25500000920E-02 0.  1.
       -2   -1    0    0    0  501  0.00000000000E+00  0.00000000000E+00 -0.12941991309E+04  0.12941991309E+04  0.25500000920E-02 0. -1.
    10030    2    1    2    0    0  0.00000000000E+00  0.00000000000E+00  0.16430146548E+04  0.42314129166E+04  0.38994048411E+04 0.  0.
        5    1    3    3  502    0 -0.64160773933E+03 -0.18187890547E+04  0.51140815855E+03  0.19952981009E+04  0.46999998093E+01 0. -1.
       -5    1    3    3    0  502  0.64160773933E+03  0.18187890547E+04  0.11316064963E+04  0.22361148157E+04  0.46999998093E+01 0.  1.
</event>
<event>
 5   0  0.9078515E-09  0.3898800E+04  0.7818609E-02  0.8025279E-01
        2   -1    0    0  501    0  0.00000000000E+00  0.00000000000E+00  0.16397035752E+04  0.16397035752E+04  0.25500000920E-02 0. -1.
       -2   -1    0    0    0  501  0.00000000000E+00  0.00000000000E+00 -0.23175894458E+04  0.23175894458E+04  0.25500000920E-02 0.  1.
    10030    2    1    2    0    0  0.00000000000E+00  0.00000000000E+00 -0.67788587066E+03  0.39572930210E+04  0.38987996615E+04 0.  0.
        3    1    3    3  502    0  0.16410043938E+04  0.48394285168E+03  0.60945418557E+03  0.18161857060E+04  0.10100000352E+00 0. -1.
       -3    1    3    3    0  502 -0.16410043938E+04 -0.48394285168E+03 -0.12873400562E+04  0.21411073151E+04  0.10100000352E+00 0.  1.
</event>
<event>
 5   0  0.9078515E-09  0.3898141E+04  0.7818609E-02  0.8025416E-01
        2   -1    0    0  501    0  0.00000000000E+00  0.00000000000E+00  0.14737742636E+04  0.14737742636E+04  0.25500000920E-02 0.  1.
       -2   -1    0    0    0  501  0.00000000000E+00  0.00000000000E+00 -0.25776512823E+04  0.25776512823E+04  0.25500000920E-02 0. -1.
    10030    2    1    2    0    0  0.00000000000E+00  0.00000000000E+00 -0.11038770188E+04  0.40514255459E+04  0.38981411572E+04 0.  0.
        3    1    3    3  502    0 -0.95646109695E+03  0.80927835861E+03 -0.21036739853E+04  0.24485084313E+04  0.10100000352E+00 0. -1.
       -3    1    3    3    0  502  0.95646109695E+03 -0.80927835861E+03  0.99979696653E+03  0.16029171146E+04  0.10100000352E+00 0.  1.
</event>
<event>
 5   0  0.9434114E-09  0.3902877E+04  0.7818609E-02  0.8024431E-01
       -2   -1    0    0    0  501  0.00000000000E+00  0.00000000000E+00  0.17281649844E+04  0.17281649844E+04  0.25500000920E-02 0. -1.
        2   -1    0    0  501    0  0.00000000000E+00  0.00000000000E+00 -0.22035586157E+04  0.22035586157E+04  0.25500000920E-02 0.  1.
    10030    2    1    2    0    0  0.00000000000E+00  0.00000000000E+00 -0.47539363126E+03  0.39317236000E+04  0.39028773184E+04 0.  0.
        4    1    3    3  502    0  0.35647200408E+03 -0.17263978922E+04 -0.10808952970E+04  0.20678148437E+04  0.12699999809E+01 0.  1.
       -4    1    3    3    0  502 -0.35647200408E+03  0.17263978922E+04  0.60550166574E+03  0.18639087563E+04  0.12699999809E+01 0. -1.
</event>
<event>
 5   0  0.2904500E-09  0.3900290E+04  0.7818609E-02  0.8024969E-01
       -1   -1    0    0    0  501  0.00000000000E+00  0.00000000000E+00  0.15620500069E+04  0.15620500069E+04  0.50400001928E-02 0. -1.
        1   -1    0    0  501    0  0.00000000000E+00  0.00000000000E+00 -0.24346635245E+04  0.24346635245E+04  0.50400001928E-02 0.  1.
    10030    2    1    2    0    0  0.00000000000E+00  0.00000000000E+00 -0.87261351761E+03  0.39967135315E+04  0.39002903356E+04 0.  0.
        5    1    3    3  502    0  0.48957137157E+03 -0.72658499268E+03  0.13490161676E+04  0.16085622742E+04  0.46999998093E+01 0. -1.
       -5    1    3    3    0  502 -0.48957137157E+03  0.72658499268E+03 -0.22216296852E+04  0.23881512573E+04  0.46999998093E+01 0.  1.
</event>
<event>
 5   0  0.2929054E-09  0.3900843E+04  0.7818609E-02  0.8024854E-01
        1   -1    0    0  501    0  0.00000000000E+00  0.00000000000E+00  0.12637459862E+04  0.12637459862E+04  0.50400001928E-02 0.  1.
       -1   -1    0    0    0  501  0.00000000000E+00  0.00000000000E+00 -0.30102132606E+04  0.30102132606E+04  0.50400001928E-02 0. -1.
    10030    2    1    2    0    0  0.00000000000E+00  0.00000000000E+00 -0.17464672744E+04  0.42739592469E+04  0.39008434605E+04 0.  0.
        1    1    3    3  502    0 -0.11153067629E+04 -0.95282550055E+03 -0.22816274252E+04  0.27124913488E+04  0.50400001928E-02 0. -1.
       -1    1    3    3    0  502  0.11153067629E+04  0.95282550055E+03  0.53516015076E+03  0.15614678981E+04  0.50400001928E-02 0.  1.
</event>
<event>
 5   0  0.2904500E-09  0.3899526E+04  0.7818609E-02  0.8025128E-01
        3   -1    0    0  501    0  0.00000000000E+00  0.00000000000E+00  0.14972338271E+04  0.14972338305E+04  0.10100000352E+00 0. -1.
       -3   -1    0    0    0  501  0.00000000000E+00  0.00000000000E+00 -0.25390657525E+04  0.25390657546E+04  0.10100000352E+00 0.  1.
    10030    2    1    2    0    0  0.00000000000E+00  0.00000000000E+00 -0.10418319255E+04  0.40362995851E+04  0.38995256865E+04 0.  0.
        3    1    3    3  502    0 -0.26458846156E+02 -0.12543191564E+04 -0.20657654346E+04  0.24168995548E+04  0.10100000352E+00 0.  1.
       -3    1    3    3    0  502  0.26458846156E+02  0.12543191564E+04  0.10239335092E+04  0.16194000303E+04  0.10100000352E+00 0. -1.
</event>
<event>
 5   0  0.6335942E-09  0.3899623E+04  0.7818609E-02  0.8025108E-01
       -2   -1    0    0    0  501  0.00000000000E+00  0.00000000000E+00  0.12660093134E+04  0.12660093134E+04  0.25500000920E-02 0.  1.
        2   -1    0    0  501    0  0.00000000000E+00  0.00000000000E+00 -0.30029514521E+04  0.30029514521E+04  0.25500000920E-02 0. -1.
    10030    2    1    2    0    0  0.00000000000E+00  0.00000000000E+00 -0.17369421387E+04  0.42689607655E+04  0.38996228054E+04 0.  0.
        2    1    3    3  502    0  0.86428611012E+03 -0.13666916153E+03 -0.27759391561E+04  0.29105853601E+04  0.25500000920E-02 0. -1.
       -2    1    3    3    0  502 -0.86428611012E+03  0.13666916153E+03  0.10389970174E+04  0.13583754054E+04  0.25500000920E-02 0.  1.
</event>
<event>
 5   0  0.9368546E-09  0.3900220E+04  0.7818609E-02  0.8024983E-01
        2   -1    0    0  501    0  0.00000000000E+00  0.00000000000E+00  0.16882125487E+04  0.16882125487E+04  0.25500000920E-02 0. -1.
       -2   -1    0    0    0  501  0.00000000000E+00  0.00000000000E+00 -0.22526368918E+04  0.22526368918E+04  0.25500000920E-02 0.  1.
    10030    2    1    2    0    0  0.00000000000E+00  0.00000000000E+00 -0.56442434304E+03  0.39408494405E+04  0.39002204391E+04 0.  0.
        5    1    3    3  502    0 -0.16419671076E+04  0.86086037668E+03  0.32887820924E+03  0.18829018925E+04  0.46999998093E+01 0. -1.
       -5    1    3    3    0  502  0.16419671076E+04 -0.86086037668E+03 -0.89330255228E+03  0.20579475480E+04  0.46999998093E+01 0.  1.
</event>
<event>
 5   0  0.9277261E-09  0.3904975E+04  0.7818609E-02  0.8023995E-01
       -2   -1    0    0    0  501  0.00000000000E+00  0.00000000000E+00  0.17602155760E+04  0.17602155760E+04  0.25500000920E-02 0.  1.
        2   -1    0    0  501    0  0.00000000000E+00  0.00000000000E+00 -0.21657613493E+04  0.21657613493E+04  0.25500000920E-02 0. -1.
    10030    2    1    2    0    0  0.00000000000E+00  0.00000000000E+00 -0.40554577333E+03  0.39259769253E+04  0.39049747047E+04 0.  0.
        1    1    3    3  502    0 -0.11636532755E+04  0.12524584898E+04  0.74541435496E+03  0.18650425665E+04  0.50400001928E-02 0.  1.
       -1    1    3    3    0  502  0.11636532755E+04 -0.12524584898E+04 -0.11509601283E+04  0.20609343588E+04  0.50400001928E-02 0. -1.
</event>
<event>
 5   0  0.9368546E-09  0.3894115E+04  0.7818609E-02  0.8026254E-01
        2   -1    0    0  501    0  0.00000000000E+00  0.00000000000E+00  0.19408188723E+04  0.19408188723E+04  0.25500000920E-02 0. -1.
       -2   -1    0    0    0  501  0.00000000000E+00  0.00000000000E+00 -0.19533158354E+04  0.19533158354E+04  0.25500000920E-02 0.  1.
    10030    2    1    2    0    0  0.00000000000E+00  0.00000000000E+00 -0.12496963170E+02  0.38941347077E+04  0.38941146552E+04 0.  0.
        5    1    3    3  502    0 -0.81603044162E+03 -0.11716728524E+04 -0.13299951488E+04  0.19513154897E+04  0.46999998093E+01 0.  1.
       -5    1    3    3    0  502  0.81603044162E+03  0.11716728524E+04  0.13174981856E+04  0.19428192180E+04  0.46999998093E+01 0. -1.
</event>
<event>
 5   0  0.2904500E-09  0.3900973E+04  0.7818609E-02  0.8024827E-01
       -3   -1    0    0    0  501  0.00000000000E+00  0.00000000000E+00  0.23000623271E+04  0.23000623293E+04  0.10100000352E+00 0. -1.
        3   -1    0    0  501    0  0.00000000000E+00  0.00000000000E+00 -0.16540408659E+04  0.16540408690E+04  0.10100000352E+00 0.  1.
    10030    2    1    2    0    0  0.00000000000E+00  0.00000000000E+00  0.64602146114E+03  0.39541031983E+04  0.39009727472E+04 0.  0.
        5    1    3    3  502    0 -0.15255517256E+04 -0.12119791552E+04  0.23137219250E+03  0.19620796929E+04  0.46999998093E+01 0. -1.
       -5    1    3    3    0  502  0.15255517256E+04  0.12119791552E+04  0.41464926864E+03  0.19920235054E+04  0.46999998093E+01 0.  1.
</event>
<event>
 5   0  0.2904500E-09  0.3899420E+04  0.7818609E-02  0.8025150E-01
       -1   -1    0    0    0  501  0.00000000000E+00  0.00000000000E+00  0.15170497577E+04  0.15170497577E+04  0.50400001928E-02 0.  1.
        1   -1    0    0  501    0  0.00000000000E+00  0.00000000000E+00 -0.25057648299E+04  0.25057648299E+04  0.50400001928E-02 0. -1.
    10030    2    1    2    0    0  0.00000000000E+00  0.00000000000E+00 -0.98871507221E+03  0.40228145877E+04  0.38994204329E+04 0.  0.
        3    1    3    3  502    0 -0.58746512238E+03 -0.40422675415E+03  0.13776874542E+04  0.15513017987E+04  0.10100000352E+00 0.  1.
       -3    1    3    3    0  502  0.58746512238E+03  0.40422675415E+03 -0.23664025265E+04  0.24715127890E+04  0.10100000352E+00 0. -1.
</event>
<event>
 5   0  0.2904500E-09  0.3894202E+04  0.7818609E-02  0.8026236E-01
        1   -1    0    0  501    0  0.00000000000E+00  0.00000000000E+00  0.21319969971E+04  0.21319969971E+04  0.50400001928E-02 0. -1.
       -1   -1    0    0    0  501  0.00000000000E+00  0.00000000000E+00 -0.17782400228E+04  0.17782400228E+04  0.50400001928E-02 0.  1.
    10030    2    1    2    0    0  0.00000000000E+00  0.00000000000E+00  0.35375697424E+03  0.39102370199E+04  0.38942020434E+04 0.  0.
        5    1    3    3  502    0 -0.19203622524E+04 -0.31329412210E+03  0.10422093806E+03  0.19485452218E+04  0.46999998093E+01 0.  1.
       -5    1    3    3    0  502  0.19203622524E+04  0.31329412210E+03  0.24953603617E+03  0.19616917981E+04  0.46999998093E+01 0. -1.
</event>
<event>
 5   0  0.9434114E-09  0.3899868E+04  0.7818609E-02  0.8025057E-01
        2   -1    0    0  501    0  0.00000000000E+00  0.00000000000E+00  0.16806366812E+04  0.16806366812E+04  0.25500000920E-02 0.  1.
       -2   -1    0    0    0  501  0.00000000000E+00  0.00000000000E+00 -0.22623826475E+04  0.22623826475E+04  0.25500000920E-02 0. -1.
    10030    2    1    2    0    0  0.00000000000E+00  0.00000000000E+00 -0.58174596627E+03  0.39430193287E+04  0.38998683384E+04 0.  0.
        4    1    3    3  502    0 -0.14113033940E+04  0.78238930414E+03 -0.13976685803E+04  0.21348042922E+04  0.12699999809E+01 0. -1.
       -4    1    3    3    0  502  0.14113033940E+04 -0.78238930414E+03  0.81592261399E+03  0.18082150364E+04  0.12699999809E+01 0.  1.
</event>
<event>
 5   0  0.9434114E-09  0.3899485E+04  0.7818609E-02  0.8025136E-01
       -2   -1    0    0    0  501  0.00000000000E+00  0.00000000000E+00  0.23774869941E+04  0.23774869941E+04  0.25500000920E-02 0.  1.
        2   -1    0    0  501    0  0.00000000000E+00  0.00000000000E+00 -0.15989551401E+04  0.15989551401E+04  0.25500000920E-02 0. -1.
    10030    2    1    2    0    0  0.00000000000E+00  0.00000000000E+00  0.77853185403E+03  0.39764421343E+04  0.38994846069E+04 0.  0.
        4    1    3    3  502    0 -0.13374021007E+04 -0.23600290500E+03  0.18158576497E+04  0.22675278095E+04  0.12699999809E+01 0.  1.
       -4    1    3    3    0  502  0.13374021007E+04  0.23600290500E+03 -0.10373257956E+04  0.17089143248E+04  0.12699999809E+01 0. -1.
</event>
<event>
 5   0  0.9368546E-09  0.3906558E+04  0.7818609E-02  0.8023667E-01
       -2   -1    0    0    0  501  0.00000000000E+00  0.00000000000E+00  0.14275043580E+04  0.14275043580E+04  0.25500000920E-02 0.  1.
        2   -1    0    0  501    0  0.00000000000E+00  0.00000000000E+00 -0.26727057753E+04  0.26727057753E+04  0.25500000920E-02 0. -1.
    10030    2    1    2    0    0  0.00000000000E+00  0.00000000000E+00 -0.12452014173E+04  0.41002101332E+04  0.39065581484E+04 0.  0.
        5    1    3    3  502    0  0.59854759522E+03 -0.32104174369E+03  0.12995618578E+04  0.14663594843E+04  0.46999998093E+01 0.  1.
       -5    1    3    3    0  502 -0.59854759522E+03  0.32104174369E+03 -0.25447632751E+04  0.26338506490E+04  0.46999998093E+01 0. -1.
</event>
<event>
 5   0  0.2904500E-09  0.3882970E+04  0.7818609E-02  0.8028580E-01
        1   -1    0    0  501    0  0.00000000000E+00  0.00000000000E+00  0.22914582372E+04  0.22914582372E+04  0.50400001928E-02 0.  1.
       -1   -1    0    0    0  501  0.00000000000E+00  0.00000000000E+00 -0.16449634106E+04  0.16449634106E+04  0.50400001928E-02 0. -1.
    10030    2    1    2    0    0  0.00000000000E+00  0.00000000000E+00  0.64649482659E+03  0.39364216478E+04  0.38829704903E+04 0.  0.
        2    1    3    3  502    0  0.76787595351E+03 -0.17435016572E+04 -0.55978747977E+02  0.19059289412E+04  0.25500000920E-02 0. -1.
       -2    1    3    3    0  502 -0.76787595351E+03  0.17435016572E+04  0.70247357456E+03  0.20304927066E+04  0.25500000920E-02 0.  1.
</event>
<event>
 5   0  0.9078515E-09  0.3897257E+04  0.7818609E-02  0.8025600E-01
       -2   -1    0    0    0  501  0.00000000000E+00  0.00000000000E+00  0.18778289349E+04  0.18778289349E+04  0.25500000920E-02 0.  1.
        2   -1    0    0  501    0  0.00000000000E+00  0.00000000000E+00 -0.20220975158E+04  0.20220975159E+04  0.25500000920E-02 0. -1.
    10030    2    1    2    0    0  0.00000000000E+00  0.00000000000E+00 -0.14426858098E+03  0.38999264507E+04  0.38972570992E+04 0.  0.
        3    1    3    3  502    0 -0.13582350808E+04 -0.13923479881E+04  0.45068769783E+02  0.19456275746E+04  0.10100000352E+00 0. -1.
       -3    1    3    3    0  502  0.13582350808E+04  0.13923479881E+04 -0.18933735076E+03  0.19542988762E+04  0.10100000352E+00 0.  1.
</event>
<event>
 5   0  0.2904500E-09  0.3902196E+04  0.7818609E-02  0.8024573E-01
       -1   -1    0    0    0  501  0.00000000000E+00  0.00000000000E+00  0.14619609941E+04  0.14619609942E+04  0.50400001928E-02 0. -1.
        1   -1    0    0  501    0  0.00000000000E+00  0.00000000000E+00 -0.26038882215E+04  0.26038882215E+04  0.50400001928E-02 0.  1.
    10030    2    1    2    0    0  0.00000000000E+00  0.00000000000E+00 -0.11419272274E+04  0.40658492157E+04  0.39021957988E+04 0.  0.
        4    1    3    3  502    0 -0.17899338934E+04  0.73004541585E+03 -0.84653968103E+03  0.21103224152E+04  0.12699999809E+01 0.  1.
       -4    1    3    3    0  502  0.17899338934E+04 -0.73004541585E+03 -0.29538754635E+03  0.19555268004E+04  0.12699999809E+01 0. -1.
</event>
<event>
 5   0  0.9078515E-09  0.3899625E+04  0.7818609E-02  0.8025107E-01
        2   -1    0    0  501    0  0.00000000000E+00  0.00000000000E+00  0.31736078984E+04  0.31736078984E+04  0.25500000920E-02 0. -1.
       -2   -1    0    0    0  501  0.00000000000E+00  0.00000000000E+00 -0.11979326547E+04  0.11979326547E+04  0.25500000920E-02 0.  1.
    10030    2    1    2    0    0  0.00000000000E+00  0.00000000000E+00  0.19756752437E+04  0.43715405531E+04  0.38996248715E+04 0.  0.
        3    1    3    3  502    0  0.38444491611E+03 -0.12185778686E+04  0.26388309612E+04  0.29319206619E+04  0.10100000352E+00 0. -1.
       -3    1    3    3    0  502 -0.38444491611E+03  0.12185778686E+04 -0.66315571746E+03  0.14396198913E+04  0.10100000352E+00 0.  1.
</event>
<event>
 5   0  0.2904500E-09  0.3904990E+04  0.7818609E-02  0.8023992E-01
       -1   -1    0    0    0  501  0.00000000000E+00  0.00000000000E+00  0.17453777855E+04  0.17453777855E+04  0.50400001928E-02 0. -1.
        1   -1    0    0  501    0  0.00000000000E+00  0.00000000000E+00 -0.21841898987E+04  0.21841898987E+04  0.50400001928E-02 0.  1.
    10030    2    1    2    0    0  0.00000000000E+00  0.00000000000E+00 -0.43881211314E+03  0.39295676842E+04  0.39049898993E+04 0.  0.
        2    1    3    3  502    0  0.44052155803E+03 -0.72671407500E+03  0.15495155702E+04  0.17672495840E+04  0.25500000920E-02 0. -1.
       -2    1    3    3    0  502 -0.44052155803E+03  0.72671407500E+03 -0.19883276834E+04  0.21623181002E+04  0.25500000920E-02 0.  1.
</event>
<event>
 5   0  0.9277261E-09  0.3905652E+04  0.7818609E-02  0.8023855E-01
        2   -1    0    0  501    0  0.00000000000E+00  0.00000000000E+00  0.12279295007E+04  0.12279295007E+04  0.25500000920E-02 0.  1.
       -2   -1    0    0    0  501  0.00000000000E+00  0.00000000000E+00 -0.31056583906E+04  0.31056583906E+04  0.25500000920E-02 0. -1.
    10030    2    1    2    0    0  0.00000000000E+00  0.00000000000E+00 -0.18777288900E+04  0.43335878913E+04  0.39056520874E+04 0.  0.
        1    1    3    3  502    0  0.81220357941E+02  0.13136745021E+04  0.66183627668E+03  0.14732157687E+04  0.50400001928E-02 0.  1.
       -1    1    3    3    0  502 -0.81220357941E+02 -0.13136745021E+04 -0.25395651666E+04  0.28603721226E+04  0.50400001928E-02 0. -1.
</event>
<event>
 5   0  0.6335942E-09  0.3902456E+04  0.7818609E-02  0.8024519E-01
        2   -1    0    0  501    0  0.00000000000E+00  0.00000000000E+00  0.28748749243E+04  0.28748749243E+04  0.25500000920E-02 0.  1.
       -2   -1    0    0    0  501  0.00000000000E+00  0.00000000000E+00 -0.13243325184E+04  0.13243325184E+04  0.25500000920E-02 0. -1.
    10030    2    1    2    0    0  0.00000000000E+00  0.00000000000E+00  0.15505424059E+04  0.41992074426E+04  0.39024558157E+04 0.  0.
        2    1    3    3  502    0  0.12852801875E+04  0.12655189176E+04 -0.25500241329E+02  0.18039217149E+04  0.25500000920E-02 0. -1.
       -2    1    3    3    0  502 -0.12852801875E+04 -0.12655189176E+04  0.15760426472E+04  0.23952857277E+04  0.25500000920E-02 0.  1.
</event>
<event>
 5   0  0.2904500E-09  0.3901001E+04  0.7818609E-02  0.8024821E-01
       -1   -1    0    0    0  501  0.00000000000E+00  0.00000000000E+00  0.17755318272E+04  0.17755318272E+04  0.50400001928E-02 0. -1.
        1   -1    0    0  501    0  0.00000000000E+00  0.00000000000E+00 -0.21427108020E+04  0.21427108020E+04  0.50400001928E-02 0.  1.
    10030    2    1    2    0    0  0.00000000000E+00  0.00000000000E+00 -0.36717897482E+03  0.39182426293E+04  0.39010005002E+04 0.  0.
        5    1    3    3  502    0 -0.17284678015E+04 -0.73608033586E+03  0.34314610887E+03  0.19097608603E+04  0.46999998093E+01 0. -1.
       -5    1    3    3    0  502  0.17284678015E+04  0.73608033586E+03 -0.71032508368E+03  0.20084817689E+04  0.46999998093E+01 0.  1.
</event>
<event>
 5   0  0.2904500E-09  0.3900014E+04  0.7818609E-02  0.8025026E-01
        1   -1    0    0  501    0  0.00000000000E+00  0.00000000000E+00  0.21740752140E+04  0.21740752140E+04  0.50400001928E-02 0.  1.
       -1   -1    0    0    0  501  0.00000000000E+00  0.00000000000E+00 -0.17490318490E+04  0.17490318490E+04  0.50400001928E-02 0. -1.
    10030    2    1    2    0    0  0.00000000000E+00  0.00000000000E+00  0.42504336499E+03  0.39231070629E+04  0.39000137391E+04 0.  0.
        4    1    3    3  502    0  0.76434995688E+03  0.15918982801E+03 -0.15849426480E+04  0.17668098563E+04  0.12699999809E+01 0. -1.
       -4    1    3    3    0  502 -0.76434995688E+03 -0.15918982801E+03  0.20099860130E+04  0.21562972066E+04  0.12699999809E+01 0.  1.
</event>
<event>
 5   0  0.2904500E-09  0.3900971E+04  0.7818609E-02  0.8024827E-01
       -3   -1    0    0    0  501  0.00000000000E+00  0.00000000000E+00  0.13871765208E+04  0.13871765245E+04  0.10100000352E+00 0. -1.
        3   -1    0    0  501    0  0.00000000000E+00  0.00000000000E+00 -0.27425450613E+04  0.27425450632E+04  0.10100000352E+00 0.  1.
    10030    2    1    2    0    0  0.00000000000E+00  0.00000000000E+00 -0.13553685405E+04  0.41297215876E+04  0.39009712266E+04 0.  0.
        4    1    3    3  502    0 -0.63095074698E+03  0.26485508403E+03 -0.26113015373E+04  0.26994711319E+04  0.12699999809E+01 0.  1.
       -4    1    3    3    0  502  0.63095074698E+03 -0.26485508403E+03  0.12559329968E+04  0.14302504557E+04  0.12699999809E+01 0. -1.
</event>
<event>
 5   0  0.6335942E-09  0.3900885E+04  0.7818609E-02  0.8024845E-01
        2   -1    0    0  501    0  0.00000000000E+00  0.00000000000E+00  0.24223183465E+04  0.24223183465E+04  0.25500000920E-02 0.  1.
       -2   -1    0    0    0  501  0.00000000000E+00  0.00000000000E+00 -0.15704898181E+04  0.15704898181E+04  0.25500000920E-02 0. -1.
    10030    2    1    2    0    0  0.00000000000E+00  0.00000000000E+00  0.85182852844E+03  0.39928081646E+04  0.39008851813E+04 0.  0.
        2    1    3    3  502    0 -0.62547859999E+03 -0.87293251896E+03  0.20924685176E+04  0.23519479499E+04  0.25500000920E-02 0.  1.
       -2    1    3    3    0  502  0.62547859999E+03  0.87293251896E+03 -0.12406399892E+04  0.16408602148E+04  0.25500000920E-02 0. -1.
</event>
<event>
 5   0  0.9368546E-09  0.3899010E+04  0.7818609E-02  0.8025235E-01
        2   -1    0    0  501    0  0.00000000000E+00  0.00000000000E+00  0.35585657531E+04  0.35585657532E+04  0.25500000920E-02 0. -1.
       -2   -1    0    0    0  501  0.00000000000E+00  0.00000000000E+00 -0.10680059695E+04  0.10680059695E+04  0.25500000920E-02 0.  1.
    10030    2    1    2    0    0  0.00000000000E+00  0.00000000000E+00  0.24905597837E+04  0.46265717226E+04  0.38990098575E+04 0.  0.
        5    1    3    3  502    0 -0.73389215526E+03 -0.14887286319E+03  0.33810925946E+04  0.34630290279E+04  0.46999998093E+01 0. -1.
       -5    1    3    3    0  502  0.73389215526E+03  0.14887286319E+03 -0.89053281095E+03  0.11635426947E+04  0.46999998093E+01 0.  1.
</event>
<event>
 5   0  0.2904500E-09  0.3899489E+04  0.7818609E-02  0.8025135E-01
       -1   -1    0    0    0  501  0.00000000000E+00  0.00000000000E+00  0.12465121371E+04  0.12465121371E+04  0.50400001928E-02 0.  1.
        1   -1    0    0  501    0  0.00000000000E+00  0.00000000000E+00 -0.30497130957E+04  0.30497130957E+04  0.50400001928E-02 0. -1.
    10030    2    1    2    0    0  0.00000000000E+00  0.00000000000E+00 -0.18032009586E+04  0.42962252328E+04  0.38994893966E+04 0.  0.
        4    1    3    3  502    0  0.19005114755E+04 -0.25682374545E+03 -0.51426314409E+03  0.19855403544E+04  0.12699999809E+01 0.  1.
       -4    1    3    3    0  502 -0.19005114755E+04  0.25682374545E+03 -0.12889378145E+04  0.23106848784E+04  0.12699999809E+01 0. -1.
</event>
<event>
 5   0  0.9434114E-09  0.3897931E+04  0.7818609E-02  0.8025460E-01
       -2   -1    0    0    0  501  0.00000000000E+00  0.00000000000E+00  0.29093108793E+04  0.29093108793E+04  0.25500000920E-02 0. -1.
        2   -1    0    0  501    0  0.00000000000E+00  0.00000000000E+00 -0.13056244741E+04  0.13056244741E+04  0.25500000920E-02 0.  1.
    10030    2    1    2    0    0  0.00000000000E+00  0.00000000000E+00  0.16036864051E+04  0.42149353534E+04  0.38979314960E+04 0.  0.
        4    1    3    3  502    0  0.10182592641E+04  0.10818555468E+04 -0.56217273485E+03  0.15884908403E+04  0.12699999809E+01 0.  1.
       -4    1    3    3    0  502 -0.10182592641E+04 -0.10818555468E+04  0.21658591400E+04  0.26264445131E+04  0.12699999809E+01 0. -1.
</event>
<event>
 5   0  0.2904500E-09  0.3900867E+04  0.7818609E-02  0.8024849E-01
       -3   -1    0    0    0  501  0.00000000000E+00  0.00000000000E+00  0.23378965374E+04  0.23378965396E+04  0.10100000352E+00 0.  1.
        3   -1    0    0  501    0  0.00000000000E+00  0.00000000000E+00 -0.16271850074E+04  0.16271850105E+04  0.10100000352E+00 0. -1.
    10030    2    1    2    0    0  0.00000000000E+00  0.00000000000E+00  0.71071153003E+03  0.39650815501E+04  0.39008666755E+04 0.  0.
        4    1    3    3  502    0 -0.16703540537E+03 -0.91951483581E+03  0.20954895682E+04  0.22944468839E+04  0.12699999809E+01 0.  1.
       -4    1    3    3    0  502  0.16703540537E+03  0.91951483581E+03 -0.13847780382E+04  0.16706346662E+04  0.12699999809E+01 0. -1.
</event>
<event>
 5   0  0.2904500E-09  0.3897334E+04  0.7818609E-02  0.8025584E-01
        1   -1    0    0  501    0  0.00000000000E+00  0.00000000000E+00  0.20443267766E+04  0.20443267766E+04  0.50400001928E-02 0.  1.
       -1   -1    0    0    0  501  0.00000000000E+00  0.00000000000E+00 -0.18574832096E+04  0.18574832096E+04  0.50400001928E-02 0. -1.
    10030    2    1    2    0    0  0.00000000000E+00  0.00000000000E+00  0.18684356698E+03  0.39018099863E+04  0.38973337874E+04 0.  0.
        3    1    3    3  502    0  0.18874817866E+03  0.64730400782E+03  0.19238198335E+04  0.20385561350E+04  0.10100000352E+00 0.  1.
       -3    1    3    3    0  502 -0.18874817866E+03 -0.64730400782E+03 -0.17369762665E+04  0.18632538513E+04  0.10100000352E+00 0. -1.
</event>
<event>
 5   0  0.2904500E-09  0.3894763E+04  0.7818609E-02  0.8026119E-01
       -1   -1    0    0    0  501  0.00000000000E+00  0.00000000000E+00  0.23722703270E+04  0.23722703270E+04  0.50400001928E-02 0. -1.
        1   -1    0    0  501    0  0.00000000000E+00  0.00000000000E+00 -0.15985931920E+04  0.15985931920E+04  0.50400001928E-02 0.  1.
    10030    2    1    2    0    0  0.00000000000E+00  0.00000000000E+00  0.77367713502E+03  0.39708635190E+04  0.38947632505E+04 0.  0.
        2    1    3    3  502    0  0.11779793289E+04  0.14273142748E+04 -0.23116855735E+03  0.18650201716E+04  0.25500000920E-02 0.  1.
       -2    1    3    3    0  502 -0.11779793289E+04 -0.14273142748E+04  0.10048456924E+04  0.21058433474E+04  0.25500000920E-02 0. -1.
</event>
<event>
 5   0  0.2904500E-09  0.3899691E+04  0.7818609E-02  0.8025094E-01
        1   -1    0    0  501    0  0.00000000000E+00  0.00000000000E+00  0.15476764143E+04  0.15476764143E+04  0.50400001928E-02 0. -1.
       -1   -1    0    0    0  501  0.00000000000E+00  0.00000000000E+00 -0.24565192694E+04  0.24565192694E+04  0.50400001928E-02 0.  1.
    10030    2    1    2    0    0  0.00000000000E+00  0.00000000000E+00 -0.90884285507E+03  0.40041956836E+04  0.38996907233E+04 0.  0.
        2    1    3    3  502    0 -0.78857355053E+03 -0.12657421087E+04  0.83540461589E+03  0.17093426229E+04  0.25500000920E-02 0. -1.
       -2    1    3    3    0  502  0.78857355053E+03  0.12657421087E+04 -0.17442474710E+04  0.22948530607E+04  0.25500000920E-02 0.  1.
</event>
<event>
 5   0  0.2929054E-09  0.3898377E+04  0.7818609E-02  0.8025367E-01
        1   -1    0    0  501    0  0.00000000000E+00  0.00000000000E+00  0.25028588876E+04  0.25028588876E+04  0.50400001928E-02 0. -1.
       -1   -1    0    0    0  501  0.00000000000E+00  0.00000000000E+00 -0.15179987231E+04  0.15179987231E+04  0.50400001928E-02 0.  1.
    10030    2    1    2    0    0  0.00000000000E+00  0.00000000000E+00  0.98486016451E+03  0.40208576107E+04  0.38983774037E+04 0.  0.
        1    1    3    3  502    0  0.99721917096E+03 -0.53606071122E+03  0.21289529990E+04  0.24112751881E+04  0.50400001928E-02 0. -1.
       -1    1    3    3    0  502 -0.99721917096E+03  0.53606071122E+03 -0.11440928345E+04  0.16095824225E+04  0.50400001928E-02 0.  1.
</event>
<event>
 5   0  0.2904500E-09  0.3871597E+04  0.7818609E-02  0.8030962E-01
       -1   -1    0    0    0  501  0.00000000000E+00  0.00000000000E+00  0.27935709708E+04  0.27935709708E+04  0.50400001928E-02 0. -1.
        1   -1    0    0  501    0  0.00000000000E+00  0.00000000000E+00 -0.13414072928E+04  0.13414072928E+04  0.50400001928E-02 0.  1.
    10030    2    1    2    0    0  0.00000000000E+00  0.00000000000E+00  0.14521636780E+04  0.41349782636E+04  0.38715973309E+04 0.  0.
        5    1    3    3  502    0 -0.14147066388E+03  0.19228756418E+04  0.91054408612E+03  0.21322704579E+04  0.46999998093E+01 0.  1.
       -5    1    3    3    0  502  0.14147066388E+03 -0.19228756418E+04  0.54161959190E+03  0.20027078057E+04  0.46999998093E+01 0. -1.
</event>
<event>
 5   0  0.2904500E-09  0.3896987E+04  0.7818609E-02  0.8025656E-01
       -1   -1    0    0    0  501  0.00000000000E+00  0.00000000000E+00  0.20614047506E+04  0.20614047507E+04  0.50400001928E-02 0. -1.
        1   -1    0    0  501    0  0.00000000000E+00  0.00000000000E+00 -0.18417664683E+04  0.18417664683E+04  0.50400001928E-02 0.  1.
    10030    2    1    2    0    0  0.00000000000E+00  0.00000000000E+00  0.21963828232E+03  0.39031712190E+04  0.38969866037E+04 0.  0.
        2    1    3    3  502    0  0.18418734580E+04  0.63571071606E+03  0.10937407205E+03  0.19515605647E+04  0.25500000920E-02 0.  1.
       -2    1    3    3    0  502 -0.18418734580E+04 -0.63571071606E+03  0.11026421028E+03  0.19516106543E+04  0.25500000920E-02 0. -1.
</event>
<event>
 5   0  0.6335942E-09  0.3902103E+04  0.7818609E-02  0.8024592E-01
       -2   -1    0    0    0  501  0.00000000000E+00  0.00000000000E+00  0.36503029307E+04  0.36503029307E+04  0.25500000920E-02 0.  1.
        2   -1    0    0  501    0  0.00000000000E+00  0.00000000000E+00 -0.10428180757E+04  0.10428180757E+04  0.25500000920E-02 0. -1.
    10030    2    1    2    0    0  0.00000000000E+00  0.00000000000E+00  0.26074848550E+04  0.46931210065E+04  0.39021029602E+04 0.  0.
        2    1    3    3  502    0 -0.11256902287E+04  0.14217715462E+04  0.43813032396E+03  0.18656288488E+04  0.25500000920E-02 0. -1.
       -2    1    3    3    0  502  0.11256902287E+04 -0.14217715462E+04  0.21693545310E+04  0.28274921577E+04  0.25500000920E-02 0.  1.
</event>
<event>
 5   0  0.6335942E-09  0.3899557E+04  0.7818609E-02  0.8025121E-01
       -2   -1    0    0    0  501  0.00000000000E+00  0.00000000000E+00  0.31238103077E+04  0.31238103077E+04  0.25500000920E-02 0. -1.
        2   -1    0    0  501    0  0.00000000000E+00  0.00000000000E+00 -0.12169869943E+04  0.12169869943E+04  0.25500000920E-02 0.  1.
    10030    2    1    2    0    0  0.00000000000E+00  0.00000000000E+00  0.19068233134E+04  0.43407973020E+04  0.38995571631E+04 0.  0.
        2    1    3    3  502    0 -0.55156278912E+03  0.69889083778E+03 -0.97750220050E+03  0.13221877573E+04  0.25500000920E-02 0.  1.
       -2    1    3    3    0  502  0.55156278912E+03 -0.69889083778E+03  0.28843255139E+04  0.30186095448E+04  0.25500000920E-02 0. -1.
</event>
<event>
 5   0  0.9434114E-09  0.3898298E+04  0.7818609E-02  0.8025383E-01
       -2   -1    0    0    0  501  0.00000000000E+00  0.00000000000E+00  0.25379672556E+04  0.25379672556E+04  0.25500000920E-02 0.  1.
        2   -1    0    0  501    0  0.00000000000E+00  0.00000000000E+00 -0.14969388655E+04  0.14969388655E+04  0.25500000920E-02 0. -1.
    10030    2    1    2    0    0  0.00000000000E+00  0.00000000000E+00  0.10410283901E+04  0.40349061212E+04  0.38982980001E+04 0.  0.
        4    1    3    3  502    0 -0.51540922874E+03 -0.78969098291E+03  0.22861415564E+04  0.24729948141E+04  0.12699999809E+01 0.  1.
       -4    1    3    3    0  502  0.51540922874E+03  0.78969098291E+03 -0.12451131663E+04  0.15619113071E+04  0.12699999809E+01 0. -1.
</event>
<event>
 5   0  0.2904500E-09  0.3898988E+04  0.7818609E-02  0.8025240E-01
        1   -1    0    0  501    0  0.00000000000E+00  0.00000000000E+00  0.13808900530E+04  0.13808900530E+04  0.50400001928E-02 0. -1.
       -1   -1    0    0    0  501  0.00000000000E+00  0.00000000000E+00 -0.27522302798E+04  0.27522302798E+04  0.50400001928E-02 0.  1.
    10030    2    1    2    0    0  0.00000000000E+00  0.00000000000E+00 -0.13713402268E+04  0.41331203328E+04  0.38989882877E+04 0.  0.
        4    1    3    3  502    0  0.14050925374E+04 -0.12089447208E+04 -0.45507823801E+02  0.18541588258E+04  0.12699999809E+01 0. -1.
       -4    1    3    3    0  502 -0.14050925374E+04  0.12089447208E+04 -0.13258324030E+04  0.22789615070E+04  0.12699999809E+01 0.  1.
</event>
<event>
 5   0  0.2904500E-09  0.3895895E+04  0.7818609E-02  0.8025883E-01
       -1   -1    0    0    0  501  0.00000000000E+00  0.00000000000E+00  0.20157836939E+04  0.20157836939E+04  0.50400001928E-02 0. -1.
        1   -1    0    0  501    0  0.00000000000E+00  0.00000000000E+00 -0.18823945553E+04  0.18823945553E+04  0.50400001928E-02 0.  1.
    10030    2    1    2    0    0  0.00000000000E+00  0.00000000000E+00  0.13338913855E+03  0.38981782492E+04  0.38958954042E+04 0.  0.
        4    1    3    3  502    0 -0.11108696011E+04  0.78678662008E+02  0.16658416320E+04  0.20038092619E+04  0.12699999809E+01 0. -1.
       -4    1    3    3    0  502  0.11108696011E+04 -0.78678662008E+02 -0.15324524934E+04  0.18943689873E+04  0.12699999809E+01 0.  1.
</event>
<event>
 5   0  0.9078515E-09  0.3902722E+04  0.7818609E-02  0.8024463E-01
        2   -1    0    0  501    0  0.00000000000E+00  0.00000000000E+00  0.25905435982E+04  0.25905435982E+04  0.25500000920E-02 0.  1.
       -2   -1    0    0    0  501  0.00000000000E+00  0.00000000000E+00 -0.14698881606E+04  0.14698881606E+04  0.25500000920E-02 0. -1.
    10030    2    1    2    0    0  0.00000000000E+00  0.00000000000E+00  0.11206554376E+04  0.40604317588E+04  0.39027218013E+04 0.  0.
        3    1    3    3  502    0  0.11297189234E+04 -0.89768801022E+03  0.19270723128E+04  0.24074294006E+04  0.10100000352E+00 0.  1.
       -3    1    3    3    0  502 -0.11297189234E+04  0.89768801022E+03 -0.80641687519E+03  0.16530023582E+04  0.10100000352E+00 0. -1.
</event>
<event>
 5   0  0.2904500E-09  0.3900065E+04  0.7818609E-02  0.8025016E-01
        1   -1    0    0  501    0  0.00000000000E+00  0.00000000000E+00  0.21010345198E+04  0.21010345199E+04  0.50400001928E-02 0.  1.
       -1   -1    0    0    0  501  0.00000000000E+00  0.00000000000E+00 -0.18098834447E+04  0.18098834447E+04  0.50400001928E-02 0. -1.
    10030    2    1    2    0    0  0.00000000000E+00  0.00000000000E+00  0.29115107519E+03  0.39109179645E+04  0.39000654324E+04 0.  0.
        5    1    3    3  502    0  0.27583468298E+03 -0.14219164284E+04  0.14548404611E+04  0.20529281426E+04  0.46999998093E+01 0.  1.
       -5    1    3    3    0  502 -0.27583468298E+03  0.14219164284E+04 -0.11636893859E+04  0.18579898219E+04  0.46999998093E+01 0. -1.
</event>
<event>
 5   0  0.2904500E-09  0.3898639E+04  0.7818609E-02  0.8025312E-01
       -1   -1    0    0    0  501  0.00000000000E+00  0.00000000000E+00  0.18782513062E+04  0.18782513062E+04  0.50400001928E-02 0. -1.
        1   -1    0    0  501    0  0.00000000000E+00  0.00000000000E+00 -0.20230771596E+04  0.20230771596E+04  0.50400001928E-02 0.  1.
    10030    2    1    2    0    0  0.00000000000E+00  0.00000000000E+00 -0.14482585339E+03  0.39013284657E+04  0.38986394126E+04 0.  0.
        5    1    3    3  502    0  0.16139624859E+04  0.10163537436E+04  0.33032632980E+03  0.19357136700E+04  0.46999998093E+01 0. -1.
       -5    1    3    3    0  502 -0.16139624859E+04 -0.10163537436E+04 -0.47515218319E+03  0.19656147957E+04  0.46999998093E+01 0.  1.
</event>
<event>
 5   0  0.6335942E-09  0.3904968E+04  0.7818609E-02  0.8023997E-01
       -2   -1    0    0    0  501  0.00000000000E+00  0.00000000000E+00  0.21506609030E+04  0.21506609030E+04  0.25500000920E-02 0. -1.
        2   -1    0    0  501    0  0.00000000000E+00  0.00000000000E+00 -0.17725682720E+04  0.17725682720E+04  0.25500000920E-02 0.  1.
    10030    2    1    2    0    0  0.00000000000E+00  0.00000000000E+00  0.37809263103E+03  0.39232291750E+04  0.39049677491E+04 0.  0.
        2    1    3    3  502    0 -0.91076057071E+03  0.10978319450E+04  0.15285002802E+04  0.20907015337E+04  0.25500000920E-02 0. -1.
       -2    1    3    3    0  502  0.91076057071E+03 -0.10978319450E+04 -0.11504076492E+04  0.18325276412E+04  0.25500000920E-02 0.  1.
</event>
<event>
 5   0  0.2904500E-09  0.3898414E+04  0.7818609E-02  0.8025359E-01
        1   -1    0    0  501    0  0.00000000000E+00  0.00000000000E+00  0.16884823770E+04  0.16884823770E+04  0.50400001928E-02 0.  1.
       -1   -1    0    0    0  501  0.00000000000E+00  0.00000000000E+00 -0.22501905120E+04  0.22501905120E+04  0.50400001928E-02 0. -1.
    10030    2    1    2    0    0  0.00000000000E+00  0.00000000000E+00 -0.56170813503E+03  0.39386728890E+04  0.38984135360E+04 0.  0.
        3    1    3    3  502    0  0.24640890009E+03  0.12653455246E+04  0.11962947449E+04  0.17586750040E+04  0.10100000352E+00 0.  1.
       -3    1    3    3    0  502 -0.24640890009E+03 -0.12653455246E+04 -0.17580028799E+04  0.21799978850E+04  0.10100000352E+00 0. -1.
</event>
<event>
 5   0  0.9078515E-09  0.3901010E+04  0.7818609E-02  0.8024819E-01
        2   -1    0    0  501    0  0.00000000000E+00  0.00000000000E+00  0.24031591131E+04  0.24031591132E+04  0.25500000920E-02 0.  1.
       -2   -1    0    0    0  501  0.00000000000E+00  0.00000000000E+00 -0.15831117589E+04  0.15831117589E+04  0.25500000920E-02 0. -1.
    10030    2    1    2    0    0  0.00000000000E+00  0.00000000000E+00  0.82004735422E+03  0.39862708721E+04  0.39010098439E+04 0.  0.
        3    1    3    3  502    0  0.78079398601E+02 -0.18627494963E+04 -0.17568565362E+03  0.18726445305E+04  0.10100000352E+00 0. -1.
       -3    1    3    3    0  502 -0.78079398601E+02  0.18627494963E+04  0.99573300784E+03  0.21136263416E+04  0.10100000352E+00 0.  1.
</event>
<event>
 5   0  0.2904500E-09  0.3899437E+04  0.7818609E-02  0.8025146E-01
        3   -1    0    0  501    0  0.00000000000E+00  0.00000000000E+00  0.13695361430E+04  0.13695361467E+04  0.10100000352E+00 0.  1.
       -3   -1    0    0    0  501  0.00000000000E+00  0.00000000000E+00 -0.27756859187E+04  0.27756859205E+04  0.10100000352E+00 0. -1.
    10030    2    1    2    0    0  0.00000000000E+00  0.00000000000E+00 -0.14061497757E+04  0.41452220672E+04  0.38994369843E+04 0.  0.
        1    1    3    3  502    0  0.40073541542E+03  0.52913429693E+03  0.12457336872E+04  0.14115326411E+04  0.50400001928E-02 0.  1.
       -1    1    3    3    0  502 -0.40073541542E+03 -0.52913429693E+03 -0.26518834629E+04  0.27336894261E+04  0.50400001928E-02 0. -1.
</event>
<event>
 5   0  0.9434114E-09  0.3900464E+04  0.7818609E-02  0.8024933E-01
        2   -1    0    0  501    0  0.00000000000E+00  0.00000000000E+00  0.22309943817E+04  0.22309943817E+04  0.25500000920E-02 0.  1.
       -2   -1    0    0    0  501  0.00000000000E+00  0.00000000000E+00 -0.17048027248E+04  0.17048027248E+04  0.25500000920E-02 0. -1.
    10030    2    1    2    0    0  0.00000000000E+00  0.00000000000E+00  0.52619165692E+03  0.39357971065E+04  0.39004642292E+04 0.  0.
        4    1    3    3  502    0 -0.13058480429E+04  0.65772992824E+02 -0.11970222971E+04  0.17726898179E+04  0.12699999809E+01 0. -1.
       -4    1    3    3    0  502  0.13058480429E+04 -0.65772992824E+02  0.17232139540E+04  0.21631072886E+04  0.12699999809E+01 0.  1.
</event>
<event>
 5   0  0.6335942E-09  0.3900131E+04  0.7818609E-02  0.8025002E-01
        2   -1    0    0  501    0  0.00000000000E+00  0.00000000000E+00  0.25678016013E+04  0.25678016013E+04  0.25500000920E-02 0.  1.
       -2   -1    0    0    0  501  0.00000000000E+00  0.00000000000E+00 -0.14809380172E+04  0.14809380172E+04  0.25500000920E-02 0. -1.
    10030    2    1    2    0    0  0.00000000000E+00  0.00000000000E+00  0.10868635841E+04  0.40487396185E+04  0.39001307732E+04 0.  0.
        2    1    3    3  502    0 -0.50342333511E+03 -0.10244889967E+03 -0.14094239864E+04  0.15001355955E+04  0.25500000920E-02 0. -1.
       -2    1    3    3    0  502  0.50342333511E+03  0.10244889967E+03  0.24962875705E+04  0.25486040230E+04  0.25500000920E-02 0.  1.
</event>
<event>
 5   0  0.2904500E-09  0.3908104E+04  0.7818609E-02  0.8023346E-01
       -1   -1    0    0    0  501  0.00000000000E+00  0.00000000000E+00  0.14980591839E+04  0.14980591839E+04  0.50400001928E-02 0. -1.
        1   -1    0    0  501    0  0.00000000000E+00  0.00000000000E+00 -0.25488437164E+04  0.25488437164E+04  0.50400001928E-02 0.  1.
    10030    2    1    2    0    0  0.00000000000E+00  0.00000000000E+00 -0.10507845325E+04  0.40469029003E+04  0.39081037538E+04 0.  0.
        2    1    3    3  502    0  0.15393142753E+04 -0.46068360899E+03  0.62612772074E+03  0.17244575229E+04  0.25500000920E-02 0.  1.
       -2    1    3    3    0  502 -0.15393142753E+04  0.46068360899E+03 -0.16769122532E+04  0.23224453773E+04  0.25500000920E-02 0. -1.
</event>
<event>
 5   0  0.9434114E-09  0.3898566E+04  0.7818609E-02  0.8025327E-01
       -2   -1    0    0    0  501  0.00000000000E+00  0.00000000000E+00  0.12115761731E+04  0.12115761731E+04  0.25500000920E-02 0. -1.
        2   -1    0    0  501    0  0.00000000000E+00  0.00000000000E+00 -0.31361663248E+04  0.31361663248E+04  0.25500000920E-02 0.  1.
    10030    2    1    2    0    0  0.00000000000E+00  0.00000000000E+00 -0.19245901517E+04  0.43477424979E+04  0.38985660923E+04 0.  0.
        4    1    3    3  502    0 -0.11511486176E+03  0.22620182373E+03 -0.31176596074E+04  0.31279740627E+04  0.12699999809E+01 0.  1.
       -4    1    3    3    0  502  0.11511486176E+03 -0.22620182373E+03  0.11930694557E+04  0.12197684352E+04  0.12699999809E+01 0. -1.
</event>
<event>
 5   0  0.2929054E-09  0.3897246E+04  0.7818609E-02  0.8025602E-01
       -1   -1    0    0    0  501  0.00000000000E+00  0.00000000000E+00  0.16604588738E+04  0.16604588738E+04  0.50400001928E-02 0.  1.
        1   -1    0    0  501    0  0.00000000000E+00  0.00000000000E+00 -0.22867965751E+04  0.22867965751E+04  0.50400001928E-02 0. -1.
    10030    2    1    2    0    0  0.00000000000E+00  0.00000000000E+00 -0.62633770136E+03  0.39472554489E+04  0.38972460357E+04 0.  0.
        1    1    3    3  502    0  0.73407601460E+03 -0.84582189618E+02  0.15130517428E+04  0.16838489595E+04  0.50400001928E-02 0.  1.
       -1    1    3    3    0  502 -0.73407601460E+03  0.84582189618E+02 -0.21393894442E+04  0.22634064893E+04  0.50400001928E-02 0. -1.
</event>
<event>
 5   0  0.2904500E-09  0.3899695E+04  0.7818609E-02  0.8025093E-01
       -1   -1    0    0    0  501  0.00000000000E+00  0.00000000000E+00  0.21039332057E+04  0.21039332057E+04  0.50400001928E-02 0. -1.
        1   -1    0    0  501    0  0.00000000000E+00  0.00000000000E+00 -0.18070465259E+04  0.18070465259E+04  0.50400001928E-02 0.  1.
    10030    2    1    2    0    0  0.00000000000E+00  0.00000000000E+00  0.29688667981E+03  0.39109797317E+04  0.38996949574E+04 0.  0.
        5    1    3    3  502    0 -0.22137195709E+03  0.19000660386E+04  0.52719557259E+03  0.19842413554E+04  0.46999998093E+01 0.  1.
       -5    1    3    3    0  502  0.22137195709E+03 -0.19000660386E+04 -0.23030889278E+03  0.19267383763E+04  0.46999998093E+01 0. -1.
</event>
<event>
 5   0  0.9434114E-09  0.3900252E+04  0.7818609E-02  0.8024977E-01
        2   -1    0    0  501    0  0.00000000000E+00  0.00000000000E+00  0.13091462915E+04  0.13091462915E+04  0.25500000920E-02 0.  1.
       -2   -1    0    0    0  501  0.00000000000E+00  0.00000000000E+00 -0.29049405734E+04  0.29049405734E+04  0.25500000920E-02 0. -1.
    10030    2    1    2    0    0  0.00000000000E+00  0.00000000000E+00 -0.15957942819E+04  0.42140868649E+04  0.39002523912E+04 0.  0.
        4    1    3    3  502    0  0.53132050410E+03  0.11237601561E+04 -0.24214204430E+04  0.27218407267E+04  0.12699999809E+01 0. -1.
       -4    1    3    3    0  502 -0.53132050410E+03 -0.11237601561E+04  0.82562616109E+03  0.14922461383E+04  0.12699999809E+01 0.  1.
</event>
<event>
 5   0  0.2904500E-09  0.3903962E+04  0.7818609E-02  0.8024206E-01
       -1   -1    0    0    0  501  0.00000000000E+00  0.00000000000E+00  0.26270499065E+04  0.26270499065E+04  0.50400001928E-02 0.  1.
        1   -1    0    0  501    0  0.00000000000E+00  0.00000000000E+00 -0.14503836859E+04  0.14503836859E+04  0.50400001928E-02 0. -1.
    10030    2    1    2    0    0  0.00000000000E+00  0.00000000000E+00  0.11766662207E+04  0.40774335924E+04  0.39039622572E+04 0.  0.
        5    1    3    3  502    0  0.10768997651E+04  0.61876410582E+03  0.21611096090E+04  0.24925888058E+04  0.46999998093E+01 0.  1.
       -5    1    3    3    0  502 -0.10768997651E+04 -0.61876410582E+03 -0.98444338833E+03  0.15848447866E+04  0.46999998093E+01 0. -1.
</event>
<event>
 5   0  0.2904500E-09  0.3898663E+04  0.7818609E-02  0.8025307E-01
        1   -1    0    0  501    0  0.00000000000E+00  0.00000000000E+00  0.13994170277E+04  0.13994170277E+04  0.50400001928E-02 0.  1.
       -1   -1    0    0    0  501  0.00000000000E+00  0.00000000000E+00 -0.27153405743E+04  0.27153405743E+04  0.50400001928E-02 0. -1.
    10030    2    1    2    0    0  0.00000000000E+00  0.00000000000E+00 -0.13159235466E+04  0.41147576020E+04  0.38986632764E+04 0.  0.
        3    1    3    3  502    0 -0.89412224598E+03  0.13251101823E+03 -0.24807928533E+04  0.26403308413E+04  0.10100000352E+00 0. -1.
       -3    1    3    3    0  502  0.89412224598E+03 -0.13251101823E+03  0.11648693067E+04  0.14744267607E+04  0.10100000352E+00 0.  1.
</event>
<event>
 5   0  0.2904500E-09  0.3899391E+04  0.7818609E-02  0.8025156E-01
       -1   -1    0    0    0  501  0.00000000000E+00  0.00000000000E+00  0.17793167360E+04  0.17793167360E+04  0.50400001928E-02 0.  1.
        1   -1    0    0  501    0  0.00000000000E+00  0.00000000000E+00 -0.21363889067E+04  0.21363889068E+04  0.50400001928E-02 0. -1.
    10030    2    1    2    0    0  0.00000000000E+00  0.00000000000E+00 -0.35707217076E+03  0.39157056427E+04  0.38993909967E+04 0.  0.
        4    1    3    3  502    0 -0.57464259004E+03  0.32849172203E+03 -0.20201091499E+04  0.21257853862E+04  0.12699999809E+01 0. -1.
       -4    1    3    3    0  502  0.57464259004E+03 -0.32849172203E+03  0.16630369792E+04  0.17899202565E+04  0.12699999809E+01 0.  1.
</event>
<event>
 5   0  0.9078515E-09  0.3901329E+04  0.7818609E-02  0.8024753E-01
       -2   -1    0    0    0  501  0.00000000000E+00  0.00000000000E+00  0.26433645889E+04  0.26433645889E+04  0.25500000920E-02 0. -1.
        2   -1    0    0  501    0  0.00000000000E+00  0.00000000000E+00 -0.14394883240E+04  0.14394883240E+04  0.25500000920E-02 0.  1.
    10030    2    1    2    0    0  0.00000000000E+00  0.00000000000E+00  0.12038762649E+04  0.40828529129E+04  0.39013292410E+04 0.  0.
        3    1    3    3  502    0 -0.85069567679E+03 -0.15788435109E+03  0.24315629484E+04  0.25809124327E+04  0.10100000352E+00 0. -1.
       -3    1    3    3    0  502  0.85069567679E+03  0.15788435109E+03 -0.12276866835E+04  0.15019404802E+04  0.10100000352E+00 0.  1.
</event>
<event>
 5   0  0.9277261E-09  0.3899788E+04  0.7818609E-02  0.8025073E-01
       -2   -1    0    0    0  501  0.00000000000E+00  0.00000000000E+00  0.20196043866E+04  0.20196043866E+04  0.25500000920E-02 0.  1.
        2   -1    0    0  501    0  0.00000000000E+00  0.00000000000E+00 -0.18825898875E+04  0.18825898875E+04  0.25500000920E-02 0. -1.
    10030    2    1    2    0    0  0.00000000000E+00  0.00000000000E+00  0.13701449907E+03  0.39021942741E+04  0.38997880942E+04 0.  0.
        1    1    3    3  502    0  0.68491322309E+03 -0.83332218327E+03 -0.15568578806E+04  0.18940270443E+04  0.50400001928E-02 0. -1.
       -1    1    3    3    0  502 -0.68491322309E+03  0.83332218327E+03  0.16938723796E+04  0.20081672298E+04  0.50400001928E-02 0.  1.
</event>
<event>
 5   0  0.2904500E-09  0.3902493E+04  0.7818609E-02  0.8024511E-01
        1   -1    0    0  501    0  0.00000000000E+00  0.00000000000E+00  0.17327218998E+04  0.17327218998E+04  0.50400001928E-02 0. -1.
       -1   -1    0    0    0  501  0.00000000000E+00  0.00000000000E+00 -0.21973309285E+04  0.21973309285E+04  0.50400001928E-02 0.  1.
    10030    2    1    2    0    0  0.00000000000E+00  0.00000000000E+00 -0.46460902871E+03  0.39300528284E+04  0.39024932651E+04 0.  0.
        2    1    3    3  502    0 -0.18235901272E+04 -0.59012154544E+03  0.13584385794E+03  0.19215040838E+04  0.25500000920E-02 0. -1.
       -2    1    3    3    0  502  0.18235901272E+04  0.59012154544E+03 -0.60045288665E+03  0.20085487446E+04  0.25500000920E-02 0.  1.
</event>
<event>
 5   0  0.2904500E-09  0.3898938E+04  0.7818609E-02  0.8025250E-01
       -1   -1    0    0    0  501  0.00000000000E+00  0.00000000000E+00  0.16107389377E+04  0.16107389377E+04  0.50400001928E-02 0. -1.
        1   -1    0    0  501    0  0.00000000000E+00  0.00000000000E+00 -0.23594328342E+04  0.23594328342E+04  0.50400001928E-02 0.  1.
    10030    2    1    2    0    0  0.00000000000E+00  0.00000000000E+00 -0.74869389652E+03  0.39701717720E+04  0.38989384899E+04 0.  0.
        5    1    3    3  502    0 -0.68615974532E+03  0.53230390505E+03 -0.21515840504E+04  0.23202367680E+04  0.46999998093E+01 0.  1.
       -5    1    3    3    0  502  0.68615974532E+03 -0.53230390505E+03  0.14028901539E+04  0.16499350040E+04  0.46999998093E+01 0. -1.
</event>
<event>
 5   0  0.9078515E-09  0.3899714E+04  0.7818609E-02  0.8025089E-01
       -2   -1    0    0    0  501  0.00000000000E+00  0.00000000000E+00  0.27057353507E+04  0.27057353507E+04  0.25500000920E-02 0.  1.
        2   -1    0    0  501    0  0.00000000000E+00  0.00000000000E+00 -0.14051421267E+04  0.14051421267E+04  0.25500000920E-02 0. -1.
    10030    2    1    2    0    0  0.00000000000E+00  0.00000000000E+00  0.13005932240E+04  0.41108774774E+04  0.38997142075E+04 0.  0.
        3    1    3    3  502    0 -0.15192975198E+04 -0.12092423714E+04  0.46346936997E+03  0.19963306173E+04  0.10100000352E+00 0. -1.
       -3    1    3    3    0  502  0.15192975198E+04  0.12092423714E+04  0.83712385403E+03  0.21145468601E+04  0.10100000352E+00 0.  1.
</event>
<event>
 5   0  0.9277261E-09  0.3897142E+04  0.7818609E-02  0.8025624E-01
       -2   -1    0    0    0  501  0.00000000000E+00  0.00000000000E+00  0.14737034744E+04  0.14737034744E+04  0.25500000920E-02 0.  1.
        2   -1    0    0  501    0  0.00000000000E+00  0.00000000000E+00 -0.25764533757E+04  0.25764533757E+04  0.25500000920E-02 0. -1.
    10030    2    1    2    0    0  0.00000000000E+00  0.00000000000E+00 -0.11027499013E+04  0.40501568501E+04  0.38971416660E+04 0.  0.
        1    1    3    3  502    0  0.11030329207E+04 -0.24288071174E+03 -0.22015654767E+04  0.24743813797E+04  0.50400001928E-02 0. -1.
       -1    1    3    3    0  502 -0.11030329207E+04  0.24288071174E+03  0.10988155754E+04  0.15757754703E+04  0.50400001928E-02 0.  1.
</event>
<event>
 5   0  0.2904500E-09  0.3904362E+04  0.7818609E-02  0.8024123E-01
       -1   -1    0    0    0  501  0.00000000000E+00  0.00000000000E+00  0.16014334673E+04  0.16014334673E+04  0.50400001928E-02 0. -1.
        1   -1    0    0  501    0  0.00000000000E+00  0.00000000000E+00 -0.23797490863E+04  0.23797490863E+04  0.50400001928E-02 0.  1.
    10030    2    1    2    0    0  0.00000000000E+00  0.00000000000E+00 -0.77831561897E+03  0.39811825536E+04  0.39043615768E+04 0.  0.
        5    1    3    3  502    0 -0.33805758717E+03  0.10402846838E+04  0.12596021440E+04  0.16682610127E+04  0.46999998093E+01 0. -1.
       -5    1    3    3    0  502  0.33805758717E+03 -0.10402846838E+04 -0.20379177629E+04  0.23129215408E+04  0.46999998093E+01 0.  1.
</event>
<event>
 5   0  0.2904500E-09  0.3899177E+04  0.7818609E-02  0.8025200E-01
       -1   -1    0    0    0  501  0.00000000000E+00  0.00000000000E+00  0.14577869034E+04  0.14577869034E+04  0.50400001928E-02 0.  1.
        1   -1    0    0  501    0  0.00000000000E+00  0.00000000000E+00 -0.26073045033E+04  0.26073045033E+04  0.50400001928E-02 0. -1.
    10030    2    1    2    0    0  0.00000000000E+00  0.00000000000E+00 -0.11495175999E+04  0.40650914067E+04  0.38991765069E+04 0.  0.
        2    1    3    3  502    0 -0.63807610569E+03 -0.11241008508E+04 -0.20963660413E+04  0.24628224497E+04  0.25500000920E-02 0. -1.
       -2    1    3    3    0  502  0.63807610569E+03  0.11241008508E+04  0.94684844140E+03  0.16022689570E+04  0.25500000920E-02 0.  1.
</event>
<event>
 5   0  0.2904500E-09  0.3900365E+04  0.7818609E-02  0.8024953E-01
        1   -1    0    0  501    0  0.00000000000E+00  0.00000000000E+00  0.15336285983E+04  0.15336285983E+04  0.50400001928E-02 0.  1.
       -1   -1    0    0    0  501  0.00000000000E+00  0.00000000000E+00 -0.24798784638E+04  0.24798784638E+04  0.50400001928E-02 0. -1.
    10030    2    1    2    0    0  0.00000000000E+00  0.00000000000E+00 -0.94624986550E+03  0.40135070620E+04  0.39003653841E+04 0.  0.
        5    1    3    3  502    0 -0.12556614634E+04  0.91342921723E+03 -0.16872461096E+04  0.22930024357E+04  0.46999998093E+01 0. -1.
       -5    1    3    3    0  502  0.12556614634E+04 -0.91342921723E+03  0.74099624409E+03  0.17205046264E+04  0.46999998093E+01 0.  1.
</event>
<event>
 5   0  0.2904500E-09  0.3900351E+04  0.7818609E-02  0.8024956E-01
       -1   -1    0    0    0  501  0.00000000000E+00  0.00000000000E+00  0.16878740015E+04  0.16878740015E+04  0.50400001928E-02 0.  1.
        1   -1    0    0  501    0  0.00000000000E+00  0.00000000000E+00 -0.22532396928E+04  0.22532396928E+04  0.50400001928E-02 0. -1.
    10030    2    1    2    0    0  0.00000000000E+00  0.00000000000E+00 -0.56536569136E+03  0.39411136943E+04  0.39003511107E+04 0.  0.
        2    1    3    3  502    0 -0.14805496001E+04  0.70126010611E+03 -0.13517533028E+04  0.21239185122E+04  0.25500000920E-02 0. -1.
       -2    1    3    3    0  502  0.14805496001E+04 -0.70126010611E+03  0.78638761139E+03  0.18171951822E+04  0.25500000920E-02 0.  1.
</event>
<event>
 5   0  0.2904500E-09  0.3896800E+04  0.7818609E-02  0.8025695E-01
        1   -1    0    0  501    0  0.00000000000E+00  0.00000000000E+00  0.13415487454E+04  0.13415487454E+04  0.50400001928E-02 0. -1.
       -1   -1    0    0    0  501  0.00000000000E+00  0.00000000000E+00 -0.28297615018E+04  0.28297615018E+04  0.50400001928E-02 0.  1.
    10030    2    1    2    0    0  0.00000000000E+00  0.00000000000E+00 -0.14882127564E+04  0.41713102472E+04  0.38968002219E+04 0.  0.
        5    1    3    3  502    0  0.16371631553E+04 -0.17500282027E+02 -0.18747473636E+04  0.24890378110E+04  0.46999998093E+01 0.  1.
       -5    1    3    3    0  502 -0.16371631553E+04  0.17500282027E+02  0.38653460721E+03  0.16822724362E+04  0.46999998093E+01 0. -1.
</event>
<event>
 5   0  0.9368546E-09  0.3899571E+04  0.7818609E-02  0.8025118E-01
        2   -1    0    0  501    0  0.00000000000E+00  0.00000000000E+00  0.32951952685E+04  0.32951952685E+04  0.25500000920E-02 0. -1.
       -2   -1    0    0    0  501  0.00000000000E+00  0.00000000000E+00 -0.11536989119E+04  0.11536989119E+04  0.25500000920E-02 0.  1.
    10030    2    1    2    0    0  0.00000000000E+00  0.00000000000E+00  0.21414963566E+04  0.44488941805E+04  0.38995708461E+04 0.  0.
        5    1    3    3  502    0  0.53531803599E+03  0.18688270182E+04  0.12421112153E+04  0.23069335025E+04  0.46999998093E+01 0. -1.
       -5    1    3    3    0  502 -0.53531803599E+03 -0.18688270182E+04  0.89938514135E+03  0.21419606780E+04  0.46999998093E+01 0.  1.
</event>
<event>
 5   0  0.9078515E-09  0.3900205E+04  0.7818609E-02  0.8024987E-01
        2   -1    0    0  501    0  0.00000000000E+00  0.00000000000E+00  0.27758788513E+04  0.27758788513E+04  0.25500000920E-02 0.  1.
       -2   -1    0    0    0  501  0.00000000000E+00  0.00000000000E+00 -0.13699804320E+04  0.13699804320E+04  0.25500000920E-02 0. -1.
    10030    2    1    2    0    0  0.00000000000E+00  0.00000000000E+00  0.14058984192E+04  0.41458592833E+04  0.39002049730E+04 0.  0.
        3    1    3    3  502    0  0.18531290813E+04 -0.49989774297E+03  0.10695088351E+04  0.21972333294E+04  0.10100000352E+00 0.  1.
       -3    1    3    3    0  502 -0.18531290813E+04  0.49989774297E+03  0.33638958417E+03  0.19486259538E+04  0.10100000352E+00 0. -1.
</event>
<event>
 5   0  0.6335942E-09  0.3897748E+04  0.7818609E-02  0.8025498E-01
        2   -1    0    0  501    0  0.00000000000E+00  0.00000000000E+00  0.16760871795E+04  0.16760871795E+04  0.25500000920E-02 0. -1.
       -2   -1    0    0    0  501  0.00000000000E+00  0.00000000000E+00 -0.22660572536E+04  0.22660572536E+04  0.25500000920E-02 0.  1.
    10030    2    1    2    0    0  0.00000000000E+00  0.00000000000E+00 -0.58997007404E+03  0.39421444331E+04  0.38977478167E+04 0.  0.
        2    1    3    3  502    0  0.32701481017E+03 -0.80603147438E+03  0.14688646377E+04  0.17070995131E+04  0.25500000920E-02 0. -1.
       -2    1    3    3    0  502 -0.32701481017E+03  0.80603147438E+03 -0.20588347118E+04  0.22350449199E+04  0.25500000920E-02 0.  1.
</event>
<event>
 5   0  0.9434114E-09  0.3903173E+04  0.7818609E-02  0.8024370E-01
       -2   -1    0    0    0  501  0.00000000000E+00  0.00000000000E+00  0.15685602020E+04  0.15685602020E+04  0.25500000920E-02 0.  1.
        2   -1    0    0  501    0  0.00000000000E+00  0.00000000000E+00 -0.24281439159E+04  0.24281439159E+04  0.25500000920E-02 0. -1.
    10030    2    1    2    0    0  0.00000000000E+00  0.00000000000E+00 -0.85958371391E+03  0.39967041179E+04  0.39031730227E+04 0.  0.
        4    1    3    3  502    0  0.58992042973E+03 -0.11099901102E+04  0.10988320978E+04  0.16695861015E+04  0.12699999809E+01 0.  1.
       -4    1    3    3    0  502 -0.58992042973E+03  0.11099901102E+04 -0.19584158117E+04  0.23271180165E+04  0.12699999809E+01 0. -1.
</event>
<event>
 5   0  0.2904500E-09  0.3899669E+04  0.7818609E-02  0.8025098E-01
       -1   -1    0    0    0  501  0.00000000000E+00  0.00000000000E+00  0.20552877684E+04  0.20552877684E+04  0.50400001928E-02 0. -1.
        1   -1    0    0  501    0  0.00000000000E+00  0.00000000000E+00 -0.18497914983E+04  0.18497914983E+04  0.50400001928E-02 0.  1.
    10030    2    1    2    0    0  0.00000000000E+00  0.00000000000E+00  0.20549627008E+03  0.39050792667E+04  0.38996686221E+04 0.  0.
        2    1    3    3  502    0 -0.26367250912E+03 -0.34983238281E+03 -0.17998743282E+04  0.18524182804E+04  0.25500000920E-02 0.  1.
       -2    1    3    3    0  502  0.26367250912E+03  0.34983238281E+03  0.20053705983E+04  0.20526609863E+04  0.25500000920E-02 0. -1.
</event>
<event>
 5   0  0.9434114E-09  0.3900526E+04  0.7818609E-02  0.8024920E-01
        2   -1    0    0  501    0  0.00000000000E+00  0.00000000000E+00  0.22398213911E+04  0.22398213911E+04  0.25500000920E-02 0. -1.
       -2   -1    0    0    0  501  0.00000000000E+00  0.00000000000E+00 -0.16981380931E+04  0.16981380931E+04  0.25500000920E-02 0.  1.
    10030    2    1    2    0    0  0.00000000000E+00  0.00000000000E+00  0.54168329801E+03  0.39379594843E+04  0.39005261317E+04 0.  0.
        4    1    3    3  502    0 -0.14996995546E+04  0.27458117198E+03 -0.95698390119E+03  0.18000870463E+04  0.12699999809E+01 0.  1.
       -4    1    3    3    0  502  0.14996995546E+04 -0.27458117198E+03  0.14986671992E+04  0.21378724380E+04  0.12699999809E+01 0. -1.
</event>
<event>
 5   0  0.2904500E-09  0.3896295E+04  0.7818609E-02  0.8025800E-01
        1   -1    0    0  501    0  0.00000000000E+00  0.00000000000E+00  0.28580426688E+04  0.28580426689E+04  0.50400001928E-02 0.  1.
       -1   -1    0    0    0  501  0.00000000000E+00  0.00000000000E+00 -0.13279291592E+04  0.13279291592E+04  0.50400001928E-02 0. -1.
    10030    2    1    2    0    0  0.00000000000E+00  0.00000000000E+00  0.15301135097E+04  0.41859718280E+04  0.38962947518E+04 0.  0.
        4    1    3    3  502    0  0.79836160094E+03  0.98862817497E+03 -0.82138271468E+03  0.15130889237E+04  0.12699999809E+01 0. -1.
       -4    1    3    3    0  502 -0.79836160094E+03 -0.98862817497E+03  0.23514962243E+04  0.26728829043E+04  0.12699999809E+01 0.  1.
</event>
<event>
 5   0  0.2904500E-09  0.3913484E+04  0.7818609E-02  0.8022231E-01
        1   -1    0    0  501    0  0.00000000000E+00  0.00000000000E+00  0.24249099484E+04  0.24249099484E+04  0.50400001928E-02 0. -1.
       -1   -1    0    0    0  501  0.00000000000E+00  0.00000000000E+00 -0.15789610611E+04  0.15789610611E+04  0.50400001928E-02 0.  1.
    10030    2    1    2    0    0  0.00000000000E+00  0.00000000000E+00  0.84594888736E+03  0.40038710095E+04  0.39134835557E+04 0.  0.
        2    1    3    3  502    0 -0.47212224964E+03  0.17046794625E+04  0.12789625370E+04  0.21827910252E+04  0.25500000920E-02 0. -1.
       -2    1    3    3    0  502  0.47212224964E+03 -0.17046794625E+04 -0.43301364963E+03  0.18210799843E+04  0.25500000920E-02 0.  1.
</event>
<event>
 5   0  0.9078515E-09  0.3898362E+04  0.7818609E-02  0.8025370E-01
        2   -1    0    0  501    0  0.00000000000E+00  0.00000000000E+00  0.17400617108E+04  0.17400617108E+04  0.25500000920E-02 0. -1.
       -2   -1    0    0    0  501  0.00000000000E+00  0.00000000000E+00 -0.21834317710E+04  0.21834317710E+04  0.25500000920E-02 0.  1.
    10030    2    1    2    0    0  0.00000000000E+00  0.00000000000E+00 -0.44337006020E+03  0.39234934818E+04  0.38983617189E+04 0.  0.
        3    1    3    3  502    0  0.23665464105E+03 -0.12305960704E+04 -0.17242712338E+04  0.21315448402E+04  0.10100000352E+00 0.  1.
       -3    1    3    3    0  502 -0.23665464105E+03  0.12305960704E+04  0.12809011736E+04  0.17919486417E+04  0.10100000352E+00 0. -1.
</event>
<event>
 5   0  0.2904500E-09  0.3899569E+04  0.7818609E-02  0.8025119E-01
        1   -1    0    0  501    0  0.00000000000E+00  0.00000000000E+00  0.24897228809E+04  0.24897228809E+04  0.50400001928E-02 0. -1.
       -1   -1    0    0    0  501  0.00000000000E+00  0.00000000000E+00 -0.15269411903E+04  0.15269411903E+04  0.50400001928E-02 0.  1.
    10030    2    1    2    0    0  0.00000000000E+00  0.00000000000E+00  0.96278169061E+03  0.40166640713E+04  0.38995694221E+04 0.  0.
        3    1    3    3  502    0 -0.11591477875E+04 -0.13251263761E+04  0.13444512613E+04  0.22152048912E+04  0.10100000352E+00 0. -1.
       -3    1    3    3    0  502  0.11591477875E+04  0.13251263761E+04 -0.38166957074E+03  0.18014591800E+04  0.10100000352E+00 0.  1.
</event>
<event>
 5   0  0.9078515E-09  0.3900942E+04  0.7818609E-02  0.8024833E-01
        2   -1    0    0  501    0  0.00000000000E+00  0.00000000000E+00  0.18230780439E+04  0.18230780439E+04  0.25500000920E-02 0.  1.
       -2   -1    0    0    0  501  0.00000000000E+00  0.00000000000E+00 -0.20867654259E+04  0.20867654259E+04  0.25500000920E-02 0. -1.
    10030    2    1    2    0    0  0.00000000000E+00  0.00000000000E+00 -0.26368738194E+03  0.39098434698E+04  0.39009415432E+04 0.  0.
        3    1    3    3  502    0 -0.14885596108E+03 -0.51564770826E+03  0.17476115927E+04  0.18281676469E+04  0.10100000352E+00 0.  1.
       -3    1    3    3    0  502  0.14885596108E+03  0.51564770826E+03 -0.20112989746E+04  0.20816758229E+04  0.10100000352E+00 0. -1.
</event>
<event>
 5   0  0.2904500E-09  0.3900217E+04  0.7818609E-02  0.8024984E-01
        1   -1    0    0  501    0  0.00000000000E+00  0.00000000000E+00  0.12546319110E+04  0.12546319110E+04  0.50400001928E-02 0.  1.
       -1   -1    0    0    0  501  0.00000000000E+00  0.00000000000E+00 -0.30311070331E+04  0.30311070331E+04  0.50400001928E-02 0. -1.
    10030    2    1    2    0    0  0.00000000000E+00  0.00000000000E+00 -0.17764751221E+04  0.42857389442E+04  0.39002172296E+04 0.  0.
        4    1    3    3  502    0 -0.94493169758E+03 -0.14872315369E+04 -0.18063947166E+04  0.25234533962E+04  0.12699999809E+01 0. -1.
       -4    1    3    3    0  502  0.94493169758E+03  0.14872315369E+04  0.29919594525E+02  0.17622855480E+04  0.12699999809E+01 0.  1.
</event>
<event>
 5   0  0.2904500E-09  0.3900630E+04  0.7818609E-02  0.8024898E-01
        1   -1    0    0  501    0  0.00000000000E+00  0.00000000000E+00  0.23039856294E+04  0.23039856294E+04  0.50400001928E-02 0.  1.
       -1   -1    0    0    0  501  0.00000000000E+00  0.00000000000E+00 -0.16509341312E+04  0.16509341312E+04  0.50400001928E-02 0. -1.
    10030    2    1    2    0    0  0.00000000000E+00  0.00000000000E+00  0.65305149825E+03  0.39549197606E+04  0.39006299560E+04 0.  0.
        5    1    3    3  502    0 -0.12222209511E+04  0.12114868246E+04 -0.60395183223E+03  0.18238158583E+04  0.46999998093E+01 0. -1.
       -5    1    3    3    0  502  0.12222209511E+04 -0.12114868246E+04  0.12570033305E+04  0.21311039023E+04  0.46999998093E+01 0.  1.
</event>
<event>
 5   0  0.9078515E-09  0.3897247E+04  0.7818609E-02  0.8025602E-01
       -2   -1    0    0    0  501  0.00000000000E+00  0.00000000000E+00  0.14828546599E+04  0.14828546599E+04  0.25500000920E-02 0. -1.
        2   -1    0    0  501    0  0.00000000000E+00  0.00000000000E+00 -0.25606918304E+04  0.25606918304E+04  0.25500000920E-02 0.  1.
    10030    2    1    2    0    0  0.00000000000E+00  0.00000000000E+00 -0.10778371705E+04  0.40435464903E+04  0.38972471378E+04 0.  0.
        3    1    3    3  502    0  0.14297269604E+03  0.89717516674E+03 -0.23275137082E+04  0.24985364804E+04  0.10100000352E+00 0.  1.
       -3    1    3    3    0  502 -0.14297269604E+03 -0.89717516674E+03  0.12496765377E+04  0.15450100099E+04  0.10100000352E+00 0. -1.
</event>
<event>
 5   0  0.2929054E-09  0.3900677E+04  0.7818609E-02  0.8024888E-01
        1   -1    0    0  501    0  0.00000000000E+00  0.00000000000E+00  0.18927852150E+04  0.18927852151E+04  0.50400001928E-02 0.  1.
       -1   -1    0    0    0  501  0.00000000000E+00  0.00000000000E+00 -0.20096422827E+04  0.20096422827E+04  0.50400001928E-02 0. -1.
    10030    2    1    2    0    0  0.00000000000E+00  0.00000000000E+00 -0.11685706769E+03  0.39024274978E+04  0.39006774798E+04 0.  0.
        1    1    3    3  502    0  0.73855989550E+03 -0.16668007395E+04 -0.75165049264E+03  0.19719720808E+04  0.50400001928E-02 0. -1.
       -1    1    3    3    0  502 -0.73855989550E+03  0.16668007395E+04  0.63479342495E+03  0.19304554170E+04  0.50400001928E-02 0.  1.
</event>
<event>
 5   0  0.9368546E-09  0.3900452E+04  0.7818609E-02  0.8024935E-01
        2   -1    0    0  501    0  0.00000000000E+00  0.00000000000E+00  0.18004336440E+04  0.18004336440E+04  0.25500000920E-02 0. -1.
       -2   -1    0    0    0  501  0.00000000000E+00  0.00000000000E+00 -0.21124803817E+04  0.21124803817E+04  0.25500000920E-02 0.  1.
    10030    2    1    2    0    0  0.00000000000E+00  0.00000000000E+00 -0.31204673769E+03  0.39129140257E+04  0.39004516412E+04 0.  0.
        5    1    3    3  502    0 -0.43401989383E+03  0.12689263850E+04  0.12644141999E+04  0.18431800774E+04  0.46999998093E+01 0. -1.
       -5    1    3    3    0  502  0.43401989383E+03 -0.12689263850E+04 -0.15764609376E+04  0.20697339483E+04  0.46999998093E+01 0.  1.
</event>
<event>
 5   0  0.2904500E-09  0.3896894E+04  0.7818609E-02  0.8025676E-01
        1   -1    0    0  501    0  0.00000000000E+00  0.00000000000E+00  0.20341983743E+04  0.20341983743E+04  0.50400001928E-02 0. -1.
       -1   -1    0    0    0  501  0.00000000000E+00  0.00000000000E+00 -0.18663102741E+04  0.18663102741E+04  0.50400001928E-02 0.  1.
    10030    2    1    2    0    0  0.00000000000E+00  0.00000000000E+00  0.16788810013E+03  0.39005086484E+04  0.38968938018E+04 0.  0.
        2    1    3    3  502    0 -0.39746977811E+03  0.55153173421E+03 -0.17437497469E+04  0.18715856000E+04  0.25500000920E-02 0.  1.
       -2    1    3    3    0  502  0.39746977811E+03 -0.55153173421E+03  0.19116378470E+04  0.20289230484E+04  0.25500000920E-02 0. -1.
</event>
<event>
 5   0  0.2929054E-09  0.3899087E+04  0.7818609E-02  0.8025219E-01
        1   -1    0    0  501    0  0.00000000000E+00  0.00000000000E+00  0.24256839732E+04  0.24256839732E+04  0.50400001928E-02 0.  1.
       -1   -1    0    0    0  501  0.00000000000E+00  0.00000000000E+00 -0.15668654356E+04  0.15668654356E+04  0.50400001928E-02 0. -1.
    10030    2    1    2    0    0  0.00000000000E+00  0.00000000000E+00  0.85881853762E+03  0.39925494087E+04  0.38990872651E+04 0.  0.
        1    1    3    3  502    0  0.87327869470E+03 -0.15013690666E+04  0.13360686571E+04  0.21913019439E+04  0.50400001928E-02 0.  1.
       -1    1    3    3    0  502 -0.87327869470E+03  0.15013690666E+04 -0.47725011952E+03  0.18012474648E+04  0.50400001928E-02 0. -1.
</event>
<event>
 5   0  0.2904500E-09  0.3900487E+04  0.7818609E-02  0.8024928E-01
        1   -1    0    0  501    0  0.00000000000E+00  0.00000000000E+00  0.16115164345E+04  0.16115164345E+04  0.50400001928E-02 0. -1.
       -1   -1    0    0    0  501  0.00000000000E+00  0.00000000000E+00 -0.23601677013E+04  0.23601677013E+04  0.50400001928E-02 0.  1.
    10030    2    1    2    0    0  0.00000000000E+00  0.00000000000E+00 -0.74865126677E+03  0.39716841358E+04  0.39004866562E+04 0.  0.
        5    1    3    3  502    0  0.19085259924E+04 -0.92986612536E+01  0.34080366597E+02  0.19088586879E+04  0.46999998093E+01 0. -1.
       -5    1    3    3    0  502 -0.19085259924E+04  0.92986612536E+01 -0.78273163336E+03  0.20628254480E+04  0.46999998093E+01 0.  1.
</event>
<event>
 5   0  0.6335942E-09  0.3899467E+04  0.7818609E-02  0.8025140E-01
       -2   -1    0    0    0  501  0.00000000000E+00  0.00000000000E+00  0.18648723834E+04  0.18648723834E+04  0.25500000920E-02 0. -1.
        2   -1    0    0  501    0  0.00000000000E+00  0.00000000000E+00 -0.20384565225E+04  0.20384565225E+04  0.25500000920E-02 0.  1.
    10030    2    1    2    0    0  0.00000000000E+00  0.00000000000E+00 -0.17358413916E+03  0.39033289059E+04  0.38994672834E+04 0.  0.
        2    1    3    3  502    0  0.15310070119E+04 -0.76480271843E+03  0.84823982046E+03  0.19100828415E+04  0.25500000920E-02 0. -1.
       -2    1    3    3    0  502 -0.15310070119E+04  0.76480271843E+03 -0.10218239596E+04  0.19932460643E+04  0.25500000920E-02 0.  1.
</event>
<event>
 5   0  0.9277261E-09  0.3901217E+04  0.7818609E-02  0.8024776E-01
        2   -1    0    0  501    0  0.00000000000E+00  0.00000000000E+00  0.18454677332E+04  0.18454677332E+04  0.25500000920E-02 0.  1.
       -2   -1    0    0    0  501  0.00000000000E+00  0.00000000000E+00 -0.20617396744E+04  0.20617396744E+04  0.25500000920E-02 0. -1.
    10030    2    1    2    0    0  0.00000000000E+00  0.00000000000E+00 -0.21627194120E+03  0.39072074076E+04  0.39012172681E+04 0.  0.
        1    1    3    3  502    0 -0.10634244546E+04 -0.44646516124E+02 -0.17452740084E+04  0.20442226509E+04  0.50400001928E-02 0. -1.
       -1    1    3    3    0  502  0.10634244546E+04  0.44646516124E+02  0.15290020672E+04  0.18629847567E+04  0.50400001928E-02 0.  1.
</event>
<event>
 5   0  0.2904500E-09  0.3897701E+04  0.7818609E-02  0.8025507E-01
       -1   -1    0    0    0  501  0.00000000000E+00  0.00000000000E+00  0.25226771743E+04  0.25226771743E+04  0.50400001928E-02 0.  1.
        1   -1    0    0  501    0  0.00000000000E+00  0.00000000000E+00 -0.15055507591E+04  0.15055507591E+04  0.50400001928E-02 0. -1.
    10030    2    1    2    0    0  0.00000000000E+00  0.00000000000E+00  0.10171264152E+04  0.40282279334E+04  0.38977011352E+04 0.  0.
        4    1    3    3  502    0 -0.93109800617E+03  0.30934679349E+02  0.22776451233E+04  0.24608066507E+04  0.12699999809E+01 0.  1.
       -4    1    3    3    0  502  0.93109800617E+03 -0.30934679349E+02 -0.12605187080E+04  0.15674212828E+04  0.12699999809E+01 0. -1.
</event>
<event>
 5   0  0.2904500E-09  0.3900691E+04  0.7818609E-02  0.8024886E-01
       -1   -1    0    0    0  501  0.00000000000E+00  0.00000000000E+00  0.15760240925E+04  0.15760240925E+04  0.50400001928E-02 0.  1.
        1   -1    0    0  501    0  0.00000000000E+00  0.00000000000E+00 -0.24135718045E+04  0.24135718045E+04  0.50400001928E-02 0. -1.
    10030    2    1    2    0    0  0.00000000000E+00  0.00000000000E+00 -0.83754771200E+03  0.39895958970E+04  0.39006908685E+04 0.  0.
        3    1    3    3  502    0 -0.12985904769E+04  0.68211662682E+03 -0.17334604373E+04  0.22707940059E+04  0.10100000352E+00 0. -1.
       -3    1    3    3    0  502  0.12985904769E+04 -0.68211662682E+03  0.89591272529E+03  0.17188018911E+04  0.10100000352E+00 0.  1.
</event>
<event>
 5   0  0.2929054E-09  0.3900086E+04  0.7818609E-02  0.8025011E-01
       -1   -1    0    0    0  501  0.00000000000E+00  0.00000000000E+00  0.12750990812E+04  0.12750990812E+04  0.50400001928E-02 0.  1.
        1   -1    0    0  501    0  0.00000000000E+00  0.00000000000E+00 -0.29822529196E+04  0.29822529196E+04  0.50400001928E-02 0. -1.
    10030    2    1    2    0    0  0.00000000000E+00  0.00000000000E+00 -0.17071538385E+04  0.42573520008E+04  0.39000861311E+04 0.  0.
        1    1    3    3  502    0 -0.17401789989E+04  0.79952505438E+03 -0.45219181615E+03  0.19677247520E+04  0.50400001928E-02 0.  1.
       -1    1    3    3    0  502  0.17401789989E+04 -0.79952505438E+03 -0.12549620223E+04  0.22896272488E+04  0.50400001928E-02 0. -1.
</event>
<event>
 5   0  0.2904500E-09  0.3910079E+04  0.7818609E-02  0.8022936E-01
       -1   -1    0    0    0  501  0.00000000000E+00  0.00000000000E+00  0.21398128863E+04  0.21398128863E+04  0.50400001928E-02 0.  1.
        1   -1    0    0  501    0  0.00000000000E+00  0.00000000000E+00 -0.17862210526E+04  0.17862210526E+04  0.50400001928E-02 0. -1.
    10030    2    1    2    0    0  0.00000000000E+00  0.00000000000E+00  0.35359183370E+03  0.39260339389E+04  0.39100786826E+04 0.  0.
        2    1    3    3  502    0 -0.19293610479E+03 -0.13046465739E+03 -0.17722414482E+04  0.17874801028E+04  0.25500000920E-02 0. -1.
       -2    1    3    3    0  502  0.19293610479E+03  0.13046465739E+03  0.21258332819E+04  0.21385538361E+04  0.25500000920E-02 0.  1.
</event>
<event>
 5   0  0.9277261E-09  0.3899800E+04  0.7818609E-02  0.8025071E-01
        2   -1    0    0  501    0  0.00000000000E+00  0.00000000000E+00  0.16665452856E+04  0.16665452856E+04  0.25500000920E-02 0. -1.
       -2   -1    0    0    0  501  0.00000000000E+00  0.00000000000E+00 -0.22814320669E+04  0.22814320670E+04  0.25500000920E-02 0.  1.
    10030    2    1    2    0    0  0.00000000000E+00  0.00000000000E+00 -0.61488678136E+03  0.39479773525E+04  0.38997999208E+04 0.  0.
        1    1    3    3  502    0  0.13759593429E+03  0.93054636403E+03 -0.20365427334E+04  0.22432912164E+04  0.50400001928E-02 0.  1.
       -1    1    3    3    0  502 -0.13759593429E+03 -0.93054636403E+03  0.14216559520E+04  0.17046861361E+04  0.50400001928E-02 0. -1.
</event>
<event>
 5   0  0.9277261E-09  0.3897159E+04  0.7818609E-02  0.8025620E-01
       -2   -1    0    0    0  501  0.00000000000E+00  0.00000000000E+00  0.23553126765E+04  0.23553126766E+04  0.25500000920E-02 0.  1.
        2   -1    0    0  501    0  0.00000000000E+00  0.00000000000E+00 -0.16120841233E+04  0.16120841233E+04  0.25500000920E-02 0. -1.
    10030    2    1    2    0    0  0.00000000000E+00  0.00000000000E+00  0.74322855326E+03  0.39673967998E+04  0.38971590531E+04 0.  0.
        1    1    3    3  502    0 -0.12033990599E+04  0.13160258247E+04  0.11711795921E+04  0.21334842173E+04  0.50400001928E-02 0.  1.
       -1    1    3    3    0  502  0.12033990599E+04 -0.13160258247E+04 -0.42795103880E+03  0.18339125825E+04  0.50400001928E-02 0. -1.
</event>
<event>
 5   0  0.2904500E-09  0.3900461E+04  0.7818609E-02  0.8024933E-01
       -1   -1    0    0    0  501  0.00000000000E+00  0.00000000000E+00  0.26922790783E+04  0.26922790783E+04  0.50400001928E-02 0. -1.
        1   -1    0    0  501    0  0.00000000000E+00  0.00000000000E+00 -0.14127061240E+04  0.14127061240E+04  0.50400001928E-02 0.  1.
    10030    2    1    2    0    0  0.00000000000E+00  0.00000000000E+00  0.12795729543E+04  0.41049852024E+04  0.39004610710E+04 0.  0.
        3    1    3    3  502    0  0.32636841485E+03  0.98201816269E+03 -0.10999263700E+04  0.15102033120E+04  0.10100000352E+00 0.  1.
       -3    1    3    3    0  502 -0.32636841485E+03 -0.98201816269E+03  0.23794993243E+04  0.25947818903E+04  0.10100000352E+00 0. -1.
</event>
<event>
 5   0  0.9434114E-09  0.3897657E+04  0.7818609E-02  0.8025517E-01
       -2   -1    0    0    0  501  0.00000000000E+00  0.00000000000E+00  0.16336768452E+04  0.16336768452E+04  0.25500000920E-02 0.  1.
        2   -1    0    0  501    0  0.00000000000E+00  0.00000000000E+00 -0.23247756414E+04  0.23247756414E+04  0.25500000920E-02 0. -1.
    10030    2    1    2    0    0  0.00000000000E+00  0.00000000000E+00 -0.69109879616E+03  0.39584524866E+04  0.38976568015E+04 0.  0.
        4    1    3    3  502    0 -0.80860907403E+03  0.85906931799E+03 -0.19208993146E+04  0.22542636309E+04  0.12699999809E+01 0. -1.
       -4    1    3    3    0  502  0.80860907403E+03 -0.85906931799E+03  0.12298005185E+04  0.17041888557E+04  0.12699999809E+01 0.  1.
</event>
<event>
 5   0  0.2904500E-09  0.3899528E+04  0.7818609E-02  0.8025127E-01
       -1   -1    0    0    0  501  0.00000000000E+00  0.00000000000E+00  0.29286330889E+04  0.29286330889E+04  0.50400001928E-02 0.  1.
        1   -1    0    0  501    0  0.00000000000E+00  0.00000000000E+00 -0.12980731648E+04  0.12980731648E+04  0.50400001928E-02 0. -1.
    10030    2    1    2    0    0  0.00000000000E+00  0.00000000000E+00  0.16305599241E+04  0.42267062537E+04  0.38995281880E+04 0.  0.
        3    1    3    3  502    0  0.15496988698E+04 -0.11765807868E+04  0.67959259145E+03  0.20610082570E+04  0.10100000352E+00 0.  1.
       -3    1    3    3    0  502 -0.15496988698E+04  0.11765807868E+04  0.95096733262E+03  0.21656979967E+04  0.10100000352E+00 0. -1.
</event>
<event>
 5   0  0.2904500E-09  0.3899229E+04  0.7818609E-02  0.8025190E-01
        1   -1    0    0  501    0  0.00000000000E+00  0.00000000000E+00  0.18365261402E+04  0.18365261402E+04  0.50400001928E-02 0. -1.
       -1   -1    0    0    0  501  0.00000000000E+00  0.00000000000E+00 -0.20696661546E+04  0.20696661546E+04  0.50400001928E-02 0.  1.
    10030    2    1    2    0    0  0.00000000000E+00  0.00000000000E+00 -0.23314001437E+03  0.39061922948E+04  0.38992286388E+04 0.  0.
        3    1    3    3  502    0  0.15067173665E+04 -0.98564355582E+03  0.63263294311E+03  0.19083801751E+04  0.10100000352E+00 0. -1.
       -3    1    3    3    0  502 -0.15067173665E+04  0.98564355582E+03 -0.86577295748E+03  0.19978121197E+04  0.10100000352E+00 0.  1.
</event>
<event>
 5   0  0.9078515E-09  0.3901284E+04  0.7818609E-02  0.8024762E-01
       -2   -1    0    0    0  501  0.00000000000E+00  0.00000000000E+00  0.20876628475E+04  0.20876628475E+04  0.25500000920E-02 0. -1.
        2   -1    0    0  501    0  0.00000000000E+00  0.00000000000E+00 -0.18226144554E+04  0.18226144554E+04  0.25500000920E-02 0.  1.
    10030    2    1    2    0    0  0.00000000000E+00  0.00000000000E+00  0.26504839205E+03  0.39102773029E+04  0.39012841393E+04 0.  0.
        3    1    3    3  502    0 -0.18721174900E+03  0.82635832991E+03  0.18935855634E+04  0.20745078029E+04  0.10100000352E+00 0. -1.
       -3    1    3    3    0  502  0.18721174900E+03 -0.82635832991E+03 -0.16285371713E+04  0.18357695000E+04  0.10100000352E+00 0.  1.
</event>
<event>
 5   0  0.2904500E-09  0.3896244E+04  0.7818609E-02  0.8025811E-01
       -1   -1    0    0    0  501  0.00000000000E+00  0.00000000000E+00  0.22657910279E+04  0.22657910279E+04  0.50400001928E-02 0.  1.
        1   -1    0    0  501    0  0.00000000000E+00  0.00000000000E+00 -0.16749906590E+04  0.16749906590E+04  0.50400001928E-02 0. -1.
    10030    2    1    2    0    0  0.00000000000E+00  0.00000000000E+00  0.59080036898E+03  0.39407816869E+04  0.38962437331E+04 0.  0.
        4    1    3    3  502    0  0.14295067964E+04 -0.16529049606E+03 -0.10327618332E+04  0.17712733403E+04  0.12699999809E+01 0. -1.
       -4    1    3    3    0  502 -0.14295067964E+04  0.16529049606E+03  0.16235622022E+04  0.21695083466E+04  0.12699999809E+01 0.  1.
</event>
<event>
 5   0  0.2904500E-09  0.3902034E+04  0.7818609E-02  0.8024606E-01
        1   -1    0    0  501    0  0.00000000000E+00  0.00000000000E+00  0.13013126288E+04  0.13013126288E+04  0.50400001928E-02 0.  1.
       -1   -1    0    0    0  501  0.00000000000E+00  0.00000000000E+00 -0.29250988481E+04  0.29250988481E+04  0.50400001928E-02 0. -1.
    10030    2    1    2    0    0  0.00000000000E+00  0.00000000000E+00 -0.16237862194E+04  0.42264114769E+04  0.39020343778E+04 0.  0.
        3    1    3    3  502    0  0.67421947738E+03 -0.66321821377E+03 -0.26602217227E+04  0.28233331236E+04  0.10100000352E+00 0. -1.
       -3    1    3    3    0  502 -0.67421947738E+03  0.66321821377E+03  0.10364355033E+04  0.14030783533E+04  0.10100000352E+00 0.  1.
</event>
<event>
 5   0  0.6335942E-09  0.3900426E+04  0.7818609E-02  0.8024941E-01
       -2   -1    0    0    0  501  0.00000000000E+00  0.00000000000E+00  0.17445670133E+04  0.17445670133E+04  0.25500000920E-02 0.  1.
        2   -1    0    0  501    0  0.00000000000E+00  0.00000000000E+00 -0.21800995558E+04  0.21800995558E+04  0.25500000920E-02 0. -1.
    10030    2    1    2    0    0  0.00000000000E+00  0.00000000000E+00 -0.43553254255E+03  0.39246665691E+04  0.39004255003E+04 0.  0.
        2    1    3    3  502    0 -0.14715762600E+03 -0.17277970136E+04 -0.11157204824E+04  0.20619820761E+04  0.25500000920E-02 0. -1.
       -2    1    3    3    0  502  0.14715762600E+03  0.17277970136E+04  0.68018793987E+03  0.18626844931E+04  0.25500000920E-02 0.  1.
</event>
<event>
 5   0  0.2904500E-09  0.3900322E+04  0.7818609E-02  0.8024962E-01
       -1   -1    0    0    0  501  0.00000000000E+00  0.00000000000E+00  0.28877115541E+04  0.28877115541E+04  0.50400001928E-02 0. -1.
        1   -1    0    0  501    0  0.00000000000E+00  0.00000000000E+00 -0.13170041838E+04  0.13170041838E+04  0.50400001928E-02 0.  1.
    10030    2    1    2    0    0  0.00000000000E+00  0.00000000000E+00  0.15707073703E+04  0.42047157380E+04  0.39003221398E+04 0.  0.
        4    1    3    3  502    0  0.17302840263E+04  0.20877863379E+03 -0.15795274801E+03  0.17499777179E+04  0.12699999809E+01 0.  1.
       -4    1    3    3    0  502 -0.17302840263E+04 -0.20877863379E+03  0.17286601183E+04  0.24547380201E+04  0.12699999809E+01 0. -1.
</event>
<event>
 5   0  0.9277261E-09  0.3898102E+04  0.7818609E-02  0.8025424E-01
       -2   -1    0    0    0  501  0.00000000000E+00  0.00000000000E+00  0.15848041852E+04  0.15848041852E+04  0.25500000920E-02 0. -1.
        2   -1    0    0  501    0  0.00000000000E+00  0.00000000000E+00 -0.23970146731E+04  0.23970146731E+04  0.25500000920E-02 0.  1.
    10030    2    1    2    0    0  0.00000000000E+00  0.00000000000E+00 -0.81221048785E+03  0.39818188583E+04  0.38981015307E+04 0.  0.
        1    1    3    3  502    0  0.15886384820E+04 -0.10484978608E+04 -0.83424755450E+03  0.20782417984E+04  0.50400001928E-02 0. -1.
       -1    1    3    3    0  502 -0.15886384820E+04  0.10484978608E+04  0.22037066645E+02  0.19035770599E+04  0.50400001928E-02 0.  1.
</event>
<event>
 5   0  0.9368546E-09  0.3910942E+04  0.7818609E-02  0.8022757E-01
       -2   -1    0    0    0  501  0.00000000000E+00  0.00000000000E+00  0.16463324600E+04  0.16463324600E+04  0.25500000920E-02 0. -1.
        2   -1    0    0  501    0  0.00000000000E+00  0.00000000000E+00 -0.23226575065E+04  0.23226575065E+04  0.25500000920E-02 0.  1.
    10030    2    1    2    0    0  0.00000000000E+00  0.00000000000E+00 -0.67632504652E+03  0.39689899664E+04  0.39109418028E+04 0.  0.
        5    1    3    3  502    0 -0.63827774949E+03 -0.90235393793E+02  0.15353982039E+04  0.16652359131E+04  0.46999998093E+01 0. -1.
       -5    1    3    3    0  502  0.63827774949E+03  0.90235393793E+02 -0.22117232504E+04  0.23037540533E+04  0.46999998093E+01 0.  1.
</event>
<event>
 5   0  0.2904500E-09  0.3900790E+04  0.7818609E-02  0.8024865E-01
       -1   -1    0    0    0  501  0.00000000000E+00  0.00000000000E+00  0.23147561283E+04  0.23147561283E+04  0.50400001928E-02 0.  1.
        1   -1    0    0  501    0  0.00000000000E+00  0.00000000000E+00 -0.16433868392E+04  0.16433868392E+04  0.50400001928E-02 0. -1.
    10030    2    1    2    0    0  0.00000000000E+00  0.00000000000E+00  0.67136928911E+03  0.39581429675E+04  0.39007895392E+04 0.  0.
        4    1    3    3  502    0  0.10754949872E+04 -0.68379190216E+03 -0.11624299035E+04  0.17249654276E+04  0.12699999809E+01 0. -1.
       -4    1    3    3    0  502 -0.10754949872E+04  0.68379190216E+03  0.18337991926E+04  0.22331775399E+04  0.12699999809E+01 0.  1.
</event>
<event>
 5   0  0.9277261E-09  0.3900330E+04  0.7818609E-02  0.8024960E-01
       -2   -1    0    0    0  501  0.00000000000E+00  0.00000000000E+00  0.14679542586E+04  0.14679542586E+04  0.25500000920E-02 0.  1.
        2   -1    0    0  501    0  0.00000000000E+00  0.00000000000E+00 -0.25907785854E+04  0.25907785854E+04  0.25500000920E-02 0. -1.
    10030    2    1    2    0    0  0.00000000000E+00  0.00000000000E+00 -0.11228243268E+04  0.40587328439E+04  0.39003304770E+04 0.  0.
        1    1    3    3  502    0 -0.31802057214E+02 -0.96009789297E+03  0.12046717035E+04  0.15407898131E+04  0.50400001928E-02 0.  1.
       -1    1    3    3    0  502  0.31802057214E+02  0.96009789297E+03 -0.23274960304E+04  0.25179430308E+04  0.50400001928E-02 0. -1.
</event>
<event>
 5   0  0.2904500E-09  0.3894180E+04  0.7818609E-02  0.8026241E-01
       -1   -1    0    0    0  501  0.00000000000E+00  0.00000000000E+00  0.19492723439E+04  0.19492723439E+04  0.50400001928E-02 0.  1.
        1   -1    0    0  501    0  0.00000000000E+00  0.00000000000E+00 -0.19449097773E+04  0.19449097773E+04  0.50400001928E-02 0. -1.
    10030    2    1    2    0    0  0.00000000000E+00  0.00000000000E+00  0.43625666252E+01  0.38941821212E+04  0.38941796775E+04 0.  0.
        3    1    3    3  502    0 -0.50716844188E+03 -0.28963384606E+03 -0.18552512368E+04  0.19450102198E+04  0.10100000352E+00 0. -1.
       -3    1    3    3    0  502  0.50716844188E+03  0.28963384606E+03  0.18596138034E+04  0.19491719014E+04  0.10100000352E+00 0.  1.
</event>
<event>
 5   0  0.6335942E-09  0.3900112E+04  0.7818609E-02  0.8025006E-01
        2   -1    0    0  501    0  0.00000000000E+00  0.00000000000E+00  0.26182961683E+04  0.26182961683E+04  0.25500000920E-02 0. -1.
       -2   -1    0    0    0  501  0.00000000000E+00  0.00000000000E+00 -0.14523638180E+04  0.14523638180E+04  0.25500000920E-02 0.  1.
    10030    2    1    2    0    0  0.00000000000E+00  0.00000000000E+00  0.11659323503E+04  0.40706599864E+04  0.39001121111E+04 0.  0.
        2    1    3    3  502    0 -0.11258546441E+04  0.33852334473E+03 -0.10408868895E+04  0.15702204467E+04  0.25500000920E-02 0. -1.
       -2    1    3    3    0  502  0.11258546441E+04 -0.33852334473E+03  0.22068192398E+04  0.25004395397E+04  0.25500000920E-02 0.  1.
</event>
<event>
 5   0  0.9277261E-09  0.3899187E+04  0.7818609E-02  0.8025198E-01
        2   -1    0    0  501    0  0.00000000000E+00  0.00000000000E+00  0.18207313783E+04  0.18207313783E+04  0.25500000920E-02 0.  1.
       -2   -1    0    0    0  501  0.00000000000E+00  0.00000000000E+00 -0.20875755315E+04  0.20875755315E+04  0.25500000920E-02 0. -1.
    10030    2    1    2    0    0  0.00000000000E+00  0.00000000000E+00 -0.26684415325E+03  0.39083069098E+04  0.38991867227E+04 0.  0.
        1    1    3    3  502    0 -0.36975764537E+02 -0.15222672125E+04 -0.13537464867E+04  0.20374725087E+04  0.50400001928E-02 0. -1.
       -1    1    3    3    0  502  0.36975764537E+02  0.15222672125E+04  0.10869023335E+04  0.18708344010E+04  0.50400001928E-02 0.  1.
</event>
<event>
 5   0  0.6335942E-09  0.3893408E+04  0.7818609E-02  0.8026402E-01
        2   -1    0    0  501    0  0.00000000000E+00  0.00000000000E+00  0.29582985775E+04  0.29582985775E+04  0.25500000920E-02 0.  1.
       -2   -1    0    0    0  501  0.00000000000E+00  0.00000000000E+00 -0.12810260046E+04  0.12810260046E+04  0.25500000920E-02 0. -1.
    10030    2    1    2    0    0  0.00000000000E+00  0.00000000000E+00  0.16772725729E+04  0.42393245821E+04  0.38934084847E+04 0.  0.
        2    1    3    3  502    0 -0.40565652101E+03 -0.68947200527E+03 -0.10937914476E+04  0.13551046417E+04  0.25500000920E-02 0. -1.
       -2    1    3    3    0  502  0.40565652101E+03  0.68947200527E+03  0.27710640205E+04  0.28842199404E+04  0.25500000920E-02 0.  1.
</event>
<event>
 5   0  0.6335942E-09  0.3902658E+04  0.7818609E-02  0.8024477E-01
        2   -1    0    0  501    0  0.00000000000E+00  0.00000000000E+00  0.16198108888E+04  0.16198108888E+04  0.25500000920E-02 0. -1.
       -2   -1    0    0    0  501  0.00000000000E+00  0.00000000000E+00 -0.23506968096E+04  0.23506968096E+04  0.25500000920E-02 0.  1.
    10030    2    1    2    0    0  0.00000000000E+00  0.00000000000E+00 -0.73088592077E+03  0.39705076984E+04  0.39026577039E+04 0.  0.
        2    1    3    3  502    0  0.16321721891E+04 -0.96634957727E+03  0.10063372296E+03  0.18994590563E+04  0.25500000920E-02 0. -1.
       -2    1    3    3    0  502 -0.16321721891E+04  0.96634957727E+03 -0.83151964373E+03  0.20710486422E+04  0.25500000920E-02 0.  1.
</event>
<event>
 5   0  0.2904500E-09  0.3898487E+04  0.7818609E-02  0.8025344E-01
        1   -1    0    0  501    0  0.00000000000E+00  0.00000000000E+00  0.16239956152E+04  0.16239956152E+04  0.50400001928E-02 0.  1.
       -1   -1    0    0    0  501  0.00000000000E+00  0.00000000000E+00 -0.23396308774E+04  0.23396308774E+04  0.50400001928E-02 0. -1.
    10030    2    1    2    0    0  0.00000000000E+00  0.00000000000E+00 -0.71563526217E+03  0.39636264925E+04  0.38984870327E+04 0.  0.
        5    1    3    3  502    0 -0.16127787748E+04  0.68908753500E+02  0.75301509165E+03  0.17812516978E+04  0.46999998093E+01 0.  1.
       -5    1    3    3    0  502  0.16127787748E+04 -0.68908753500E+02 -0.14686503538E+04  0.21823747947E+04  0.46999998093E+01 0. -1.
</event>
<event>
 5   0  0.2904500E-09  0.3899498E+04  0.7818609E-02  0.8025134E-01
        1   -1    0    0  501    0  0.00000000000E+00  0.00000000000E+00  0.18198358742E+04  0.18198358742E+04  0.50400001928E-02 0.  1.
       -1   -1    0    0    0  501  0.00000000000E+00  0.00000000000E+00 -0.20889359840E+04  0.20889359840E+04  0.50400001928E-02 0. -1.
    10030    2    1    2    0    0  0.00000000000E+00  0.00000000000E+00 -0.26910010975E+03  0.39087718582E+04  0.38994977331E+04 0.  0.
        4    1    3    3  502    0  0.25243503573E+03 -0.15133821236E+04  0.10714198107E+04  0.18713607143E+04  0.12699999809E+01 0.  1.
       -4    1    3    3    0  502 -0.25243503573E+03  0.15133821236E+04 -0.13405199205E+04  0.20374111439E+04  0.12699999809E+01 0. -1.
</event>
<event>
 5   0  0.6335942E-09  0.3899455E+04  0.7818609E-02  0.8025143E-01
        2   -1    0    0  501    0  0.00000000000E+00  0.00000000000E+00  0.20088742891E+04  0.20088742891E+04  0.25500000920E-02 0. -1.
       -2   -1    0    0    0  501  0.00000000000E+00  0.00000000000E+00 -0.18923220301E+04  0.18923220301E+04  0.25500000920E-02 0.  1.
    10030    2    1    2    0    0  0.00000000000E+00  0.00000000000E+00  0.11655225897E+03  0.39011963191E+04  0.38994548711E+04 0.  0.
        2    1    3    3  502    0 -0.19275311803E+04 -0.20794610011E+03 -0.14874390501E+03  0.19444132228E+04  0.25500000920E-02 0. -1.
       -2    1    3    3    0  502  0.19275311803E+04  0.20794610011E+03  0.26529616398E+03  0.19567830964E+04  0.25500000920E-02 0.  1.
</event>
<event>
 5   0  0.6335942E-09  0.3894750E+04  0.7818609E-02  0.8026122E-01
       -2   -1    0    0    0  501  0.00000000000E+00  0.00000000000E+00  0.26842069553E+04  0.26842069553E+04  0.25500000920E-02 0.  1.
        2   -1    0    0  501    0  0.00000000000E+00  0.00000000000E+00 -0.14128081956E+04  0.14128081956E+04  0.25500000920E-02 0. -1.
    10030    2    1    2    0    0  0.00000000000E+00  0.00000000000E+00  0.12713987597E+04  0.40970151509E+04  0.38947500998E+04 0.  0.
        2    1    3    3  502    0 -0.11486139886E+04  0.96570744153E+03 -0.66986935543E+03  0.16433593371E+04  0.25500000920E-02 0. -1.
       -2    1    3    3    0  502  0.11486139886E+04 -0.96570744153E+03  0.19412681152E+04  0.24536558138E+04  0.25500000920E-02 0.  1.
</event>
<event>
 5   0  0.2904500E-09  0.3900256E+04  0.7818609E-02  0.8024976E-01
       -1   -1    0    0    0  501  0.00000000000E+00  0.00000000000E+00  0.33336539912E+04  0.33336539912E+04  0.50400001928E-02 0.  1.
        1   -1    0    0  501    0  0.00000000000E+00  0.00000000000E+00 -0.11407899733E+04  0.11407899733E+04  0.50400001928E-02 0. -1.
    10030    2    1    2    0    0  0.00000000000E+00  0.00000000000E+00  0.21928640179E+04  0.44744439645E+04  0.39002559134E+04 0.  0.
        5    1    3    3  502    0  0.11105141600E+04 -0.15355890094E+04  0.16242790526E+04  0.24959126259E+04  0.46999998093E+01 0.  1.
       -5    1    3    3    0  502 -0.11105141600E+04  0.15355890094E+04  0.56858496524E+03  0.19785313386E+04  0.46999998093E+01 0. -1.
</event>
<event>
 5   0  0.9277261E-09  0.3898538E+04  0.7818609E-02  0.8025333E-01
        2   -1    0    0  501    0  0.00000000000E+00  0.00000000000E+00  0.28319520820E+04  0.28319520820E+04  0.25500000920E-02 0. -1.
       -2   -1    0    0    0  501  0.00000000000E+00  0.00000000000E+00 -0.13417068721E+04  0.13417068721E+04  0.25500000920E-02 0.  1.
    10030    2    1    2    0    0  0.00000000000E+00  0.00000000000E+00  0.14902452099E+04  0.41736589540E+04  0.38985379669E+04 0.  0.
        1    1    3    3  502    0 -0.32309737124E+03  0.11294929841E+04 -0.92012299880E+03  0.14922374628E+04  0.50400001928E-02 0.  1.
       -1    1    3    3    0  502  0.32309737124E+03 -0.11294929841E+04  0.24103682087E+04  0.26814214913E+04  0.50400001928E-02 0. -1.
</event>
<event>
 5   0  0.9368546E-09  0.3900439E+04  0.7818609E-02  0.8024938E-01
       -2   -1    0    0    0  501  0.00000000000E+00  0.00000000000E+00  0.16686464670E+04  0.16686464670E+04  0.25500000920E-02 0.  1.
        2   -1    0    0  501    0  0.00000000000E+00  0.00000000000E+00 -0.22793061018E+04  0.22793061018E+04  0.25500000920E-02 0. -1.
    10030    2    1    2    0    0  0.00000000000E+00  0.00000000000E+00 -0.61065963479E+03  0.39479525687E+04  0.39004389875E+04 0.  0.
        5    1    3    3  502    0 -0.43879471190E+03 -0.17145305019E+03 -0.22208409150E+04  0.22702628499E+04  0.46999998093E+01 0. -1.
       -5    1    3    3    0  502  0.43879471190E+03  0.17145305019E+03  0.16101812802E+04  0.16776897189E+04  0.46999998093E+01 0.  1.
</event>
<event>
 5   0  0.2904500E-09  0.3923978E+04  0.7818609E-02  0.8020061E-01
       -1   -1    0    0    0  501  0.00000000000E+00  0.00000000000E+00  0.21543988163E+04  0.21543988163E+04  0.50400001928E-02 0.  1.
        1   -1    0    0  501    0  0.00000000000E+00  0.00000000000E+00 -0.17867635317E+04  0.17867635317E+04  0.50400001928E-02 0. -1.
    10030    2    1    2    0    0  0.00000000000E+00  0.00000000000E+00  0.36763528456E+03  0.39411623480E+04  0.39239782047E+04 0.  0.
        4    1    3    3  502    0 -0.18327633746E+04  0.69901474655E+03  0.14172442300E+03  0.19666546794E+04  0.12699999809E+01 0. -1.
       -4    1    3    3    0  502  0.18327633746E+04 -0.69901474655E+03  0.22591086155E+03  0.19745076686E+04  0.12699999809E+01 0.  1.
</event>
<event>
 5   0  0.6335942E-09  0.3900567E+04  0.7818609E-02  0.8024911E-01
       -2   -1    0    0    0  501  0.00000000000E+00  0.00000000000E+00  0.14610246734E+04  0.14610246734E+04  0.25500000920E-02 0.  1.
        2   -1    0    0  501    0  0.00000000000E+00  0.00000000000E+00 -0.26033818157E+04  0.26033818157E+04  0.25500000920E-02 0. -1.
    10030    2    1    2    0    0  0.00000000000E+00  0.00000000000E+00 -0.11423571423E+04  0.40644064892E+04  0.39005666599E+04 0.  0.
        2    1    3    3  502    0  0.34285700940E+02  0.18950259226E+04 -0.92189432895E+02  0.18975767832E+04  0.25500000920E-02 0.  1.
       -2    1    3    3    0  502 -0.34285700940E+02 -0.18950259226E+04 -0.10501677094E+04  0.21668297059E+04  0.25500000920E-02 0. -1.
</event>
<event>
 5   0  0.9078515E-09  0.3900184E+04  0.7818609E-02  0.8024991E-01
        2   -1    0    0  501    0  0.00000000000E+00  0.00000000000E+00  0.19378652744E+04  0.19378652745E+04  0.25500000920E-02 0. -1.
       -2   -1    0    0    0  501  0.00000000000E+00  0.00000000000E+00 -0.19623955773E+04  0.19623955773E+04  0.25500000920E-02 0.  1.
    10030    2    1    2    0    0  0.00000000000E+00  0.00000000000E+00 -0.24530302878E+02  0.39002608518E+04  0.39001837106E+04 0.  0.
        3    1    3    3  502    0  0.11221022145E+04  0.16061681432E+03 -0.15991005866E+04  0.19601106696E+04  0.10100000352E+00 0.  1.
       -3    1    3    3    0  502 -0.11221022145E+04 -0.16061681432E+03  0.15745702837E+04  0.19401501822E+04  0.10100000352E+00 0. -1.
</event>
<event>
 5   0  0.9368546E-09  0.3902090E+04  0.7818609E-02  0.8024595E-01
        2   -1    0    0  501    0  0.00000000000E+00  0.00000000000E+00  0.22898886924E+04  0.22898886924E+04  0.25500000920E-02 0.  1.
       -2   -1    0    0    0  501  0.00000000000E+00  0.00000000000E+00 -0.16623410783E+04  0.16623410783E+04  0.25500000920E-02 0. -1.
    10030    2    1    2    0    0  0.00000000000E+00  0.00000000000E+00  0.62754761409E+03  0.39522297708E+04  0.39020897162E+04 0.  0.
        5    1    3    3  502    0 -0.15175979471E+04  0.71659422385E+02 -0.92601168150E+03  0.17792578021E+04  0.46999998093E+01 0. -1.
       -5    1    3    3    0  502  0.15175979471E+04 -0.71659422385E+02  0.15535592956E+04  0.21729719687E+04  0.46999998093E+01 0.  1.
</event>
<event>
 5   0  0.2904500E-09  0.3897852E+04  0.7818609E-02  0.8025476E-01
        1   -1    0    0  501    0  0.00000000000E+00  0.00000000000E+00  0.21776607709E+04  0.21776607709E+04  0.50400001928E-02 0. -1.
       -1   -1    0    0    0  501  0.00000000000E+00  0.00000000000E+00 -0.17442167995E+04  0.17442167995E+04  0.50400001928E-02 0.  1.
    10030    2    1    2    0    0  0.00000000000E+00  0.00000000000E+00  0.43344397143E+03  0.39218775704E+04  0.38978519727E+04 0.  0.
        5    1    3    3  502    0 -0.11038578916E+04  0.49080454094E+03  0.17554945362E+04  0.21310031672E+04  0.46999998093E+01 0. -1.
       -5    1    3    3    0  502  0.11038578916E+04 -0.49080454094E+03 -0.13220505648E+04  0.17908744032E+04  0.46999998093E+01 0.  1.
</event>
<event>
 5   0  0.9434114E-09  0.3900253E+04  0.7818609E-02  0.8024976E-01
        2   -1    0    0  501    0  0.00000000000E+00  0.00000000000E+00  0.13773799689E+04  0.13773799689E+04  0.25500000920E-02 0.  1.
       -2   -1    0    0    0  501  0.00000000000E+00  0.00000000000E+00 -0.27610349361E+04  0.27610349361E+04  0.25500000920E-02 0. -1.
    10030    2    1    2    0    0  0.00000000000E+00  0.00000000000E+00 -0.13836549673E+04  0.41384149050E+04  0.39002534351E+04 0.  0.
        4    1    3    3  502    0 -0.15243422171E+03 -0.19306146629E+04 -0.44874575318E+03  0.19879344890E+04  0.12699999809E+01 0.  1.
       -4    1    3    3    0  502  0.15243422171E+03  0.19306146629E+04 -0.93490921408E+03  0.21504804161E+04  0.12699999809E+01 0. -1.
</event>
<event>
 5   0  0.2904500E-09  0.3898499E+04  0.7818609E-02  0.8025341E-01
       -1   -1    0    0    0  501  0.00000000000E+00  0.00000000000E+00  0.14153767066E+04  0.14153767066E+04  0.50400001928E-02 0. -1.
        1   -1    0    0  501    0  0.00000000000E+00  0.00000000000E+00 -0.26844966583E+04  0.26844966583E+04  0.50400001928E-02 0.  1.
    10030    2    1    2    0    0  0.00000000000E+00  0.00000000000E+00 -0.12691199517E+04  0.40998733649E+04  0.38984992185E+04 0.  0.
        3    1    3    3  502    0  0.51664646638E+03 -0.18317421212E+04 -0.10774690883E+04  0.21870396467E+04  0.10100000352E+00 0. -1.
       -3    1    3    3    0  502 -0.51664646638E+03  0.18317421212E+04 -0.19165086339E+03  0.19128337182E+04  0.10100000352E+00 0.  1.
</event>
<event>
 5   0  0.2904500E-09  0.3907472E+04  0.7818609E-02  0.8023477E-01
       -4   -1    0    0    0  501  0.00000000000E+00  0.00000000000E+00  0.20236824275E+04  0.20236828260E+04  0.12699999809E+01 0. -1.
        4   -1    0    0  501    0  0.00000000000E+00  0.00000000000E+00 -0.18862068483E+04  0.18862072759E+04  0.12699999809E+01 0.  1.
    10030    2    1    2    0    0  0.00000000000E+00  0.00000000000E+00  0.13747557915E+03  0.39098901018E+04  0.39074724661E+04 0.  0.
        5    1    3    3  502    0 -0.68504967176E+02  0.87361938695E+03 -0.16785268557E+04  0.18935095085E+04  0.46999998093E+01 0.  1.
       -5    1    3    3    0  502  0.68504967176E+02 -0.87361938695E+03  0.18160024348E+04  0.20163805933E+04  0.46999998093E+01 0. -1.
</event>
<event>
 5   0  0.6335942E-09  0.3899095E+04  0.7818609E-02  0.8025217E-01
        2   -1    0    0  501    0  0.00000000000E+00  0.00000000000E+00  0.31183859228E+04  0.31183859228E+04  0.25500000920E-02 0. -1.
       -2   -1    0    0    0  501  0.00000000000E+00  0.00000000000E+00 -0.12188152364E+04  0.12188152364E+04  0.25500000920E-02 0.  1.
    10030    2    1    2    0    0  0.00000000000E+00  0.00000000000E+00  0.18995706865E+04  0.43372011592E+04  0.38990954211E+04 0.  0.
        2    1    3    3  502    0  0.11281348213E+04  0.12268745022E+04 -0.17519984733E+03  0.16758890792E+04  0.25500000920E-02 0.  1.
       -2    1    3    3    0  502 -0.11281348213E+04 -0.12268745022E+04  0.20747705338E+04  0.26613120800E+04  0.25500000920E-02 0. -1.
</event>
<event>
 5   0  0.9078515E-09  0.3887850E+04  0.7818609E-02  0.8027561E-01
       -2   -1    0    0    0  501  0.00000000000E+00  0.00000000000E+00  0.15664931627E+04  0.15664931627E+04  0.25500000920E-02 0.  1.
        2   -1    0    0  501    0  0.00000000000E+00  0.00000000000E+00 -0.24122954837E+04  0.24122954837E+04  0.25500000920E-02 0. -1.
    10030    2    1    2    0    0  0.00000000000E+00  0.00000000000E+00 -0.84580232102E+03  0.39787886465E+04  0.38878499877E+04 0.  0.
        3    1    3    3  502    0  0.74760892504E+03 -0.52776580072E+03  0.13322622943E+04  0.16162854563E+04  0.10100000352E+00 0.  1.
       -3    1    3    3    0  502 -0.74760892504E+03  0.52776580072E+03 -0.21780646153E+04  0.23625031902E+04  0.10100000352E+00 0. -1.
</event>
<event>
 5   0  0.2904500E-09  0.3899268E+04  0.7818609E-02  0.8025182E-01
        1   -1    0    0  501    0  0.00000000000E+00  0.00000000000E+00  0.13249392662E+04  0.13249392663E+04  0.50400001928E-02 0.  1.
       -1   -1    0    0    0  501  0.00000000000E+00  0.00000000000E+00 -0.28688651006E+04  0.28688651006E+04  0.50400001928E-02 0. -1.
    10030    2    1    2    0    0  0.00000000000E+00  0.00000000000E+00 -0.15439258344E+04  0.41938043669E+04  0.38992676345E+04 0.  0.
        4    1    3    3  502    0  0.16700375908E+04 -0.59069295127E+03  0.10387426204E+03  0.17744675801E+04  0.12699999809E+01 0.  1.
       -4    1    3    3    0  502 -0.16700375908E+04  0.59069295127E+03 -0.16478000964E+04  0.24193367868E+04  0.12699999809E+01 0. -1.
</event>
<event>
 5   0  0.9078515E-09  0.3900476E+04  0.7818609E-02  0.8024930E-01
       -2   -1    0    0    0  501  0.00000000000E+00  0.00000000000E+00  0.13255958939E+04  0.13255958939E+04  0.25500000920E-02 0.  1.
        2   -1    0    0  501    0  0.00000000000E+00  0.00000000000E+00 -0.28692208024E+04  0.28692208024E+04  0.25500000920E-02 0. -1.
    10030    2    1    2    0    0  0.00000000000E+00  0.00000000000E+00 -0.15436249085E+04  0.41948166962E+04  0.39004755167E+04 0.  0.
        3    1    3    3  502    0 -0.10040812709E+04  0.12548547940E+04 -0.19599860579E+04  0.25346370766E+04  0.10100000352E+00 0. -1.
       -3    1    3    3    0  502  0.10040812709E+04 -0.12548547940E+04  0.41636114941E+03  0.16601796196E+04  0.10100000352E+00 0.  1.
</event>
<event>
 5   0  0.2929054E-09  0.3899817E+04  0.7818609E-02  0.8025067E-01
        1   -1    0    0  501    0  0.00000000000E+00  0.00000000000E+00  0.13788676063E+04  0.13788676063E+04  0.50400001928E-02 0. -1.
       -1   -1    0    0    0  501  0.00000000000E+00  0.00000000000E+00 -0.27574382804E+04  0.27574382804E+04  0.50400001928E-02 0.  1.
    10030    2    1    2    0    0  0.00000000000E+00  0.00000000000E+00 -0.13785706741E+04  0.41363058867E+04  0.38998165707E+04 0.  0.
        1    1    3    3  502    0  0.12079576290E+04 -0.14993830150E+04 -0.36266423989E+03  0.19592948757E+04  0.50400001928E-02 0.  1.
       -1    1    3    3    0  502 -0.12079576290E+04  0.14993830150E+04 -0.10159064342E+04  0.21770110110E+04  0.50400001928E-02 0. -1.
</event>
<event>
 5   0  0.6335942E-09  0.3911409E+04  0.7818609E-02  0.8022661E-01
        2   -1    0    0  501    0  0.00000000000E+00  0.00000000000E+00  0.20718431412E+04  0.20718431412E+04  0.25500000920E-02 0.  1.
       -2   -1    0    0    0  501  0.00000000000E+00  0.00000000000E+00 -0.18460762310E+04  0.18460762310E+04  0.25500000920E-02 0. -1.
    10030    2    1    2    0    0  0.00000000000E+00  0.00000000000E+00  0.22576691019E+03  0.39179193723E+04  0.39114091463E+04 0.  0.
        2    1    3    3  502    0  0.56490100701E+03 -0.15811541993E+04  0.11173579229E+04  0.20168417086E+04  0.25500000920E-02 0.  1.
       -2    1    3    3    0  502 -0.56490100701E+03  0.15811541993E+04 -0.89159101268E+03  0.19010776637E+04  0.25500000920E-02 0. -1.
</event>
<event>
 5   0  0.9078515E-09  0.3900936E+04  0.7818609E-02  0.8024835E-01
       -2   -1    0    0    0  501  0.00000000000E+00  0.00000000000E+00  0.10982810284E+04  0.10982810284E+04  0.25500000920E-02 0. -1.
        2   -1    0    0  501    0  0.00000000000E+00  0.00000000000E+00 -0.34638904194E+04  0.34638904194E+04  0.25500000920E-02 0.  1.
    10030    2    1    2    0    0  0.00000000000E+00  0.00000000000E+00 -0.23656093910E+04  0.45621714477E+04  0.39009358528E+04 0.  0.
        3    1    3    3  502    0 -0.12248193924E+04  0.14862723232E+04 -0.82207833301E+03  0.20940393403E+04  0.10100000352E+00 0. -1.
       -3    1    3    3    0  502  0.12248193924E+04 -0.14862723232E+04 -0.15435310580E+04  0.24681321075E+04  0.10100000352E+00 0.  1.
</event>
<event>
 5   0  0.9277261E-09  0.3917799E+04  0.7818609E-02  0.8021338E-01
       -2   -1    0    0    0  501  0.00000000000E+00  0.00000000000E+00  0.13602686720E+04  0.13602686720E+04  0.25500000920E-02 0.  1.
        2   -1    0    0  501    0  0.00000000000E+00  0.00000000000E+00 -0.28209772923E+04  0.28209772923E+04  0.25500000920E-02 0. -1.
    10030    2    1    2    0    0  0.00000000000E+00  0.00000000000E+00 -0.14607086203E+04  0.41812459643E+04  0.39177988898E+04 0.  0.
        1    1    3    3  502    0 -0.20629371771E+03 -0.15551626867E+04 -0.19823539069E+04  0.25280061496E+04  0.50400001928E-02 0. -1.
       -1    1    3    3    0  502  0.20629371771E+03  0.15551626867E+04  0.52164528661E+03  0.16532398147E+04  0.50400001928E-02 0.  1.
</event>
<event>
 5   0  0.2904500E-09  0.3899660E+04  0.7818609E-02  0.8025100E-01
       -1   -1    0    0    0  501  0.00000000000E+00  0.00000000000E+00  0.20756603390E+04  0.20756603390E+04  0.50400001928E-02 0. -1.
        1   -1    0    0  501    0  0.00000000000E+00  0.00000000000E+00 -0.18316276474E+04  0.18316276474E+04  0.50400001928E-02 0.  1.
    10030    2    1    2    0    0  0.00000000000E+00  0.00000000000E+00  0.24403269165E+03  0.39072879864E+04  0.38996599152E+04 0.  0.
        4    1    3    3  502    0  0.17428459685E+04 -0.84532235720E+03  0.34550712175E+03  0.19676022824E+04  0.12699999809E+01 0.  1.
       -4    1    3    3    0  502 -0.17428459685E+04  0.84532235720E+03 -0.10147443010E+03  0.19396857040E+04  0.12699999809E+01 0. -1.
</event>
<event>
 5   0  0.9277261E-09  0.3907418E+04  0.7818609E-02  0.8023488E-01
       -2   -1    0    0    0  501  0.00000000000E+00  0.00000000000E+00  0.19224690054E+04  0.19224690054E+04  0.25500000920E-02 0. -1.
        2   -1    0    0  501    0  0.00000000000E+00  0.00000000000E+00 -0.19854564946E+04  0.19854564946E+04  0.25500000920E-02 0.  1.
    10030    2    1    2    0    0  0.00000000000E+00  0.00000000000E+00 -0.62987489220E+02  0.39079254999E+04  0.39074178545E+04 0.  0.
        1    1    3    3  502    0  0.13981392358E+04 -0.12583497499E+04  0.49653427418E+03  0.19454520557E+04  0.50400001928E-02 0. -1.
       -1    1    3    3    0  502 -0.13981392358E+04  0.12583497499E+04 -0.55952176340E+03  0.19624734442E+04  0.50400001928E-02 0.  1.
</event>
<event>
 5   0  0.2904500E-09  0.3899928E+04  0.7818609E-02  0.8025044E-01
       -1   -1    0    0    0  501  0.00000000000E+00  0.00000000000E+00  0.15571127212E+04  0.15571127212E+04  0.50400001928E-02 0. -1.
        1   -1    0    0  501    0  0.00000000000E+00  0.00000000000E+00 -0.24419300991E+04  0.24419300991E+04  0.50400001928E-02 0.  1.
    10030    2    1    2    0    0  0.00000000000E+00  0.00000000000E+00 -0.88481737790E+03  0.39990428203E+04  0.38999284207E+04 0.  0.
        4    1    3    3  502    0  0.79465594746E+03 -0.17796894224E+04 -0.38100105792E+03  0.19859345241E+04  0.12699999809E+01 0. -1.
       -4    1    3    3    0  502 -0.79465594746E+03  0.17796894224E+04 -0.50381631998E+03  0.20131082962E+04  0.12699999809E+01 0.  1.
</event>
<event>
 5   0  0.9078515E-09  0.3885031E+04  0.7818609E-02  0.8028150E-01
        2   -1    0    0  501    0  0.00000000000E+00  0.00000000000E+00  0.23290682309E+04  0.23290682309E+04  0.25500000920E-02 0. -1.
       -2   -1    0    0    0  501  0.00000000000E+00  0.00000000000E+00 -0.16201186077E+04  0.16201186077E+04  0.25500000920E-02 0.  1.
    10030    2    1    2    0    0  0.00000000000E+00  0.00000000000E+00  0.70894962320E+03  0.39491868387E+04  0.38850311605E+04 0.  0.
        3    1    3    3  502    0 -0.82151694701E+03 -0.16212292465E+04  0.10514298981E+04  0.20997093144E+04  0.10100000352E+00 0. -1.
       -3    1    3    3    0  502  0.82151694701E+03  0.16212292465E+04 -0.34248027491E+03  0.18494775243E+04  0.10100000352E+00 0.  1.
</event>
<event>
 5   0  0.2904500E-09  0.3897725E+04  0.7818609E-02  0.8025503E-01
       -1   -1    0    0    0  501  0.00000000000E+00  0.00000000000E+00  0.28098205640E+04  0.28098205640E+04  0.50400001928E-02 0.  1.
        1   -1    0    0  501    0  0.00000000000E+00  0.00000000000E+00 -0.13517108543E+04  0.13517108543E+04  0.50400001928E-02 0. -1.
    10030    2    1    2    0    0  0.00000000000E+00  0.00000000000E+00  0.14581097097E+04  0.41615314183E+04  0.38977249544E+04 0.  0.
        2    1    3    3  502    0 -0.16050276942E+04  0.11053207111E+04  0.74478936824E+03  0.20862787390E+04  0.25500000920E-02 0.  1.
       -2    1    3    3    0  502  0.16050276942E+04 -0.11053207111E+04  0.71332034146E+03  0.20752526793E+04  0.25500000920E-02 0. -1.
</event>
<event>
 5   0  0.2904500E-09  0.3899622E+04  0.7818609E-02  0.8025108E-01
       -1   -1    0    0    0  501  0.00000000000E+00  0.00000000000E+00  0.14110059924E+04  0.14110059924E+04  0.50400001928E-02 0. -1.
        1   -1    0    0  501    0  0.00000000000E+00  0.00000000000E+00 -0.26943632638E+04  0.26943632638E+04  0.50400001928E-02 0.  1.
    10030    2    1    2    0    0  0.00000000000E+00  0.00000000000E+00 -0.12833572714E+04  0.41053692562E+04  0.38996218847E+04 0.  0.
        3    1    3    3  502    0  0.17197556932E+03 -0.18507669485E+04 -0.21667015701E+02  0.18588661501E+04  0.10100000352E+00 0. -1.
       -3    1    3    3    0  502 -0.17197556932E+03  0.18507669485E+04 -0.12616902557E+04  0.22465031061E+04  0.10100000352E+00 0.  1.
</event>
<event>
 5   0  0.9277261E-09  0.3898875E+04  0.7818609E-02  0.8025263E-01
        2   -1    0    0  501    0  0.00000000000E+00  0.00000000000E+00  0.33967355783E+04  0.33967355783E+04  0.25500000920E-02 0.  1.
       -2   -1    0    0    0  501  0.00000000000E+00  0.00000000000E+00 -0.11188113946E+04  0.11188113946E+04  0.25500000920E-02 0. -1.
    10030    2    1    2    0    0  0.00000000000E+00  0.00000000000E+00  0.22779241837E+04  0.45155469729E+04  0.38988749502E+04 0.  0.
        1    1    3    3  502    0  0.97180229635E+03 -0.15939887019E+04  0.17890916852E+04  0.25857394963E+04  0.50400001928E-02 0.  1.
       -1    1    3    3    0  502 -0.97180229635E+03  0.15939887019E+04  0.48883249848E+03  0.19298074765E+04  0.50400001928E-02 0. -1.
</event>
<event>
 5   0  0.6335942E-09  0.3900959E+04  0.7818609E-02  0.8024830E-01
       -2   -1    0    0    0  501  0.00000000000E+00  0.00000000000E+00  0.23550740336E+04  0.23550740336E+04  0.25500000920E-02 0. -1.
        2   -1    0    0  501    0  0.00000000000E+00  0.00000000000E+00 -0.16153931248E+04  0.16153931248E+04  0.25500000920E-02 0.  1.
    10030    2    1    2    0    0  0.00000000000E+00  0.00000000000E+00  0.73968090878E+03  0.39704671584E+04  0.39009590627E+04 0.  0.
        2    1    3    3  502    0 -0.12173525571E+04  0.93080227055E+03 -0.85832087776E+03  0.17564324195E+04  0.25500000920E-02 0.  1.
       -2    1    3    3    0  502  0.12173525571E+04 -0.93080227055E+03  0.15980017865E+04  0.22140347389E+04  0.25500000920E-02 0. -1.
</event>
<event>
 5   0  0.9277261E-09  0.3900907E+04  0.7818609E-02  0.8024841E-01
       -2   -1    0    0    0  501  0.00000000000E+00  0.00000000000E+00  0.26919240271E+04  0.26919240271E+04  0.25500000920E-02 0. -1.
        2   -1    0    0  501    0  0.00000000000E+00  0.00000000000E+00 -0.14132153131E+04  0.14132153131E+04  0.25500000920E-02 0.  1.
    10030    2    1    2    0    0  0.00000000000E+00  0.00000000000E+00  0.12787087140E+04  0.41051393402E+04  0.39009066930E+04 0.  0.
        1    1    3    3  502    0  0.92125122964E+03  0.16078709688E+04  0.12797497712E+04  0.22520462600E+04  0.50400001928E-02 0. -1.
       -1    1    3    3    0  502 -0.92125122964E+03 -0.16078709688E+04 -0.10410571515E+01  0.18530930803E+04  0.50400001928E-02 0.  1.
</event>
<event>
 5   0  0.2904500E-09  0.3898178E+04  0.7818609E-02  0.8025408E-01
       -1   -1    0    0    0  501  0.00000000000E+00  0.00000000000E+00  0.11595381638E+04  0.11595381638E+04  0.50400001928E-02 0. -1.
        1   -1    0    0  501    0  0.00000000000E+00  0.00000000000E+00 -0.32762594817E+04  0.32762594817E+04  0.50400001928E-02 0.  1.
    10030    2    1    2    0    0  0.00000000000E+00  0.00000000000E+00 -0.21167213179E+04  0.44357976455E+04  0.38981779865E+04 0.  0.
        2    1    3    3  502    0 -0.73277395734E+03  0.10798007833E+04  0.58907258063E+03  0.14317590263E+04  0.25500000920E-02 0. -1.
       -2    1    3    3    0  502  0.73277395734E+03 -0.10798007833E+04 -0.27057938986E+04  0.30040386192E+04  0.25500000920E-02 0.  1.
</event>
<event>
 5   0  0.2904500E-09  0.3897989E+04  0.7818609E-02  0.8025448E-01
       -1   -1    0    0    0  501  0.00000000000E+00  0.00000000000E+00  0.29068943811E+04  0.29068943811E+04  0.50400001928E-02 0.  1.
        1   -1    0    0  501    0  0.00000000000E+00  0.00000000000E+00 -0.13067486379E+04  0.13067486380E+04  0.50400001928E-02 0. -1.
    10030    2    1    2    0    0  0.00000000000E+00  0.00000000000E+00  0.16001457431E+04  0.42136430190E+04  0.38979893654E+04 0.  0.
        2    1    3    3  502    0 -0.18409435014E+03  0.17163770506E+04 -0.17804214141E+03  0.17353788963E+04  0.25500000920E-02 0. -1.
       -2    1    3    3    0  502  0.18409435014E+03 -0.17163770506E+04  0.17781878845E+04  0.24782641228E+04  0.25500000920E-02 0.  1.
</event>
<event>
 5   0  0.9368546E-09  0.3900336E+04  0.7818609E-02  0.8024959E-01
       -2   -1    0    0    0  501  0.00000000000E+00  0.00000000000E+00  0.14772199688E+04  0.14772199688E+04  0.25500000920E-02 0.  1.
        2   -1    0    0  501    0  0.00000000000E+00  0.00000000000E+00 -0.25745357692E+04  0.25745357692E+04  0.25500000920E-02 0. -1.
    10030    2    1    2    0    0  0.00000000000E+00  0.00000000000E+00 -0.10973158004E+04  0.40517557380E+04  0.39003362156E+04 0.  0.
        5    1    3    3  502    0 -0.14562256527E+04 -0.80375679653E+03  0.50896073332E+03  0.17394485499E+04  0.46999998093E+01 0.  1.
       -5    1    3    3    0  502  0.14562256527E+04  0.80375679653E+03 -0.16062765337E+04  0.23123071881E+04  0.46999998093E+01 0. -1.
</event>
<event>
 5   0  0.2929054E-09  0.3901592E+04  0.7818609E-02  0.8024698E-01
       -1   -1    0    0    0  501  0.00000000000E+00  0.00000000000E+00  0.25231253764E+04  0.25231253764E+04  0.50400001928E-02 0. -1.
        1   -1    0    0  501    0  0.00000000000E+00  0.00000000000E+00 -0.15082902206E+04  0.15082902206E+04  0.50400001928E-02 0.  1.
    10030    2    1    2    0    0  0.00000000000E+00  0.00000000000E+00  0.10148351558E+04  0.40314155970E+04  0.39015921522E+04 0.  0.
        1    1    3    3  502    0 -0.15671216300E+04  0.44161220410E+03 -0.60291447870E+03  0.17362020074E+04  0.50400001928E-02 0.  1.
       -1    1    3    3    0  502  0.15671216300E+04 -0.44161220410E+03  0.16177496345E+04  0.22952135896E+04  0.50400001928E-02 0. -1.
</event>
<event>
 5   0  0.9277261E-09  0.3900722E+04  0.7818609E-02  0.8024879E-01
       -2   -1    0    0    0  501  0.00000000000E+00  0.00000000000E+00  0.22070461659E+04  0.22070461659E+04  0.25500000920E-02 0. -1.
        2   -1    0    0  501    0  0.00000000000E+00  0.00000000000E+00 -0.17235286325E+04  0.17235286325E+04  0.25500000920E-02 0.  1.
    10030    2    1    2    0    0  0.00000000000E+00  0.00000000000E+00  0.48351753341E+03  0.39305747985E+04  0.39007216052E+04 0.  0.
        1    1    3    3  502    0  0.15716948152E+04  0.11474326645E+04  0.11006442859E+03  0.19490870914E+04  0.50400001928E-02 0. -1.
       -1    1    3    3    0  502 -0.15716948152E+04 -0.11474326645E+04  0.37345310483E+03  0.19814877070E+04  0.50400001928E-02 0.  1.
</event>
<event>
 5   0  0.9368546E-09  0.3900799E+04  0.7818609E-02  0.8024863E-01
       -2   -1    0    0    0  501  0.00000000000E+00  0.00000000000E+00  0.16301434323E+04  0.16301434323E+04  0.25500000920E-02 0.  1.
        2   -1    0    0  501    0  0.00000000000E+00  0.00000000000E+00 -0.23335725026E+04  0.23335725026E+04  0.25500000920E-02 0. -1.
    10030    2    1    2    0    0  0.00000000000E+00  0.00000000000E+00 -0.70342907022E+03  0.39637159349E+04  0.39007988356E+04 0.  0.
        5    1    3    3  502    0 -0.10556273877E+04  0.22162506631E+03 -0.20029070993E+04  0.22748902809E+04  0.46999998093E+01 0. -1.
       -5    1    3    3    0  502  0.10556273877E+04 -0.22162506631E+03  0.12994780291E+04  0.16888256540E+04  0.46999998093E+01 0.  1.
</event>
<event>
 5   0  0.2904500E-09  0.3900929E+04  0.7818609E-02  0.8024836E-01
       -1   -1    0    0    0  501  0.00000000000E+00  0.00000000000E+00  0.19864980666E+04  0.19864980666E+04  0.50400001928E-02 0. -1.
        1   -1    0    0  501    0  0.00000000000E+00  0.00000000000E+00 -0.19150841280E+04  0.19150841280E+04  0.50400001928E-02 0.  1.
    10030    2    1    2    0    0  0.00000000000E+00  0.00000000000E+00  0.71413938610E+02  0.39015821947E+04  0.39009285652E+04 0.  0.
        4    1    3    3  502    0  0.59589191357E+03 -0.17442899179E+04  0.67352442658E+03  0.19624656064E+04  0.12699999809E+01 0. -1.
       -4    1    3    3    0  502 -0.59589191357E+03  0.17442899179E+04 -0.60211048797E+03  0.19391165883E+04  0.12699999809E+01 0.  1.
</event>
<event>
 5   0  0.2904500E-09  0.3900247E+04  0.7818609E-02  0.8024978E-01
        1   -1    0    0  501    0  0.00000000000E+00  0.00000000000E+00  0.33825533641E+04  0.33825533641E+04  0.50400001928E-02 0.  1.
       -1   -1    0    0    0  501  0.00000000000E+00  0.00000000000E+00 -0.11242933753E+04  0.11242933753E+04  0.50400001928E-02 0. -1.
    10030    2    1    2    0    0  0.00000000000E+00  0.00000000000E+00  0.22582599888E+04  0.45068467395E+04  0.39002473455E+04 0.  0.
        5    1    3    3  502    0 -0.67474517332E+03  0.14523409647E+04  0.24150337584E+04  0.28977552469E+04  0.46999998093E+01 0.  1.
       -5    1    3    3    0  502  0.67474517332E+03 -0.14523409647E+04 -0.15677376956E+03  0.16090914926E+04  0.46999998093E+01 0. -1.
</event>
<event>
 5   0  0.6335942E-09  0.3899362E+04  0.7818609E-02  0.8025162E-01
       -2   -1    0    0    0  501  0.00000000000E+00  0.00000000000E+00  0.17527883731E+04  0.17527883731E+04  0.25500000920E-02 0.  1.
        2   -1    0    0  501    0  0.00000000000E+00  0.00000000000E+00 -0.21686903431E+04  0.21686903431E+04  0.25500000920E-02 0. -1.
    10030    2    1    2    0    0  0.00000000000E+00  0.00000000000E+00 -0.41590196995E+03  0.39214787162E+04  0.38993615981E+04 0.  0.
        2    1    3    3  502    0 -0.14032619160E+04  0.12774420023E+04 -0.65798570789E+03  0.20084688860E+04  0.25500000920E-02 0. -1.
       -2    1    3    3    0  502  0.14032619160E+04 -0.12774420023E+04  0.24208373794E+03  0.19130098302E+04  0.25500000920E-02 0.  1.
</event>
<event>
 5   0  0.2904500E-09  0.3898948E+04  0.7818609E-02  0.8025248E-01
        1   -1    0    0  501    0  0.00000000000E+00  0.00000000000E+00  0.23837649944E+04  0.23837649944E+04  0.50400001928E-02 0.  1.
       -1   -1    0    0    0  501  0.00000000000E+00  0.00000000000E+00 -0.15943050979E+04  0.15943050979E+04  0.50400001928E-02 0. -1.
    10030    2    1    2    0    0  0.00000000000E+00  0.00000000000E+00  0.78945989647E+03  0.39780700923E+04  0.38989479006E+04 0.  0.
        5    1    3    3  502    0 -0.26139321020E+03  0.14077775200E+04 -0.95509238671E+03  0.17211587705E+04  0.46999998093E+01 0. -1.
       -5    1    3    3    0  502  0.26139321020E+03 -0.14077775200E+04  0.17445522832E+04  0.22569113219E+04  0.46999998093E+01 0.  1.
</event>
<event>
 5   0  0.6335942E-09  0.3899650E+04  0.7818609E-02  0.8025102E-01
       -2   -1    0    0    0  501  0.00000000000E+00  0.00000000000E+00  0.31575764464E+04  0.31575764464E+04  0.25500000920E-02 0.  1.
        2   -1    0    0  501    0  0.00000000000E+00  0.00000000000E+00 -0.12040304803E+04  0.12040304803E+04  0.25500000920E-02 0. -1.
    10030    2    1    2    0    0  0.00000000000E+00  0.00000000000E+00  0.19535459662E+04  0.43616069267E+04  0.38996503870E+04 0.  0.
        2    1    3    3  502    0  0.54644864699E+03 -0.15923290294E+04  0.20770228285E+04  0.26736008849E+04  0.25500000920E-02 0.  1.
       -2    1    3    3    0  502 -0.54644864699E+03  0.15923290294E+04 -0.12347686233E+03  0.16880060418E+04  0.25500000920E-02 0. -1.
</event>
<event>
 5   0  0.2904500E-09  0.3898419E+04  0.7818609E-02  0.8025358E-01
       -1   -1    0    0    0  501  0.00000000000E+00  0.00000000000E+00  0.18331476062E+04  0.18331476062E+04  0.50400001928E-02 0.  1.
        1   -1    0    0  501    0  0.00000000000E+00  0.00000000000E+00 -0.20726196283E+04  0.20726196283E+04  0.50400001928E-02 0. -1.
    10030    2    1    2    0    0  0.00000000000E+00  0.00000000000E+00 -0.23947202206E+03  0.39057672345E+04  0.38984190181E+04 0.  0.
        2    1    3    3  502    0 -0.17747088723E+04  0.18763974339E+03 -0.90518916116E+03  0.20010416468E+04  0.25500000920E-02 0. -1.
       -2    1    3    3    0  502  0.17747088723E+04 -0.18763974339E+03  0.66571713910E+03  0.19047255876E+04  0.25500000920E-02 0.  1.
</event>
<event>
 5   0  0.2904500E-09  0.3899795E+04  0.7818609E-02  0.8025072E-01
       -1   -1    0    0    0  501  0.00000000000E+00  0.00000000000E+00  0.27568492634E+04  0.27568492634E+04  0.50400001928E-02 0.  1.
        1   -1    0    0  501    0  0.00000000000E+00  0.00000000000E+00 -0.13791472852E+04  0.13791472852E+04  0.50400001928E-02 0. -1.
    10030    2    1    2    0    0  0.00000000000E+00  0.00000000000E+00  0.13777019782E+04  0.41359965487E+04  0.38997954703E+04 0.  0.
        4    1    3    3  502    0 -0.76373110303E+02  0.81912465349E+03  0.25637777093E+04  0.26925370575E+04  0.12699999809E+01 0.  1.
       -4    1    3    3    0  502  0.76373110303E+02 -0.81912465349E+03 -0.11860757311E+04  0.14434594912E+04  0.12699999809E+01 0. -1.
</event>
<event>
 5   0  0.6335942E-09  0.3907951E+04  0.7818609E-02  0.8023378E-01
        2   -1    0    0  501    0  0.00000000000E+00  0.00000000000E+00  0.17830210224E+04  0.17830210224E+04  0.25500000920E-02 0. -1.
       -2   -1    0    0    0  501  0.00000000000E+00  0.00000000000E+00 -0.21413208086E+04  0.21413208086E+04  0.25500000920E-02 0.  1.
    10030    2    1    2    0    0  0.00000000000E+00  0.00000000000E+00 -0.35829978613E+03  0.39243418310E+04  0.39079508786E+04 0.  0.
        2    1    3    3  502    0 -0.17852632010E+04  0.12365574953E+02  0.61834879967E+03  0.18893577857E+04  0.25500000920E-02 0. -1.
       -2    1    3    3    0  502  0.17852632010E+04 -0.12365574953E+02 -0.97664858580E+03  0.20349840453E+04  0.25500000920E-02 0.  1.
</event>
<event>
 5   0  0.9434114E-09  0.3897711E+04  0.7818609E-02  0.8025505E-01
        2   -1    0    0  501    0  0.00000000000E+00  0.00000000000E+00  0.17050120629E+04  0.17050120629E+04  0.25500000920E-02 0. -1.
       -2   -1    0    0    0  501  0.00000000000E+00  0.00000000000E+00 -0.22275720834E+04  0.22275720834E+04  0.25500000920E-02 0.  1.
    10030    2    1    2    0    0  0.00000000000E+00  0.00000000000E+00 -0.52256002053E+03  0.39325841463E+04  0.38977107503E+04 0.  0.
        4    1    3    3  502    0  0.23577563382E+02  0.10244147902E+04  0.14112774857E+04  0.17440433820E+04  0.12699999809E+01 0. -1.
       -4    1    3    3    0  502 -0.23577563382E+02 -0.10244147902E+04 -0.19338375062E+04  0.21885407643E+04  0.12699999809E+01 0.  1.
</event>
<event>
 5   0  0.9368546E-09  0.3903736E+04  0.7818609E-02  0.8024253E-01
       -2   -1    0    0    0  501  0.00000000000E+00  0.00000000000E+00  0.16028176387E+04  0.16028176387E+04  0.25500000920E-02 0.  1.
        2   -1    0    0  501    0  0.00000000000E+00  0.00000000000E+00 -0.23769323925E+04  0.23769323925E+04  0.25500000920E-02 0. -1.
    10030    2    1    2    0    0  0.00000000000E+00  0.00000000000E+00 -0.77411475384E+03  0.39797500312E+04  0.39037362435E+04 0.  0.
        5    1    3    3  502    0  0.37559520870E+03 -0.79392498925E+03  0.13899787613E+04  0.16442176548E+04  0.46999998093E+01 0.  1.
       -5    1    3    3    0  502 -0.37559520870E+03  0.79392498925E+03 -0.21640935151E+04  0.23355323765E+04  0.46999998093E+01 0. -1.
</event>
<event>
 5   0  0.2929054E-09  0.3900428E+04  0.7818609E-02  0.8024940E-01
        1   -1    0    0  501    0  0.00000000000E+00  0.00000000000E+00  0.22815182607E+04  0.22815182607E+04  0.50400001928E-02 0.  1.
       -1   -1    0    0    0  501  0.00000000000E+00  0.00000000000E+00 -0.16670188746E+04  0.16670188746E+04  0.50400001928E-02 0. -1.
    10030    2    1    2    0    0  0.00000000000E+00  0.00000000000E+00  0.61449938606E+03  0.39485371353E+04  0.39004276706E+04 0.  0.
        1    1    3    3  502    0 -0.18118957157E+04 -0.60258134634E+03  0.70870588368E+03  0.20367460306E+04  0.50400001928E-02 0.  1.
       -1    1    3    3    0  502  0.18118957157E+04  0.60258134634E+03 -0.94206497619E+02  0.19117911047E+04  0.50400001928E-02 0. -1.
</event>
<event>
 5   0  0.2904500E-09  0.3900018E+04  0.7818609E-02  0.8025026E-01
       -1   -1    0    0    0  501  0.00000000000E+00  0.00000000000E+00  0.21922085389E+04  0.21922085389E+04  0.50400001928E-02 0. -1.
        1   -1    0    0  501    0  0.00000000000E+00  0.00000000000E+00 -0.17345678139E+04  0.17345678139E+04  0.50400001928E-02 0.  1.
    10030    2    1    2    0    0  0.00000000000E+00  0.00000000000E+00  0.45764072495E+03  0.39267763528E+04  0.39000176271E+04 0.  0.
        4    1    3    3  502    0 -0.81246929073E+03  0.43931153412E+03  0.19579946751E+04  0.21649124077E+04  0.12699999809E+01 0. -1.
       -4    1    3    3    0  502  0.81246929073E+03 -0.43931153412E+03 -0.15003539502E+04  0.17618639451E+04  0.12699999809E+01 0.  1.
</event>
<event>
 5   0  0.6335942E-09  0.3910960E+04  0.7818609E-02  0.8022754E-01
        2   -1    0    0  501    0  0.00000000000E+00  0.00000000000E+00  0.25817465827E+04  0.25817465827E+04  0.25500000920E-02 0. -1.
       -2   -1    0    0    0  501  0.00000000000E+00  0.00000000000E+00 -0.14811296019E+04  0.14811296019E+04  0.25500000920E-02 0.  1.
    10030    2    1    2    0    0  0.00000000000E+00  0.00000000000E+00  0.11006169809E+04  0.40628761846E+04  0.39109596205E+04 0.  0.
        2    1    3    3  502    0 -0.43556624563E+03  0.16182349550E+04 -0.49655486485E+03  0.17478469778E+04  0.25500000920E-02 0.  1.
       -2    1    3    3    0  502  0.43556624563E+03 -0.16182349550E+04  0.15971718457E+04  0.23150292069E+04  0.25500000920E-02 0. -1.
</event>
<event>
 5   0  0.2904500E-09  0.3900091E+04  0.7818609E-02  0.8025010E-01
        1   -1    0    0  501    0  0.00000000000E+00  0.00000000000E+00  0.12101166917E+04  0.12101166917E+04  0.50400001928E-02 0.  1.
       -1   -1    0    0    0  501  0.00000000000E+00  0.00000000000E+00 -0.31424063879E+04  0.31424063879E+04  0.50400001928E-02 0. -1.
    10030    2    1    2    0    0  0.00000000000E+00  0.00000000000E+00 -0.19322896962E+04  0.43525230795E+04  0.39000914974E+04 0.  0.
        3    1    3    3  502    0 -0.18525177951E+04 -0.30009956928E+03 -0.37477099913E+03  0.19137228756E+04  0.10100000352E+00 0. -1.
       -3    1    3    3    0  502  0.18525177951E+04  0.30009956928E+03 -0.15575186971E+04  0.24388002039E+04  0.10100000352E+00 0.  1.
</event>
<event>
 5   0  0.2929054E-09  0.3903331E+04  0.7818609E-02  0.8024337E-01
        1   -1    0    0  501    0  0.00000000000E+00  0.00000000000E+00  0.18058657987E+04  0.18058657987E+04  0.50400001928E-02 0.  1.
       -1   -1    0    0    0  501  0.00000000000E+00  0.00000000000E+00 -0.21092370101E+04  0.21092370101E+04  0.50400001928E-02 0. -1.
    10030    2    1    2    0    0  0.00000000000E+00  0.00000000000E+00 -0.30337121138E+03  0.39151028088E+04  0.39033313863E+04 0.  0.
        1    1    3    3  502    0  0.42822001203E+03  0.11577772447E+04 -0.16679251085E+04  0.20750408899E+04  0.50400001928E-02 0. -1.
       -1    1    3    3    0  502 -0.42822001203E+03 -0.11577772447E+04  0.13645538972E+04  0.18400619189E+04  0.50400001928E-02 0.  1.
</event>
<event>
 5   0  0.2929054E-09  0.3901442E+04  0.7818609E-02  0.8024729E-01
        1   -1    0    0  501    0  0.00000000000E+00  0.00000000000E+00  0.21984261213E+04  0.21984261213E+04  0.50400001928E-02 0.  1.
       -1   -1    0    0    0  501  0.00000000000E+00  0.00000000000E+00 -0.17309260590E+04  0.17309260590E+04  0.50400001928E-02 0. -1.
    10030    2    1    2    0    0  0.00000000000E+00  0.00000000000E+00  0.46750006221E+03  0.39293521803E+04  0.39014423293E+04 0.  0.
        1    1    3    3  502    0  0.53043537225E+03 -0.12024055976E+04  0.16856494281E+04  0.21374178113E+04  0.50400001928E-02 0.  1.
       -1    1    3    3    0  502 -0.53043537225E+03  0.12024055976E+04 -0.12181493659E+04  0.17919343690E+04  0.50400001928E-02 0. -1.
</event>
<event>
 5   0  0.9434114E-09  0.3899908E+04  0.7818609E-02  0.8025048E-01
        2   -1    0    0  501    0  0.00000000000E+00  0.00000000000E+00  0.11390041796E+04  0.11390041796E+04  0.25500000920E-02 0.  1.
       -2   -1    0    0    0  501  0.00000000000E+00  0.00000000000E+00 -0.33382856080E+04  0.33382856080E+04  0.25500000920E-02 0. -1.
    10030    2    1    2    0    0  0.00000000000E+00  0.00000000000E+00 -0.21992814284E+04  0.44772897876E+04  0.38999083374E+04 0.  0.
        4    1    3    3  502    0 -0.56954155758E+03 -0.41151688052E+03 -0.31878915782E+04  0.32644108283E+04  0.12699999809E+01 0. -1.
       -4    1    3    3    0  502  0.56954155758E+03  0.41151688052E+03  0.98861014974E+03  0.12128789593E+04  0.12699999809E+01 0.  1.
</event>
<event>
 5   0  0.9277261E-09  0.3904086E+04  0.7818609E-02  0.8024180E-01
       -2   -1    0    0    0  501  0.00000000000E+00  0.00000000000E+00  0.14215720575E+04  0.14215720575E+04  0.25500000920E-02 0.  1.
        2   -1    0    0  501    0  0.00000000000E+00  0.00000000000E+00 -0.26804628800E+04  0.26804628800E+04  0.25500000920E-02 0. -1.
    10030    2    1    2    0    0  0.00000000000E+00  0.00000000000E+00 -0.12588908225E+04  0.41020349374E+04  0.39040856196E+04 0.  0.
        1    1    3    3  502    0  0.11727388042E+04 -0.12559174732E+04  0.34370429685E+03  0.17523634457E+04  0.50400001928E-02 0.  1.
       -1    1    3    3    0  502 -0.11727388042E+04  0.12559174732E+04 -0.16025951193E+04  0.23496714917E+04  0.50400001928E-02 0. -1.
</event>
<event>
 5   0  0.9368546E-09  0.3899925E+04  0.7818609E-02  0.8025045E-01
       -2   -1    0    0    0  501  0.00000000000E+00  0.00000000000E+00  0.26535677222E+04  0.26535677222E+04  0.25500000920E-02 0. -1.
        2   -1    0    0  501    0  0.00000000000E+00  0.00000000000E+00 -0.14329211315E+04  0.14329211315E+04  0.25500000920E-02 0.  1.
    10030    2    1    2    0    0  0.00000000000E+00  0.00000000000E+00  0.12206465907E+04  0.40864888537E+04  0.38999247496E+04 0.  0.
        5    1    3    3  502    0 -0.16175551804E+04 -0.57409241482E+03  0.15799353649E+04  0.23328704871E+04  0.46999998093E+01 0. -1.
       -5    1    3    3    0  502  0.16175551804E+04  0.57409241482E+03 -0.35928877419E+03  0.17536183666E+04  0.46999998093E+01 0.  1.
</event>
<event>
 5   0  0.9078515E-09  0.3900541E+04  0.7818609E-02  0.8024917E-01
       -2   -1    0    0    0  501  0.00000000000E+00  0.00000000000E+00  0.13186026824E+04  0.13186026824E+04  0.25500000920E-02 0. -1.
        2   -1    0    0  501    0  0.00000000000E+00  0.00000000000E+00 -0.28845338617E+04  0.28845338617E+04  0.25500000920E-02 0.  1.
    10030    2    1    2    0    0  0.00000000000E+00  0.00000000000E+00 -0.15659311793E+04  0.42031365441E+04  0.39005405203E+04 0.  0.
        3    1    3    3  502    0 -0.95943080377E+03 -0.72712852983E+03  0.87045156364E+03  0.14855669965E+04  0.10100000352E+00 0. -1.
       -3    1    3    3    0  502  0.95943080377E+03  0.72712852983E+03 -0.24363827429E+04  0.27175695477E+04  0.10100000352E+00 0.  1.
</event>
<event>
 5   0  0.2904500E-09  0.3901879E+04  0.7818609E-02  0.8024638E-01
        1   -1    0    0  501    0  0.00000000000E+00  0.00000000000E+00  0.16206760975E+04  0.16206760975E+04  0.50400001928E-02 0.  1.
       -1   -1    0    0    0  501  0.00000000000E+00  0.00000000000E+00 -0.23485048675E+04  0.23485048675E+04  0.50400001928E-02 0. -1.
    10030    2    1    2    0    0  0.00000000000E+00  0.00000000000E+00 -0.72782877006E+03  0.39691809650E+04  0.39018793952E+04 0.  0.
        3    1    3    3  502    0 -0.14017680195E+04 -0.33049576676E+03 -0.17026631378E+04  0.22300768604E+04  0.10100000352E+00 0. -1.
       -3    1    3    3    0  502  0.14017680195E+04  0.33049576676E+03  0.97483436770E+03  0.17391041047E+04  0.10100000352E+00 0.  1.
</event>
<event>
 5   0  0.9368546E-09  0.3900938E+04  0.7818609E-02  0.8024834E-01
        2   -1    0    0  501    0  0.00000000000E+00  0.00000000000E+00  0.29613667745E+04  0.29613667745E+04  0.25500000920E-02 0.  1.
       -2   -1    0    0    0  501  0.00000000000E+00  0.00000000000E+00 -0.12846533761E+04  0.12846533761E+04  0.25500000920E-02 0. -1.
    10030    2    1    2    0    0  0.00000000000E+00  0.00000000000E+00  0.16767133984E+04  0.42460201507E+04  0.39009382589E+04 0.  0.
        5    1    3    3  502    0 -0.76054547785E+02 -0.14670209811E+04  0.22349729021E+04  0.26745206704E+04  0.46999998093E+01 0.  1.
       -5    1    3    3    0  502  0.76054547785E+02  0.14670209811E+04 -0.55825950371E+03  0.15714994803E+04  0.46999998093E+01 0. -1.
</event>
<event>
 5   0  0.6335942E-09  0.3899920E+04  0.7818609E-02  0.8025046E-01
        2   -1    0    0  501    0  0.00000000000E+00  0.00000000000E+00  0.20152711483E+04  0.20152711483E+04  0.25500000920E-02 0.  1.
       -2   -1    0    0    0  501  0.00000000000E+00  0.00000000000E+00 -0.18867655114E+04  0.18867655114E+04  0.25500000920E-02 0. -1.
    10030    2    1    2    0    0  0.00000000000E+00  0.00000000000E+00  0.12850563695E+03  0.39020366597E+04  0.38999200498E+04 0.  0.
        2    1    3    3  502    0  0.66872716414E+03  0.97751712449E+03 -0.14856548379E+04  0.18999752751E+04  0.25500000920E-02 0. -1.
       -2    1    3    3    0  502 -0.66872716414E+03 -0.97751712449E+03  0.16141604749E+04  0.20020613845E+04  0.25500000920E-02 0.  1.
</event>
<event>
 5   0  0.9078515E-09  0.3899339E+04  0.7818609E-02  0.8025167E-01
       -2   -1    0    0    0  501  0.00000000000E+00  0.00000000000E+00  0.13080758930E+04  0.13080758930E+04  0.25500000920E-02 0.  1.
        2   -1    0    0  501    0  0.00000000000E+00  0.00000000000E+00 -0.29059561261E+04  0.29059561261E+04  0.25500000920E-02 0. -1.
    10030    2    1    2    0    0  0.00000000000E+00  0.00000000000E+00 -0.15978802331E+04  0.42140320191E+04  0.38993389977E+04 0.  0.
        3    1    3    3  502    0 -0.60561818111E+03  0.92642975312E+03 -0.25335177126E+04  0.27647346128E+04  0.10100000352E+00 0. -1.
       -3    1    3    3    0  502  0.60561818111E+03 -0.92642975312E+03  0.93563747952E+03  0.14492974063E+04  0.10100000352E+00 0.  1.
</event>
<event>
 5   0  0.2904500E-09  0.3899524E+04  0.7818609E-02  0.8025128E-01
       -1   -1    0    0    0  501  0.00000000000E+00  0.00000000000E+00  0.17665327089E+04  0.17665327089E+04  0.50400001928E-02 0.  1.
        1   -1    0    0  501    0  0.00000000000E+00  0.00000000000E+00 -0.21519958733E+04  0.21519958733E+04  0.50400001928E-02 0. -1.
    10030    2    1    2    0    0  0.00000000000E+00  0.00000000000E+00 -0.38546316444E+03  0.39185285822E+04  0.38995236117E+04 0.  0.
        4    1    3    3  502    0  0.10429131106E+04 -0.45968670382E+03 -0.17823991183E+04  0.21156388756E+04  0.12699999809E+01 0. -1.
       -4    1    3    3    0  502 -0.10429131106E+04  0.45968670382E+03  0.13969359539E+04  0.18028897066E+04  0.12699999809E+01 0.  1.
</event>
<event>
 5   0  0.6335942E-09  0.3897893E+04  0.7818609E-02  0.8025468E-01
       -2   -1    0    0    0  501  0.00000000000E+00  0.00000000000E+00  0.13838727630E+04  0.13838727630E+04  0.25500000920E-02 0. -1.
        2   -1    0    0  501    0  0.00000000000E+00  0.00000000000E+00 -0.27447554071E+04  0.27447554071E+04  0.25500000920E-02 0.  1.
    10030    2    1    2    0    0  0.00000000000E+00  0.00000000000E+00 -0.13608826442E+04  0.41286281701E+04  0.38978928918E+04 0.  0.
        2    1    3    3  502    0  0.11198448028E+04  0.63598868945E+03 -0.22298585244E+04  0.25750345695E+04  0.25500000920E-02 0.  1.
       -2    1    3    3    0  502 -0.11198448028E+04 -0.63598868945E+03  0.86897588019E+03  0.15535936006E+04  0.25500000920E-02 0. -1.
</event>
<event>
 5   0  0.2904500E-09  0.3899651E+04  0.7818609E-02  0.8025102E-01
        1   -1    0    0  501    0  0.00000000000E+00  0.00000000000E+00  0.18695713243E+04  0.18695713243E+04  0.50400001928E-02 0.  1.
       -1   -1    0    0    0  501  0.00000000000E+00  0.00000000000E+00 -0.20335251201E+04  0.20335251201E+04  0.50400001928E-02 0. -1.
    10030    2    1    2    0    0  0.00000000000E+00  0.00000000000E+00 -0.16395379578E+03  0.39030964444E+04  0.38996513956E+04 0.  0.
        5    1    3    3  502    0  0.78892264300E+03 -0.16801973366E+04 -0.67944321969E+03  0.19766454425E+04  0.46999998093E+01 0.  1.
       -5    1    3    3    0  502 -0.78892264300E+03  0.16801973366E+04  0.51548942390E+03  0.19264510019E+04  0.46999998093E+01 0. -1.
</event>
<event>
 5   0  0.2904500E-09  0.3897868E+04  0.7818609E-02  0.8025473E-01
       -1   -1    0    0    0  501  0.00000000000E+00  0.00000000000E+00  0.27516411230E+04  0.27516411230E+04  0.50400001928E-02 0. -1.
        1   -1    0    0  501    0  0.00000000000E+00  0.00000000000E+00 -0.13803923353E+04  0.13803923353E+04  0.50400001928E-02 0.  1.
    10030    2    1    2    0    0  0.00000000000E+00  0.00000000000E+00  0.13712487877E+04  0.41320334583E+04  0.38978682973E+04 0.  0.
        3    1    3    3  502    0  0.10321326023E+04  0.18782802523E+02 -0.10667712081E+04  0.14844700479E+04  0.10100000352E+00 0.  1.
       -3    1    3    3    0  502 -0.10321326023E+04 -0.18782802523E+02  0.24380199957E+04  0.26475634104E+04  0.10100000352E+00 0. -1.
</event>
<event>
 5   0  0.9434114E-09  0.3894774E+04  0.7818609E-02  0.8026117E-01
        2   -1    0    0  501    0  0.00000000000E+00  0.00000000000E+00  0.15859766052E+04  0.15859766052E+04  0.25500000920E-02 0. -1.
       -2   -1    0    0    0  501  0.00000000000E+00  0.00000000000E+00 -0.23911557090E+04  0.23911557090E+04  0.25500000920E-02 0.  1.
    10030    2    1    2    0    0  0.00000000000E+00  0.00000000000E+00 -0.80517910385E+03  0.39771323142E+04  0.38947744550E+04 0.  0.
        4    1    3    3  502    0  0.36028887491E+03 -0.53737040219E+03  0.14730248390E+04  0.16088439364E+04  0.12699999809E+01 0. -1.
       -4    1    3    3    0  502 -0.36028887491E+03  0.53737040219E+03 -0.22782039428E+04  0.23682883778E+04  0.12699999809E+01 0.  1.
</event>
<event>
 5   0  0.2904500E-09  0.3904056E+04  0.7818609E-02  0.8024186E-01
        1   -1    0    0  501    0  0.00000000000E+00  0.00000000000E+00  0.26511174477E+04  0.26511174477E+04  0.50400001928E-02 0.  1.
       -1   -1    0    0    0  501  0.00000000000E+00  0.00000000000E+00 -0.14372855924E+04  0.14372855924E+04  0.50400001928E-02 0. -1.
    10030    2    1    2    0    0  0.00000000000E+00  0.00000000000E+00  0.12138318554E+04  0.40884030401E+04  0.39040557943E+04 0.  0.
        3    1    3    3  502    0 -0.14194007662E+04  0.23627120329E+02 -0.79618463721E+03  0.16276261127E+04  0.10100000352E+00 0. -1.
       -3    1    3    3    0  502  0.14194007662E+04 -0.23627120329E+02  0.20100164926E+04  0.24607769274E+04  0.10100000352E+00 0.  1.
</event>
<event>
 5   0  0.2904500E-09  0.3900971E+04  0.7818609E-02  0.8024827E-01
        1   -1    0    0  501    0  0.00000000000E+00  0.00000000000E+00  0.26260222158E+04  0.26260222158E+04  0.50400001928E-02 0.  1.
       -1   -1    0    0    0  501  0.00000000000E+00  0.00000000000E+00 -0.14487283183E+04  0.14487283183E+04  0.50400001928E-02 0. -1.
    10030    2    1    2    0    0  0.00000000000E+00  0.00000000000E+00  0.11772938975E+04  0.40747505342E+04  0.39009705196E+04 0.  0.
        4    1    3    3  502    0  0.61607291790E+02 -0.57110572246E+03  0.25356668289E+04  0.25999163611E+04  0.12699999809E+01 0.  1.
       -4    1    3    3    0  502 -0.61607291790E+02  0.57110572246E+03 -0.13583729314E+04  0.14748341731E+04  0.12699999809E+01 0. -1.
</event>
<event>
 5   0  0.2904500E-09  0.3900331E+04  0.7818609E-02  0.8024960E-01
        1   -1    0    0  501    0  0.00000000000E+00  0.00000000000E+00  0.25064170911E+04  0.25064170911E+04  0.50400001928E-02 0. -1.
       -1   -1    0    0    0  501  0.00000000000E+00  0.00000000000E+00 -0.15173630061E+04  0.15173630061E+04  0.50400001928E-02 0.  1.
    10030    2    1    2    0    0  0.00000000000E+00  0.00000000000E+00  0.98905408500E+03  0.40237800971E+04  0.39003305356E+04 0.  0.
        3    1    3    3  502    0 -0.11385875147E+04  0.15504682133E+04  0.16373628884E+03  0.19305809466E+04  0.10100000352E+00 0.  1.
       -3    1    3    3    0  502  0.11385875147E+04 -0.15504682133E+04  0.82531779616E+03  0.20931991505E+04  0.10100000352E+00 0. -1.
</event>
<event>
 5   0  0.9078515E-09  0.3898743E+04  0.7818609E-02  0.8025291E-01
        2   -1    0    0  501    0  0.00000000000E+00  0.00000000000E+00  0.12439819008E+04  0.12439819008E+04  0.25500000920E-02 0. -1.
       -2   -1    0    0    0  501  0.00000000000E+00  0.00000000000E+00 -0.30547467987E+04  0.30547467987E+04  0.25500000920E-02 0.  1.
    10030    2    1    2    0    0  0.00000000000E+00  0.00000000000E+00 -0.18107648979E+04  0.42987286994E+04  0.38987432483E+04 0.  0.
        3    1    3    3  502    0  0.95867713526E+03 -0.11472323743E+04 -0.22846584139E+04  0.27303604247E+04  0.10100000352E+00 0.  1.
       -3    1    3    3    0  502 -0.95867713526E+03  0.11472323743E+04  0.47389351602E+03  0.15683682747E+04  0.10100000352E+00 0. -1.
</event>
<event>
 5   0  0.2904500E-09  0.3900979E+04  0.7818609E-02  0.8024826E-01
        1   -1    0    0  501    0  0.00000000000E+00  0.00000000000E+00  0.17126983650E+04  0.17126983650E+04  0.50400001928E-02 0.  1.
       -1   -1    0    0    0  501  0.00000000000E+00  0.00000000000E+00 -0.22212957934E+04  0.22212957934E+04  0.50400001928E-02 0. -1.
    10030    2    1    2    0    0  0.00000000000E+00  0.00000000000E+00 -0.50859742846E+03  0.39339941584E+04  0.39009791969E+04 0.  0.
        4    1    3    3  502    0  0.14137377678E+04 -0.79466049448E+02 -0.16070831828E+04  0.21418887222E+04  0.12699999809E+01 0. -1.
       -4    1    3    3    0  502 -0.14137377678E+04  0.79466049448E+02  0.10984857543E+04  0.17921054362E+04  0.12699999809E+01 0.  1.
</event>
<event>
 5   0  0.2904500E-09  0.3900238E+04  0.7818609E-02  0.8024980E-01
        1   -1    0    0  501    0  0.00000000000E+00  0.00000000000E+00  0.13013675157E+04  0.13013675157E+04  0.50400001928E-02 0.  1.
       -1   -1    0    0    0  501  0.00000000000E+00  0.00000000000E+00 -0.29222831096E+04  0.29222831096E+04  0.50400001928E-02 0. -1.
    10030    2    1    2    0    0  0.00000000000E+00  0.00000000000E+00 -0.16209155939E+04  0.42236506253E+04  0.39002381007E+04 0.  0.
        5    1    3    3  502    0 -0.12687091444E+04  0.11689668505E+04  0.17424803523E+03  0.17339235446E+04  0.46999998093E+01 0.  1.
       -5    1    3    3    0  502  0.12687091444E+04 -0.11689668505E+04 -0.17951636291E+04  0.24897270807E+04  0.46999998093E+01 0. -1.
</event>
<event>
 5   0  0.9368546E-09  0.3899769E+04  0.7818609E-02  0.8025077E-01
       -2   -1    0    0    0  501  0.00000000000E+00  0.00000000000E+00  0.15011923857E+04  0.15011923857E+04  0.25500000920E-02 0.  1.
        2   -1    0    0  501    0  0.00000000000E+00  0.00000000000E+00 -0.25326865831E+04  0.25326865831E+04  0.25500000920E-02 0. -1.
    10030    2    1    2    0    0  0.00000000000E+00  0.00000000000E+00 -0.10314941974E+04  0.40338789689E+04  0.38997691286E+04 0.  0.
        5    1    3    3  502    0  0.37223604118E+03  0.10490447707E+03 -0.24926115209E+04  0.25224390783E+04  0.46999998093E+01 0. -1.
       -5    1    3    3    0  502 -0.37223604118E+03 -0.10490447707E+03  0.14611173235E+04  0.15114398905E+04  0.46999998093E+01 0.  1.
</event>
<event>
 5   0  0.2904500E-09  0.3900389E+04  0.7818609E-02  0.8024948E-01
        1   -1    0    0  501    0  0.00000000000E+00  0.00000000000E+00  0.19201852635E+04  0.19201852635E+04  0.50400001928E-02 0. -1.
       -1   -1    0    0    0  501  0.00000000000E+00  0.00000000000E+00 -0.19806731684E+04  0.19806731684E+04  0.50400001928E-02 0.  1.
    10030    2    1    2    0    0  0.00000000000E+00  0.00000000000E+00 -0.60487904977E+02  0.39008584319E+04  0.39003894317E+04 0.  0.
        5    1    3    3  502    0  0.89061923037E+03 -0.12235043220E+04  0.11999738327E+04  0.19313530824E+04  0.46999998093E+01 0. -1.
       -5    1    3    3    0  502 -0.89061923037E+03  0.12235043220E+04 -0.12604617377E+04  0.19695053495E+04  0.46999998093E+01 0.  1.
</event>
<event>
 5   0  0.9434114E-09  0.3898190E+04  0.7818609E-02  0.8025406E-01
        2   -1    0    0  501    0  0.00000000000E+00  0.00000000000E+00  0.30004344452E+04  0.30004344452E+04  0.25500000920E-02 0.  1.
       -2   -1    0    0    0  501  0.00000000000E+00  0.00000000000E+00 -0.12661403950E+04  0.12661403950E+04  0.25500000920E-02 0. -1.
    10030    2    1    2    0    0  0.00000000000E+00  0.00000000000E+00  0.17342940502E+04  0.42665748402E+04  0.38981899665E+04 0.  0.
        4    1    3    3  502    0  0.30500567653E+03  0.18667532206E+04  0.13818812004E+04  0.23425185835E+04  0.12699999809E+01 0.  1.
       -4    1    3    3    0  502 -0.30500567653E+03 -0.18667532206E+04  0.35241284982E+03  0.19240562567E+04  0.12699999809E+01 0. -1.
</event>
<event>
 5   0  0.2904500E-09  0.3898695E+04  0.7818609E-02  0.8025301E-01
        1   -1    0    0  501    0  0.00000000000E+00  0.00000000000E+00  0.22107293326E+04  0.22107293326E+04  0.50400001928E-02 0.  1.
       -1   -1    0    0    0  501  0.00000000000E+00  0.00000000000E+00 -0.17188699987E+04  0.17188699987E+04  0.50400001928E-02 0. -1.
    10030    2    1    2    0    0  0.00000000000E+00  0.00000000000E+00  0.49185933391E+03  0.39295993313E+04  0.38986953331E+04 0.  0.
        2    1    3    3  502    0 -0.32223568658E+03 -0.61914656538E+03  0.20804610302E+04  0.21944239348E+04  0.25500000920E-02 0.  1.
       -2    1    3    3    0  502  0.32223568658E+03  0.61914656538E+03 -0.15886016963E+04  0.17351753965E+04  0.25500000920E-02 0. -1.
</event>
<event>
 5   0  0.9368546E-09  0.3901339E+04  0.7818609E-02  0.8024751E-01
        2   -1    0    0  501    0  0.00000000000E+00  0.00000000000E+00  0.19047590137E+04  0.19047590137E+04  0.25500000920E-02 0.  1.
       -2   -1    0    0    0  501  0.00000000000E+00  0.00000000000E+00 -0.19976862853E+04  0.19976862853E+04  0.25500000920E-02 0. -1.
    10030    2    1    2    0    0  0.00000000000E+00  0.00000000000E+00 -0.92927271566E+02  0.39024452991E+04  0.39013387233E+04 0.  0.
        5    1    3    3  502    0  0.12125182014E+04 -0.15178555442E+04 -0.22259034237E+03  0.19554166799E+04  0.46999998093E+01 0. -1.
       -5    1    3    3    0  502 -0.12125182014E+04  0.15178555442E+04  0.12966307081E+03  0.19470286191E+04  0.46999998093E+01 0.  1.
</event>
<event>
 5   0  0.2929054E-09  0.3897161E+04  0.7818609E-02  0.8025620E-01
       -1   -1    0    0    0  501  0.00000000000E+00  0.00000000000E+00  0.19054660961E+04  0.19054660961E+04  0.50400001928E-02 0.  1.
        1   -1    0    0  501    0  0.00000000000E+00  0.00000000000E+00 -0.19926704708E+04  0.19926704708E+04  0.50400001928E-02 0. -1.
    10030    2    1    2    0    0  0.00000000000E+00  0.00000000000E+00 -0.87204374725E+02  0.38981365669E+04  0.38971610297E+04 0.  0.
        1    1    3    3  502    0 -0.48599081504E+03 -0.18447343966E+04 -0.44085894848E+03  0.19579552290E+04  0.50400001928E-02 0. -1.
       -1    1    3    3    0  502  0.48599081504E+03  0.18447343966E+04  0.35365457376E+03  0.19401813379E+04  0.50400001928E-02 0.  1.
</event>
<event>
 5   0  0.9277261E-09  0.3896332E+04  0.7818609E-02  0.8025793E-01
       -2   -1    0    0    0  501  0.00000000000E+00  0.00000000000E+00  0.27973593169E+04  0.27973593169E+04  0.25500000920E-02 0.  1.
        2   -1    0    0  501    0  0.00000000000E+00  0.00000000000E+00 -0.13567617278E+04  0.13567617278E+04  0.25500000920E-02 0. -1.
    10030    2    1    2    0    0  0.00000000000E+00  0.00000000000E+00  0.14405975891E+04  0.41541210447E+04  0.38963316389E+04 0.  0.
        1    1    3    3  502    0 -0.16524320712E+04 -0.15742618591E+02 -0.37974618085E+03  0.16955785861E+04  0.50400001928E-02 0. -1.
       -1    1    3    3    0  502  0.16524320712E+04  0.15742618591E+02  0.18203437700E+04  0.24585424586E+04  0.50400001928E-02 0.  1.
</event>
<event>
 5   0  0.2904500E-09  0.3899539E+04  0.7818609E-02  0.8025125E-01
       -1   -1    0    0    0  501  0.00000000000E+00  0.00000000000E+00  0.14756316456E+04  0.14756316456E+04  0.50400001928E-02 0. -1.
        1   -1    0    0  501    0  0.00000000000E+00  0.00000000000E+00 -0.25762539105E+04  0.25762539105E+04  0.50400001928E-02 0.  1.
    10030    2    1    2    0    0  0.00000000000E+00  0.00000000000E+00 -0.11006222649E+04  0.40518855562E+04  0.38995393562E+04 0.  0.
        2    1    3    3  502    0  0.12863078735E+04 -0.64224048938E+03  0.81816159991E+03  0.16542216282E+04  0.25500000920E-02 0. -1.
       -2    1    3    3    0  502 -0.12863078735E+04  0.64224048938E+03 -0.19187838648E+04  0.23976639280E+04  0.25500000920E-02 0.  1.
</event>
<event>
 5   0  0.2904500E-09  0.3900085E+04  0.7818609E-02  0.8025012E-01
       -3   -1    0    0    0  501  0.00000000000E+00  0.00000000000E+00  0.14490238294E+04  0.14490238329E+04  0.10100000352E+00 0.  1.
        3   -1    0    0  501    0  0.00000000000E+00  0.00000000000E+00 -0.26242941581E+04  0.26242941601E+04  0.10100000352E+00 0. -1.
    10030    2    1    2    0    0  0.00000000000E+00  0.00000000000E+00 -0.11752703288E+04  0.40733179930E+04  0.39000845024E+04 0.  0.
        5    1    3    3  502    0  0.35405858538E+03 -0.69907816924E+03 -0.24526084352E+04  0.25747578518E+04  0.46999998093E+01 0. -1.
       -5    1    3    3    0  502 -0.35405858538E+03  0.69907816924E+03  0.12773381065E+04  0.14985601412E+04  0.46999998093E+01 0.  1.
</event>
<event>
 5   0  0.2904500E-09  0.3899383E+04  0.7818609E-02  0.8025158E-01
       -1   -1    0    0    0  501  0.00000000000E+00  0.00000000000E+00  0.14468260859E+04  0.14468260859E+04  0.50400001928E-02 0.  1.
        1   -1    0    0  501    0  0.00000000000E+00  0.00000000000E+00 -0.26273346431E+04  0.26273346431E+04  0.50400001928E-02 0. -1.
    10030    2    1    2    0    0  0.00000000000E+00  0.00000000000E+00 -0.11805085572E+04  0.40741607289E+04  0.38993826680E+04 0.  0.
        2    1    3    3  502    0  0.18186386134E+04 -0.69074113113E+03 -0.45512610786E+03  0.19979262975E+04  0.25500000920E-02 0.  1.
       -2    1    3    3    0  502 -0.18186386134E+04  0.69074113113E+03 -0.72538244933E+03  0.20762344314E+04  0.25500000920E-02 0. -1.
</event>
<event>
 5   0  0.9368546E-09  0.3900545E+04  0.7818609E-02  0.8024916E-01
       -2   -1    0    0    0  501  0.00000000000E+00  0.00000000000E+00  0.17598181501E+04  0.17598181501E+04  0.25500000920E-02 0.  1.
        2   -1    0    0  501    0  0.00000000000E+00  0.00000000000E+00 -0.21613385386E+04  0.21613385386E+04  0.25500000920E-02 0. -1.
    10030    2    1    2    0    0  0.00000000000E+00  0.00000000000E+00 -0.40152038851E+03  0.39211566887E+04  0.39005449818E+04 0.  0.
        5    1    3    3  502    0  0.99909876272E+03  0.96953552271E+03 -0.15737530712E+04  0.21011706943E+04  0.46999998093E+01 0. -1.
       -5    1    3    3    0  502 -0.99909876272E+03 -0.96953552271E+03  0.11722326827E+04  0.18199859944E+04  0.46999998093E+01 0.  1.
</event>
<event>
 5   0  0.9434114E-09  0.3901465E+04  0.7818609E-02  0.8024725E-01
        2   -1    0    0  501    0  0.00000000000E+00  0.00000000000E+00  0.24980662310E+04  0.24980662310E+04  0.25500000920E-02 0.  1.
       -2   -1    0    0    0  501  0.00000000000E+00  0.00000000000E+00 -0.15233213816E+04  0.15233213816E+04  0.25500000920E-02 0. -1.
    10030    2    1    2    0    0  0.00000000000E+00  0.00000000000E+00  0.97474484942E+03  0.40213876126E+04  0.39014652132E+04 0.  0.
        4    1    3    3  502    0  0.10374564561E+04 -0.11311589917E+03  0.21861349253E+04  0.24224571471E+04  0.12699999809E+01 0.  1.
       -4    1    3    3    0  502 -0.10374564561E+04  0.11311589917E+03 -0.12113900759E+04  0.15989304656E+04  0.12699999809E+01 0. -1.
</event>
<event>
 5   0  0.2904500E-09  0.3896364E+04  0.7818609E-02  0.8025786E-01
       -1   -1    0    0    0  501  0.00000000000E+00  0.00000000000E+00  0.24924374484E+04  0.24924374484E+04  0.50400001928E-02 0. -1.
        1   -1    0    0  501    0  0.00000000000E+00  0.00000000000E+00 -0.15227718696E+04  0.15227718697E+04  0.50400001928E-02 0.  1.
    10030    2    1    2    0    0  0.00000000000E+00  0.00000000000E+00  0.96966557876E+03  0.40152093181E+04  0.38963642711E+04 0.  0.
        2    1    3    3  502    0 -0.13603217493E+02  0.86525859506E+03 -0.13138444191E+04  0.15732274602E+04  0.25500000920E-02 0.  1.
       -2    1    3    3    0  502  0.13603217493E+02 -0.86525859506E+03  0.22835099979E+04  0.24419818579E+04  0.25500000920E-02 0. -1.
</event>
<event>
 5   0  0.2929054E-09  0.3900272E+04  0.7818609E-02  0.8024973E-01
        1   -1    0    0  501    0  0.00000000000E+00  0.00000000000E+00  0.26898266908E+04  0.26898266908E+04  0.50400001928E-02 0.  1.
       -1   -1    0    0    0  501  0.00000000000E+00  0.00000000000E+00 -0.14138571542E+04  0.14138571542E+04  0.50400001928E-02 0. -1.
    10030    2    1    2    0    0  0.00000000000E+00  0.00000000000E+00  0.12759695367E+04  0.41036838450E+04  0.39002721497E+04 0.  0.
        1    1    3    3  502    0 -0.26088105526E+02 -0.17171859241E+04 -0.33411746506E+03  0.17495835412E+04  0.50400001928E-02 0. -1.
       -1    1    3    3    0  502  0.26088105526E+02  0.17171859241E+04  0.16100870017E+04  0.23541003038E+04  0.50400001928E-02 0.  1.
</event>
<event>
 5   0  0.2904500E-09  0.3899658E+04  0.7818609E-02  0.8025100E-01
       -1   -1    0    0    0  501  0.00000000000E+00  0.00000000000E+00  0.14834290063E+04  0.14834290063E+04  0.50400001928E-02 0.  1.
        1   -1    0    0  501    0  0.00000000000E+00  0.00000000000E+00 -0.25628677543E+04  0.25628677544E+04  0.50400001928E-02 0. -1.
    10030    2    1    2    0    0  0.00000000000E+00  0.00000000000E+00 -0.10794387481E+04  0.40462967606E+04  0.38996576086E+04 0.  0.
        3    1    3    3  502    0  0.23132894254E+03 -0.14046861310E+04 -0.19221774854E+04  0.23919495190E+04  0.10100000352E+00 0. -1.
       -3    1    3    3    0  502 -0.23132894254E+03  0.14046861310E+04  0.84273873727E+03  0.16543472416E+04  0.10100000352E+00 0.  1.
</event>
<event>
 5   0  0.6335942E-09  0.3901618E+04  0.7818609E-02  0.8024693E-01
       -2   -1    0    0    0  501  0.00000000000E+00  0.00000000000E+00  0.16836304901E+04  0.16836304901E+04  0.25500000920E-02 0.  1.
        2   -1    0    0  501    0  0.00000000000E+00  0.00000000000E+00 -0.22603869272E+04  0.22603869272E+04  0.25500000920E-02 0. -1.
    10030    2    1    2    0    0  0.00000000000E+00  0.00000000000E+00 -0.57675643710E+03  0.39440174173E+04  0.39016183053E+04 0.  0.
        2    1    3    3  502    0 -0.12681864643E+04  0.14152568665E+04  0.15732984224E+03  0.19068302457E+04  0.25500000920E-02 0.  1.
       -2    1    3    3    0  502  0.12681864643E+04 -0.14152568665E+04 -0.73408627934E+03  0.20371871716E+04  0.25500000920E-02 0. -1.
</event>
<event>
 5   0  0.2929054E-09  0.3900724E+04  0.7818609E-02  0.8024879E-01
       -1   -1    0    0    0  501  0.00000000000E+00  0.00000000000E+00  0.24209043739E+04  0.24209043740E+04  0.50400001928E-02 0.  1.
        1   -1    0    0  501    0  0.00000000000E+00  0.00000000000E+00 -0.15712770730E+04  0.15712770731E+04  0.50400001928E-02 0. -1.
    10030    2    1    2    0    0  0.00000000000E+00  0.00000000000E+00  0.84962730090E+03  0.39921814470E+04  0.39007237989E+04 0.  0.
        1    1    3    3  502    0  0.25350985942E+02  0.19447398155E+04  0.27560122590E+03  0.19643349150E+04  0.50400001928E-02 0. -1.
       -1    1    3    3    0  502 -0.25350985942E+02 -0.19447398155E+04  0.57402607500E+03  0.20278465320E+04  0.50400001928E-02 0.  1.
</event>
<event>
 5   0  0.9368546E-09  0.3900217E+04  0.7818609E-02  0.8024984E-01
       -2   -1    0    0    0  501  0.00000000000E+00  0.00000000000E+00  0.30567646954E+04  0.30567646954E+04  0.25500000920E-02 0. -1.
        2   -1    0    0  501    0  0.00000000000E+00  0.00000000000E+00 -0.12441004925E+04  0.12441004925E+04  0.25500000920E-02 0.  1.
    10030    2    1    2    0    0  0.00000000000E+00  0.00000000000E+00  0.18126642029E+04  0.43008651878E+04  0.39002166416E+04 0.  0.
        5    1    3    3  502    0 -0.16269767093E+04  0.92110639434E+03  0.15177331997E+04  0.24081167658E+04  0.46999998093E+01 0. -1.
       -5    1    3    3    0  502  0.16269767093E+04 -0.92110639434E+03  0.29493100320E+03  0.18927484220E+04  0.46999998093E+01 0.  1.
</event>
<event>
 5   0  0.2929054E-09  0.3900848E+04  0.7818609E-02  0.8024853E-01
       -1   -1    0    0    0  501  0.00000000000E+00  0.00000000000E+00  0.29217572069E+04  0.29217572069E+04  0.50400001928E-02 0. -1.
        1   -1    0    0  501    0  0.00000000000E+00  0.00000000000E+00 -0.13020090961E+04  0.13020090962E+04  0.50400001928E-02 0.  1.
    10030    2    1    2    0    0  0.00000000000E+00  0.00000000000E+00  0.16197481108E+04  0.42237663031E+04  0.39008483488E+04 0.  0.
        1    1    3    3  502    0 -0.10858561732E+04 -0.14701539423E+04  0.15472142224E+04  0.23946415375E+04  0.50400001928E-02 0. -1.
       -1    1    3    3    0  502  0.10858561732E+04  0.14701539423E+04  0.72533888384E+02  0.18291247656E+04  0.50400001928E-02 0.  1.
</event>
<event>
 5   0  0.6335942E-09  0.3899901E+04  0.7818609E-02  0.8025050E-01
       -2   -1    0    0    0  501  0.00000000000E+00  0.00000000000E+00  0.17066515787E+04  0.17066515787E+04  0.25500000920E-02 0. -1.
        2   -1    0    0  501    0  0.00000000000E+00  0.00000000000E+00 -0.22279338504E+04  0.22279338504E+04  0.25500000920E-02 0.  1.
    10030    2    1    2    0    0  0.00000000000E+00  0.00000000000E+00 -0.52128227164E+03  0.39345854291E+04  0.38999009336E+04 0.  0.
        2    1    3    3  502    0  0.19247950547E+04 -0.31091871341E+03 -0.28918363019E+03  0.19710742302E+04  0.25500000920E-02 0.  1.
       -2    1    3    3    0  502 -0.19247950547E+04  0.31091871341E+03 -0.23209864145E+03  0.19635111989E+04  0.25500000920E-02 0. -1.
</event>
<event>
 5   0  0.2904500E-09  0.3897869E+04  0.7818609E-02  0.8025473E-01
       -1   -1    0    0    0  501  0.00000000000E+00  0.00000000000E+00  0.19272629765E+04  0.19272629765E+04  0.50400001928E-02 0.  1.
        1   -1    0    0  501    0  0.00000000000E+00  0.00000000000E+00 -0.19708492580E+04  0.19708492580E+04  0.50400001928E-02 0. -1.
    10030    2    1    2    0    0  0.00000000000E+00  0.00000000000E+00 -0.43586281504E+02  0.38981122345E+04  0.38978685494E+04 0.  0.
        5    1    3    3  502    0  0.14338463989E+04 -0.50126030327E+03 -0.12429940992E+04  0.19627108315E+04  0.46999998093E+01 0. -1.
       -5    1    3    3    0  502 -0.14338463989E+04  0.50126030327E+03  0.11994078177E+04  0.19354014030E+04  0.46999998093E+01 0.  1.
</event>
<event>
 5   0  0.9078515E-09  0.3899897E+04  0.7818609E-02  0.8025051E-01
        2   -1    0    0  501    0  0.00000000000E+00  0.00000000000E+00  0.13651834847E+04  0.13651834847E+04  0.25500000920E-02 0. -1.
       -2   -1    0    0    0  501  0.00000000000E+00  0.00000000000E+00 -0.27851932926E+04  0.27851932926E+04  0.25500000920E-02 0.  1.
    10030    2    1    2    0    0  0.00000000000E+00  0.00000000000E+00 -0.14200098079E+04  0.41503767773E+04  0.38998973754E+04 0.  0.
        3    1    3    3  502    0  0.77775205243E+03  0.13003154904E+04  0.59625809087E+03  0.16282635999E+04  0.10100000352E+00 0. -1.
       -3    1    3    3    0  502 -0.77775205243E+03 -0.13003154904E+04 -0.20162678988E+04  0.25221131774E+04  0.10100000352E+00 0.  1.
</event>
<event>
 5   0  0.2929054E-09  0.3900056E+04  0.7818609E-02  0.8025018E-01
        1   -1    0    0  501    0  0.00000000000E+00  0.00000000000E+00  0.15376542268E+04  0.15376542268E+04  0.50400001928E-02 0. -1.
       -1   -1    0    0    0  501  0.00000000000E+00  0.00000000000E+00 -0.24729937066E+04  0.24729937066E+04  0.50400001928E-02 0.  1.
    10030    2    1    2    0    0  0.00000000000E+00  0.00000000000E+00 -0.93533947986E+03  0.40106479334E+04  0.39000560128E+04 0.  0.
        1    1    3    3  502    0 -0.10816364923E+04  0.12620737769E+04 -0.15163117928E+04  0.22498820353E+04  0.50400001928E-02 0.  1.
       -1    1    3    3    0  502  0.10816364923E+04 -0.12620737769E+04  0.58097231290E+03  0.17607658982E+04  0.50400001928E-02 0. -1.
</event>
<event>
 5   0  0.2904500E-09  0.3899757E+04  0.7818609E-02  0.8025080E-01
        1   -1    0    0  501    0  0.00000000000E+00  0.00000000000E+00  0.23283044527E+04  0.23283044527E+04  0.50400001928E-02 0. -1.
       -1   -1    0    0    0  501  0.00000000000E+00  0.00000000000E+00 -0.16329589391E+04  0.16329589391E+04  0.50400001928E-02 0.  1.
    10030    2    1    2    0    0  0.00000000000E+00  0.00000000000E+00  0.69534551363E+03  0.39612633919E+04  0.38997566945E+04 0.  0.
        2    1    3    3  502    0  0.29293004450E+03  0.29621648791E+03  0.22825712081E+04  0.23202766083E+04  0.25500000920E-02 0. -1.
       -2    1    3    3    0  502 -0.29293004450E+03 -0.29621648791E+03 -0.15872256945E+04  0.16409867836E+04  0.25500000920E-02 0.  1.
</event>
<event>
 5   0  0.9078515E-09  0.3900012E+04  0.7818609E-02  0.8025027E-01
       -2   -1    0    0    0  501  0.00000000000E+00  0.00000000000E+00  0.29430780783E+04  0.29430780783E+04  0.25500000920E-02 0.  1.
        2   -1    0    0  501    0  0.00000000000E+00  0.00000000000E+00 -0.12920224659E+04  0.12920224659E+04  0.25500000920E-02 0. -1.
    10030    2    1    2    0    0  0.00000000000E+00  0.00000000000E+00  0.16510556123E+04  0.42351005442E+04  0.39000117928E+04 0.  0.
        3    1    3    3  502    0 -0.12453837694E+04  0.67520847806E+03  0.22806750075E+04  0.26848399807E+04  0.10100000352E+00 0.  1.
       -3    1    3    3    0  502  0.12453837694E+04 -0.67520847806E+03 -0.62961939513E+03  0.15502605635E+04  0.10100000352E+00 0. -1.
</event>
<event>
 5   0  0.2904500E-09  0.3898671E+04  0.7818609E-02  0.8025306E-01
       -1   -1    0    0    0  501  0.00000000000E+00  0.00000000000E+00  0.17185543096E+04  0.17185543096E+04  0.50400001928E-02 0. -1.
        1   -1    0    0  501    0  0.00000000000E+00  0.00000000000E+00 -0.22111077048E+04  0.22111077048E+04  0.50400001928E-02 0.  1.
    10030    2    1    2    0    0  0.00000000000E+00  0.00000000000E+00 -0.49255339527E+03  0.39296620144E+04  0.38986708889E+04 0.  0.
        3    1    3    3  502    0  0.12013247575E+04 -0.93707166620E+03 -0.14719296797E+04  0.21184573332E+04  0.10100000352E+00 0.  1.
       -3    1    3    3    0  502 -0.12013247575E+04  0.93707166620E+03  0.97937628441E+03  0.18112046812E+04  0.10100000352E+00 0. -1.
</event>
<event>
 5   0  0.9434114E-09  0.3898732E+04  0.7818609E-02  0.8025293E-01
       -2   -1    0    0    0  501  0.00000000000E+00  0.00000000000E+00  0.23205963269E+04  0.23205963269E+04  0.25500000920E-02 0. -1.
        2   -1    0    0  501    0  0.00000000000E+00  0.00000000000E+00 -0.16375220955E+04  0.16375220955E+04  0.25500000920E-02 0.  1.
    10030    2    1    2    0    0  0.00000000000E+00  0.00000000000E+00  0.68307423139E+03  0.39581184225E+04  0.38987319786E+04 0.  0.
        4    1    3    3  502    0 -0.34515098302E+03  0.46544786581E+03  0.22311391336E+04  0.23051582078E+04  0.12699999809E+01 0. -1.
       -4    1    3    3    0  502  0.34515098302E+03 -0.46544786581E+03 -0.15480649022E+04  0.16529602146E+04  0.12699999809E+01 0.  1.
</event>
<event>
 5   0  0.2929054E-09  0.3898323E+04  0.7818609E-02  0.8025378E-01
        1   -1    0    0  501    0  0.00000000000E+00  0.00000000000E+00  0.21913995104E+04  0.21913995105E+04  0.50400001928E-02 0. -1.
       -1   -1    0    0    0  501  0.00000000000E+00  0.00000000000E+00 -0.17337002982E+04  0.17337002982E+04  0.50400001928E-02 0.  1.
    10030    2    1    2    0    0  0.00000000000E+00  0.00000000000E+00  0.45769921229E+03  0.39250998086E+04  0.38983227084E+04 0.  0.
        1    1    3    3  502    0  0.18216001202E+04  0.27832210514E+03  0.86846086520E+03  0.20371338853E+04  0.50400001928E-02 0. -1.
       -1    1    3    3    0  502 -0.18216001202E+04 -0.27832210514E+03 -0.41076165291E+03  0.18879659233E+04  0.50400001928E-02 0.  1.
</event>
<event>
 5   0  0.6335942E-09  0.3898564E+04  0.7818609E-02  0.8025328E-01
       -2   -1    0    0    0  501  0.00000000000E+00  0.00000000000E+00  0.16053008353E+04  0.16053008353E+04  0.25500000920E-02 0.  1.
        2   -1    0    0  501    0  0.00000000000E+00  0.00000000000E+00 -0.23669703390E+04  0.23669703390E+04  0.25500000920E-02 0. -1.
    10030    2    1    2    0    0  0.00000000000E+00  0.00000000000E+00 -0.76166950369E+03  0.39722711743E+04  0.38985635623E+04 0.  0.
        2    1    3    3  502    0 -0.16355429796E+04 -0.97052133657E+03 -0.81645381195E+03  0.20696640621E+04  0.25500000920E-02 0. -1.
       -2    1    3    3    0  502  0.16355429796E+04  0.97052133657E+03  0.54784308258E+02  0.19026071122E+04  0.25500000920E-02 0.  1.
</event>
<event>
 5   0  0.2904500E-09  0.3898957E+04  0.7818609E-02  0.8025246E-01
        1   -1    0    0  501    0  0.00000000000E+00  0.00000000000E+00  0.20798356846E+04  0.20798356846E+04  0.50400001928E-02 0. -1.
       -1   -1    0    0    0  501  0.00000000000E+00  0.00000000000E+00 -0.18272919210E+04  0.18272919210E+04  0.50400001928E-02 0.  1.
    10030    2    1    2    0    0  0.00000000000E+00  0.00000000000E+00  0.25254376364E+03  0.39071276056E+04  0.38989572675E+04 0.  0.
        3    1    3    3  502    0  0.73992580395E+03 -0.11944497689E+04  0.14804980293E+04  0.20410964873E+04  0.10100000352E+00 0. -1.
       -3    1    3    3    0  502 -0.73992580395E+03  0.11944497689E+04 -0.12279542656E+04  0.18660311183E+04  0.10100000352E+00 0.  1.
</event>
<event>
 5   0  0.6335942E-09  0.3900312E+04  0.7818609E-02  0.8024964E-01
        2   -1    0    0  501    0  0.00000000000E+00  0.00000000000E+00  0.21812359863E+04  0.21812359863E+04  0.25500000920E-02 0.  1.
       -2   -1    0    0    0  501  0.00000000000E+00  0.00000000000E+00 -0.17435566000E+04  0.17435566000E+04  0.25500000920E-02 0. -1.
    10030    2    1    2    0    0  0.00000000000E+00  0.00000000000E+00  0.43767938634E+03  0.39247925863E+04  0.39003119876E+04 0.  0.
        2    1    3    3  502    0 -0.53187389174E+03 -0.18685098510E+04  0.38987563215E+03  0.19814696335E+04  0.25500000920E-02 0.  1.
       -2    1    3    3    0  502  0.53187389174E+03  0.18685098510E+04  0.47803754188E+02  0.19433229528E+04  0.25500000920E-02 0. -1.
</event>
<event>
 5   0  0.9277261E-09  0.3902216E+04  0.7818609E-02  0.8024568E-01
        2   -1    0    0  501    0  0.00000000000E+00  0.00000000000E+00  0.18515643400E+04  0.18515643400E+04  0.25500000920E-02 0. -1.
       -2   -1    0    0    0  501  0.00000000000E+00  0.00000000000E+00 -0.20560034746E+04  0.20560034746E+04  0.25500000920E-02 0.  1.
    10030    2    1    2    0    0  0.00000000000E+00  0.00000000000E+00 -0.20443913459E+03  0.39075678147E+04  0.39022161481E+04 0.  0.
        1    1    3    3  502    0  0.86775346289E+03 -0.49851158834E+03 -0.17794234218E+04  0.20415331470E+04  0.50400001928E-02 0.  1.
       -1    1    3    3    0  502 -0.86775346289E+03  0.49851158834E+03  0.15749842872E+04  0.18660346677E+04  0.50400001928E-02 0. -1.
</event>
<event>
 5   0  0.2904500E-09  0.3900193E+04  0.7818609E-02  0.8024989E-01
        1   -1    0    0  501    0  0.00000000000E+00  0.00000000000E+00  0.20467671442E+04  0.20467671442E+04  0.50400001928E-02 0. -1.
       -1   -1    0    0    0  501  0.00000000000E+00  0.00000000000E+00 -0.18579912767E+04  0.18579912767E+04  0.50400001928E-02 0.  1.
    10030    2    1    2    0    0  0.00000000000E+00  0.00000000000E+00  0.18877586743E+03  0.39047584209E+04  0.39001925590E+04 0.  0.
        3    1    3    3  502    0 -0.83108721856E+03 -0.16940891658E+04  0.58713422099E+03  0.19762010703E+04  0.10100000352E+00 0.  1.
       -3    1    3    3    0  502  0.83108721856E+03  0.16940891658E+04 -0.39835835357E+03  0.19285573506E+04  0.10100000352E+00 0. -1.
</event>
<event>
 5   0  0.2904500E-09  0.3898488E+04  0.7818609E-02  0.8025344E-01
       -1   -1    0    0    0  501  0.00000000000E+00  0.00000000000E+00  0.22243459240E+04  0.22243459240E+04  0.50400001928E-02 0.  1.
        1   -1    0    0  501    0  0.00000000000E+00  0.00000000000E+00 -0.17081657895E+04  0.17081657895E+04  0.50400001928E-02 0. -1.
    10030    2    1    2    0    0  0.00000000000E+00  0.00000000000E+00  0.51618013457E+03  0.39325117135E+04  0.38984877127E+04 0.  0.
        5    1    3    3  502    0 -0.91625570317E+03 -0.30150196823E+03  0.19667153044E+04  0.21905294176E+04  0.46999998093E+01 0.  1.
       -5    1    3    3    0  502  0.91625570317E+03  0.30150196823E+03 -0.14505351699E+04  0.17419822960E+04  0.46999998093E+01 0. -1.
</event>
<event>
 5   0  0.2904500E-09  0.3896527E+04  0.7818609E-02  0.8025752E-01
       -1   -1    0    0    0  501  0.00000000000E+00  0.00000000000E+00  0.14961230853E+04  0.14961230853E+04  0.50400001928E-02 0. -1.
        1   -1    0    0  501    0  0.00000000000E+00  0.00000000000E+00 -0.25370438823E+04  0.25370438823E+04  0.50400001928E-02 0.  1.
    10030    2    1    2    0    0  0.00000000000E+00  0.00000000000E+00 -0.10409207970E+04  0.40331669676E+04  0.38965266177E+04 0.  0.
        3    1    3    3  502    0  0.45521048882E+03  0.15301058716E+04  0.63552449871E+03  0.17182351312E+04  0.10100000352E+00 0. -1.
       -3    1    3    3    0  502 -0.45521048882E+03 -0.15301058716E+04 -0.16764452957E+04  0.23149318364E+04  0.10100000352E+00 0.  1.
</event>
<event>
 5   0  0.2904500E-09  0.3912262E+04  0.7818609E-02  0.8022484E-01
        1   -1    0    0  501    0  0.00000000000E+00  0.00000000000E+00  0.18785254705E+04  0.18785254705E+04  0.50400001928E-02 0. -1.
       -1   -1    0    0    0  501  0.00000000000E+00  0.00000000000E+00 -0.20369429810E+04  0.20369429810E+04  0.50400001928E-02 0.  1.
    10030    2    1    2    0    0  0.00000000000E+00  0.00000000000E+00 -0.15841751054E+03  0.39154684515E+04  0.39122624001E+04 0.  0.
        5    1    3    3  502    0 -0.11893879555E+04 -0.15402408418E+04  0.11955314444E+03  0.19496924382E+04  0.46999998093E+01 0. -1.
       -5    1    3    3    0  502  0.11893879555E+04  0.15402408418E+04 -0.27797065499E+03  0.19657760133E+04  0.46999998093E+01 0.  1.
</event>
<event>
 5   0  0.6335942E-09  0.3899568E+04  0.7818609E-02  0.8025119E-01
        2   -1    0    0  501    0  0.00000000000E+00  0.00000000000E+00  0.25353902981E+04  0.25353902981E+04  0.25500000920E-02 0.  1.
       -2   -1    0    0    0  501  0.00000000000E+00  0.00000000000E+00 -0.14994368780E+04  0.14994368780E+04  0.25500000920E-02 0. -1.
    10030    2    1    2    0    0  0.00000000000E+00  0.00000000000E+00  0.10359534200E+04  0.40348271761E+04  0.38995680341E+04 0.  0.
        2    1    3    3  502    0 -0.50827860110E+03  0.18210396249E+04  0.24869723644E+02  0.18908069587E+04  0.25500000920E-02 0. -1.
       -2    1    3    3    0  502  0.50827860110E+03 -0.18210396249E+04  0.10110836964E+04  0.21440202174E+04  0.25500000920E-02 0.  1.
</event>
<event>
 5   0  0.2929054E-09  0.3895102E+04  0.7818609E-02  0.8026049E-01
        1   -1    0    0  501    0  0.00000000000E+00  0.00000000000E+00  0.23030867588E+04  0.23030867588E+04  0.50400001928E-02 0.  1.
       -1   -1    0    0    0  501  0.00000000000E+00  0.00000000000E+00 -0.16469001649E+04  0.16469001649E+04  0.50400001928E-02 0. -1.
    10030    2    1    2    0    0  0.00000000000E+00  0.00000000000E+00  0.65618659394E+03  0.39499869237E+04  0.38951015200E+04 0.  0.
        1    1    3    3  502    0 -0.13619795960E+04  0.38553271641E+03 -0.10284139129E+04  0.17496454131E+04  0.50400001928E-02 0.  1.
       -1    1    3    3    0  502  0.13619795960E+04 -0.38553271641E+03  0.16846005069E+04  0.22003415106E+04  0.50400001928E-02 0. -1.
</event>
<event>
 5   0  0.9277261E-09  0.3901877E+04  0.7818609E-02  0.8024639E-01
        2   -1    0    0  501    0  0.00000000000E+00  0.00000000000E+00  0.18567796862E+04  0.18567796862E+04  0.25500000920E-02 0. -1.
       -2   -1    0    0    0  501  0.00000000000E+00  0.00000000000E+00 -0.20498722160E+04  0.20498722160E+04  0.25500000920E-02 0.  1.
    10030    2    1    2    0    0  0.00000000000E+00  0.00000000000E+00 -0.19309252984E+03  0.39066519022E+04  0.39018770304E+04 0.  0.
        1    1    3    3  502    0  0.19320785812E+04 -0.69702284466E+02  0.16525993443E+03  0.19403857602E+04  0.50400001928E-02 0.  1.
       -1    1    3    3    0  502 -0.19320785812E+04  0.69702284466E+02 -0.35835246427E+03  0.19662661420E+04  0.50400001928E-02 0. -1.
</event>
<event>
 5   0  0.9434114E-09  0.3899148E+04  0.7818609E-02  0.8025206E-01
       -2   -1    0    0    0  501  0.00000000000E+00  0.00000000000E+00  0.26328138184E+04  0.26328138184E+04  0.25500000920E-02 0. -1.
        2   -1    0    0  501    0  0.00000000000E+00  0.00000000000E+00 -0.14436412191E+04  0.14436412191E+04  0.25500000920E-02 0.  1.
    10030    2    1    2    0    0  0.00000000000E+00  0.00000000000E+00  0.11891725993E+04  0.40764550374E+04  0.38991478815E+04 0.  0.
        4    1    3    3  502    0 -0.16563101719E+04 -0.68974760726E+02  0.16672623115E+04  0.23511457061E+04  0.12699999809E+01 0. -1.
       -4    1    3    3    0  502  0.16563101719E+04  0.68974760726E+02 -0.47808971219E+03  0.17253093314E+04  0.12699999809E+01 0.  1.
</event>
<event>
 5   0  0.2904500E-09  0.3900328E+04  0.7818609E-02  0.8024961E-01
        1   -1    0    0  501    0  0.00000000000E+00  0.00000000000E+00  0.25003803696E+04  0.25003803696E+04  0.50400001928E-02 0. -1.
       -1   -1    0    0    0  501  0.00000000000E+00  0.00000000000E+00 -0.15210243454E+04  0.15210243454E+04  0.50400001928E-02 0.  1.
    10030    2    1    2    0    0  0.00000000000E+00  0.00000000000E+00  0.97935602420E+03  0.40214047150E+04  0.39003278913E+04 0.  0.
        3    1    3    3  502    0  0.94555677567E+03 -0.34663106857E+03  0.22115220532E+04  0.24300330277E+04  0.10100000352E+00 0. -1.
       -3    1    3    3    0  502 -0.94555677567E+03  0.34663106857E+03 -0.12321660290E+04  0.15913716872E+04  0.10100000352E+00 0.  1.
</event>
<event>
 5   0  0.9277261E-09  0.3879512E+04  0.7818609E-02  0.8029304E-01
       -2   -1    0    0    0  501  0.00000000000E+00  0.00000000000E+00  0.11661084895E+04  0.11661084895E+04  0.25500000920E-02 0. -1.
        2   -1    0    0  501    0  0.00000000000E+00  0.00000000000E+00 -0.32266755672E+04  0.32266755672E+04  0.25500000920E-02 0.  1.
    10030    2    1    2    0    0  0.00000000000E+00  0.00000000000E+00 -0.20605670777E+04  0.43927840566E+04  0.38795122228E+04 0.  0.
        1    1    3    3  502    0  0.91146692445E+03 -0.16059981359E+04 -0.17026960499E+04  0.25118072786E+04  0.50400001928E-02 0.  1.
       -1    1    3    3    0  502 -0.91146692445E+03  0.16059981359E+04 -0.35787102784E+03  0.18809767780E+04  0.50400001928E-02 0. -1.
</event>
<event>
 5   0  0.9277261E-09  0.3902081E+04  0.7818609E-02  0.8024597E-01
       -2   -1    0    0    0  501  0.00000000000E+00  0.00000000000E+00  0.16991894526E+04  0.16991894526E+04  0.25500000920E-02 0. -1.
        2   -1    0    0  501    0  0.00000000000E+00  0.00000000000E+00 -0.22402199904E+04  0.22402199904E+04  0.25500000920E-02 0.  1.
    10030    2    1    2    0    0  0.00000000000E+00  0.00000000000E+00 -0.54103053781E+03  0.39394094430E+04  0.39020805625E+04 0.  0.
        1    1    3    3  502    0 -0.15217861125E+04 -0.37801676050E+03 -0.14425816618E+04  0.21306739531E+04  0.50400001928E-02 0.  1.
       -1    1    3    3    0  502  0.15217861125E+04  0.37801676050E+03  0.90155112398E+03  0.18087354899E+04  0.50400001928E-02 0. -1.
</event>
<event>
 5   0  0.2904500E-09  0.3896525E+04  0.7818609E-02  0.8025752E-01
       -1   -1    0    0    0  501  0.00000000000E+00  0.00000000000E+00  0.17619122797E+04  0.17619122797E+04  0.50400001928E-02 0. -1.
        1   -1    0    0  501    0  0.00000000000E+00  0.00000000000E+00 -0.21543225507E+04  0.21543225507E+04  0.50400001928E-02 0.  1.
    10030    2    1    2    0    0  0.00000000000E+00  0.00000000000E+00 -0.39241027096E+03  0.39162348304E+04  0.38965253016E+04 0.  0.
        2    1    3    3  502    0  0.80129242828E+03  0.12531732546E+04 -0.14608282555E+04  0.20848337953E+04  0.25500000920E-02 0.  1.
       -2    1    3    3    0  502 -0.80129242828E+03 -0.12531732546E+04  0.10684179845E+04  0.18314010351E+04  0.25500000920E-02 0. -1.
</event>
<event>
 5   0  0.2904500E-09  0.3901452E+04  0.7818609E-02  0.8024727E-01
        1   -1    0    0  501    0  0.00000000000E+00  0.00000000000E+00  0.20327242528E+04  0.20327242528E+04  0.50400001928E-02 0. -1.
       -1   -1    0    0    0  501  0.00000000000E+00  0.00000000000E+00 -0.18720353116E+04  0.18720353116E+04  0.50400001928E-02 0.  1.
    10030    2    1    2    0    0  0.00000000000E+00  0.00000000000E+00  0.16068894120E+03  0.39047595644E+04  0.39014518221E+04 0.  0.
        5    1    3    3  502    0 -0.10363718915E+04  0.16497422601E+04  0.17837274031E+03  0.19564138485E+04  0.46999998093E+01 0.  1.
       -5    1    3    3    0  502  0.10363718915E+04 -0.16497422601E+04 -0.17683799115E+02  0.19483457159E+04  0.46999998093E+01 0. -1.
</event>
<event>
 5   0  0.2904500E-09  0.3901277E+04  0.7818609E-02  0.8024764E-01
        1   -1    0    0  501    0  0.00000000000E+00  0.00000000000E+00  0.28556289922E+04  0.28556289922E+04  0.50400001928E-02 0. -1.
       -1   -1    0    0    0  501  0.00000000000E+00  0.00000000000E+00 -0.13324529641E+04  0.13324529641E+04  0.50400001928E-02 0.  1.
    10030    2    1    2    0    0  0.00000000000E+00  0.00000000000E+00  0.15231760280E+04  0.41880819563E+04  0.39012773883E+04 0.  0.
        4    1    3    3  502    0 -0.14379859731E+04  0.12167376995E+04  0.13055283069E+04  0.22918682469E+04  0.12699999809E+01 0.  1.
       -4    1    3    3    0  502  0.14379859731E+04 -0.12167376995E+04  0.21764772112E+03  0.18962137094E+04  0.12699999809E+01 0. -1.
</event>
<event>
 5   0  0.9078515E-09  0.3899664E+04  0.7818609E-02  0.8025099E-01
        2   -1    0    0  501    0  0.00000000000E+00  0.00000000000E+00  0.16156070610E+04  0.16156070610E+04  0.25500000920E-02 0.  1.
       -2   -1    0    0    0  501  0.00000000000E+00  0.00000000000E+00 -0.23531994092E+04  0.23531994092E+04  0.25500000920E-02 0. -1.
    10030    2    1    2    0    0  0.00000000000E+00  0.00000000000E+00 -0.73759234814E+03  0.39688064702E+04  0.38996643863E+04 0.  0.
        3    1    3    3  502    0 -0.15686060054E+03 -0.37081759496E+02 -0.23464074709E+04  0.23519371451E+04  0.10100000352E+00 0. -1.
       -3    1    3    3    0  502  0.15686060054E+03  0.37081759496E+02  0.16088151228E+04  0.16168693251E+04  0.10100000352E+00 0.  1.
</event>
<event>
 5   0  0.9078515E-09  0.3896768E+04  0.7818609E-02  0.8025702E-01
       -2   -1    0    0    0  501  0.00000000000E+00  0.00000000000E+00  0.13881835622E+04  0.13881835622E+04  0.25500000920E-02 0.  1.
        2   -1    0    0  501    0  0.00000000000E+00  0.00000000000E+00 -0.27346530566E+04  0.27346530566E+04  0.25500000920E-02 0. -1.
    10030    2    1    2    0    0  0.00000000000E+00  0.00000000000E+00 -0.13464694943E+04  0.41228366188E+04  0.38967681078E+04 0.  0.
        3    1    3    3  502    0  0.15840158915E+04 -0.11343473493E+04 -0.69303284423E+03  0.20678841329E+04  0.10100000352E+00 0.  1.
       -3    1    3    3    0  502 -0.15840158915E+04  0.11343473493E+04 -0.65343665011E+03  0.20549524859E+04  0.10100000352E+00 0. -1.
</event>
<event>
 5   0  0.6335942E-09  0.3900312E+04  0.7818609E-02  0.8024964E-01
        2   -1    0    0  501    0  0.00000000000E+00  0.00000000000E+00  0.26214495945E+04  0.26214495945E+04  0.25500000920E-02 0.  1.
       -2   -1    0    0    0  501  0.00000000000E+00  0.00000000000E+00 -0.14507656821E+04  0.14507656821E+04  0.25500000920E-02 0. -1.
    10030    2    1    2    0    0  0.00000000000E+00  0.00000000000E+00  0.11706839124E+04  0.40722152766E+04  0.39003123511E+04 0.  0.
        2    1    3    3  502    0  0.80645358033E+03  0.12923406938E+04  0.18566269995E+04  0.24015777441E+04  0.25500000920E-02 0.  1.
       -2    1    3    3    0  502 -0.80645358033E+03 -0.12923406938E+04 -0.68594308707E+03  0.16706375324E+04  0.25500000920E-02 0. -1.
</event>
<event>
 5   0  0.9078515E-09  0.3901303E+04  0.7818609E-02  0.8024758E-01
       -2   -1    0    0    0  501  0.00000000000E+00  0.00000000000E+00  0.17041653539E+04  0.17041653539E+04  0.25500000920E-02 0. -1.
        2   -1    0    0  501    0  0.00000000000E+00  0.00000000000E+00 -0.22327884524E+04  0.22327884524E+04  0.25500000920E-02 0.  1.
    10030    2    1    2    0    0  0.00000000000E+00  0.00000000000E+00 -0.52862309855E+03  0.39369538063E+04  0.39013027173E+04 0.  0.
        3    1    3    3  502    0  0.18672073777E+04  0.34975931546E+03 -0.71135608533E+03  0.20285025167E+04  0.10100000352E+00 0.  1.
       -3    1    3    3    0  502 -0.18672073777E+04 -0.34975931546E+03  0.18273298678E+03  0.19084512896E+04  0.10100000352E+00 0. -1.
</event>
<event>
 5   0  0.2904500E-09  0.3900024E+04  0.7818609E-02  0.8025024E-01
       -1   -1    0    0    0  501  0.00000000000E+00  0.00000000000E+00  0.18633165687E+04  0.18633165687E+04  0.50400001928E-02 0. -1.
        1   -1    0    0  501    0  0.00000000000E+00  0.00000000000E+00 -0.20407411070E+04  0.20407411070E+04  0.50400001928E-02 0.  1.
    10030    2    1    2    0    0  0.00000000000E+00  0.00000000000E+00 -0.17742453823E+03  0.39040576757E+04  0.39000239574E+04 0.  0.
        5    1    3    3  502    0  0.11112837285E+04  0.28633512464E+03  0.14894922618E+04  0.18803054584E+04  0.46999998093E+01 0.  1.
       -5    1    3    3    0  502 -0.11112837285E+04 -0.28633512464E+03 -0.16669168001E+04  0.20237522173E+04  0.46999998093E+01 0. -1.
</event>
<event>
 5   0  0.2904500E-09  0.3901764E+04  0.7818609E-02  0.8024663E-01
        1   -1    0    0  501    0  0.00000000000E+00  0.00000000000E+00  0.27705465429E+04  0.27705465429E+04  0.50400001928E-02 0. -1.
       -1   -1    0    0    0  501  0.00000000000E+00  0.00000000000E+00 -0.13737144664E+04  0.13737144664E+04  0.50400001928E-02 0.  1.
    10030    2    1    2    0    0  0.00000000000E+00  0.00000000000E+00  0.13968320765E+04  0.41442610093E+04  0.39017636350E+04 0.  0.
        4    1    3    3  502    0 -0.62173997182E+02  0.95840978551E+03  0.25020478138E+04  0.26800484694E+04  0.12699999809E+01 0. -1.
       -4    1    3    3    0  502  0.62173997182E+02 -0.95840978551E+03 -0.11052157373E+04  0.14642125398E+04  0.12699999809E+01 0.  1.
</event>
<event>
 5   0  0.2904500E-09  0.3896869E+04  0.7818609E-02  0.8025681E-01
        1   -1    0    0  501    0  0.00000000000E+00  0.00000000000E+00  0.12111840585E+04  0.12111840585E+04  0.50400001928E-02 0. -1.
       -1   -1    0    0    0  501  0.00000000000E+00  0.00000000000E+00 -0.31344506801E+04  0.31344506801E+04  0.50400001928E-02 0.  1.
    10030    2    1    2    0    0  0.00000000000E+00  0.00000000000E+00 -0.19232666217E+04  0.43456347386E+04  0.38968688435E+04 0.  0.
        5    1    3    3  502    0 -0.59964692977E+02  0.95072437893E+02  0.12075591095E+04  0.12127883681E+04  0.46999998093E+01 0. -1.
       -5    1    3    3    0  502  0.59964692977E+02 -0.95072437893E+02 -0.31308257311E+04  0.31328463706E+04  0.46999998093E+01 0.  1.
</event>
<event>
 5   0  0.2904500E-09  0.3916865E+04  0.7818609E-02  0.8021531E-01
        1   -1    0    0  501    0  0.00000000000E+00  0.00000000000E+00  0.22683798053E+04  0.22683798053E+04  0.50400001928E-02 0. -1.
       -1   -1    0    0    0  501  0.00000000000E+00  0.00000000000E+00 -0.16908355961E+04  0.16908355961E+04  0.50400001928E-02 0.  1.
    10030    2    1    2    0    0  0.00000000000E+00  0.00000000000E+00  0.57754420921E+03  0.39592154014E+04  0.39168647259E+04 0.  0.
        4    1    3    3  502    0 -0.13052573484E+04  0.14374403584E+04  0.30027473744E+02  0.19418637418E+04  0.12699999809E+01 0.  1.
       -4    1    3    3    0  502  0.13052573484E+04 -0.14374403584E+04  0.54751673547E+03  0.20173516595E+04  0.12699999809E+01 0. -1.
</event>
<event>
 5   0  0.9078515E-09  0.3898089E+04  0.7818609E-02  0.8025427E-01
       -2   -1    0    0    0  501  0.00000000000E+00  0.00000000000E+00  0.13445098581E+04  0.13445098581E+04  0.25500000920E-02 0.  1.
        2   -1    0    0  501    0  0.00000000000E+00  0.00000000000E+00 -0.28253967851E+04  0.28253967851E+04  0.25500000920E-02 0. -1.
    10030    2    1    2    0    0  0.00000000000E+00  0.00000000000E+00 -0.14808869269E+04  0.41699066432E+04  0.38980886756E+04 0.  0.
        3    1    3    3  502    0 -0.95865429760E+03  0.16952486324E+04 -0.82252629639E+03  0.21141039488E+04  0.10100000352E+00 0. -1.
       -3    1    3    3    0  502  0.95865429760E+03 -0.16952486324E+04 -0.65836063055E+03  0.20558026944E+04  0.10100000352E+00 0.  1.
</event>
<event>
 5   0  0.2904500E-09  0.3900594E+04  0.7818609E-02  0.8024906E-01
        1   -1    0    0  501    0  0.00000000000E+00  0.00000000000E+00  0.26329491742E+04  0.26329491742E+04  0.50400001928E-02 0.  1.
       -1   -1    0    0    0  501  0.00000000000E+00  0.00000000000E+00 -0.14446382788E+04  0.14446382788E+04  0.50400001928E-02 0. -1.
    10030    2    1    2    0    0  0.00000000000E+00  0.00000000000E+00  0.11883108954E+04  0.40775874530E+04  0.39005943974E+04 0.  0.
        3    1    3    3  502    0  0.70726581467E+02  0.19490137934E+04  0.59568354636E+03  0.20392390526E+04  0.10100000352E+00 0.  1.
       -3    1    3    3    0  502 -0.70726581467E+02 -0.19490137934E+04  0.59262734907E+03  0.20383484004E+04  0.10100000352E+00 0. -1.
</event>
<event>
 5   0  0.9368546E-09  0.3902648E+04  0.7818609E-02  0.8024479E-01
       -2   -1    0    0    0  501  0.00000000000E+00  0.00000000000E+00  0.12466758271E+04  0.12466758271E+04  0.25500000920E-02 0.  1.
        2   -1    0    0  501    0  0.00000000000E+00  0.00000000000E+00 -0.30542540567E+04  0.30542540567E+04  0.25500000920E-02 0. -1.
    10030    2    1    2    0    0  0.00000000000E+00  0.00000000000E+00 -0.18075782296E+04  0.43009298838E+04  0.39026476665E+04 0.  0.
        5    1    3    3  502    0 -0.74264202000E+03  0.18044704371E+04 -0.90758822892E+03  0.21520616189E+04  0.46999998093E+01 0. -1.
       -5    1    3    3    0  502  0.74264202000E+03 -0.18044704371E+04 -0.89999000065E+03  0.21488682648E+04  0.46999998093E+01 0.  1.
</event>
<event>
 5   0  0.9078515E-09  0.3900290E+04  0.7818609E-02  0.8024969E-01
        2   -1    0    0  501    0  0.00000000000E+00  0.00000000000E+00  0.25583295954E+04  0.25583295954E+04  0.25500000920E-02 0.  1.
       -2   -1    0    0    0  501  0.00000000000E+00  0.00000000000E+00 -0.14865425572E+04  0.14865425572E+04  0.25500000920E-02 0. -1.
    10030    2    1    2    0    0  0.00000000000E+00  0.00000000000E+00  0.10717870383E+04  0.40448721526E+04  0.39002901528E+04 0.  0.
        3    1    3    3  502    0 -0.57988433965E+03 -0.45952494574E+03  0.24071178519E+04  0.25182623744E+04  0.10100000352E+00 0.  1.
       -3    1    3    3    0  502  0.57988433965E+03  0.45952494574E+03 -0.13353308136E+04  0.15266097783E+04  0.10100000352E+00 0. -1.
</event>
<event>
 5   0  0.2904500E-09  0.3898428E+04  0.7818609E-02  0.8025356E-01
       -1   -1    0    0    0  501  0.00000000000E+00  0.00000000000E+00  0.14072783348E+04  0.14072783348E+04  0.50400001928E-02 0. -1.
        1   -1    0    0  501    0  0.00000000000E+00  0.00000000000E+00 -0.26998457256E+04  0.26998457256E+04  0.50400001928E-02 0.  1.
    10030    2    1    2    0    0  0.00000000000E+00  0.00000000000E+00 -0.12925673908E+04  0.41071240604E+04  0.38984275789E+04 0.  0.
        3    1    3    3  502    0 -0.30931565289E+03 -0.16758145379E+04  0.35063061208E+03  0.17398196386E+04  0.10100000352E+00 0. -1.
       -3    1    3    3    0  502  0.30931565289E+03  0.16758145379E+04 -0.16431980029E+04  0.23673044218E+04  0.10100000352E+00 0.  1.
</event>
<event>
 5   0  0.9434114E-09  0.3900864E+04  0.7818609E-02  0.8024849E-01
        2   -1    0    0  501    0  0.00000000000E+00  0.00000000000E+00  0.14648351136E+04  0.14648351136E+04  0.25500000920E-02 0. -1.
       -2   -1    0    0    0  501  0.00000000000E+00  0.00000000000E+00 -0.25970061258E+04  0.25970061258E+04  0.25500000920E-02 0.  1.
    10030    2    1    2    0    0  0.00000000000E+00  0.00000000000E+00 -0.11321710122E+04  0.40618412394E+04  0.39008643982E+04 0.  0.
        4    1    3    3  502    0  0.90586951130E+03  0.11422118412E+04  0.78312355989E+03  0.16548509252E+04  0.12699999809E+01 0. -1.
       -4    1    3    3    0  502 -0.90586951130E+03 -0.11422118412E+04 -0.19152945721E+04  0.24069903142E+04  0.12699999809E+01 0.  1.
</event>
<event>
 5   0  0.9368546E-09  0.3900315E+04  0.7818609E-02  0.8024964E-01
       -2   -1    0    0    0  501  0.00000000000E+00  0.00000000000E+00  0.22970404472E+04  0.22970404472E+04  0.25500000920E-02 0.  1.
        2   -1    0    0  501    0  0.00000000000E+00  0.00000000000E+00 -0.16556584386E+04  0.16556584386E+04  0.25500000920E-02 0. -1.
    10030    2    1    2    0    0  0.00000000000E+00  0.00000000000E+00  0.64138200856E+03  0.39526988858E+04  0.39003150643E+04 0.  0.
        5    1    3    3  502    0  0.18712405353E+04 -0.26774110319E+03 -0.16519153031E+03  0.18975080424E+04  0.46999998093E+01 0. -1.
       -5    1    3    3    0  502 -0.18712405353E+04  0.26774110319E+03  0.80657353888E+03  0.20551908434E+04  0.46999998093E+01 0.  1.
</event>
<event>
 5   0  0.2904500E-09  0.3899830E+04  0.7818609E-02  0.8025065E-01
       -1   -1    0    0    0  501  0.00000000000E+00  0.00000000000E+00  0.22123595586E+04  0.22123595587E+04  0.50400001928E-02 0.  1.
        1   -1    0    0  501    0  0.00000000000E+00  0.00000000000E+00 -0.17186033975E+04  0.17186033975E+04  0.50400001928E-02 0. -1.
    10030    2    1    2    0    0  0.00000000000E+00  0.00000000000E+00  0.49375616115E+03  0.39309629562E+04  0.38998300753E+04 0.  0.
        2    1    3    3  502    0 -0.25971416266E+02 -0.47600647208E+03 -0.16589597506E+04  0.17260950525E+04  0.25500000920E-02 0. -1.
       -2    1    3    3    0  502  0.25971416266E+02  0.47600647208E+03  0.21527159118E+04  0.22048679037E+04  0.25500000920E-02 0.  1.
</event>
<event>
 5   0  0.2904500E-09  0.3900201E+04  0.7818609E-02  0.8024987E-01
       -1   -1    0    0    0  501  0.00000000000E+00  0.00000000000E+00  0.23263811800E+04  0.23263811800E+04  0.50400001928E-02 0.  1.
        1   -1    0    0  501    0  0.00000000000E+00  0.00000000000E+00 -0.16346814699E+04  0.16346814699E+04  0.50400001928E-02 0. -1.
    10030    2    1    2    0    0  0.00000000000E+00  0.00000000000E+00  0.69169971010E+03  0.39610626499E+04  0.39002011266E+04 0.  0.
        4    1    3    3  502    0  0.17898930906E+04  0.25388023455E+03  0.10885049568E+04  0.21102173118E+04  0.12699999809E+01 0.  1.
       -4    1    3    3    0  502 -0.17898930906E+04 -0.25388023455E+03 -0.39680524665E+03  0.18508453382E+04  0.12699999809E+01 0. -1.
</event>
<event>
 5   0  0.2904500E-09  0.3901429E+04  0.7818609E-02  0.8024732E-01
       -1   -1    0    0    0  501  0.00000000000E+00  0.00000000000E+00  0.27417746288E+04  0.27417746288E+04  0.50400001928E-02 0. -1.
        1   -1    0    0  501    0  0.00000000000E+00  0.00000000000E+00 -0.13878919209E+04  0.13878919209E+04  0.50400001928E-02 0.  1.
    10030    2    1    2    0    0  0.00000000000E+00  0.00000000000E+00  0.13538827079E+04  0.41296665498E+04  0.39014288954E+04 0.  0.
        3    1    3    3  502    0  0.59440642159E+03 -0.13366078864E+04 -0.68907760027E+03  0.16169933783E+04  0.10100000352E+00 0.  1.
       -3    1    3    3    0  502 -0.59440642159E+03  0.13366078864E+04  0.20429603082E+04  0.25126731715E+04  0.10100000352E+00 0. -1.
</event>
<event>
 5   0  0.2904500E-09  0.3897802E+04  0.7818609E-02  0.8025486E-01
        1   -1    0    0  501    0  0.00000000000E+00  0.00000000000E+00  0.25698346968E+04  0.25698346968E+04  0.50400001928E-02 0.  1.
       -1   -1    0    0    0  501  0.00000000000E+00  0.00000000000E+00 -0.14780000612E+04  0.14780000612E+04  0.50400001928E-02 0. -1.
    10030    2    1    2    0    0  0.00000000000E+00  0.00000000000E+00  0.10918346355E+04  0.40478347580E+04  0.38978023753E+04 0.  0.
        5    1    3    3  502    0 -0.92503919300E+03  0.16930931504E+04  0.83208123838E+03  0.21011052334E+04  0.46999998093E+01 0.  1.
       -5    1    3    3    0  502  0.92503919300E+03 -0.16930931504E+04  0.25975339717E+03  0.19467295246E+04  0.46999998093E+01 0. -1.
</event>
<event>
 5   0  0.9277261E-09  0.3899227E+04  0.7818609E-02  0.8025190E-01
       -2   -1    0    0    0  501  0.00000000000E+00  0.00000000000E+00  0.14344543443E+04  0.14344543443E+04  0.25500000920E-02 0.  1.
        2   -1    0    0  501    0  0.00000000000E+00  0.00000000000E+00 -0.26497827755E+04  0.26497827755E+04  0.25500000920E-02 0. -1.
    10030    2    1    2    0    0  0.00000000000E+00  0.00000000000E+00 -0.12153284311E+04  0.40842371198E+04  0.38992268022E+04 0.  0.
        1    1    3    3  502    0  0.60669490238E+02  0.17366625675E+04  0.31819608706E+03  0.17666143920E+04  0.50400001928E-02 0.  1.
       -1    1    3    3    0  502 -0.60669490238E+02 -0.17366625675E+04 -0.15335245182E+04  0.23176227278E+04  0.50400001928E-02 0. -1.
</event>
<event>
 5   0  0.2929054E-09  0.3901589E+04  0.7818609E-02  0.8024699E-01
        1   -1    0    0  501    0  0.00000000000E+00  0.00000000000E+00  0.20528983748E+04  0.20528983748E+04  0.50400001928E-02 0. -1.
       -1   -1    0    0    0  501  0.00000000000E+00  0.00000000000E+00 -0.18537692234E+04  0.18537692234E+04  0.50400001928E-02 0.  1.
    10030    2    1    2    0    0  0.00000000000E+00  0.00000000000E+00  0.19912915137E+03  0.39066675982E+04  0.39015893305E+04 0.  0.
        1    1    3    3  502    0 -0.12836595448E+04  0.14252698296E+04  0.45558877401E+03  0.19714809270E+04  0.50400001928E-02 0.  1.
       -1    1    3    3    0  502  0.12836595448E+04 -0.14252698296E+04 -0.25645962264E+03  0.19351866712E+04  0.50400001928E-02 0. -1.
</event>
<event>
 5   0  0.9277261E-09  0.3900658E+04  0.7818609E-02  0.8024892E-01
        2   -1    0    0  501    0  0.00000000000E+00  0.00000000000E+00  0.31568169671E+04  0.31568169671E+04  0.25500000920E-02 0.  1.
       -2   -1    0    0    0  501  0.00000000000E+00  0.00000000000E+00 -0.12049425594E+04  0.12049425594E+04  0.25500000920E-02 0. -1.
    10030    2    1    2    0    0  0.00000000000E+00  0.00000000000E+00  0.19518744077E+04  0.43617595264E+04  0.39006579526E+04 0.  0.
        1    1    3    3  502    0 -0.12662817493E+04 -0.94457504056E+03  0.22548558947E+04  0.27531920714E+04  0.50400001928E-02 0.  1.
       -1    1    3    3    0  502  0.12662817493E+04  0.94457504056E+03 -0.30298148701E+03  0.16085674550E+04  0.50400001928E-02 0. -1.
</event>
<event>
 5   0  0.2904500E-09  0.3900992E+04  0.7818609E-02  0.8024823E-01
       -1   -1    0    0    0  501  0.00000000000E+00  0.00000000000E+00  0.19534889897E+04  0.19534889897E+04  0.50400001928E-02 0.  1.
        1   -1    0    0  501    0  0.00000000000E+00  0.00000000000E+00 -0.19475072267E+04  0.19475072267E+04  0.50400001928E-02 0. -1.
    10030    2    1    2    0    0  0.00000000000E+00  0.00000000000E+00  0.59817629881E+01  0.39009962164E+04  0.39009916302E+04 0.  0.
        3    1    3    3  502    0 -0.29117772139E+03  0.97235533794E+03  0.16685781860E+04  0.19530521093E+04  0.10100000352E+00 0.  1.
       -3    1    3    3    0  502  0.29117772139E+03 -0.97235533794E+03 -0.16625964230E+04  0.19479441071E+04  0.10100000352E+00 0. -1.
</event>
<event>
 5   0  0.2904500E-09  0.3896920E+04  0.7818609E-02  0.8025670E-01
       -4   -1    0    0    0  501  0.00000000000E+00  0.00000000000E+00  0.22446053871E+04  0.22446057464E+04  0.12699999809E+01 0. -1.
        4   -1    0    0  501    0  0.00000000000E+00  0.00000000000E+00 -0.16913863168E+04  0.16913867936E+04  0.12699999809E+01 0.  1.
    10030    2    1    2    0    0  0.00000000000E+00  0.00000000000E+00  0.55321907024E+03  0.39359925400E+04  0.38969200576E+04 0.  0.
        4    1    3    3  502    0 -0.19764637231E+02  0.21440254209E+03  0.22325528581E+04  0.22429117165E+04  0.12699999809E+01 0. -1.
       -4    1    3    3    0  502  0.19764637231E+02 -0.21440254209E+03 -0.16793337879E+04  0.16930808235E+04  0.12699999809E+01 0.  1.
</event>
<event>
 5   0  0.2904500E-09  0.3896871E+04  0.7818609E-02  0.8025680E-01
       -1   -1    0    0    0  501  0.00000000000E+00  0.00000000000E+00  0.14604847108E+04  0.14604847108E+04  0.50400001928E-02 0. -1.
        1   -1    0    0  501    0  0.00000000000E+00  0.00000000000E+00 -0.25994120508E+04  0.25994120508E+04  0.50400001928E-02 0.  1.
    10030    2    1    2    0    0  0.00000000000E+00  0.00000000000E+00 -0.11389273400E+04  0.40598967616E+04  0.38968713385E+04 0.  0.
        5    1    3    3  502    0  0.46129694831E+03  0.17477078182E+04  0.18836078232E+03  0.18173550470E+04  0.46999998093E+01 0. -1.
       -5    1    3    3    0  502 -0.46129694831E+03 -0.17477078182E+04 -0.13272881223E+04  0.22425417147E+04  0.46999998093E+01 0.  1.
</event>
<event>
 5   0  0.9078515E-09  0.3904319E+04  0.7818609E-02  0.8024132E-01
       -2   -1    0    0    0  501  0.00000000000E+00  0.00000000000E+00  0.19040430012E+04  0.19040430012E+04  0.25500000920E-02 0.  1.
        2   -1    0    0  501    0  0.00000000000E+00  0.00000000000E+00 -0.20014917200E+04  0.20014917200E+04  0.25500000920E-02 0. -1.
    10030    2    1    2    0    0  0.00000000000E+00  0.00000000000E+00 -0.97448718772E+02  0.39055347212E+04  0.39043187889E+04 0.  0.
        3    1    3    3  502    0 -0.19103476168E+04  0.35898842466E+03  0.13195743141E+03  0.19482590896E+04  0.10100000352E+00 0. -1.
       -3    1    3    3    0  502  0.19103476168E+04 -0.35898842466E+03 -0.22940615019E+03  0.19572756316E+04  0.10100000352E+00 0.  1.
</event>
<event>
 5   0  0.9078515E-09  0.3898686E+04  0.7818609E-02  0.8025303E-01
        2   -1    0    0  501    0  0.00000000000E+00  0.00000000000E+00  0.20925521066E+04  0.20925521066E+04  0.25500000920E-02 0.  1.
       -2   -1    0    0    0  501  0.00000000000E+00  0.00000000000E+00 -0.18159349490E+04  0.18159349490E+04  0.25500000920E-02 0. -1.
    10030    2    1    2    0    0  0.00000000000E+00  0.00000000000E+00  0.27661715767E+03  0.39084870556E+04  0.38986861905E+04 0.  0.
        3    1    3    3  502    0  0.13707075221E+04  0.25891122805E+03 -0.12267547528E+04  0.18576332708E+04  0.10100000352E+00 0. -1.
       -3    1    3    3    0  502 -0.13707075221E+04 -0.25891122805E+03  0.15033719105E+04  0.20508537848E+04  0.10100000352E+00 0.  1.
</event>
<event>
 5   0  0.9368546E-09  0.3900209E+04  0.7818609E-02  0.8024986E-01
        2   -1    0    0  501    0  0.00000000000E+00  0.00000000000E+00  0.14289258392E+04  0.14289258392E+04  0.25500000920E-02 0. -1.
       -2   -1    0    0    0  501  0.00000000000E+00  0.00000000000E+00 -0.26613747975E+04  0.26613747976E+04  0.25500000920E-02 0.  1.
    10030    2    1    2    0    0  0.00000000000E+00  0.00000000000E+00 -0.12324489583E+04  0.40903006368E+04  0.39002088232E+04 0.  0.
        5    1    3    3  502    0  0.17834280232E+04 -0.17572428175E+03 -0.14227248547E+04  0.22881570399E+04  0.46999998093E+01 0. -1.
       -5    1    3    3    0  502 -0.17834280232E+04  0.17572428175E+03  0.19027589637E+03  0.18021435969E+04  0.46999998093E+01 0.  1.
</event>
<event>
 5   0  0.2904500E-09  0.3898558E+04  0.7818609E-02  0.8025329E-01
       -1   -1    0    0    0  501  0.00000000000E+00  0.00000000000E+00  0.19945816256E+04  0.19945816256E+04  0.50400001928E-02 0. -1.
        1   -1    0    0  501    0  0.00000000000E+00  0.00000000000E+00 -0.19050056738E+04  0.19050056738E+04  0.50400001928E-02 0.  1.
    10030    2    1    2    0    0  0.00000000000E+00  0.00000000000E+00  0.89575951755E+02  0.38995872994E+04  0.38985583559E+04 0.  0.
        4    1    3    3  502    0 -0.13007737916E+04 -0.44764041155E+03 -0.13366244244E+04  0.19180617455E+04  0.12699999809E+01 0.  1.
       -4    1    3    3    0  502  0.13007737916E+04  0.44764041155E+03  0.14262003761E+04  0.19815255539E+04  0.12699999809E+01 0. -1.
</event>
<event>
 5   0  0.6335942E-09  0.3898549E+04  0.7818609E-02  0.8025331E-01
       -2   -1    0    0    0  501  0.00000000000E+00  0.00000000000E+00  0.21766958495E+04  0.21766958496E+04  0.25500000920E-02 0.  1.
        2   -1    0    0  501    0  0.00000000000E+00  0.00000000000E+00 -0.17456143205E+04  0.17456143205E+04  0.25500000920E-02 0. -1.
    10030    2    1    2    0    0  0.00000000000E+00  0.00000000000E+00  0.43108152901E+03  0.39223101701E+04  0.38985491899E+04 0.  0.
        2    1    3    3  502    0 -0.16782692263E+04 -0.92747891653E+03 -0.13711909485E+03  0.19223960005E+04  0.25500000920E-02 0.  1.
       -2    1    3    3    0  502  0.16782692263E+04  0.92747891653E+03  0.56820062387E+03  0.19999141696E+04  0.25500000920E-02 0. -1.
</event>
<event>
 5   0  0.9078515E-09  0.3900217E+04  0.7818609E-02  0.8024984E-01
       -2   -1    0    0    0  501  0.00000000000E+00  0.00000000000E+00  0.28663402648E+04  0.28663402648E+04  0.25500000920E-02 0.  1.
        2   -1    0    0  501    0  0.00000000000E+00  0.00000000000E+00 -0.13267518380E+04  0.13267518380E+04  0.25500000920E-02 0. -1.
    10030    2    1    2    0    0  0.00000000000E+00  0.00000000000E+00  0.15395884268E+04  0.41930921028E+04  0.39002165143E+04 0.  0.
        3    1    3    3  502    0  0.72094174778E+03  0.16175418408E+02 -0.11781420710E+04  0.13813172689E+04  0.10100000352E+00 0. -1.
       -3    1    3    3    0  502 -0.72094174778E+03 -0.16175418408E+02  0.27177304978E+04  0.28117748339E+04  0.10100000352E+00 0.  1.
</event>
<event>
 5   0  0.2929054E-09  0.3899358E+04  0.7818609E-02  0.8025163E-01
       -1   -1    0    0    0  501  0.00000000000E+00  0.00000000000E+00  0.20165027316E+04  0.20165027316E+04  0.50400001928E-02 0.  1.
        1   -1    0    0  501    0  0.00000000000E+00  0.00000000000E+00 -0.18850694483E+04  0.18850694483E+04  0.50400001928E-02 0. -1.
    10030    2    1    2    0    0  0.00000000000E+00  0.00000000000E+00  0.13143328325E+03  0.39015721799E+04  0.38993577377E+04 0.  0.
        1    1    3    3  502    0  0.33846064389E+03 -0.16519082359E+04  0.10449916514E+04  0.19837751835E+04  0.50400001928E-02 0.  1.
       -1    1    3    3    0  502 -0.33846064389E+03  0.16519082359E+04 -0.91355836813E+03  0.19177969964E+04  0.50400001928E-02 0. -1.
</event>
<event>
 5   0  0.9277261E-09  0.3901236E+04  0.7818609E-02  0.8024772E-01
       -2   -1    0    0    0  501  0.00000000000E+00  0.00000000000E+00  0.18564842951E+04  0.18564842951E+04  0.25500000920E-02 0. -1.
        2   -1    0    0  501    0  0.00000000000E+00  0.00000000000E+00 -0.20495251317E+04  0.20495251317E+04  0.25500000920E-02 0.  1.
    10030    2    1    2    0    0  0.00000000000E+00  0.00000000000E+00 -0.19304083665E+03  0.39060094268E+04  0.39012363268E+04 0.  0.
        1    1    3    3  502    0 -0.31157169392E+03  0.12361840317E+04  0.13816609700E+04  0.18799507750E+04  0.50400001928E-02 0. -1.
       -1    1    3    3    0  502  0.31157169392E+03 -0.12361840317E+04 -0.15747018066E+04  0.20260586518E+04  0.50400001928E-02 0.  1.
</event>
<event>
 5   0  0.2904500E-09  0.3900239E+04  0.7818609E-02  0.8024980E-01
        1   -1    0    0  501    0  0.00000000000E+00  0.00000000000E+00  0.11613743831E+04  0.11613743831E+04  0.50400001928E-02 0.  1.
       -1   -1    0    0    0  501  0.00000000000E+00  0.00000000000E+00 -0.32745385825E+04  0.32745385825E+04  0.50400001928E-02 0. -1.
    10030    2    1    2    0    0  0.00000000000E+00  0.00000000000E+00 -0.21131641994E+04  0.44359129656E+04  0.39002385702E+04 0.  0.
        4    1    3    3  502    0  0.15098021389E+04 -0.11339287232E+04 -0.16110495695E+04  0.24820916937E+04  0.12699999809E+01 0. -1.
       -4    1    3    3    0  502 -0.15098021389E+04  0.11339287232E+04 -0.50211462994E+03  0.19538212719E+04  0.12699999809E+01 0.  1.
</event>
<event>
 5   0  0.9078515E-09  0.3900060E+04  0.7818609E-02  0.8025017E-01
        2   -1    0    0  501    0  0.00000000000E+00  0.00000000000E+00  0.22782401720E+04  0.22782401720E+04  0.25500000920E-02 0. -1.
       -2   -1    0    0    0  501  0.00000000000E+00  0.00000000000E+00 -0.16691027658E+04  0.16691027658E+04  0.25500000920E-02 0.  1.
    10030    2    1    2    0    0  0.00000000000E+00  0.00000000000E+00  0.60913740623E+03  0.39473429379E+04  0.39000599854E+04 0.  0.
        3    1    3    3  502    0  0.12296452313E+04 -0.97519777007E+02  0.18332036322E+04  0.22095639998E+04  0.10100000352E+00 0. -1.
       -3    1    3    3    0  502 -0.12296452313E+04  0.97519777007E+02 -0.12240662260E+04  0.17377789381E+04  0.10100000352E+00 0.  1.
</event>
<event>
 5   0  0.2904500E-09  0.3900273E+04  0.7818609E-02  0.8024972E-01
       -1   -1    0    0    0  501  0.00000000000E+00  0.00000000000E+00  0.22551672744E+04  0.22551672744E+04  0.50400001928E-02 0. -1.
        1   -1    0    0  501    0  0.00000000000E+00  0.00000000000E+00 -0.16863636538E+04  0.16863636538E+04  0.50400001928E-02 0.  1.
    10030    2    1    2    0    0  0.00000000000E+00  0.00000000000E+00  0.56880362063E+03  0.39415309282E+04  0.39002728750E+04 0.  0.
        3    1    3    3  502    0 -0.14665314398E+04  0.12763201036E+04  0.13006217929E+03  0.19484926613E+04  0.10100000352E+00 0. -1.
       -3    1    3    3    0  502  0.14665314398E+04 -0.12763201036E+04  0.43874144135E+03  0.19930382669E+04  0.10100000352E+00 0.  1.
</event>
<event>
 5   0  0.6335942E-09  0.3900377E+04  0.7818609E-02  0.8024951E-01
        2   -1    0    0  501    0  0.00000000000E+00  0.00000000000E+00  0.15151536589E+04  0.15151536589E+04  0.25500000920E-02 0.  1.
       -2   -1    0    0    0  501  0.00000000000E+00  0.00000000000E+00 -0.25101312892E+04  0.25101312892E+04  0.25500000920E-02 0. -1.
    10030    2    1    2    0    0  0.00000000000E+00  0.00000000000E+00 -0.99497763030E+03  0.40252849481E+04  0.39003767034E+04 0.  0.
        2    1    3    3  502    0  0.20454398181E+03 -0.82219430614E+03  0.13152920682E+04  0.15645558290E+04  0.25500000920E-02 0.  1.
       -2    1    3    3    0  502 -0.20454398181E+03  0.82219430614E+03 -0.23102696985E+04  0.24607291190E+04  0.25500000920E-02 0. -1.
</event>
<event>
 5   0  0.2904500E-09  0.3899757E+04  0.7818609E-02  0.8025080E-01
       -1   -1    0    0    0  501  0.00000000000E+00  0.00000000000E+00  0.18598835126E+04  0.18598835126E+04  0.50400001928E-02 0.  1.
        1   -1    0    0  501    0  0.00000000000E+00  0.00000000000E+00 -0.20442277759E+04  0.20442277759E+04  0.50400001928E-02 0. -1.
    10030    2    1    2    0    0  0.00000000000E+00  0.00000000000E+00 -0.18434426337E+03  0.39041112885E+04  0.38997566777E+04 0.  0.
        5    1    3    3  502    0  0.97190452027E+03  0.53673042279E+03 -0.16968735719E+04  0.20278264108E+04  0.46999998093E+01 0. -1.
       -5    1    3    3    0  502 -0.97190452027E+03 -0.53673042279E+03  0.15125293085E+04  0.18762848777E+04  0.46999998093E+01 0.  1.
</event>
<event>
 5   0  0.2904500E-09  0.3901834E+04  0.7818609E-02  0.8024648E-01
       -1   -1    0    0    0  501  0.00000000000E+00  0.00000000000E+00  0.17069434322E+04  0.17069434323E+04  0.50400001928E-02 0.  1.
        1   -1    0    0  501    0  0.00000000000E+00  0.00000000000E+00 -0.22297618022E+04  0.22297618022E+04  0.50400001928E-02 0. -1.
    10030    2    1    2    0    0  0.00000000000E+00  0.00000000000E+00 -0.52281836992E+03  0.39367052344E+04  0.39018340630E+04 0.  0.
        2    1    3    3  502    0 -0.13221790596E+04 -0.61360659847E+02  0.11846320329E+04  0.17763095590E+04  0.25500000920E-02 0.  1.
       -2    1    3    3    0  502  0.13221790596E+04  0.61360659847E+02 -0.17074504028E+04  0.21603956754E+04  0.25500000920E-02 0. -1.
</event>
<event>
 5   0  0.2904500E-09  0.3898377E+04  0.7818609E-02  0.8025367E-01
       -1   -1    0    0    0  501  0.00000000000E+00  0.00000000000E+00  0.15313336968E+04  0.15313336968E+04  0.50400001928E-02 0.  1.
        1   -1    0    0  501    0  0.00000000000E+00  0.00000000000E+00 -0.24810637207E+04  0.24810637207E+04  0.50400001928E-02 0. -1.
    10030    2    1    2    0    0  0.00000000000E+00  0.00000000000E+00 -0.94973002390E+03  0.40123974174E+04  0.38983773441E+04 0.  0.
        5    1    3    3  502    0  0.16738728954E+03  0.60181058301E+02 -0.24726867488E+04  0.24790809007E+04  0.46999998093E+01 0. -1.
       -5    1    3    3    0  502 -0.16738728954E+03 -0.60181058301E+02  0.15229567249E+04  0.15333165167E+04  0.46999998093E+01 0.  1.
</event>
<event>
 5   0  0.9078515E-09  0.3901148E+04  0.7818609E-02  0.8024790E-01
       -2   -1    0    0    0  501  0.00000000000E+00  0.00000000000E+00  0.15564218786E+04  0.15564218786E+04  0.25500000920E-02 0. -1.
        2   -1    0    0  501    0  0.00000000000E+00  0.00000000000E+00 -0.24445424864E+04  0.24445424864E+04  0.25500000920E-02 0.  1.
    10030    2    1    2    0    0  0.00000000000E+00  0.00000000000E+00 -0.88812060777E+03  0.40009643650E+04  0.39011482459E+04 0.  0.
        3    1    3    3  502    0  0.13764253114E+04  0.11229746868E+04  0.38223432495E+03  0.18170640810E+04  0.10100000352E+00 0. -1.
       -3    1    3    3    0  502 -0.13764253114E+04 -0.11229746868E+04 -0.12703549327E+04  0.21839002840E+04  0.10100000352E+00 0.  1.
</event>
<event>
 5   0  0.2904500E-09  0.3895702E+04  0.7818609E-02  0.8025924E-01
        1   -1    0    0  501    0  0.00000000000E+00  0.00000000000E+00  0.16082916495E+04  0.16082916495E+04  0.50400001928E-02 0. -1.
       -1   -1    0    0    0  501  0.00000000000E+00  0.00000000000E+00 -0.23591011492E+04  0.23591011492E+04  0.50400001928E-02 0.  1.
    10030    2    1    2    0    0  0.00000000000E+00  0.00000000000E+00 -0.75080949969E+03  0.39673927988E+04  0.38957015690E+04 0.  0.
        5    1    3    3  502    0  0.91997821952E+03 -0.17099030560E+04 -0.21772587977E+03  0.19538564517E+04  0.46999998093E+01 0. -1.
       -5    1    3    3    0  502 -0.91997821952E+03  0.17099030560E+04 -0.53308361992E+03  0.20135363471E+04  0.46999998093E+01 0.  1.
</event>
<event>
 5   0  0.9277261E-09  0.3899717E+04  0.7818609E-02  0.8025088E-01
       -2   -1    0    0    0  501  0.00000000000E+00  0.00000000000E+00  0.17315444069E+04  0.17315444069E+04  0.25500000920E-02 0.  1.
        2   -1    0    0  501    0  0.00000000000E+00  0.00000000000E+00 -0.21956977255E+04  0.21956977255E+04  0.25500000920E-02 0. -1.
    10030    2    1    2    0    0  0.00000000000E+00  0.00000000000E+00 -0.46415331854E+03  0.39272421324E+04  0.38997169722E+04 0.  0.
        1    1    3    3  502    0 -0.17601149990E+04  0.83006543005E+03 -0.35514679137E+03  0.19781664923E+04  0.50400001928E-02 0. -1.
       -1    1    3    3    0  502  0.17601149990E+04 -0.83006543005E+03 -0.10900652717E+03  0.19490756401E+04  0.50400001928E-02 0.  1.
</event>
<event>
 5   0  0.9078515E-09  0.3899399E+04  0.7818609E-02  0.8025154E-01
        2   -1    0    0  501    0  0.00000000000E+00  0.00000000000E+00  0.32339400244E+04  0.32339400244E+04  0.25500000920E-02 0. -1.
       -2   -1    0    0    0  501  0.00000000000E+00  0.00000000000E+00 -0.11754476760E+04  0.11754476760E+04  0.25500000920E-02 0.  1.
    10030    2    1    2    0    0  0.00000000000E+00  0.00000000000E+00  0.20584923485E+04  0.44093877004E+04  0.38993985618E+04 0.  0.
        3    1    3    3  502    0  0.47716092022E+03  0.18876509191E+04  0.11446680837E+04  0.22585777755E+04  0.10100000352E+00 0. -1.
       -3    1    3    3    0  502 -0.47716092022E+03 -0.18876509191E+04  0.91382426478E+03  0.21508099249E+04  0.10100000352E+00 0.  1.
</event>
<event>
 5   0  0.9368546E-09  0.3895248E+04  0.7818609E-02  0.8026018E-01
       -2   -1    0    0    0  501  0.00000000000E+00  0.00000000000E+00  0.25282298948E+04  0.25282298948E+04  0.25500000920E-02 0.  1.
        2   -1    0    0  501    0  0.00000000000E+00  0.00000000000E+00 -0.15003536178E+04  0.15003536178E+04  0.25500000920E-02 0. -1.
    10030    2    1    2    0    0  0.00000000000E+00  0.00000000000E+00  0.10278762771E+04  0.40285835126E+04  0.38952478069E+04 0.  0.
        5    1    3    3  502    0  0.12469860824E+04 -0.13509873611E+04  0.11786479226E+04  0.21838896847E+04  0.46999998093E+01 0.  1.
       -5    1    3    3    0  502 -0.12469860824E+04  0.13509873611E+04 -0.15077164550E+03  0.18446938279E+04  0.46999998093E+01 0. -1.
</event>
<event>
 5   0  0.2904500E-09  0.3899847E+04  0.7818609E-02  0.8025061E-01
       -1   -1    0    0    0  501  0.00000000000E+00  0.00000000000E+00  0.19055558960E+04  0.19055558960E+04  0.50400001928E-02 0.  1.
        1   -1    0    0  501    0  0.00000000000E+00  0.00000000000E+00 -0.19953245279E+04  0.19953245279E+04  0.50400001928E-02 0. -1.
    10030    2    1    2    0    0  0.00000000000E+00  0.00000000000E+00 -0.89768631940E+02  0.39008804239E+04  0.38998473912E+04 0.  0.
        3    1    3    3  502    0 -0.13859997669E+04  0.38988024910E+03  0.12704546764E+04  0.19201711011E+04  0.10100000352E+00 0. -1.
       -3    1    3    3    0  502  0.13859997669E+04 -0.38988024910E+03 -0.13602233084E+04  0.19807093228E+04  0.10100000352E+00 0.  1.
</event>
<event>
 5   0  0.2904500E-09  0.3900423E+04  0.7818609E-02  0.8024941E-01
       -1   -1    0    0    0  501  0.00000000000E+00  0.00000000000E+00  0.17941970304E+04  0.17941970304E+04  0.50400001928E-02 0.  1.
        1   -1    0    0  501    0  0.00000000000E+00  0.00000000000E+00 -0.21197918699E+04  0.21197918699E+04  0.50400001928E-02 0. -1.
    10030    2    1    2    0    0  0.00000000000E+00  0.00000000000E+00 -0.32559483946E+03  0.39139889003E+04  0.39004226838E+04 0.  0.
        5    1    3    3  502    0  0.28336812795E+03  0.22981064581E+03  0.17596403664E+04  0.17970717119E+04  0.46999998093E+01 0.  1.
       -5    1    3    3    0  502 -0.28336812795E+03 -0.22981064581E+03 -0.20852352058E+04  0.21169171884E+04  0.46999998093E+01 0. -1.
</event>
<event>
 5   0  0.9078515E-09  0.3902665E+04  0.7818609E-02  0.8024475E-01
        2   -1    0    0  501    0  0.00000000000E+00  0.00000000000E+00  0.15507115688E+04  0.15507115688E+04  0.25500000920E-02 0.  1.
       -2   -1    0    0    0  501  0.00000000000E+00  0.00000000000E+00 -0.24554528923E+04  0.24554528923E+04  0.25500000920E-02 0. -1.
    10030    2    1    2    0    0  0.00000000000E+00  0.00000000000E+00 -0.90474132354E+03  0.40061644611E+04  0.39026653491E+04 0.  0.
        3    1    3    3  502    0  0.19265375514E+04  0.30274314463E+03 -0.52122290772E+03  0.20186316351E+04  0.10100000352E+00 0. -1.
       -3    1    3    3    0  502 -0.19265375514E+04 -0.30274314463E+03 -0.38351841582E+03  0.19875328259E+04  0.10100000352E+00 0.  1.
</event>
<event>
 5   0  0.2904500E-09  0.3900056E+04  0.7818609E-02  0.8025018E-01
        1   -1    0    0  501    0  0.00000000000E+00  0.00000000000E+00  0.18251385880E+04  0.18251385880E+04  0.50400001928E-02 0. -1.
       -1   -1    0    0    0  501  0.00000000000E+00  0.00000000000E+00 -0.20834633444E+04  0.20834633444E+04  0.50400001928E-02 0.  1.
    10030    2    1    2    0    0  0.00000000000E+00  0.00000000000E+00 -0.25832475636E+03  0.39086019324E+04  0.39000560747E+04 0.  0.
        2    1    3    3  502    0 -0.17517299799E+04  0.79748463545E+03  0.18468461357E+03  0.19335583966E+04  0.25500000920E-02 0. -1.
       -2    1    3    3    0  502  0.17517299799E+04 -0.79748463545E+03 -0.44300936993E+03  0.19750435358E+04  0.25500000920E-02 0.  1.
</event>
<event>
 5   0  0.9434114E-09  0.3903637E+04  0.7818609E-02  0.8024273E-01
       -2   -1    0    0    0  501  0.00000000000E+00  0.00000000000E+00  0.11899612103E+04  0.11899612103E+04  0.25500000920E-02 0. -1.
        2   -1    0    0  501    0  0.00000000000E+00  0.00000000000E+00 -0.32014447070E+04  0.32014447070E+04  0.25500000920E-02 0.  1.
    10030    2    1    2    0    0  0.00000000000E+00  0.00000000000E+00 -0.20114834967E+04  0.43914059173E+04  0.39036367752E+04 0.  0.
        4    1    3    3  502    0  0.18449803773E+03 -0.60138169223E+03 -0.30842856141E+04  0.31477799841E+04  0.12699999809E+01 0.  1.
       -4    1    3    3    0  502 -0.18449803773E+03  0.60138169223E+03  0.10728021174E+04  0.12436259332E+04  0.12699999809E+01 0. -1.
</event>
<event>
 5   0  0.2904500E-09  0.3899928E+04  0.7818609E-02  0.8025044E-01
       -1   -1    0    0    0  501  0.00000000000E+00  0.00000000000E+00  0.16989568402E+04  0.16989568402E+04  0.50400001928E-02 0. -1.
        1   -1    0    0  501    0  0.00000000000E+00  0.00000000000E+00 -0.22380553596E+04  0.22380553596E+04  0.50400001928E-02 0.  1.
    10030    2    1    2    0    0  0.00000000000E+00  0.00000000000E+00 -0.53909851939E+03  0.39370121999E+04  0.38999279286E+04 0.  0.
        5    1    3    3  502    0  0.18658303549E+04  0.31208734847E+02  0.30155136021E+03  0.18903047932E+04  0.46999998093E+01 0. -1.
       -5    1    3    3    0  502 -0.18658303549E+04 -0.31208734847E+02 -0.84064987960E+03  0.20467074067E+04  0.46999998093E+01 0.  1.
</event>
<event>
 5   0  0.2929054E-09  0.3898370E+04  0.7818609E-02  0.8025368E-01
        1   -1    0    0  501    0  0.00000000000E+00  0.00000000000E+00  0.22079714338E+04  0.22079714338E+04  0.50400001928E-02 0. -1.
       -1   -1    0    0    0  501  0.00000000000E+00  0.00000000000E+00 -0.17207299452E+04  0.17207299452E+04  0.50400001928E-02 0.  1.
    10030    2    1    2    0    0  0.00000000000E+00  0.00000000000E+00  0.48724148860E+03  0.39287013789E+04  0.38983702052E+04 0.  0.
        1    1    3    3  502    0 -0.61244348269E+03 -0.15774125757E+04  0.12186217197E+04  0.20852712891E+04  0.50400001928E-02 0. -1.
       -1    1    3    3    0  502  0.61244348269E+03  0.15774125757E+04 -0.73138023106E+03  0.18434300898E+04  0.50400001928E-02 0.  1.
</event>
<event>
 5   0  0.2929054E-09  0.3899726E+04  0.7818609E-02  0.8025086E-01
       -1   -1    0    0    0  501  0.00000000000E+00  0.00000000000E+00  0.28238739827E+04  0.28238739827E+04  0.50400001928E-02 0. -1.
        1   -1    0    0  501    0  0.00000000000E+00  0.00000000000E+00 -0.13463654472E+04  0.13463654472E+04  0.50400001928E-02 0.  1.
    10030    2    1    2    0    0  0.00000000000E+00  0.00000000000E+00  0.14775085356E+04  0.41702394299E+04  0.38997263276E+04 0.  0.
        1    1    3    3  502    0 -0.78848907061E+03 -0.14243202437E+03 -0.11621837610E+04  0.14116206964E+04  0.50400001928E-02 0.  1.
       -1    1    3    3    0  502  0.78848907061E+03  0.14243202437E+03  0.26396922966E+04  0.27586187335E+04  0.50400001928E-02 0. -1.
</event>
<event>
 5   0  0.2904500E-09  0.3900327E+04  0.7818609E-02  0.8024961E-01
        1   -1    0    0  501    0  0.00000000000E+00  0.00000000000E+00  0.18185915727E+04  0.18185915727E+04  0.50400001928E-02 0.  1.
       -1   -1    0    0    0  501  0.00000000000E+00  0.00000000000E+00 -0.20912543439E+04  0.20912543439E+04  0.50400001928E-02 0. -1.
    10030    2    1    2    0    0  0.00000000000E+00  0.00000000000E+00 -0.27266277122E+03  0.39098459166E+04  0.39003269228E+04 0.  0.
        2    1    3    3  502    0 -0.56929247505E+03  0.10494547925E+04  0.14094073378E+04  0.18471270469E+04  0.25500000920E-02 0.  1.
       -2    1    3    3    0  502  0.56929247505E+03 -0.10494547925E+04 -0.16820701090E+04  0.20627188697E+04  0.25500000920E-02 0. -1.
</event>
<event>
 5   0  0.6335942E-09  0.3899571E+04  0.7818609E-02  0.8025118E-01
        2   -1    0    0  501    0  0.00000000000E+00  0.00000000000E+00  0.17121269426E+04  0.17121269426E+04  0.25500000920E-02 0. -1.
       -2   -1    0    0    0  501  0.00000000000E+00  0.00000000000E+00 -0.22204330666E+04  0.22204330666E+04  0.25500000920E-02 0.  1.
    10030    2    1    2    0    0  0.00000000000E+00  0.00000000000E+00 -0.50830612393E+03  0.39325600092E+04  0.38995708880E+04 0.  0.
        2    1    3    3  502    0 -0.81332126559E+03 -0.74440568989E+03  0.13675654842E+04  0.17566635038E+04  0.25500000920E-02 0. -1.
       -2    1    3    3    0  502  0.81332126559E+03  0.74440568989E+03 -0.18758716081E+04  0.21758965054E+04  0.25500000920E-02 0.  1.
</event>
<event>
 5   0  0.9277261E-09  0.3899518E+04  0.7818609E-02  0.8025129E-01
       -2   -1    0    0    0  501  0.00000000000E+00  0.00000000000E+00  0.18164763025E+04  0.18164763025E+04  0.25500000920E-02 0. -1.
        2   -1    0    0  501    0  0.00000000000E+00  0.00000000000E+00 -0.20928215693E+04  0.20928215693E+04  0.25500000920E-02 0.  1.
    10030    2    1    2    0    0  0.00000000000E+00  0.00000000000E+00 -0.27634526684E+03  0.39092978718E+04  0.38995183221E+04 0.  0.
        1    1    3    3  502    0 -0.15183962038E+04 -0.10317257460E+04  0.52041915195E+03  0.19080935880E+04  0.50400001928E-02 0. -1.
       -1    1    3    3    0  502  0.15183962038E+04  0.10317257460E+04 -0.79676441879E+03  0.20012042839E+04  0.50400001928E-02 0.  1.
</event>
<event>
 5   0  0.2904500E-09  0.3898750E+04  0.7818609E-02  0.8025289E-01
       -1   -1    0    0    0  501  0.00000000000E+00  0.00000000000E+00  0.24888071952E+04  0.24888071952E+04  0.50400001928E-02 0.  1.
        1   -1    0    0  501    0  0.00000000000E+00  0.00000000000E+00 -0.15268609274E+04  0.15268609274E+04  0.50400001928E-02 0. -1.
    10030    2    1    2    0    0  0.00000000000E+00  0.00000000000E+00  0.96194626780E+03  0.40156681226E+04  0.38987497802E+04 0.  0.
        4    1    3    3  502    0  0.12187702359E+04 -0.26338378034E+03 -0.10623915877E+04  0.16381237445E+04  0.12699999809E+01 0. -1.
       -4    1    3    3    0  502 -0.12187702359E+04  0.26338378034E+03  0.20243378555E+04  0.23775443781E+04  0.12699999809E+01 0.  1.
</event>
<event>
 5   0  0.9078515E-09  0.3903995E+04  0.7818609E-02  0.8024199E-01
       -2   -1    0    0    0  501  0.00000000000E+00  0.00000000000E+00  0.19025752152E+04  0.19025752152E+04  0.25500000920E-02 0.  1.
        2   -1    0    0  501    0  0.00000000000E+00  0.00000000000E+00 -0.20027032682E+04  0.20027032682E+04  0.25500000920E-02 0. -1.
    10030    2    1    2    0    0  0.00000000000E+00  0.00000000000E+00 -0.10012805294E+03  0.39052784834E+04  0.39039946729E+04 0.  0.
        3    1    3    3  502    0  0.11895694373E+04  0.10337089212E+04  0.11021237575E+04  0.19230981168E+04  0.10100000352E+00 0.  1.
       -3    1    3    3    0  502 -0.11895694373E+04 -0.10337089212E+04 -0.12022518104E+04  0.19821803666E+04  0.10100000352E+00 0. -1.
</event>
<event>
 5   0  0.9078515E-09  0.3899650E+04  0.7818609E-02  0.8025102E-01
        2   -1    0    0  501    0  0.00000000000E+00  0.00000000000E+00  0.19332882029E+04  0.19332882029E+04  0.25500000920E-02 0.  1.
       -2   -1    0    0    0  501  0.00000000000E+00  0.00000000000E+00 -0.19665035739E+04  0.19665035739E+04  0.25500000920E-02 0. -1.
    10030    2    1    2    0    0  0.00000000000E+00  0.00000000000E+00 -0.33215371073E+02  0.38997917768E+04  0.38996503230E+04 0.  0.
        3    1    3    3  502    0  0.13706128315E+04 -0.13334646936E+03  0.13638254251E+04  0.19381384407E+04  0.10100000352E+00 0.  1.
       -3    1    3    3    0  502 -0.13706128315E+04  0.13334646936E+03 -0.13970407962E+04  0.19616533361E+04  0.10100000352E+00 0. -1.
</event>
<event>
 5   0  0.6335942E-09  0.3908922E+04  0.7818609E-02  0.8023176E-01
       -2   -1    0    0    0  501  0.00000000000E+00  0.00000000000E+00  0.13868867583E+04  0.13868867583E+04  0.25500000920E-02 0.  1.
        2   -1    0    0  501    0  0.00000000000E+00  0.00000000000E+00 -0.27543116412E+04  0.27543116412E+04  0.25500000920E-02 0. -1.
    10030    2    1    2    0    0  0.00000000000E+00  0.00000000000E+00 -0.13674248829E+04  0.41411983995E+04  0.39089222778E+04 0.  0.
        2    1    3    3  502    0  0.14896785637E+04 -0.10538169254E+04  0.58069122329E+02  0.18256627176E+04  0.25500000920E-02 0.  1.
       -2    1    3    3    0  502 -0.14896785637E+04  0.10538169254E+04 -0.14254940052E+04  0.23155356820E+04  0.25500000920E-02 0. -1.
</event>
<event>
 5   0  0.6335942E-09  0.3901496E+04  0.7818609E-02  0.8024718E-01
       -2   -1    0    0    0  501  0.00000000000E+00  0.00000000000E+00  0.21329957137E+04  0.21329957137E+04  0.25500000920E-02 0. -1.
        2   -1    0    0  501    0  0.00000000000E+00  0.00000000000E+00 -0.17840720343E+04  0.17840720343E+04  0.25500000920E-02 0.  1.
    10030    2    1    2    0    0  0.00000000000E+00  0.00000000000E+00  0.34892367936E+03  0.39170677480E+04  0.39014961244E+04 0.  0.
        2    1    3    3  502    0 -0.28712041797E+03  0.16829659358E+04  0.11219473913E+04  0.20429337787E+04  0.25500000920E-02 0. -1.
       -2    1    3    3    0  502  0.28712041797E+03 -0.16829659358E+04 -0.77302371196E+03  0.18741339693E+04  0.25500000920E-02 0.  1.
</event>
<event>
 5   0  0.6335942E-09  0.3899274E+04  0.7818609E-02  0.8025180E-01
        2   -1    0    0  501    0  0.00000000000E+00  0.00000000000E+00  0.14250007818E+04  0.14250007818E+04  0.25500000920E-02 0. -1.
       -2   -1    0    0    0  501  0.00000000000E+00  0.00000000000E+00 -0.26674260604E+04  0.26674260604E+04  0.25500000920E-02 0.  1.
    10030    2    1    2    0    0  0.00000000000E+00  0.00000000000E+00 -0.12424252786E+04  0.40924268423E+04  0.38992738922E+04 0.  0.
        2    1    3    3  502    0 -0.70262644208E+02  0.15629638497E+04 -0.18421484767E+04  0.24168789471E+04  0.25500000920E-02 0.  1.
       -2    1    3    3    0  502  0.70262644208E+02 -0.15629638497E+04  0.59972319808E+03  0.16755478952E+04  0.25500000920E-02 0. -1.
</event>
<event>
 5   0  0.6335942E-09  0.3899614E+04  0.7818609E-02  0.8025110E-01
        2   -1    0    0  501    0  0.00000000000E+00  0.00000000000E+00  0.26056284178E+04  0.26056284178E+04  0.25500000920E-02 0.  1.
       -2   -1    0    0    0  501  0.00000000000E+00  0.00000000000E+00 -0.14590518003E+04  0.14590518003E+04  0.25500000920E-02 0. -1.
    10030    2    1    2    0    0  0.00000000000E+00  0.00000000000E+00  0.11465766175E+04  0.40646802182E+04  0.38996137419E+04 0.  0.
        2    1    3    3  502    0  0.48127427069E+03  0.13360402007E+04 -0.81934993160E+03  0.16395007325E+04  0.25500000920E-02 0. -1.
       -2    1    3    3    0  502 -0.48127427069E+03 -0.13360402007E+04  0.19659265491E+04  0.24251794857E+04  0.25500000920E-02 0.  1.
</event>
<event>
 5   0  0.9277261E-09  0.3897866E+04  0.7818609E-02  0.8025473E-01
        2   -1    0    0  501    0  0.00000000000E+00  0.00000000000E+00  0.21034451773E+04  0.21034451773E+04  0.25500000920E-02 0.  1.
       -2   -1    0    0    0  501  0.00000000000E+00  0.00000000000E+00 -0.18057707736E+04  0.18057707736E+04  0.25500000920E-02 0. -1.
    10030    2    1    2    0    0  0.00000000000E+00  0.00000000000E+00  0.29767440366E+03  0.39092159509E+04  0.38978659931E+04 0.  0.
        1    1    3    3  502    0  0.15072324756E+04 -0.97590825942E+03 -0.61112460188E+03  0.18967392929E+04  0.50400001928E-02 0.  1.
       -1    1    3    3    0  502 -0.15072324756E+04  0.97590825942E+03  0.90879900554E+03  0.20124766580E+04  0.50400001928E-02 0. -1.
</event>
<event>
 5   0  0.9434114E-09  0.3899426E+04  0.7818609E-02  0.8025149E-01
        2   -1    0    0  501    0  0.00000000000E+00  0.00000000000E+00  0.27984136734E+04  0.27984136734E+04  0.25500000920E-02 0.  1.
       -2   -1    0    0    0  501  0.00000000000E+00  0.00000000000E+00 -0.13584053426E+04  0.13584053426E+04  0.25500000920E-02 0. -1.
    10030    2    1    2    0    0  0.00000000000E+00  0.00000000000E+00  0.14400083309E+04  0.41568190160E+04  0.38994256422E+04 0.  0.
        4    1    3    3  502    0 -0.18101560828E+04  0.88539215573E+02 -0.46391279681E+02  0.18129142287E+04  0.12699999809E+01 0. -1.
       -4    1    3    3    0  502  0.18101560828E+04 -0.88539215573E+02  0.14863996105E+04  0.23439047873E+04  0.12699999809E+01 0.  1.
</event>
<event>
 5   0  0.9434114E-09  0.3901615E+04  0.7818609E-02  0.8024693E-01
        2   -1    0    0  501    0  0.00000000000E+00  0.00000000000E+00  0.29775315407E+04  0.29775315407E+04  0.25500000920E-02 0.  1.
       -2   -1    0    0    0  501  0.00000000000E+00  0.00000000000E+00 -0.12781224951E+04  0.12781224951E+04  0.25500000920E-02 0. -1.
    10030    2    1    2    0    0  0.00000000000E+00  0.00000000000E+00  0.16994090456E+04  0.42556540359E+04  0.39016150718E+04 0.  0.
        4    1    3    3  502    0 -0.95026381074E+02 -0.14141767075E+04  0.23117551671E+04  0.27116672618E+04  0.12699999809E+01 0.  1.
       -4    1    3    3    0  502  0.95026381074E+02  0.14141767075E+04 -0.61234612145E+03  0.15439867741E+04  0.12699999809E+01 0. -1.
</event>
<event>
 5   0  0.2904500E-09  0.3901177E+04  0.7818609E-02  0.8024784E-01
        1   -1    0    0  501    0  0.00000000000E+00  0.00000000000E+00  0.24028632412E+04  0.24028632412E+04  0.50400001928E-02 0. -1.
       -1   -1    0    0    0  501  0.00000000000E+00  0.00000000000E+00 -0.15834426158E+04  0.15834426158E+04  0.50400001928E-02 0.  1.
    10030    2    1    2    0    0  0.00000000000E+00  0.00000000000E+00  0.81942062538E+03  0.39863058570E+04  0.39011772870E+04 0.  0.
        4    1    3    3  502    0  0.12428017815E+04  0.11468425206E+04 -0.58360843150E+03  0.17889674255E+04  0.12699999809E+01 0.  1.
       -4    1    3    3    0  502 -0.12428017815E+04 -0.11468425206E+04  0.14030290569E+04  0.21973384315E+04  0.12699999809E+01 0. -1.
</event>
<event>
 5   0  0.2904500E-09  0.3896140E+04  0.7818609E-02  0.8025833E-01
        1   -1    0    0  501    0  0.00000000000E+00  0.00000000000E+00  0.25325822671E+04  0.25325822671E+04  0.50400001928E-02 0. -1.
       -1   -1    0    0    0  501  0.00000000000E+00  0.00000000000E+00 -0.14984610035E+04  0.14984610035E+04  0.50400001928E-02 0.  1.
    10030    2    1    2    0    0  0.00000000000E+00  0.00000000000E+00  0.10341212636E+04  0.40310432706E+04  0.38961395075E+04 0.  0.
        3    1    3    3  502    0 -0.30660730061E+03 -0.19171547098E+04  0.68223013317E+03  0.20578941136E+04  0.10100000352E+00 0. -1.
       -3    1    3    3    0  502  0.30660730061E+03  0.19171547098E+04  0.35189113038E+03  0.19731491570E+04  0.10100000352E+00 0.  1.
</event>
<event>
 5   0  0.2904500E-09  0.3895891E+04  0.7818609E-02  0.8025884E-01
       -1   -1    0    0    0  501  0.00000000000E+00  0.00000000000E+00  0.13892417963E+04  0.13892417963E+04  0.50400001928E-02 0.  1.
        1   -1    0    0  501    0  0.00000000000E+00  0.00000000000E+00 -0.27313400008E+04  0.27313400008E+04  0.50400001928E-02 0. -1.
    10030    2    1    2    0    0  0.00000000000E+00  0.00000000000E+00 -0.13420982045E+04  0.41205817971E+04  0.38958910092E+04 0.  0.
        4    1    3    3  502    0 -0.89914834524E+03 -0.17827966367E+03  0.11468699111E+04  0.14681837729E+04  0.12699999809E+01 0.  1.
       -4    1    3    3    0  502  0.89914834524E+03  0.17827966367E+03 -0.24889681156E+04  0.26523980242E+04  0.12699999809E+01 0. -1.
</event>
<event>
 5   0  0.6335942E-09  0.3899853E+04  0.7818609E-02  0.8025060E-01
        2   -1    0    0  501    0  0.00000000000E+00  0.00000000000E+00  0.20258264012E+04  0.20258264013E+04  0.25500000920E-02 0. -1.
       -2   -1    0    0    0  501  0.00000000000E+00  0.00000000000E+00 -0.18768698408E+04  0.18768698408E+04  0.25500000920E-02 0.  1.
    10030    2    1    2    0    0  0.00000000000E+00  0.00000000000E+00  0.14895656046E+03  0.39026962420E+04  0.38998525486E+04 0.  0.
        2    1    3    3  502    0  0.63598735575E+03  0.18137362140E+04  0.40349378293E+03  0.19639058541E+04  0.25500000920E-02 0. -1.
       -2    1    3    3    0  502 -0.63598735575E+03 -0.18137362140E+04 -0.25453722247E+03  0.19387903880E+04  0.25500000920E-02 0.  1.
</event>
<event>
 5   0  0.6335942E-09  0.3899212E+04  0.7818609E-02  0.8025193E-01
        2   -1    0    0  501    0  0.00000000000E+00  0.00000000000E+00  0.27589068768E+04  0.27589068768E+04  0.25500000920E-02 0.  1.
       -2   -1    0    0    0  501  0.00000000000E+00  0.00000000000E+00 -0.13777066663E+04  0.13777066663E+04  0.25500000920E-02 0. -1.
    10030    2    1    2    0    0  0.00000000000E+00  0.00000000000E+00  0.13812002104E+04  0.41366135431E+04  0.38992124312E+04 0.  0.
        2    1    3    3  502    0 -0.63045129663E+03 -0.11402800801E+04  0.22291593140E+04  0.25820260931E+04  0.25500000920E-02 0.  1.
       -2    1    3    3    0  502  0.63045129663E+03  0.11402800801E+04 -0.84795910352E+03  0.15545874500E+04  0.25500000920E-02 0. -1.
</event>
<event>
 5   0  0.6335942E-09  0.3899713E+04  0.7818609E-02  0.8025089E-01
        2   -1    0    0  501    0  0.00000000000E+00  0.00000000000E+00  0.23254470713E+04  0.23254470713E+04  0.25500000920E-02 0.  1.
       -2   -1    0    0    0  501  0.00000000000E+00  0.00000000000E+00 -0.16349287966E+04  0.16349287966E+04  0.25500000920E-02 0. -1.
    10030    2    1    2    0    0  0.00000000000E+00  0.00000000000E+00  0.69051827473E+03  0.39603758679E+04  0.38997130058E+04 0.  0.
        2    1    3    3  502    0 -0.14605097890E+03  0.19375925840E+04  0.51009378655E+03  0.20089279681E+04  0.25500000920E-02 0. -1.
       -2    1    3    3    0  502  0.14605097890E+03 -0.19375925840E+04  0.18042448818E+03  0.19514478998E+04  0.25500000920E-02 0.  1.
</event>
<event>
 5   0  0.9277261E-09  0.3929599E+04  0.7818609E-02  0.8018901E-01
       -2   -1    0    0    0  501  0.00000000000E+00  0.00000000000E+00  0.20793621778E+04  0.20793621778E+04  0.25500000920E-02 0. -1.
        2   -1    0    0  501    0  0.00000000000E+00  0.00000000000E+00 -0.18565483866E+04  0.18565483866E+04  0.25500000920E-02 0.  1.
    10030    2    1    2    0    0  0.00000000000E+00  0.00000000000E+00  0.22281379119E+03  0.39359105644E+04  0.39295987054E+04 0.  0.
        1    1    3    3  502    0  0.52238215140E+03  0.20700303739E+03 -0.17743554236E+04  0.18612013698E+04  0.50400001928E-02 0.  1.
       -1    1    3    3    0  502 -0.52238215140E+03 -0.20700303739E+03  0.19971692148E+04  0.20747091946E+04  0.50400001928E-02 0. -1.
</event>
<event>
 5   0  0.9078515E-09  0.3901220E+04  0.7818609E-02  0.8024775E-01
        2   -1    0    0  501    0  0.00000000000E+00  0.00000000000E+00  0.32723615470E+04  0.32723615470E+04  0.25500000920E-02 0.  1.
       -2   -1    0    0    0  501  0.00000000000E+00  0.00000000000E+00 -0.11627322447E+04  0.11627322447E+04  0.25500000920E-02 0. -1.
    10030    2    1    2    0    0  0.00000000000E+00  0.00000000000E+00  0.21096293023E+04  0.44350937918E+04  0.39012204691E+04 0.  0.
        3    1    3    3  502    0  0.50538428167E+03  0.17506317514E+03  0.31873725613E+04  0.32319350616E+04  0.10100000352E+00 0.  1.
       -3    1    3    3    0  502 -0.50538428167E+03 -0.17506317514E+03 -0.10777432590E+04  0.12031587302E+04  0.10100000352E+00 0. -1.
</event>
<event>
 5   0  0.2904500E-09  0.3899643E+04  0.7818609E-02  0.8025103E-01
        1   -1    0    0  501    0  0.00000000000E+00  0.00000000000E+00  0.20918897041E+04  0.20918897041E+04  0.50400001928E-02 0. -1.
       -1   -1    0    0    0  501  0.00000000000E+00  0.00000000000E+00 -0.18174020089E+04  0.18174020089E+04  0.50400001928E-02 0.  1.
    10030    2    1    2    0    0  0.00000000000E+00  0.00000000000E+00  0.27448769523E+03  0.39092917130E+04  0.38996433430E+04 0.  0.
        2    1    3    3  502    0 -0.14249986053E+03 -0.11693000359E+04  0.16948692813E+04  0.20640132424E+04  0.25500000920E-02 0. -1.
       -2    1    3    3    0  502  0.14249986053E+03  0.11693000359E+04 -0.14203815861E+04  0.18452784706E+04  0.25500000920E-02 0.  1.
</event>
<event>
 5   0  0.2904500E-09  0.3900445E+04  0.7818609E-02  0.8024937E-01
        1   -1    0    0  501    0  0.00000000000E+00  0.00000000000E+00  0.27716702414E+04  0.27716702414E+04  0.50400001928E-02 0. -1.
       -1   -1    0    0    0  501  0.00000000000E+00  0.00000000000E+00 -0.13722293165E+04  0.13722293165E+04  0.50400001928E-02 0.  1.
    10030    2    1    2    0    0  0.00000000000E+00  0.00000000000E+00  0.13994409249E+04  0.41438995580E+04  0.39004446726E+04 0.  0.
        3    1    3    3  502    0 -0.12545656682E+04 -0.49574579259E+03 -0.79661724013E+03  0.15666199105E+04  0.10100000352E+00 0.  1.
       -3    1    3    3    0  502  0.12545656682E+04  0.49574579259E+03  0.21960581651E+04  0.25772796474E+04  0.10100000352E+00 0. -1.
</event>
<event>
 5   0  0.2929054E-09  0.3899050E+04  0.7818609E-02  0.8025227E-01
        1   -1    0    0  501    0  0.00000000000E+00  0.00000000000E+00  0.24050705873E+04  0.24050705874E+04  0.50400001928E-02 0. -1.
       -1   -1    0    0    0  501  0.00000000000E+00  0.00000000000E+00 -0.15802643677E+04  0.15802643677E+04  0.50400001928E-02 0.  1.
    10030    2    1    2    0    0  0.00000000000E+00  0.00000000000E+00  0.82480621967E+03  0.39853349550E+04  0.38990498078E+04 0.  0.
        1    1    3    3  502    0 -0.19228192754E+04 -0.36727062411E+02  0.73894839578E+03  0.20602493962E+04  0.50400001928E-02 0. -1.
       -1    1    3    3    0  502  0.19228192754E+04  0.36727062411E+02  0.85857823891E+02  0.19250855588E+04  0.50400001928E-02 0.  1.
</event>
<event>
 5   0  0.2904500E-09  0.3901309E+04  0.7818609E-02  0.8024757E-01
       -1   -1    0    0    0  501  0.00000000000E+00  0.00000000000E+00  0.12837801366E+04  0.12837801366E+04  0.50400001928E-02 0. -1.
        1   -1    0    0  501    0  0.00000000000E+00  0.00000000000E+00 -0.29639443884E+04  0.29639443884E+04  0.50400001928E-02 0.  1.
    10030    2    1    2    0    0  0.00000000000E+00  0.00000000000E+00 -0.16801642518E+04  0.42477245250E+04  0.39013089762E+04 0.  0.
        2    1    3    3  502    0 -0.16912949353E+04  0.27369820984E+03  0.17528163573E+03  0.17222406684E+04  0.25500000920E-02 0. -1.
       -2    1    3    3    0  502  0.16912949353E+04 -0.27369820984E+03 -0.18554458876E+04  0.25254838566E+04  0.25500000920E-02 0.  1.
</event>
<event>
 5   0  0.9078515E-09  0.3902193E+04  0.7818609E-02  0.8024573E-01
       -2   -1    0    0    0  501  0.00000000000E+00  0.00000000000E+00  0.29682295198E+04  0.29682295198E+04  0.25500000920E-02 0.  1.
        2   -1    0    0  501    0  0.00000000000E+00  0.00000000000E+00 -0.12825079576E+04  0.12825079576E+04  0.25500000920E-02 0. -1.
    10030    2    1    2    0    0  0.00000000000E+00  0.00000000000E+00  0.16857215622E+04  0.42507374774E+04  0.39021932187E+04 0.  0.
        3    1    3    3  502    0 -0.93516095462E+01 -0.63962706750E+03 -0.11650276424E+04  0.13290973086E+04  0.10100000352E+00 0. -1.
       -3    1    3    3    0  502  0.93516095462E+01  0.63962706750E+03  0.28507492046E+04  0.29216401687E+04  0.10100000352E+00 0.  1.
</event>
<event>
 5   0  0.2904500E-09  0.3900246E+04  0.7818609E-02  0.8024978E-01
        1   -1    0    0  501    0  0.00000000000E+00  0.00000000000E+00  0.16067427542E+04  0.16067427542E+04  0.50400001928E-02 0. -1.
       -1   -1    0    0    0  501  0.00000000000E+00  0.00000000000E+00 -0.23668871917E+04  0.23668871917E+04  0.50400001928E-02 0.  1.
    10030    2    1    2    0    0  0.00000000000E+00  0.00000000000E+00 -0.76014443751E+03  0.39736299460E+04  0.39002455540E+04 0.  0.
        2    1    3    3  502    0 -0.12026671629E+04 -0.15028735530E+04 -0.61227578734E+02  0.19258208737E+04  0.25500000920E-02 0. -1.
       -2    1    3    3    0  502  0.12026671629E+04  0.15028735530E+04 -0.69891685877E+03  0.20478090723E+04  0.25500000920E-02 0.  1.
</event>
<event>
 5   0  0.9078515E-09  0.3901196E+04  0.7818609E-02  0.8024780E-01
       -2   -1    0    0    0  501  0.00000000000E+00  0.00000000000E+00  0.19527916014E+04  0.19527916014E+04  0.25500000920E-02 0.  1.
        2   -1    0    0  501    0  0.00000000000E+00  0.00000000000E+00 -0.19484071605E+04  0.19484071605E+04  0.25500000920E-02 0. -1.
    10030    2    1    2    0    0  0.00000000000E+00  0.00000000000E+00  0.43844409155E+01  0.39011987619E+04  0.39011962981E+04 0.  0.
        3    1    3    3  502    0 -0.11415017535E+04  0.47377548825E+03 -0.15068957620E+04  0.19489033620E+04  0.10100000352E+00 0. -1.
       -3    1    3    3    0  502  0.11415017535E+04 -0.47377548825E+03  0.15112802029E+04  0.19522953999E+04  0.10100000352E+00 0.  1.
</event>
<event>
 5   0  0.9434114E-09  0.3899729E+04  0.7818609E-02  0.8025086E-01
       -2   -1    0    0    0  501  0.00000000000E+00  0.00000000000E+00  0.23650990477E+04  0.23650990477E+04  0.25500000920E-02 0. -1.
        2   -1    0    0  501    0  0.00000000000E+00  0.00000000000E+00 -0.16075318466E+04  0.16075318466E+04  0.25500000920E-02 0.  1.
    10030    2    1    2    0    0  0.00000000000E+00  0.00000000000E+00  0.75756720104E+03  0.39726308943E+04  0.38997292416E+04 0.  0.
        4    1    3    3  502    0 -0.78176836745E+03  0.10388553804E+04  0.18590789278E+04  0.22686027317E+04  0.12699999809E+01 0. -1.
       -4    1    3    3    0  502  0.78176836745E+03 -0.10388553804E+04 -0.11015117268E+04  0.17040281626E+04  0.12699999809E+01 0.  1.
</event>
<event>
 5   0  0.2904500E-09  0.3901299E+04  0.7818609E-02  0.8024759E-01
        1   -1    0    0  501    0  0.00000000000E+00  0.00000000000E+00  0.22969278280E+04  0.22969278280E+04  0.50400001928E-02 0. -1.
       -1   -1    0    0    0  501  0.00000000000E+00  0.00000000000E+00 -0.16565751185E+04  0.16565751185E+04  0.50400001928E-02 0.  1.
    10030    2    1    2    0    0  0.00000000000E+00  0.00000000000E+00  0.64035270944E+03  0.39535029465E+04  0.39012990087E+04 0.  0.
        5    1    3    3  502    0 -0.82491203886E+03 -0.24917003949E+03  0.20935777112E+04  0.22639910122E+04  0.46999998093E+01 0. -1.
       -5    1    3    3    0  502  0.82491203886E+03  0.24917003949E+03 -0.14532250018E+04  0.16895119343E+04  0.46999998093E+01 0.  1.
</event>
<event>
 5   0  0.2904500E-09  0.3904361E+04  0.7818609E-02  0.8024123E-01
        1   -1    0    0  501    0  0.00000000000E+00  0.00000000000E+00  0.21070872322E+04  0.21070872322E+04  0.50400001928E-02 0. -1.
       -1   -1    0    0    0  501  0.00000000000E+00  0.00000000000E+00 -0.18086619235E+04  0.18086619235E+04  0.50400001928E-02 0.  1.
    10030    2    1    2    0    0  0.00000000000E+00  0.00000000000E+00  0.29842530869E+03  0.39157491557E+04  0.39043608678E+04 0.  0.
        3    1    3    3  502    0 -0.12556611012E+04 -0.35970570738E+03  0.16042840447E+04  0.20687678224E+04  0.10100000352E+00 0. -1.
       -3    1    3    3    0  502  0.12556611012E+04  0.35970570738E+03 -0.13058587360E+04  0.18469813333E+04  0.10100000352E+00 0.  1.
</event>
<event>
 5   0  0.2904500E-09  0.3901214E+04  0.7818609E-02  0.8024777E-01
       -1   -1    0    0    0  501  0.00000000000E+00  0.00000000000E+00  0.25101848264E+04  0.25101848264E+04  0.50400001928E-02 0. -1.
        1   -1    0    0  501    0  0.00000000000E+00  0.00000000000E+00 -0.15157721193E+04  0.15157721193E+04  0.50400001928E-02 0.  1.
    10030    2    1    2    0    0  0.00000000000E+00  0.00000000000E+00  0.99441270710E+03  0.40259569457E+04  0.39012142592E+04 0.  0.
        4    1    3    3  502    0 -0.53980158310E+02  0.12637481318E+04  0.20295745094E+04  0.23914739179E+04  0.12699999809E+01 0. -1.
       -4    1    3    3    0  502  0.53980158310E+02 -0.12637481318E+04 -0.10351618023E+04  0.16344830277E+04  0.12699999809E+01 0.  1.
</event>
<event>
 5   0  0.2904500E-09  0.3900015E+04  0.7818609E-02  0.8025026E-01
       -1   -1    0    0    0  501  0.00000000000E+00  0.00000000000E+00  0.19975377110E+04  0.19975377110E+04  0.50400001928E-02 0.  1.
        1   -1    0    0  501    0  0.00000000000E+00  0.00000000000E+00 -0.19036077811E+04  0.19036077811E+04  0.50400001928E-02 0. -1.
    10030    2    1    2    0    0  0.00000000000E+00  0.00000000000E+00  0.93929929871E+02  0.39011454920E+04  0.39000145280E+04 0.  0.
        5    1    3    3  502    0  0.25087057063E+03 -0.11975445672E+04  0.15657784879E+04  0.19871420173E+04  0.46999998093E+01 0.  1.
       -5    1    3    3    0  502 -0.25087057063E+03  0.11975445672E+04 -0.14718485580E+04  0.19140034748E+04  0.46999998093E+01 0. -1.
</event>
<event>
 5   0  0.6335942E-09  0.3899347E+04  0.7818609E-02  0.8025165E-01
       -2   -1    0    0    0  501  0.00000000000E+00  0.00000000000E+00  0.12813087353E+04  0.12813087353E+04  0.25500000920E-02 0. -1.
        2   -1    0    0  501    0  0.00000000000E+00  0.00000000000E+00 -0.29666749445E+04  0.29666749445E+04  0.25500000920E-02 0.  1.
    10030    2    1    2    0    0  0.00000000000E+00  0.00000000000E+00 -0.16853662092E+04  0.42479836798E+04  0.38993468792E+04 0.  0.
        2    1    3    3  502    0 -0.18686603094E+04 -0.16853975393E+03 -0.26526598291E+03  0.18949044942E+04  0.25500000920E-02 0. -1.
       -2    1    3    3    0  502  0.18686603094E+04  0.16853975393E+03 -0.14201002263E+04  0.23530791855E+04  0.25500000920E-02 0.  1.
</event>
<event>
 5   0  0.2904500E-09  0.3900264E+04  0.7818609E-02  0.8024974E-01
       -1   -1    0    0    0  501  0.00000000000E+00  0.00000000000E+00  0.16320276842E+04  0.16320276842E+04  0.50400001928E-02 0.  1.
        1   -1    0    0  501    0  0.00000000000E+00  0.00000000000E+00 -0.23302397300E+04  0.23302397300E+04  0.50400001928E-02 0. -1.
    10030    2    1    2    0    0  0.00000000000E+00  0.00000000000E+00 -0.69821204575E+03  0.39622674142E+04  0.39002644784E+04 0.  0.
        2    1    3    3  502    0 -0.11611578998E+04 -0.82628606863E+03  0.10032127012E+04  0.17428344900E+04  0.25500000920E-02 0.  1.
       -2    1    3    3    0  502  0.11611578998E+04  0.82628606863E+03 -0.17014247470E+04  0.22194329243E+04  0.25500000920E-02 0. -1.
</event>
<event>
 5   0  0.9078515E-09  0.3899301E+04  0.7818609E-02  0.8025175E-01
       -2   -1    0    0    0  501  0.00000000000E+00  0.00000000000E+00  0.17280059400E+04  0.17280059401E+04  0.25500000920E-02 0.  1.
        2   -1    0    0  501    0  0.00000000000E+00  0.00000000000E+00 -0.21997245742E+04  0.21997245742E+04  0.25500000920E-02 0. -1.
    10030    2    1    2    0    0  0.00000000000E+00  0.00000000000E+00 -0.47171863411E+03  0.39277305142E+04  0.38993010300E+04 0.  0.
        3    1    3    3  502    0 -0.22065202888E+03 -0.10395810189E+04 -0.18823166438E+04  0.21616040272E+04  0.10100000352E+00 0. -1.
       -3    1    3    3    0  502  0.22065202888E+03  0.10395810189E+04  0.14105980097E+04  0.17661264870E+04  0.10100000352E+00 0.  1.
</event>
<event>
 5   0  0.2929054E-09  0.3898949E+04  0.7818609E-02  0.8025248E-01
        1   -1    0    0  501    0  0.00000000000E+00  0.00000000000E+00  0.19224666811E+04  0.19224666811E+04  0.50400001928E-02 0.  1.
       -1   -1    0    0    0  501  0.00000000000E+00  0.00000000000E+00 -0.19768612667E+04  0.19768612667E+04  0.50400001928E-02 0. -1.
    10030    2    1    2    0    0  0.00000000000E+00  0.00000000000E+00 -0.54394585664E+02  0.38993279478E+04  0.38989485344E+04 0.  0.
        1    1    3    3  502    0 -0.13315808151E+04 -0.46758507762E+03  0.13178152277E+04  0.19309014077E+04  0.50400001928E-02 0.  1.
       -1    1    3    3    0  502  0.13315808151E+04  0.46758507762E+03 -0.13722098134E+04  0.19684265401E+04  0.50400001928E-02 0. -1.
</event>
<event>
 5   0  0.9078515E-09  0.3901191E+04  0.7818609E-02  0.8024782E-01
        2   -1    0    0  501    0  0.00000000000E+00  0.00000000000E+00  0.13785521014E+04  0.13785521014E+04  0.25500000920E-02 0.  1.
       -2   -1    0    0    0  501  0.00000000000E+00  0.00000000000E+00 -0.27600134084E+04  0.27600134084E+04  0.25500000920E-02 0. -1.
    10030    2    1    2    0    0  0.00000000000E+00  0.00000000000E+00 -0.13814613071E+04  0.41385655098E+04  0.39011907331E+04 0.  0.
        3    1    3    3  502    0 -0.30410219678E+03  0.14608499125E+03 -0.27288277350E+04  0.27496035693E+04  0.10100000352E+00 0. -1.
       -3    1    3    3    0  502  0.30410219678E+03 -0.14608499125E+03  0.13473664280E+04  0.13889619405E+04  0.10100000352E+00 0.  1.
</event>
<event>
 5   0  0.9078515E-09  0.3900076E+04  0.7818609E-02  0.8025013E-01
        2   -1    0    0  501    0  0.00000000000E+00  0.00000000000E+00  0.16065533011E+04  0.16065533011E+04  0.25500000920E-02 0. -1.
       -2   -1    0    0    0  501  0.00000000000E+00  0.00000000000E+00 -0.23669604077E+04  0.23669604077E+04  0.25500000920E-02 0.  1.
    10030    2    1    2    0    0  0.00000000000E+00  0.00000000000E+00 -0.76040710655E+03  0.39735137088E+04  0.39000759257E+04 0.  0.
        3    1    3    3  502    0 -0.77603720556E+03 -0.17844748470E+04 -0.50933324125E+03  0.20114682659E+04  0.10100000352E+00 0. -1.
       -3    1    3    3    0  502  0.77603720556E+03  0.17844748470E+04 -0.25107386530E+03  0.19620454429E+04  0.10100000352E+00 0.  1.
</event>
<event>
 5   0  0.9368546E-09  0.3901020E+04  0.7818609E-02  0.8024817E-01
        2   -1    0    0  501    0  0.00000000000E+00  0.00000000000E+00  0.29957752131E+04  0.29957752131E+04  0.25500000920E-02 0. -1.
       -2   -1    0    0    0  501  0.00000000000E+00  0.00000000000E+00 -0.12699516524E+04  0.12699516524E+04  0.25500000920E-02 0.  1.
    10030    2    1    2    0    0  0.00000000000E+00  0.00000000000E+00  0.17258235607E+04  0.42657268655E+04  0.39010202164E+04 0.  0.
        5    1    3    3  502    0  0.49256160581E+03  0.14040820679E+04 -0.51610198255E+03  0.15749434070E+04  0.46999998093E+01 0.  1.
       -5    1    3    3    0  502 -0.49256160581E+03 -0.14040820679E+04  0.22419255432E+04  0.26907834585E+04  0.46999998093E+01 0. -1.
</event>
<event>
 5   0  0.9277261E-09  0.3900080E+04  0.7818609E-02  0.8025013E-01
       -2   -1    0    0    0  501  0.00000000000E+00  0.00000000000E+00  0.13829178916E+04  0.13829178916E+04  0.25500000920E-02 0. -1.
        2   -1    0    0  501    0  0.00000000000E+00  0.00000000000E+00 -0.27497335791E+04  0.27497335791E+04  0.25500000920E-02 0.  1.
    10030    2    1    2    0    0  0.00000000000E+00  0.00000000000E+00 -0.13668156875E+04  0.41326514708E+04  0.39000798781E+04 0.  0.
        1    1    3    3  502    0  0.74707293531E+02  0.18177022840E+04  0.60626990490E+02  0.18202467978E+04  0.50400001928E-02 0. -1.
       -1    1    3    3    0  502 -0.74707293531E+02 -0.18177022840E+04 -0.14274426780E+04  0.23124046730E+04  0.50400001928E-02 0.  1.
</event>
<event>
 5   0  0.2929054E-09  0.3899215E+04  0.7818609E-02  0.8025193E-01
       -1   -1    0    0    0  501  0.00000000000E+00  0.00000000000E+00  0.12291631165E+04  0.12291631165E+04  0.50400001928E-02 0.  1.
        1   -1    0    0  501    0  0.00000000000E+00  0.00000000000E+00 -0.30923224486E+04  0.30923224486E+04  0.50400001928E-02 0. -1.
    10030    2    1    2    0    0  0.00000000000E+00  0.00000000000E+00 -0.18631593321E+04  0.43214855651E+04  0.38992146379E+04 0.  0.
        1    1    3    3  502    0 -0.17545110398E+04  0.11046613676E+03  0.25879449350E+01  0.17579870459E+04  0.50400001928E-02 0.  1.
       -1    1    3    3    0  502  0.17545110398E+04 -0.11046613676E+03 -0.18657472770E+04  0.25634985192E+04  0.50400001928E-02 0. -1.
</event>
<event>
 5   0  0.2904500E-09  0.3898332E+04  0.7818609E-02  0.8025376E-01
       -1   -1    0    0    0  501  0.00000000000E+00  0.00000000000E+00  0.12686412015E+04  0.12686412015E+04  0.50400001928E-02 0. -1.
        1   -1    0    0  501    0  0.00000000000E+00  0.00000000000E+00 -0.29947386947E+04  0.29947386947E+04  0.50400001928E-02 0.  1.
    10030    2    1    2    0    0  0.00000000000E+00  0.00000000000E+00 -0.17260974932E+04  0.42633798962E+04  0.38983324105E+04 0.  0.
        2    1    3    3  502    0 -0.34517409407E+03  0.15909354724E+04 -0.20353533820E+04  0.26063162169E+04  0.25500000920E-02 0. -1.
       -2    1    3    3    0  502  0.34517409407E+03 -0.15909354724E+04  0.30925588886E+03  0.16570636793E+04  0.25500000920E-02 0.  1.
</event>
<event>
 5   0  0.2904500E-09  0.3903832E+04  0.7818609E-02  0.8024233E-01
       -1   -1    0    0    0  501  0.00000000000E+00  0.00000000000E+00  0.19796514196E+04  0.19796514196E+04  0.50400001928E-02 0. -1.
        1   -1    0    0  501    0  0.00000000000E+00  0.00000000000E+00 -0.19245688991E+04  0.19245688991E+04  0.50400001928E-02 0.  1.
    10030    2    1    2    0    0  0.00000000000E+00  0.00000000000E+00  0.55082520463E+02  0.39042203187E+04  0.39038317347E+04 0.  0.
        5    1    3    3  502    0  0.44160720153E+03  0.14399364561E+04  0.12692443018E+04  0.19696286720E+04  0.46999998093E+01 0. -1.
       -5    1    3    3    0  502 -0.44160720153E+03 -0.14399364561E+04 -0.12141617813E+04  0.19345916467E+04  0.46999998093E+01 0.  1.
</event>
<event>
 5   0  0.6335942E-09  0.3906121E+04  0.7818609E-02  0.8023757E-01
        2   -1    0    0  501    0  0.00000000000E+00  0.00000000000E+00  0.19300175926E+04  0.19300175926E+04  0.25500000920E-02 0. -1.
       -2   -1    0    0    0  501  0.00000000000E+00  0.00000000000E+00 -0.19763789896E+04  0.19763789896E+04  0.25500000920E-02 0.  1.
    10030    2    1    2    0    0  0.00000000000E+00  0.00000000000E+00 -0.46361396996E+02  0.39063965821E+04  0.39061214622E+04 0.  0.
        2    1    3    3  502    0 -0.14208755161E+04 -0.74188957095E+03  0.10927647564E+04  0.19399541697E+04  0.25500000920E-02 0. -1.
       -2    1    3    3    0  502  0.14208755161E+04  0.74188957095E+03 -0.11391261534E+04  0.19664424124E+04  0.25500000920E-02 0.  1.
</event>
<event>
 5   0  0.2904500E-09  0.3897928E+04  0.7818609E-02  0.8025460E-01
        1   -1    0    0  501    0  0.00000000000E+00  0.00000000000E+00  0.19057919810E+04  0.19057919811E+04  0.50400001928E-02 0. -1.
       -1   -1    0    0    0  501  0.00000000000E+00  0.00000000000E+00 -0.19931136427E+04  0.19931136427E+04  0.50400001928E-02 0.  1.
    10030    2    1    2    0    0  0.00000000000E+00  0.00000000000E+00 -0.87321661615E+02  0.38989056237E+04  0.38979276533E+04 0.  0.
        3    1    3    3  502    0  0.95959219113E+03 -0.13304024801E+04 -0.10963848894E+04  0.19730300981E+04  0.10100000352E+00 0.  1.
       -3    1    3    3    0  502 -0.95959219113E+03  0.13304024801E+04  0.10090632278E+04  0.19258755256E+04  0.10100000352E+00 0. -1.
</event>
<event>
 5   0  0.2904500E-09  0.3900340E+04  0.7818609E-02  0.8024958E-01
       -1   -1    0    0    0  501  0.00000000000E+00  0.00000000000E+00  0.15259165837E+04  0.15259165837E+04  0.50400001928E-02 0. -1.
        1   -1    0    0  501    0  0.00000000000E+00  0.00000000000E+00 -0.24923799286E+04  0.24923799286E+04  0.50400001928E-02 0.  1.
    10030    2    1    2    0    0  0.00000000000E+00  0.00000000000E+00 -0.96646334487E+03  0.40182965124E+04  0.39003404293E+04 0.  0.
        4    1    3    3  502    0 -0.18597270656E+03  0.15899772278E+04  0.66425168585E+03  0.17331605083E+04  0.12699999809E+01 0. -1.
       -4    1    3    3    0  502  0.18597270656E+03 -0.15899772278E+04 -0.16307150307E+04  0.22851360040E+04  0.12699999809E+01 0.  1.
</event>
<event>
 5   0  0.9434114E-09  0.3901401E+04  0.7818609E-02  0.8024738E-01
       -2   -1    0    0    0  501  0.00000000000E+00  0.00000000000E+00  0.20390962856E+04  0.20390962856E+04  0.25500000920E-02 0. -1.
        2   -1    0    0  501    0  0.00000000000E+00  0.00000000000E+00 -0.18661370386E+04  0.18661370386E+04  0.25500000920E-02 0.  1.
    10030    2    1    2    0    0  0.00000000000E+00  0.00000000000E+00  0.17295924699E+03  0.39052333242E+04  0.39014013399E+04 0.  0.
        4    1    3    3  502    0 -0.78477122787E+02  0.61896514533E+03  0.19365251979E+04  0.20345535050E+04  0.12699999809E+01 0. -1.
       -4    1    3    3    0  502  0.78477122787E+02 -0.61896514533E+03 -0.17635659509E+04  0.18706798192E+04  0.12699999809E+01 0.  1.
</event>
<event>
 5   0  0.2904500E-09  0.3897750E+04  0.7818609E-02  0.8025497E-01
        1   -1    0    0  501    0  0.00000000000E+00  0.00000000000E+00  0.19140450257E+04  0.19140450257E+04  0.50400001928E-02 0.  1.
       -1   -1    0    0    0  501  0.00000000000E+00  0.00000000000E+00 -0.19843386239E+04  0.19843386239E+04  0.50400001928E-02 0. -1.
    10030    2    1    2    0    0  0.00000000000E+00  0.00000000000E+00 -0.70293598165E+02  0.38983836496E+04  0.38977498496E+04 0.  0.
        4    1    3    3  502    0 -0.84239936806E+03  0.69381834826E+03  0.15797647135E+04  0.19200725920E+04  0.12699999809E+01 0.  1.
       -4    1    3    3    0  502  0.84239936806E+03 -0.69381834826E+03 -0.16500583117E+04  0.19783110576E+04  0.12699999809E+01 0. -1.
</event>
<event>
 5   0  0.2904500E-09  0.3899587E+04  0.7818609E-02  0.8025115E-01
       -1   -1    0    0    0  501  0.00000000000E+00  0.00000000000E+00  0.17074552264E+04  0.17074552264E+04  0.50400001928E-02 0.  1.
        1   -1    0    0  501    0  0.00000000000E+00  0.00000000000E+00 -0.22265267535E+04  0.22265267535E+04  0.50400001928E-02 0. -1.
    10030    2    1    2    0    0  0.00000000000E+00  0.00000000000E+00 -0.51907152715E+03  0.39339819799E+04  0.38995870253E+04 0.  0.
        4    1    3    3  502    0 -0.42495943755E+03 -0.76277208682E+03  0.14991943589E+04  0.17349343269E+04  0.12699999809E+01 0.  1.
       -4    1    3    3    0  502  0.42495943755E+03  0.76277208682E+03 -0.20182658861E+04  0.21990476529E+04  0.12699999809E+01 0. -1.
</event>
<event>
 5   0  0.2929054E-09  0.3899330E+04  0.7818609E-02  0.8025169E-01
       -1   -1    0    0    0  501  0.00000000000E+00  0.00000000000E+00  0.17779553209E+04  0.17779553209E+04  0.50400001928E-02 0. -1.
        1   -1    0    0  501    0  0.00000000000E+00  0.00000000000E+00 -0.21379573610E+04  0.21379573610E+04  0.50400001928E-02 0.  1.
    10030    2    1    2    0    0  0.00000000000E+00  0.00000000000E+00 -0.36000204006E+03  0.39159126820E+04  0.38993295147E+04 0.  0.
        1    1    3    3  502    0  0.15137967486E+04 -0.55867745754E+03 -0.12789544638E+04  0.20589865513E+04  0.50400001928E-02 0.  1.
       -1    1    3    3    0  502 -0.15137967486E+04  0.55867745754E+03  0.91895242378E+03  0.18569261307E+04  0.50400001928E-02 0. -1.
</event>
<event>
 5   0  0.9277261E-09  0.3900153E+04  0.7818609E-02  0.8024997E-01
        2   -1    0    0  501    0  0.00000000000E+00  0.00000000000E+00  0.16887011589E+04  0.16887011589E+04  0.25500000920E-02 0.  1.
       -2   -1    0    0    0  501  0.00000000000E+00  0.00000000000E+00 -0.22519066792E+04  0.22519066792E+04  0.25500000920E-02 0. -1.
    10030    2    1    2    0    0  0.00000000000E+00  0.00000000000E+00 -0.56320552030E+03  0.39406078382E+04  0.39001525196E+04 0.  0.
        1    1    3    3  502    0  0.68722846997E+03 -0.14285858666E+03  0.15566387479E+04  0.17075759828E+04  0.50400001928E-02 0.  1.
       -1    1    3    3    0  502 -0.68722846997E+03  0.14285858666E+03 -0.21198442682E+04  0.22330318553E+04  0.50400001928E-02 0. -1.
</event>
<event>
 5   0  0.2904500E-09  0.3899377E+04  0.7818609E-02  0.8025159E-01
        1   -1    0    0  501    0  0.00000000000E+00  0.00000000000E+00  0.12210267002E+04  0.12210267003E+04  0.50400001928E-02 0. -1.
       -1   -1    0    0    0  501  0.00000000000E+00  0.00000000000E+00 -0.31131870502E+04  0.31131870502E+04  0.50400001928E-02 0.  1.
    10030    2    1    2    0    0  0.00000000000E+00  0.00000000000E+00 -0.18921603500E+04  0.43342137505E+04  0.38993766226E+04 0.  0.
        3    1    3    3  502    0  0.12797920075E+04 -0.25692664960E+03  0.66366212032E+03  0.14643518382E+04  0.10100000352E+00 0. -1.
       -3    1    3    3    0  502 -0.12797920075E+04  0.25692664960E+03 -0.25558224703E+04  0.28698619123E+04  0.10100000352E+00 0.  1.
</event>
<event>
 5   0  0.6335942E-09  0.3900384E+04  0.7818609E-02  0.8024949E-01
        2   -1    0    0  501    0  0.00000000000E+00  0.00000000000E+00  0.23910384999E+04  0.23910384999E+04  0.25500000920E-02 0. -1.
       -2   -1    0    0    0  501  0.00000000000E+00  0.00000000000E+00 -0.15906261350E+04  0.15906261350E+04  0.25500000920E-02 0.  1.
    10030    2    1    2    0    0  0.00000000000E+00  0.00000000000E+00  0.80041236482E+03  0.39816646349E+04  0.39003837390E+04 0.  0.
        2    1    3    3  502    0 -0.98673378754E+03  0.11794101496E+04 -0.82420372242E+03  0.17446958601E+04  0.25500000920E-02 0.  1.
       -2    1    3    3    0  502  0.98673378754E+03 -0.11794101496E+04  0.16246160872E+04  0.22369687748E+04  0.25500000920E-02 0. -1.
</event>
<event>
 5   0  0.9078515E-09  0.3899119E+04  0.7818609E-02  0.8025213E-01
        2   -1    0    0  501    0  0.00000000000E+00  0.00000000000E+00  0.20003005350E+04  0.20003005350E+04  0.25500000920E-02 0.  1.
       -2   -1    0    0    0  501  0.00000000000E+00  0.00000000000E+00 -0.19001053503E+04  0.19001053503E+04  0.25500000920E-02 0. -1.
    10030    2    1    2    0    0  0.00000000000E+00  0.00000000000E+00  0.10019518468E+03  0.39004058853E+04  0.38991187460E+04 0.  0.
        3    1    3    3  502    0  0.10129721291E+04 -0.59566024117E+02  0.17153155800E+04  0.19929797276E+04  0.10100000352E+00 0.  1.
       -3    1    3    3    0  502 -0.10129721291E+04  0.59566024117E+02 -0.16151203953E+04  0.19074261577E+04  0.10100000352E+00 0. -1.
</event>
<event>
 5   0  0.2904500E-09  0.3900331E+04  0.7818609E-02  0.8024960E-01
       -3   -1    0    0    0  501  0.00000000000E+00  0.00000000000E+00  0.21215749057E+04  0.21215749081E+04  0.10100000352E+00 0.  1.
        3   -1    0    0  501    0  0.00000000000E+00  0.00000000000E+00 -0.17926051706E+04  0.17926051734E+04  0.10100000352E+00 0. -1.
    10030    2    1    2    0    0  0.00000000000E+00  0.00000000000E+00  0.32896973510E+03  0.39141800815E+04  0.39003313479E+04 0.  0.
        2    1    3    3  502    0 -0.10760513106E+04 -0.16095160622E+04 -0.70264011382E+02  0.19373604231E+04  0.25500000920E-02 0.  1.
       -2    1    3    3    0  502  0.10760513106E+04  0.16095160622E+04  0.39923374648E+03  0.19768196584E+04  0.25500000920E-02 0. -1.
</event>
<event>
 5   0  0.2904500E-09  0.3900718E+04  0.7818609E-02  0.8024880E-01
        1   -1    0    0  501    0  0.00000000000E+00  0.00000000000E+00  0.13543579747E+04  0.13543579748E+04  0.50400001928E-02 0. -1.
       -1   -1    0    0    0  501  0.00000000000E+00  0.00000000000E+00 -0.28086377658E+04  0.28086377658E+04  0.50400001928E-02 0.  1.
    10030    2    1    2    0    0  0.00000000000E+00  0.00000000000E+00 -0.14542797911E+04  0.41629957406E+04  0.39007183730E+04 0.  0.
        5    1    3    3  502    0  0.12297037597E+04 -0.13697768927E+04 -0.39272949607E+02  0.18412019246E+04  0.46999998093E+01 0. -1.
       -5    1    3    3    0  502 -0.12297037597E+04  0.13697768927E+04 -0.14150068415E+04  0.23217938160E+04  0.46999998093E+01 0.  1.
</event>
<event>
 5   0  0.9434114E-09  0.3898709E+04  0.7818609E-02  0.8025298E-01
        2   -1    0    0  501    0  0.00000000000E+00  0.00000000000E+00  0.23059451332E+04  0.23059451332E+04  0.25500000920E-02 0.  1.
       -2   -1    0    0    0  501  0.00000000000E+00  0.00000000000E+00 -0.16479066907E+04  0.16479066907E+04  0.25500000920E-02 0. -1.
    10030    2    1    2    0    0  0.00000000000E+00  0.00000000000E+00  0.65803844251E+03  0.39538518239E+04  0.38987087161E+04 0.  0.
        4    1    3    3  502    0 -0.18998730514E+04 -0.41269661521E+03  0.18507974274E+03  0.19529701052E+04  0.12699999809E+01 0. -1.
       -4    1    3    3    0  502  0.18998730514E+04  0.41269661521E+03  0.47295869977E+03  0.20008817187E+04  0.12699999809E+01 0.  1.
</event>
<event>
 5   0  0.9434114E-09  0.3899286E+04  0.7818609E-02  0.8025178E-01
        2   -1    0    0  501    0  0.00000000000E+00  0.00000000000E+00  0.21167587104E+04  0.21167587104E+04  0.25500000920E-02 0.  1.
       -2   -1    0    0    0  501  0.00000000000E+00  0.00000000000E+00 -0.17957213147E+04  0.17957213147E+04  0.25500000920E-02 0. -1.
    10030    2    1    2    0    0  0.00000000000E+00  0.00000000000E+00  0.32103739573E+03  0.39124800252E+04  0.38992864652E+04 0.  0.
        4    1    3    3  502    0  0.21242847685E+03 -0.14830509793E+04 -0.10913168540E+04  0.18535210152E+04  0.12699999809E+01 0. -1.
       -4    1    3    3    0  502 -0.21242847685E+03  0.14830509793E+04  0.14123542497E+04  0.20589590100E+04  0.12699999809E+01 0.  1.
</event>
<event>
 5   0  0.6335942E-09  0.3900205E+04  0.7818609E-02  0.8024987E-01
        2   -1    0    0  501    0  0.00000000000E+00  0.00000000000E+00  0.25477330950E+04  0.25477330950E+04  0.25500000920E-02 0. -1.
       -2   -1    0    0    0  501  0.00000000000E+00  0.00000000000E+00 -0.14926602870E+04  0.14926602870E+04  0.25500000920E-02 0.  1.
    10030    2    1    2    0    0  0.00000000000E+00  0.00000000000E+00  0.10550728079E+04  0.40403933820E+04  0.39002051293E+04 0.  0.
        2    1    3    3  502    0 -0.10559180862E+04 -0.15620342008E+04  0.10434178717E+04  0.21549094423E+04  0.25500000920E-02 0.  1.
       -2    1    3    3    0  502  0.10559180862E+04  0.15620342008E+04  0.11654936202E+02  0.18854839397E+04  0.25500000920E-02 0. -1.
</event>
<event>
 5   0  0.2904500E-09  0.3900280E+04  0.7818609E-02  0.8024971E-01
        1   -1    0    0  501    0  0.00000000000E+00  0.00000000000E+00  0.14244541740E+04  0.14244541741E+04  0.50400001928E-02 0. -1.
       -1   -1    0    0    0  501  0.00000000000E+00  0.00000000000E+00 -0.26698272178E+04  0.26698272178E+04  0.50400001928E-02 0.  1.
    10030    2    1    2    0    0  0.00000000000E+00  0.00000000000E+00 -0.12453730437E+04  0.40942813918E+04  0.39002802588E+04 0.  0.
        3    1    3    3  502    0  0.94986361563E+03 -0.11015698802E+04  0.74090529604E+03  0.16323718195E+04  0.10100000352E+00 0. -1.
       -3    1    3    3    0  502 -0.94986361563E+03  0.11015698802E+04 -0.19862783397E+04  0.24619095723E+04  0.10100000352E+00 0.  1.
</event>
<event>
 5   0  0.9277261E-09  0.3901879E+04  0.7818609E-02  0.8024638E-01
        2   -1    0    0  501    0  0.00000000000E+00  0.00000000000E+00  0.20859091938E+04  0.20859091938E+04  0.25500000920E-02 0.  1.
       -2   -1    0    0    0  501  0.00000000000E+00  0.00000000000E+00 -0.18247034054E+04  0.18247034054E+04  0.25500000920E-02 0. -1.
    10030    2    1    2    0    0  0.00000000000E+00  0.00000000000E+00  0.26120578835E+03  0.39106125992E+04  0.39018793468E+04 0.  0.
        1    1    3    3  502    0 -0.61797230616E+03 -0.18480808811E+04  0.36196017023E+02  0.19490004787E+04  0.50400001928E-02 0. -1.
       -1    1    3    3    0  502  0.61797230616E+03  0.18480808811E+04  0.22500977133E+03  0.19616121205E+04  0.50400001928E-02 0.  1.
</event>
<event>
 5   0  0.2904500E-09  0.3900944E+04  0.7818609E-02  0.8024833E-01
        1   -1    0    0  501    0  0.00000000000E+00  0.00000000000E+00  0.18510166276E+04  0.18510166276E+04  0.50400001928E-02 0.  1.
       -1   -1    0    0    0  501  0.00000000000E+00  0.00000000000E+00 -0.20552713720E+04  0.20552713720E+04  0.50400001928E-02 0. -1.
    10030    2    1    2    0    0  0.00000000000E+00  0.00000000000E+00 -0.20425474438E+03  0.39062879996E+04  0.39009442364E+04 0.  0.
        5    1    3    3  502    0  0.17707218770E+03  0.36362170359E+03  0.18085598266E+04  0.18532366388E+04  0.46999998093E+01 0.  1.
       -5    1    3    3    0  502 -0.17707218770E+03 -0.36362170359E+03 -0.20128145710E+04  0.20530513608E+04  0.46999998093E+01 0. -1.
</event>
<event>
 5   0  0.2904500E-09  0.3899212E+04  0.7818609E-02  0.8025193E-01
       -1   -1    0    0    0  501  0.00000000000E+00  0.00000000000E+00  0.15381277472E+04  0.15381277472E+04  0.50400001928E-02 0.  1.
        1   -1    0    0  501    0  0.00000000000E+00  0.00000000000E+00 -0.24711621640E+04  0.24711621640E+04  0.50400001928E-02 0. -1.
    10030    2    1    2    0    0  0.00000000000E+00  0.00000000000E+00 -0.93303441681E+03  0.40092899112E+04  0.38992117625E+04 0.  0.
        3    1    3    3  502    0  0.22350351007E+03 -0.80477643043E+03 -0.22778806988E+04  0.24261820645E+04  0.10100000352E+00 0. -1.
       -3    1    3    3    0  502 -0.22350351007E+03  0.80477643043E+03  0.13448462820E+04  0.15831078467E+04  0.10100000352E+00 0.  1.
</event>
<event>
 5   0  0.2904500E-09  0.3899919E+04  0.7818609E-02  0.8025046E-01
       -1   -1    0    0    0  501  0.00000000000E+00  0.00000000000E+00  0.21508752784E+04  0.21508752785E+04  0.50400001928E-02 0.  1.
        1   -1    0    0  501    0  0.00000000000E+00  0.00000000000E+00 -0.17678119367E+04  0.17678119367E+04  0.50400001928E-02 0. -1.
    10030    2    1    2    0    0  0.00000000000E+00  0.00000000000E+00  0.38306334179E+03  0.39186872151E+04  0.38999194820E+04 0.  0.
        5    1    3    3  502    0 -0.45228017858E+03  0.70051979821E+03  0.19626927937E+04  0.21324798803E+04  0.46999998093E+01 0.  1.
       -5    1    3    3    0  502  0.45228017858E+03 -0.70051979821E+03 -0.15796294519E+04  0.17862073348E+04  0.46999998093E+01 0. -1.
</event>
<event>
 5   0  0.9434114E-09  0.3898920E+04  0.7818609E-02  0.8025254E-01
        2   -1    0    0  501    0  0.00000000000E+00  0.00000000000E+00  0.20350743035E+04  0.20350743035E+04  0.25500000920E-02 0. -1.
       -2   -1    0    0    0  501  0.00000000000E+00  0.00000000000E+00 -0.18674471875E+04  0.18674471875E+04  0.25500000920E-02 0.  1.
    10030    2    1    2    0    0  0.00000000000E+00  0.00000000000E+00  0.16762711598E+03  0.39025214909E+04  0.38989197398E+04 0.  0.
        4    1    3    3  502    0 -0.32397718000E+03  0.10153010116E+04  0.17176801671E+04  0.20214411015E+04  0.12699999809E+01 0. -1.
       -4    1    3    3    0  502  0.32397718000E+03 -0.10153010116E+04 -0.15500530511E+04  0.18810803895E+04  0.12699999809E+01 0.  1.
</event>
<event>
 5   0  0.2904500E-09  0.3898741E+04  0.7818609E-02  0.8025291E-01
        1   -1    0    0  501    0  0.00000000000E+00  0.00000000000E+00  0.31380142940E+04  0.31380142940E+04  0.50400001928E-02 0. -1.
       -1   -1    0    0    0  501  0.00000000000E+00  0.00000000000E+00 -0.12109712005E+04  0.12109712005E+04  0.50400001928E-02 0.  1.
    10030    2    1    2    0    0  0.00000000000E+00  0.00000000000E+00  0.19270430935E+04  0.43489854945E+04  0.38987407899E+04 0.  0.
        2    1    3    3  502    0  0.15737937595E+04 -0.60456408863E+03  0.20551704100E+04  0.26582042715E+04  0.25500000920E-02 0. -1.
       -2    1    3    3    0  502 -0.15737937595E+04  0.60456408863E+03 -0.12812731648E+03  0.16907812230E+04  0.25500000920E-02 0.  1.
</event>
<event>
 5   0  0.2904500E-09  0.3899597E+04  0.7818609E-02  0.8025113E-01
        1   -1    0    0  501    0  0.00000000000E+00  0.00000000000E+00  0.12777805969E+04  0.12777805969E+04  0.50400001928E-02 0.  1.
       -1   -1    0    0    0  501  0.00000000000E+00  0.00000000000E+00 -0.29752480886E+04  0.29752480886E+04  0.50400001928E-02 0. -1.
    10030    2    1    2    0    0  0.00000000000E+00  0.00000000000E+00 -0.16974674917E+04  0.42530286854E+04  0.38995970451E+04 0.  0.
        3    1    3    3  502    0  0.18847587297E+04 -0.27295785959E+03 -0.13048384505E+04  0.23085547112E+04  0.10100000352E+00 0.  1.
       -3    1    3    3    0  502 -0.18847587297E+04  0.27295785959E+03 -0.39262904123E+03  0.19444739743E+04  0.10100000352E+00 0. -1.
</event>
<event>
 5   0  0.6335942E-09  0.3919989E+04  0.7818609E-02  0.8020885E-01
       -2   -1    0    0    0  501  0.00000000000E+00  0.00000000000E+00  0.21822055133E+04  0.21822055133E+04  0.25500000920E-02 0. -1.
        2   -1    0    0  501    0  0.00000000000E+00  0.00000000000E+00 -0.17604111618E+04  0.17604111618E+04  0.25500000920E-02 0.  1.
    10030    2    1    2    0    0  0.00000000000E+00  0.00000000000E+00  0.42179435156E+03  0.39426166751E+04  0.39199892566E+04 0.  0.
        2    1    3    3  502    0 -0.11215216802E+04 -0.14313694614E+04 -0.52472715024E+03  0.18926087806E+04  0.25500000920E-02 0.  1.
       -2    1    3    3    0  502  0.11215216802E+04  0.14313694614E+04  0.94652150179E+03  0.20500078945E+04  0.25500000920E-02 0. -1.
</event>
<event>
 5   0  0.2904500E-09  0.3897642E+04  0.7818609E-02  0.8025520E-01
       -1   -1    0    0    0  501  0.00000000000E+00  0.00000000000E+00  0.25991470267E+04  0.25991470267E+04  0.50400001928E-02 0.  1.
        1   -1    0    0  501    0  0.00000000000E+00  0.00000000000E+00 -0.14612116228E+04  0.14612116228E+04  0.50400001928E-02 0. -1.
    10030    2    1    2    0    0  0.00000000000E+00  0.00000000000E+00  0.11379354039E+04  0.40603586495E+04  0.38976422847E+04 0.  0.
        3    1    3    3  502    0  0.36499746406E+03  0.18984232465E+04  0.82556313672E+03  0.21020914525E+04  0.10100000352E+00 0. -1.
       -3    1    3    3    0  502 -0.36499746406E+03 -0.18984232465E+04  0.31237226715E+03  0.19582671971E+04  0.10100000352E+00 0.  1.
</event>
<event>
 5   0  0.9434114E-09  0.3900962E+04  0.7818609E-02  0.8024829E-01
        2   -1    0    0  501    0  0.00000000000E+00  0.00000000000E+00  0.18844407470E+04  0.18844407470E+04  0.25500000920E-02 0. -1.
       -2   -1    0    0    0  501  0.00000000000E+00  0.00000000000E+00 -0.20188355732E+04  0.20188355732E+04  0.25500000920E-02 0.  1.
    10030    2    1    2    0    0  0.00000000000E+00  0.00000000000E+00 -0.13439482615E+03  0.39032763202E+04  0.39009619406E+04 0.  0.
        4    1    3    3  502    0  0.18057527580E+04  0.67445506868E+03 -0.36526966817E+03  0.19619011714E+04  0.12699999809E+01 0.  1.
       -4    1    3    3    0  502 -0.18057527580E+04 -0.67445506868E+03  0.23087484202E+03  0.19413751488E+04  0.12699999809E+01 0. -1.
</event>
<event>
 5   0  0.9277261E-09  0.3899591E+04  0.7818609E-02  0.8025114E-01
       -2   -1    0    0    0  501  0.00000000000E+00  0.00000000000E+00  0.18194230335E+04  0.18194230335E+04  0.25500000920E-02 0. -1.
        2   -1    0    0  501    0  0.00000000000E+00  0.00000000000E+00 -0.20895100033E+04  0.20895100033E+04  0.25500000920E-02 0.  1.
    10030    2    1    2    0    0  0.00000000000E+00  0.00000000000E+00 -0.27008696988E+03  0.39089330368E+04  0.38995910702E+04 0.  0.
        1    1    3    3  502    0  0.51354734160E+03 -0.81521706570E+03 -0.18342128525E+04  0.20718702962E+04  0.50400001928E-02 0.  1.
       -1    1    3    3    0  502 -0.51354734160E+03  0.81521706570E+03  0.15641258826E+04  0.18370627406E+04  0.50400001928E-02 0. -1.
</event>
<event>
 5   0  0.9277261E-09  0.3899789E+04  0.7818609E-02  0.8025073E-01
        2   -1    0    0  501    0  0.00000000000E+00  0.00000000000E+00  0.19107041311E+04  0.19107041311E+04  0.25500000920E-02 0. -1.
       -2   -1    0    0    0  501  0.00000000000E+00  0.00000000000E+00 -0.19898891273E+04  0.19898891273E+04  0.25500000920E-02 0.  1.
    10030    2    1    2    0    0  0.00000000000E+00  0.00000000000E+00 -0.79184996132E+02  0.39005932584E+04  0.38997894179E+04 0.  0.
        1    1    3    3  502    0 -0.43955625550E+03 -0.54244935966E+03 -0.18605798557E+04  0.19872640512E+04  0.50400001928E-02 0.  1.
       -1    1    3    3    0  502  0.43955625550E+03  0.54244935966E+03  0.17813948596E+04  0.19133292073E+04  0.50400001928E-02 0. -1.
</event>
<event>
 5   0  0.9078515E-09  0.3900156E+04  0.7818609E-02  0.8024997E-01
       -2   -1    0    0    0  501  0.00000000000E+00  0.00000000000E+00  0.14396204158E+04  0.14396204158E+04  0.25500000920E-02 0. -1.
        2   -1    0    0  501    0  0.00000000000E+00  0.00000000000E+00 -0.26415324117E+04  0.26415324117E+04  0.25500000920E-02 0.  1.
    10030    2    1    2    0    0  0.00000000000E+00  0.00000000000E+00 -0.12019119959E+04  0.40811528275E+04  0.39001558886E+04 0.  0.
        3    1    3    3  502    0 -0.16441149538E+03  0.16186230937E+04  0.52403299050E+03  0.17092637142E+04  0.10100000352E+00 0. -1.
       -3    1    3    3    0  502  0.16441149538E+03 -0.16186230937E+04 -0.17259449864E+04  0.23718891133E+04  0.10100000352E+00 0.  1.
</event>
<event>
 5   0  0.9078515E-09  0.3899811E+04  0.7818609E-02  0.8025069E-01
       -2   -1    0    0    0  501  0.00000000000E+00  0.00000000000E+00  0.16878321413E+04  0.16878321413E+04  0.25500000920E-02 0.  1.
        2   -1    0    0  501    0  0.00000000000E+00  0.00000000000E+00 -0.22526710548E+04  0.22526710548E+04  0.25500000920E-02 0. -1.
    10030    2    1    2    0    0  0.00000000000E+00  0.00000000000E+00 -0.56483891344E+03  0.39405031961E+04  0.38998105647E+04 0.  0.
        3    1    3    3  502    0  0.18479701666E+04  0.43559271229E+03 -0.73134796391E+03  0.20346018289E+04  0.10100000352E+00 0. -1.
       -3    1    3    3    0  502 -0.18479701666E+04 -0.43559271229E+03  0.16650905047E+03  0.19059013672E+04  0.10100000352E+00 0.  1.
</event>
<event>
 5   0  0.2904500E-09  0.3900277E+04  0.7818609E-02  0.8024972E-01
       -1   -1    0    0    0  501  0.00000000000E+00  0.00000000000E+00  0.15287049014E+04  0.15287049014E+04  0.50400001928E-02 0. -1.
        1   -1    0    0  501    0  0.00000000000E+00  0.00000000000E+00 -0.24877528813E+04  0.24877528813E+04  0.50400001928E-02 0.  1.
    10030    2    1    2    0    0  0.00000000000E+00  0.00000000000E+00 -0.95904797988E+03  0.40164577826E+04  0.39002769250E+04 0.  0.
        3    1    3    3  502    0  0.18406385196E+04  0.53052693546E+03 -0.10307909611E+03  0.19183415492E+04  0.10100000352E+00 0.  1.
       -3    1    3    3    0  502 -0.18406385196E+04 -0.53052693546E+03 -0.85596888378E+03  0.20981162335E+04  0.10100000352E+00 0. -1.
</event>
<event>
 5   0  0.2904500E-09  0.3900583E+04  0.7818609E-02  0.8024908E-01
        1   -1    0    0  501    0  0.00000000000E+00  0.00000000000E+00  0.15570561232E+04  0.15570561233E+04  0.50400001928E-02 0.  1.
       -1   -1    0    0    0  501  0.00000000000E+00  0.00000000000E+00 -0.24428392078E+04  0.24428392078E+04  0.50400001928E-02 0. -1.
    10030    2    1    2    0    0  0.00000000000E+00  0.00000000000E+00 -0.88578308451E+03  0.39998953310E+04  0.39005834161E+04 0.  0.
        4    1    3    3  502    0 -0.18095724311E+04 -0.72334129151E+03 -0.52139876101E+03  0.20173332120E+04  0.12699999809E+01 0. -1.
       -4    1    3    3    0  502  0.18095724311E+04  0.72334129151E+03 -0.36438432350E+03  0.19825621190E+04  0.12699999809E+01 0.  1.
</event>
<event>
 5   0  0.6335942E-09  0.3900981E+04  0.7818609E-02  0.8024825E-01
       -2   -1    0    0    0  501  0.00000000000E+00  0.00000000000E+00  0.19579031215E+04  0.19579031215E+04  0.25500000920E-02 0. -1.
        2   -1    0    0  501    0  0.00000000000E+00  0.00000000000E+00 -0.19431055559E+04  0.19431055559E+04  0.25500000920E-02 0.  1.
    10030    2    1    2    0    0  0.00000000000E+00  0.00000000000E+00  0.14797565622E+02  0.39010086775E+04  0.39009806118E+04 0.  0.
        2    1    3    3  502    0  0.65446679923E+03 -0.17858601004E+04 -0.42479565448E+03  0.19488649100E+04  0.25500000920E-02 0.  1.
       -2    1    3    3    0  502 -0.65446679923E+03  0.17858601004E+04  0.43959322010E+03  0.19521437674E+04  0.25500000920E-02 0. -1.
</event>
<event>
 5   0  0.2904500E-09  0.3901659E+04  0.7818609E-02  0.8024684E-01
       -1   -1    0    0    0  501  0.00000000000E+00  0.00000000000E+00  0.16357704815E+04  0.16357704815E+04  0.50400001928E-02 0. -1.
        1   -1    0    0  501    0  0.00000000000E+00  0.00000000000E+00 -0.23265712721E+04  0.23265712721E+04  0.50400001928E-02 0.  1.
    10030    2    1    2    0    0  0.00000000000E+00  0.00000000000E+00 -0.69080079060E+03  0.39623417536E+04  0.39016594470E+04 0.  0.
        3    1    3    3  502    0 -0.17891516967E+04  0.15631309777E+03  0.42818103721E+03  0.18463034932E+04  0.10100000352E+00 0. -1.
       -3    1    3    3    0  502  0.17891516967E+04 -0.15631309777E+03 -0.11189818278E+04  0.21160382604E+04  0.10100000352E+00 0.  1.
</event>
<event>
 5   0  0.2904500E-09  0.3899682E+04  0.7818609E-02  0.8025095E-01
       -1   -1    0    0    0  501  0.00000000000E+00  0.00000000000E+00  0.14677639851E+04  0.14677639852E+04  0.50400001928E-02 0.  1.
        1   -1    0    0  501    0  0.00000000000E+00  0.00000000000E+00 -0.25902525082E+04  0.25902525082E+04  0.50400001928E-02 0. -1.
    10030    2    1    2    0    0  0.00000000000E+00  0.00000000000E+00 -0.11224885231E+04  0.40580164934E+04  0.38996817019E+04 0.  0.
        2    1    3    3  502    0 -0.45643314348E+03 -0.83564996399E+03 -0.23318698138E+04  0.25187812341E+04  0.25500000920E-02 0. -1.
       -2    1    3    3    0  502  0.45643314348E+03  0.83564996399E+03  0.12093812908E+04  0.15392352592E+04  0.25500000920E-02 0.  1.
</event>
<event>
 5   0  0.2904500E-09  0.3884696E+04  0.7818609E-02  0.8028220E-01
       -1   -1    0    0    0  501  0.00000000000E+00  0.00000000000E+00  0.12993464438E+04  0.12993464438E+04  0.50400001928E-02 0.  1.
        1   -1    0    0  501    0  0.00000000000E+00  0.00000000000E+00 -0.29035492645E+04  0.29035492645E+04  0.50400001928E-02 0. -1.
    10030    2    1    2    0    0  0.00000000000E+00  0.00000000000E+00 -0.16042028207E+04  0.42028957083E+04  0.38846963388E+04 0.  0.
        3    1    3    3  502    0 -0.16784392250E+04  0.39301441889E+03 -0.17704557793E+04  0.24710589313E+04  0.10100000352E+00 0. -1.
       -3    1    3    3    0  502  0.16784392250E+04 -0.39301441889E+03  0.16625295859E+03  0.17318367769E+04  0.10100000352E+00 0.  1.
</event>
<event>
 5   0  0.2929054E-09  0.3900229E+04  0.7818609E-02  0.8024982E-01
       -1   -1    0    0    0  501  0.00000000000E+00  0.00000000000E+00  0.14190438313E+04  0.14190438313E+04  0.50400001928E-02 0.  1.
        1   -1    0    0  501    0  0.00000000000E+00  0.00000000000E+00 -0.26799355228E+04  0.26799355228E+04  0.50400001928E-02 0. -1.
    10030    2    1    2    0    0  0.00000000000E+00  0.00000000000E+00 -0.12608916915E+04  0.40989793541E+04  0.39002286969E+04 0.  0.
        1    1    3    3  502    0  0.10827648905E+04  0.16214607146E+04 -0.59068521716E+03  0.20372588650E+04  0.50400001928E-02 0. -1.
       -1    1    3    3    0  502 -0.10827648905E+04 -0.16214607146E+04 -0.67020647438E+03  0.20617204892E+04  0.50400001928E-02 0.  1.
</event>
<event>
 5   0  0.2904500E-09  0.3899532E+04  0.7818609E-02  0.8025126E-01
        1   -1    0    0  501    0  0.00000000000E+00  0.00000000000E+00  0.21322974978E+04  0.21322974978E+04  0.50400001928E-02 0.  1.
       -1   -1    0    0    0  501  0.00000000000E+00  0.00000000000E+00 -0.17828601321E+04  0.17828601321E+04  0.50400001928E-02 0. -1.
    10030    2    1    2    0    0  0.00000000000E+00  0.00000000000E+00  0.34943736571E+03  0.39151576299E+04  0.38995323815E+04 0.  0.
        5    1    3    3  502    0 -0.87801672603E+03 -0.13606804887E+04  0.12649802524E+04  0.20548873187E+04  0.46999998093E+01 0.  1.
       -5    1    3    3    0  502  0.87801672603E+03  0.13606804887E+04 -0.91554288667E+03  0.18602703112E+04  0.46999998093E+01 0. -1.
</event>
<event>
 5   0  0.9368546E-09  0.3908226E+04  0.7818609E-02  0.8023321E-01
       -2   -1    0    0    0  501  0.00000000000E+00  0.00000000000E+00  0.16854407047E+04  0.16854407047E+04  0.25500000920E-02 0. -1.
        2   -1    0    0  501    0  0.00000000000E+00  0.00000000000E+00 -0.22656132421E+04  0.22656132421E+04  0.25500000920E-02 0.  1.
    10030    2    1    2    0    0  0.00000000000E+00  0.00000000000E+00 -0.58017253739E+03  0.39510539468E+04  0.39082255715E+04 0.  0.
        5    1    3    3  502    0  0.13957811737E+03  0.19369945741E+04 -0.70671797573E+02  0.19433081649E+04  0.46999998093E+01 0.  1.
       -5    1    3    3    0  502 -0.13957811737E+03 -0.19369945741E+04 -0.50950073981E+03  0.20077457819E+04  0.46999998093E+01 0. -1.
</event>
<event>
 5   0  0.2904500E-09  0.3899420E+04  0.7818609E-02  0.8025150E-01
       -3   -1    0    0    0  501  0.00000000000E+00  0.00000000000E+00  0.14411179335E+04  0.14411179370E+04  0.10100000352E+00 0.  1.
        3   -1    0    0  501    0  0.00000000000E+00  0.00000000000E+00 -0.26377923033E+04  0.26377923052E+04  0.10100000352E+00 0. -1.
    10030    2    1    2    0    0  0.00000000000E+00  0.00000000000E+00 -0.11966743698E+04  0.40789102422E+04  0.38994203693E+04 0.  0.
        4    1    3    3  502    0  0.55031083541E+03 -0.51147950109E+03  0.12836199756E+04  0.14873248301E+04  0.12699999809E+01 0.  1.
       -4    1    3    3    0  502 -0.55031083541E+03  0.51147950109E+03 -0.24802943454E+04  0.25915854121E+04  0.12699999809E+01 0. -1.
</event>
<event>
 5   0  0.9368546E-09  0.3901303E+04  0.7818609E-02  0.8024758E-01
       -2   -1    0    0    0  501  0.00000000000E+00  0.00000000000E+00  0.16741365053E+04  0.16741365053E+04  0.25500000920E-02 0. -1.
        2   -1    0    0  501    0  0.00000000000E+00  0.00000000000E+00 -0.22728382242E+04  0.22728382242E+04  0.25500000920E-02 0.  1.
    10030    2    1    2    0    0  0.00000000000E+00  0.00000000000E+00 -0.59870171889E+03  0.39469747295E+04  0.39013030858E+04 0.  0.
        5    1    3    3  502    0  0.19053052519E+04 -0.57585788752E+02 -0.71834299168E+03  0.20370427019E+04  0.46999998093E+01 0.  1.
       -5    1    3    3    0  502 -0.19053052519E+04  0.57585788752E+02  0.11964127279E+03  0.19099320276E+04  0.46999998093E+01 0. -1.
</event>
<event>
 5   0  0.9368546E-09  0.3901415E+04  0.7818609E-02  0.8024735E-01
        2   -1    0    0  501    0  0.00000000000E+00  0.00000000000E+00  0.25265677845E+04  0.25265677845E+04  0.25500000920E-02 0. -1.
       -2   -1    0    0    0  501  0.00000000000E+00  0.00000000000E+00 -0.15060986411E+04  0.15060986411E+04  0.25500000920E-02 0.  1.
    10030    2    1    2    0    0  0.00000000000E+00  0.00000000000E+00  0.10204691434E+04  0.40326664256E+04  0.39014152852E+04 0.  0.
        5    1    3    3  502    0  0.40316115545E+03  0.11860983594E+04 -0.10353521960E+04  0.16252213680E+04  0.46999998093E+01 0.  1.
       -5    1    3    3    0  502 -0.40316115545E+03 -0.11860983594E+04  0.20558213395E+04  0.24074450576E+04  0.46999998093E+01 0. -1.
</event>
<event>
 5   0  0.2929054E-09  0.3896057E+04  0.7818609E-02  0.8025850E-01
       -1   -1    0    0    0  501  0.00000000000E+00  0.00000000000E+00  0.16984926752E+04  0.16984926752E+04  0.50400001928E-02 0.  1.
        1   -1    0    0  501    0  0.00000000000E+00  0.00000000000E+00 -0.22342255587E+04  0.22342255587E+04  0.50400001928E-02 0. -1.
    10030    2    1    2    0    0  0.00000000000E+00  0.00000000000E+00 -0.53573288349E+03  0.39327182338E+04  0.38960573641E+04 0.  0.
        1    1    3    3  502    0 -0.26667257497E+03 -0.11756644250E+04  0.12767331944E+04  0.17559466826E+04  0.50400001928E-02 0.  1.
       -1    1    3    3    0  502  0.26667257497E+03  0.11756644250E+04 -0.18124660779E+04  0.21767715512E+04  0.50400001928E-02 0. -1.
</event>
<event>
 5   0  0.9368546E-09  0.3889565E+04  0.7818609E-02  0.8027203E-01
       -2   -1    0    0    0  501  0.00000000000E+00  0.00000000000E+00  0.17622708278E+04  0.17622708278E+04  0.25500000920E-02 0.  1.
        2   -1    0    0  501    0  0.00000000000E+00  0.00000000000E+00 -0.21461964934E+04  0.21461964934E+04  0.25500000920E-02 0. -1.
    10030    2    1    2    0    0  0.00000000000E+00  0.00000000000E+00 -0.38392566562E+03  0.39084673212E+04  0.38895652565E+04 0.  0.
        5    1    3    3  502    0  0.16643512422E+04  0.45990981660E+03  0.70713409170E+03  0.18659160781E+04  0.46999998093E+01 0.  1.
       -5    1    3    3    0  502 -0.16643512422E+04 -0.45990981660E+03 -0.10910597573E+04  0.20425512432E+04  0.46999998093E+01 0. -1.
</event>
<event>
 5   0  0.2904500E-09  0.3899922E+04  0.7818609E-02  0.8025045E-01
       -1   -1    0    0    0  501  0.00000000000E+00  0.00000000000E+00  0.12625492584E+04  0.12625492584E+04  0.50400001928E-02 0. -1.
        1   -1    0    0  501    0  0.00000000000E+00  0.00000000000E+00 -0.30116434291E+04  0.30116434291E+04  0.50400001928E-02 0.  1.
    10030    2    1    2    0    0  0.00000000000E+00  0.00000000000E+00 -0.17490941707E+04  0.42741926875E+04  0.38999221418E+04 0.  0.
        3    1    3    3  502    0 -0.18761588474E+04  0.38778557548E+03 -0.12727300257E+04  0.23000416087E+04  0.10100000352E+00 0.  1.
       -3    1    3    3    0  502  0.18761588474E+04 -0.38778557548E+03 -0.47636414493E+03  0.19741510788E+04  0.10100000352E+00 0. -1.
</event>
<event>
 5   0  0.6335942E-09  0.3900008E+04  0.7818609E-02  0.8025028E-01
        2   -1    0    0  501    0  0.00000000000E+00  0.00000000000E+00  0.21249200228E+04  0.21249200228E+04  0.25500000920E-02 0.  1.
       -2   -1    0    0    0  501  0.00000000000E+00  0.00000000000E+00 -0.17894862753E+04  0.17894862753E+04  0.25500000920E-02 0. -1.
    10030    2    1    2    0    0  0.00000000000E+00  0.00000000000E+00  0.33543374748E+03  0.39144062981E+04  0.39000078035E+04 0.  0.
        2    1    3    3  502    0 -0.11932602574E+04  0.11328135296E+04  0.12181842464E+04  0.20472199180E+04  0.25500000920E-02 0.  1.
       -2    1    3    3    0  502  0.11932602574E+04 -0.11328135296E+04 -0.88275049891E+03  0.18671863801E+04  0.25500000920E-02 0. -1.
</event>
<event>
 5   0  0.2904500E-09  0.3900230E+04  0.7818609E-02  0.8024981E-01
       -1   -1    0    0    0  501  0.00000000000E+00  0.00000000000E+00  0.15944980949E+04  0.15944980949E+04  0.50400001928E-02 0. -1.
        1   -1    0    0  501    0  0.00000000000E+00  0.00000000000E+00 -0.23850443394E+04  0.23850443395E+04  0.50400001928E-02 0.  1.
    10030    2    1    2    0    0  0.00000000000E+00  0.00000000000E+00 -0.79054624452E+03  0.39795424344E+04  0.39002300730E+04 0.  0.
        4    1    3    3  502    0 -0.10121282408E+04 -0.16453907735E+04 -0.66759499371E+03  0.20438686508E+04  0.12699999809E+01 0. -1.
       -4    1    3    3    0  502  0.10121282408E+04  0.16453907735E+04 -0.12295125081E+03  0.19356737836E+04  0.12699999809E+01 0.  1.
</event>
<event>
 5   0  0.9434114E-09  0.3899692E+04  0.7818609E-02  0.8025093E-01
        2   -1    0    0  501    0  0.00000000000E+00  0.00000000000E+00  0.23818710207E+04  0.23818710207E+04  0.25500000920E-02 0. -1.
       -2   -1    0    0    0  501  0.00000000000E+00  0.00000000000E+00 -0.15961822009E+04  0.15961822009E+04  0.25500000920E-02 0.  1.
    10030    2    1    2    0    0  0.00000000000E+00  0.00000000000E+00  0.78568881981E+03  0.39780532215E+04  0.38996923612E+04 0.  0.
        4    1    3    3  502    0 -0.17769565238E+03 -0.13018619036E+04  0.18624450944E+04  0.22792813568E+04  0.12699999809E+01 0. -1.
       -4    1    3    3    0  502  0.17769565238E+03  0.13018619036E+04 -0.10767562745E+04  0.16987718648E+04  0.12699999809E+01 0.  1.
</event>
<event>
 5   0  0.6335942E-09  0.3898836E+04  0.7818609E-02  0.8025271E-01
       -2   -1    0    0    0  501  0.00000000000E+00  0.00000000000E+00  0.27350968831E+04  0.27350968831E+04  0.25500000920E-02 0. -1.
        2   -1    0    0  501    0  0.00000000000E+00  0.00000000000E+00 -0.13894319106E+04  0.13894319107E+04  0.25500000920E-02 0.  1.
    10030    2    1    2    0    0  0.00000000000E+00  0.00000000000E+00  0.13456649725E+04  0.41245287938E+04  0.38988361792E+04 0.  0.
        2    1    3    3  502    0 -0.13823734198E+04 -0.12321249870E+04  0.13173129759E+04  0.22725320090E+04  0.25500000920E-02 0. -1.
       -2    1    3    3    0  502  0.13823734198E+04  0.12321249870E+04  0.28351996543E+02  0.18519967848E+04  0.25500000920E-02 0.  1.
</event>
<event>
 5   0  0.2929054E-09  0.3899792E+04  0.7818609E-02  0.8025072E-01
       -1   -1    0    0    0  501  0.00000000000E+00  0.00000000000E+00  0.18500848292E+04  0.18500848293E+04  0.50400001928E-02 0.  1.
        1   -1    0    0  501    0  0.00000000000E+00  0.00000000000E+00 -0.20550923966E+04  0.20550923966E+04  0.50400001928E-02 0. -1.
    10030    2    1    2    0    0  0.00000000000E+00  0.00000000000E+00 -0.20500756733E+03  0.39051772258E+04  0.38997924384E+04 0.  0.
        1    1    3    3  502    0  0.63282495049E+03 -0.16251751932E+04 -0.97573621773E+03  0.19984301322E+04  0.50400001928E-02 0. -1.
       -1    1    3    3    0  502 -0.63282495049E+03  0.16251751932E+04  0.77072865040E+03  0.19067470937E+04  0.50400001928E-02 0.  1.
</event>
<event>
 5   0  0.2904500E-09  0.3896259E+04  0.7818609E-02  0.8025808E-01
        1   -1    0    0  501    0  0.00000000000E+00  0.00000000000E+00  0.15948668416E+04  0.15948668416E+04  0.50400001928E-02 0. -1.
       -1   -1    0    0    0  501  0.00000000000E+00  0.00000000000E+00 -0.23796392804E+04  0.23796392804E+04  0.50400001928E-02 0.  1.
    10030    2    1    2    0    0  0.00000000000E+00  0.00000000000E+00 -0.78477243884E+03  0.39745061220E+04  0.38962586070E+04 0.  0.
        5    1    3    3  502    0 -0.13963936666E+04 -0.77978057769E+03 -0.15270248752E+04  0.22112892350E+04  0.46999998093E+01 0.  1.
       -5    1    3    3    0  502  0.13963936666E+04  0.77978057769E+03  0.74225243632E+03  0.17632168870E+04  0.46999998093E+01 0. -1.
</event>
<event>
 5   0  0.2929054E-09  0.3898212E+04  0.7818609E-02  0.8025401E-01
       -1   -1    0    0    0  501  0.00000000000E+00  0.00000000000E+00  0.17222768487E+04  0.17222768487E+04  0.50400001928E-02 0. -1.
        1   -1    0    0  501    0  0.00000000000E+00  0.00000000000E+00 -0.22058097450E+04  0.22058097450E+04  0.50400001928E-02 0.  1.
    10030    2    1    2    0    0  0.00000000000E+00  0.00000000000E+00 -0.48353289634E+03  0.39280865937E+04  0.38982124398E+04 0.  0.
        1    1    3    3  502    0 -0.10217997577E+04 -0.10412534194E+03 -0.19109933545E+04  0.21695189404E+04  0.50400001928E-02 0.  1.
       -1    1    3    3    0  502  0.10217997577E+04  0.10412534194E+03  0.14274604582E+04  0.17585676533E+04  0.50400001928E-02 0. -1.
</event>
<event>
 5   0  0.9078515E-09  0.3900428E+04  0.7818609E-02  0.8024940E-01
        2   -1    0    0  501    0  0.00000000000E+00  0.00000000000E+00  0.16340228735E+04  0.16340228735E+04  0.25500000920E-02 0. -1.
       -2   -1    0    0    0  501  0.00000000000E+00  0.00000000000E+00 -0.23275897582E+04  0.23275897582E+04  0.25500000920E-02 0.  1.
    10030    2    1    2    0    0  0.00000000000E+00  0.00000000000E+00 -0.69356688462E+03  0.39616126317E+04  0.39004281329E+04 0.  0.
        3    1    3    3  502    0  0.79440711909E+03 -0.15608154142E+04 -0.12182090924E+04  0.21333684236E+04  0.10100000352E+00 0.  1.
       -3    1    3    3    0  502 -0.79440711909E+03  0.15608154142E+04  0.52464220774E+03  0.18282442081E+04  0.10100000352E+00 0. -1.
</event>
<event>
 5   0  0.9078515E-09  0.3898054E+04  0.7818609E-02  0.8025434E-01
        2   -1    0    0  501    0  0.00000000000E+00  0.00000000000E+00  0.12535282384E+04  0.12535282384E+04  0.25500000920E-02 0. -1.
       -2   -1    0    0    0  501  0.00000000000E+00  0.00000000000E+00 -0.30304106978E+04  0.30304106978E+04  0.25500000920E-02 0.  1.
    10030    2    1    2    0    0  0.00000000000E+00  0.00000000000E+00 -0.17768824595E+04  0.42839389362E+04  0.38980535571E+04 0.  0.
        3    1    3    3  502    0  0.82935557755E+03 -0.17454514562E+04 -0.11670615846E+04  0.22575349859E+04  0.10100000352E+00 0.  1.
       -3    1    3    3    0  502 -0.82935557755E+03  0.17454514562E+04 -0.60982087485E+03  0.20264039503E+04  0.10100000352E+00 0. -1.
</event>
<event>
 5   0  0.9078515E-09  0.3898612E+04  0.7818609E-02  0.8025318E-01
       -2   -1    0    0    0  501  0.00000000000E+00  0.00000000000E+00  0.13584444977E+04  0.13584444977E+04  0.25500000920E-02 0.  1.
        2   -1    0    0  501    0  0.00000000000E+00  0.00000000000E+00 -0.27971648268E+04  0.27971648268E+04  0.25500000920E-02 0. -1.
    10030    2    1    2    0    0  0.00000000000E+00  0.00000000000E+00 -0.14387203291E+04  0.41556093245E+04  0.38986116340E+04 0.  0.
        3    1    3    3  502    0  0.41462979564E+03  0.18427615282E+04 -0.20582851990E+03  0.19000140282E+04  0.10100000352E+00 0.  1.
       -3    1    3    3    0  502 -0.41462979564E+03 -0.18427615282E+04 -0.12328918092E+04  0.22555952963E+04  0.10100000352E+00 0. -1.
</event>
<event>
 5   0  0.2904500E-09  0.3906375E+04  0.7818609E-02  0.8023705E-01
        1   -1    0    0  501    0  0.00000000000E+00  0.00000000000E+00  0.10995829845E+04  0.10995829845E+04  0.50400001928E-02 0. -1.
       -1   -1    0    0    0  501  0.00000000000E+00  0.00000000000E+00 -0.34694434092E+04  0.34694434092E+04  0.50400001928E-02 0.  1.
    10030    2    1    2    0    0  0.00000000000E+00  0.00000000000E+00 -0.23698604247E+04  0.45690263937E+04  0.39063747585E+04 0.  0.
        2    1    3    3  502    0  0.11093828872E+02  0.14976211465E+04  0.28152551313E+03  0.15238926425E+04  0.25500000920E-02 0. -1.
       -2    1    3    3    0  502 -0.11093828872E+02 -0.14976211465E+04 -0.26513859378E+04  0.30451337512E+04  0.25500000920E-02 0.  1.
</event>
<event>
 5   0  0.9434114E-09  0.3889240E+04  0.7818609E-02  0.8027271E-01
       -2   -1    0    0    0  501  0.00000000000E+00  0.00000000000E+00  0.15216172828E+04  0.15216172828E+04  0.25500000920E-02 0.  1.
        2   -1    0    0  501    0  0.00000000000E+00  0.00000000000E+00 -0.24852154905E+04  0.24852154905E+04  0.25500000920E-02 0. -1.
    10030    2    1    2    0    0  0.00000000000E+00  0.00000000000E+00 -0.96359820767E+03  0.40068327732E+04  0.38892399472E+04 0.  0.
        4    1    3    3  502    0  0.16756282417E+04  0.28162258299E+02 -0.14980427291E+04  0.22478115464E+04  0.12699999809E+01 0. -1.
       -4    1    3    3    0  502 -0.16756282417E+04 -0.28162258299E+02  0.53444452143E+03  0.17590212268E+04  0.12699999809E+01 0.  1.
</event>
<event>
 5   0  0.2929054E-09  0.3899158E+04  0.7818609E-02  0.8025204E-01
       -1   -1    0    0    0  501  0.00000000000E+00  0.00000000000E+00  0.25948609927E+04  0.25948609927E+04  0.50400001928E-02 0. -1.
        1   -1    0    0  501    0  0.00000000000E+00  0.00000000000E+00 -0.14647636218E+04  0.14647636218E+04  0.50400001928E-02 0.  1.
    10030    2    1    2    0    0  0.00000000000E+00  0.00000000000E+00  0.11300973709E+04  0.40596246145E+04  0.38991578505E+04 0.  0.
        1    1    3    3  502    0 -0.71005733368E+03 -0.12410831332E+04  0.19448782372E+04  0.24139221442E+04  0.50400001928E-02 0. -1.
       -1    1    3    3    0  502  0.71005733368E+03  0.12410831332E+04 -0.81478086636E+03  0.16457024703E+04  0.50400001928E-02 0.  1.
</event>
<event>
 5   0  0.9277261E-09  0.3899921E+04  0.7818609E-02  0.8025046E-01
        2   -1    0    0  501    0  0.00000000000E+00  0.00000000000E+00  0.30287040114E+04  0.30287040114E+04  0.25500000920E-02 0.  1.
       -2   -1    0    0    0  501  0.00000000000E+00  0.00000000000E+00 -0.12554368911E+04  0.12554368911E+04  0.25500000920E-02 0. -1.
    10030    2    1    2    0    0  0.00000000000E+00  0.00000000000E+00  0.17732671202E+04  0.42841409025E+04  0.38999214086E+04 0.  0.
        1    1    3    3  502    0 -0.74843991353E+03  0.17604364139E+04  0.47115472806E+03  0.19700978274E+04  0.50400001928E-02 0. -1.
       -1    1    3    3    0  502  0.74843991353E+03 -0.17604364139E+04  0.13021123922E+04  0.23140430751E+04  0.50400001928E-02 0.  1.
</event>
<event>
 5   0  0.2929054E-09  0.3903554E+04  0.7818609E-02  0.8024291E-01
       -1   -1    0    0    0  501  0.00000000000E+00  0.00000000000E+00  0.14240841393E+04  0.14240841393E+04  0.50400001928E-02 0.  1.
        1   -1    0    0  501    0  0.00000000000E+00  0.00000000000E+00 -0.26750052925E+04  0.26750052925E+04  0.50400001928E-02 0. -1.
    10030    2    1    2    0    0  0.00000000000E+00  0.00000000000E+00 -0.12509211532E+04  0.40990894318E+04  0.39035535655E+04 0.  0.
        1    1    3    3  502    0  0.77226948421E+01  0.17748143742E+04 -0.14781757603E+04  0.23097682311E+04  0.50400001928E-02 0. -1.
       -1    1    3    3    0  502 -0.77226948421E+01 -0.17748143742E+04  0.22725460714E+03  0.17893212007E+04  0.50400001928E-02 0.  1.
</event>
<event>
 5   0  0.9368546E-09  0.3898025E+04  0.7818609E-02  0.8025440E-01
       -2   -1    0    0    0  501  0.00000000000E+00  0.00000000000E+00  0.13747596813E+04  0.13747596813E+04  0.25500000920E-02 0. -1.
        2   -1    0    0  501    0  0.00000000000E+00  0.00000000000E+00 -0.27631372367E+04  0.27631372367E+04  0.25500000920E-02 0.  1.
    10030    2    1    2    0    0  0.00000000000E+00  0.00000000000E+00 -0.13883775553E+04  0.41378969180E+04  0.38980249701E+04 0.  0.
        5    1    3    3  502    0  0.15786160872E+03  0.15926843925E+04 -0.18748657283E+04  0.24650978583E+04  0.46999998093E+01 0. -1.
       -5    1    3    3    0  502 -0.15786160872E+03 -0.15926843925E+04  0.48648817302E+03  0.16727990597E+04  0.46999998093E+01 0.  1.
</event>
<event>
 5   0  0.2904500E-09  0.3899101E+04  0.7818609E-02  0.8025216E-01
       -3   -1    0    0    0  501  0.00000000000E+00  0.00000000000E+00  0.21549437767E+04  0.21549437791E+04  0.10100000352E+00 0.  1.
        3   -1    0    0  501    0  0.00000000000E+00  0.00000000000E+00 -0.17637341649E+04  0.17637341678E+04  0.10100000352E+00 0. -1.
    10030    2    1    2    0    0  0.00000000000E+00  0.00000000000E+00  0.39120961183E+03  0.39186779469E+04  0.38991014209E+04 0.  0.
        2    1    3    3  502    0 -0.14039817864E+04 -0.50723396000E+03  0.14558130308E+04  0.20851481308E+04  0.25500000920E-02 0.  1.
       -2    1    3    3    0  502  0.14039817864E+04  0.50723396000E+03 -0.10646034190E+04  0.18335298161E+04  0.25500000920E-02 0. -1.
</event>
<event>
 5   0  0.2904500E-09  0.3899801E+04  0.7818609E-02  0.8025070E-01
        1   -1    0    0  501    0  0.00000000000E+00  0.00000000000E+00  0.14040886752E+04  0.14040886752E+04  0.50400001928E-02 0.  1.
       -1   -1    0    0    0  501  0.00000000000E+00  0.00000000000E+00 -0.27078865778E+04  0.27078865778E+04  0.50400001928E-02 0. -1.
    10030    2    1    2    0    0  0.00000000000E+00  0.00000000000E+00 -0.13037979026E+04  0.41119752530E+04  0.38998014707E+04 0.  0.
        2    1    3    3  502    0 -0.18477088617E+04 -0.60991074004E+03 -0.51813584654E+03  0.20135749064E+04  0.25500000920E-02 0.  1.
       -2    1    3    3    0  502  0.18477088617E+04  0.60991074004E+03 -0.78566205609E+03  0.20984003466E+04  0.25500000920E-02 0. -1.
</event>
<event>
 5   0  0.6335942E-09  0.3896461E+04  0.7818609E-02  0.8025766E-01
        2   -1    0    0  501    0  0.00000000000E+00  0.00000000000E+00  0.20787945113E+04  0.20787945113E+04  0.25500000920E-02 0. -1.
       -2   -1    0    0    0  501  0.00000000000E+00  0.00000000000E+00 -0.18258666972E+04  0.18258666972E+04  0.25500000920E-02 0.  1.
    10030    2    1    2    0    0  0.00000000000E+00  0.00000000000E+00  0.25292781406E+03  0.39046612085E+04  0.38964607882E+04 0.  0.
        2    1    3    3  502    0 -0.38416457739E+03  0.17522054763E+04  0.88819207926E+03  0.20016722068E+04  0.25500000920E-02 0. -1.
       -2    1    3    3    0  502  0.38416457739E+03 -0.17522054763E+04 -0.63526426520E+03  0.19029890017E+04  0.25500000920E-02 0.  1.
</event>
<event>
 5   0  0.9277261E-09  0.3901808E+04  0.7818609E-02  0.8024653E-01
        2   -1    0    0  501    0  0.00000000000E+00  0.00000000000E+00  0.30369538632E+04  0.30369538632E+04  0.25500000920E-02 0.  1.
       -2   -1    0    0    0  501  0.00000000000E+00  0.00000000000E+00 -0.12532381380E+04  0.12532381380E+04  0.25500000920E-02 0. -1.
    10030    2    1    2    0    0  0.00000000000E+00  0.00000000000E+00  0.17837157252E+04  0.42901920012E+04  0.39018079935E+04 0.  0.
        1    1    3    3  502    0 -0.11528563580E+04 -0.64671202533E+03  0.24695005600E+04  0.28010261052E+04  0.50400001928E-02 0.  1.
       -1    1    3    3    0  502  0.11528563580E+04  0.64671202533E+03 -0.68578483483E+03  0.14891658960E+04  0.50400001928E-02 0. -1.
</event>
<event>
 5   0  0.2904500E-09  0.3900206E+04  0.7818609E-02  0.8024986E-01
       -1   -1    0    0    0  501  0.00000000000E+00  0.00000000000E+00  0.21466110285E+04  0.21466110285E+04  0.50400001928E-02 0.  1.
        1   -1    0    0  501    0  0.00000000000E+00  0.00000000000E+00 -0.17715841598E+04  0.17715841598E+04  0.50400001928E-02 0. -1.
    10030    2    1    2    0    0  0.00000000000E+00  0.00000000000E+00  0.37502686867E+03  0.39181951883E+04  0.39002061973E+04 0.  0.
        3    1    3    3  502    0 -0.49874442228E+03 -0.16737354373E+04  0.10591359308E+04  0.20425242331E+04  0.10100000352E+00 0.  1.
       -3    1    3    3    0  502  0.49874442228E+03  0.16737354373E+04 -0.68410906217E+03  0.18756709551E+04  0.10100000352E+00 0. -1.
</event>
<event>
 5   0  0.9368546E-09  0.3901602E+04  0.7818609E-02  0.8024696E-01
        2   -1    0    0  501    0  0.00000000000E+00  0.00000000000E+00  0.32560507237E+04  0.32560507237E+04  0.25500000920E-02 0. -1.
       -2   -1    0    0    0  501  0.00000000000E+00  0.00000000000E+00 -0.11687855824E+04  0.11687855824E+04  0.25500000920E-02 0.  1.
    10030    2    1    2    0    0  0.00000000000E+00  0.00000000000E+00  0.20872651414E+04  0.44248363061E+04  0.39016023074E+04 0.  0.
        5    1    3    3  502    0  0.38216442972E+03  0.27888778878E+03  0.31899964939E+04  0.32248919007E+04  0.46999998093E+01 0. -1.
       -5    1    3    3    0  502 -0.38216442972E+03 -0.27888778878E+03 -0.11027313525E+04  0.11999444054E+04  0.46999998093E+01 0.  1.
</event>
<event>
 5   0  0.9434114E-09  0.3900885E+04  0.7818609E-02  0.8024845E-01
        2   -1    0    0  501    0  0.00000000000E+00  0.00000000000E+00  0.20577841714E+04  0.20577841714E+04  0.25500000920E-02 0. -1.
       -2   -1    0    0    0  501  0.00000000000E+00  0.00000000000E+00 -0.18487002845E+04  0.18487002845E+04  0.25500000920E-02 0.  1.
    10030    2    1    2    0    0  0.00000000000E+00  0.00000000000E+00  0.20908388696E+03  0.39064844559E+04  0.39008851217E+04 0.  0.
        4    1    3    3  502    0 -0.17575450023E+04 -0.80830103625E+03  0.35371543219E+03  0.19665785569E+04  0.12699999809E+01 0.  1.
       -4    1    3    3    0  502  0.17575450023E+04  0.80830103625E+03 -0.14463154523E+03  0.19399058991E+04  0.12699999809E+01 0. -1.
</event>
<event>
 5   0  0.6335942E-09  0.3899299E+04  0.7818609E-02  0.8025175E-01
        2   -1    0    0  501    0  0.00000000000E+00  0.00000000000E+00  0.16080864483E+04  0.16080864483E+04  0.25500000920E-02 0. -1.
       -2   -1    0    0    0  501  0.00000000000E+00  0.00000000000E+00 -0.23637621421E+04  0.23637621421E+04  0.25500000920E-02 0.  1.
    10030    2    1    2    0    0  0.00000000000E+00  0.00000000000E+00 -0.75567569377E+03  0.39718485904E+04  0.38992993564E+04 0.  0.
        2    1    3    3  502    0 -0.18829498160E+04  0.39035743625E+03 -0.70514952824E+03  0.20481979384E+04  0.25500000920E-02 0.  1.
       -2    1    3    3    0  502  0.18829498160E+04 -0.39035743625E+03 -0.50526165522E+02  0.19236506520E+04  0.25500000920E-02 0. -1.
</event>
<event>
 5   0  0.9368546E-09  0.3926141E+04  0.7818609E-02  0.8019614E-01
       -2   -1    0    0    0  501  0.00000000000E+00  0.00000000000E+00  0.14625130048E+04  0.14625130048E+04  0.25500000920E-02 0. -1.
        2   -1    0    0  501    0  0.00000000000E+00  0.00000000000E+00 -0.26349477378E+04  0.26349477378E+04  0.25500000920E-02 0.  1.
    10030    2    1    2    0    0  0.00000000000E+00  0.00000000000E+00 -0.11724347330E+04  0.40974607426E+04  0.39261407685E+04 0.  0.
        5    1    3    3  502    0 -0.60817830953E+02 -0.15528695659E+03  0.14551005906E+04  0.14646339701E+04  0.46999998093E+01 0. -1.
       -5    1    3    3    0  502  0.60817830953E+02  0.15528695659E+03 -0.26275353236E+04  0.26328267725E+04  0.46999998093E+01 0.  1.
</event>
<event>
 5   0  0.6335942E-09  0.3912280E+04  0.7818609E-02  0.8022480E-01
        2   -1    0    0  501    0  0.00000000000E+00  0.00000000000E+00  0.24169016305E+04  0.24169016305E+04  0.25500000920E-02 0.  1.
       -2   -1    0    0    0  501  0.00000000000E+00  0.00000000000E+00 -0.15832187648E+04  0.15832187648E+04  0.25500000920E-02 0. -1.
    10030    2    1    2    0    0  0.00000000000E+00  0.00000000000E+00  0.83368286571E+03  0.40001203954E+04  0.39122801609E+04 0.  0.
        2    1    3    3  502    0 -0.69238641711E+03 -0.45906387648E+03  0.22275771131E+04  0.23774436666E+04  0.25500000920E-02 0.  1.
       -2    1    3    3    0  502  0.69238641711E+03  0.45906387648E+03 -0.13938942474E+04  0.16226767288E+04  0.25500000920E-02 0. -1.
</event>
<event>
 5   0  0.9368546E-09  0.3898730E+04  0.7818609E-02  0.8025293E-01
        2   -1    0    0  501    0  0.00000000000E+00  0.00000000000E+00  0.13482810785E+04  0.13482810785E+04  0.25500000920E-02 0. -1.
       -2   -1    0    0    0  501  0.00000000000E+00  0.00000000000E+00 -0.28184208164E+04  0.28184208164E+04  0.25500000920E-02 0.  1.
    10030    2    1    2    0    0  0.00000000000E+00  0.00000000000E+00 -0.14701397379E+04  0.41667018949E+04  0.38987297716E+04 0.  0.
        5    1    3    3  502    0  0.51207031628E+03 -0.10822884172E+04 -0.23791265342E+04  0.26634243714E+04  0.46999998093E+01 0.  1.
       -5    1    3    3    0  502 -0.51207031628E+03  0.10822884172E+04  0.90898679629E+03  0.15032775235E+04  0.46999998093E+01 0. -1.
</event>
<event>
 5   0  0.9434114E-09  0.3901307E+04  0.7818609E-02  0.8024757E-01
        2   -1    0    0  501    0  0.00000000000E+00  0.00000000000E+00  0.17555253767E+04  0.17555253767E+04  0.25500000920E-02 0.  1.
       -2   -1    0    0    0  501  0.00000000000E+00  0.00000000000E+00 -0.21674701851E+04  0.21674701851E+04  0.25500000920E-02 0. -1.
    10030    2    1    2    0    0  0.00000000000E+00  0.00000000000E+00 -0.41194480843E+03  0.39229955618E+04  0.39013069160E+04 0.  0.
        4    1    3    3  502    0  0.11386923773E+04 -0.15602134193E+04 -0.47981162686E+03  0.19902530126E+04  0.12699999809E+01 0. -1.
       -4    1    3    3    0  502 -0.11386923773E+04  0.15602134193E+04  0.67866818431E+02  0.19327425493E+04  0.12699999809E+01 0.  1.
</event>
<event>
 5   0  0.6335942E-09  0.3899818E+04  0.7818609E-02  0.8025067E-01
       -2   -1    0    0    0  501  0.00000000000E+00  0.00000000000E+00  0.14678178959E+04  0.14678178959E+04  0.25500000920E-02 0.  1.
        2   -1    0    0  501    0  0.00000000000E+00  0.00000000000E+00 -0.25903384070E+04  0.25903384070E+04  0.25500000920E-02 0. -1.
    10030    2    1    2    0    0  0.00000000000E+00  0.00000000000E+00 -0.11225205111E+04  0.40581563029E+04  0.38998179805E+04 0.  0.
        2    1    3    3  502    0  0.99484707375E+03  0.65056546056E+03 -0.21697180951E+04  0.24739912552E+04  0.25500000920E-02 0. -1.
       -2    1    3    3    0  502 -0.99484707375E+03 -0.65056546056E+03  0.10471975840E+04  0.15841650477E+04  0.25500000920E-02 0.  1.
</event>
<event>
 5   0  0.9368546E-09  0.3907251E+04  0.7818609E-02  0.8023523E-01
        2   -1    0    0  501    0  0.00000000000E+00  0.00000000000E+00  0.14928852219E+04  0.14928852219E+04  0.25500000920E-02 0. -1.
       -2   -1    0    0    0  501  0.00000000000E+00  0.00000000000E+00 -0.25565614095E+04  0.25565614095E+04  0.25500000920E-02 0.  1.
    10030    2    1    2    0    0  0.00000000000E+00  0.00000000000E+00 -0.10636761876E+04  0.40494466315E+04  0.39072510783E+04 0.  0.
        5    1    3    3  502    0 -0.18165711930E+04  0.59807366139E+03 -0.11856857524E+03  0.19161689907E+04  0.46999998093E+01 0. -1.
       -5    1    3    3    0  502  0.18165711930E+04 -0.59807366139E+03 -0.94510761241E+03  0.21332776408E+04  0.46999998093E+01 0.  1.
</event>
<event>
 5   0  0.2904500E-09  0.3898366E+04  0.7818609E-02  0.8025369E-01
       -1   -1    0    0    0  501  0.00000000000E+00  0.00000000000E+00  0.29562107222E+04  0.29562107222E+04  0.50400001928E-02 0.  1.
        1   -1    0    0  501    0  0.00000000000E+00  0.00000000000E+00 -0.12851977187E+04  0.12851977187E+04  0.50400001928E-02 0. -1.
    10030    2    1    2    0    0  0.00000000000E+00  0.00000000000E+00  0.16710130035E+04  0.42414084408E+04  0.38983664661E+04 0.  0.
        4    1    3    3  502    0  0.88512918721E+03 -0.13536252291E+03 -0.10481846945E+04  0.13785751547E+04  0.12699999809E+01 0. -1.
       -4    1    3    3    0  502 -0.88512918721E+03  0.13536252291E+03  0.27191976979E+04  0.28628332861E+04  0.12699999809E+01 0.  1.
</event>
<event>
 5   0  0.9078515E-09  0.3896005E+04  0.7818609E-02  0.8025861E-01
        2   -1    0    0  501    0  0.00000000000E+00  0.00000000000E+00  0.21603571601E+04  0.21603571601E+04  0.25500000920E-02 0.  1.
       -2   -1    0    0    0  501  0.00000000000E+00  0.00000000000E+00 -0.17565214293E+04  0.17565214293E+04  0.25500000920E-02 0. -1.
    10030    2    1    2    0    0  0.00000000000E+00  0.00000000000E+00  0.40383573072E+03  0.39168785894E+04  0.38960049521E+04 0.  0.
        3    1    3    3  502    0  0.13841960943E+04  0.10953158125E+04  0.10303460823E+04  0.20438514173E+04  0.10100000352E+00 0.  1.
       -3    1    3    3    0  502 -0.13841960943E+04 -0.10953158125E+04 -0.62651035162E+03  0.18730271721E+04  0.10100000352E+00 0. -1.
</event>
<event>
 5   0  0.2904500E-09  0.3892101E+04  0.7818609E-02  0.8026674E-01
       -1   -1    0    0    0  501  0.00000000000E+00  0.00000000000E+00  0.14879661683E+04  0.14879661683E+04  0.50400001928E-02 0.  1.
        1   -1    0    0  501    0  0.00000000000E+00  0.00000000000E+00 -0.25451609567E+04  0.25451609567E+04  0.50400001928E-02 0. -1.
    10030    2    1    2    0    0  0.00000000000E+00  0.00000000000E+00 -0.10571947884E+04  0.40331271249E+04  0.38921014356E+04 0.  0.
        4    1    3    3  502    0  0.79420446348E+02 -0.18898199287E+04 -0.54431458928E+02  0.18922714834E+04  0.12699999809E+01 0.  1.
       -4    1    3    3    0  502 -0.79420446348E+02  0.18898199287E+04 -0.10027633295E+04  0.21408556416E+04  0.12699999809E+01 0. -1.
</event>
<event>
 5   0  0.6335942E-09  0.3901076E+04  0.7818609E-02  0.8024805E-01
        2   -1    0    0  501    0  0.00000000000E+00  0.00000000000E+00  0.32515108671E+04  0.32515108671E+04  0.25500000920E-02 0. -1.
       -2   -1    0    0    0  501  0.00000000000E+00  0.00000000000E+00 -0.11701018776E+04  0.11701018776E+04  0.25500000920E-02 0.  1.
    10030    2    1    2    0    0  0.00000000000E+00  0.00000000000E+00  0.20814089895E+04  0.44216127448E+04  0.39010762468E+04 0.  0.
        2    1    3    3  502    0 -0.80056372311E+03 -0.16269687229E+04  0.18554137778E+04  0.25943187520E+04  0.25500000920E-02 0.  1.
       -2    1    3    3    0  502  0.80056372311E+03  0.16269687229E+04  0.22599521170E+03  0.18272939927E+04  0.25500000920E-02 0. -1.
</event>
<event>
 5   0  0.9368546E-09  0.3912608E+04  0.7818609E-02  0.8022412E-01
        2   -1    0    0  501    0  0.00000000000E+00  0.00000000000E+00  0.29507231011E+04  0.29507231011E+04  0.25500000920E-02 0. -1.
       -2   -1    0    0    0  501  0.00000000000E+00  0.00000000000E+00 -0.12970125393E+04  0.12970125393E+04  0.25500000920E-02 0.  1.
    10030    2    1    2    0    0  0.00000000000E+00  0.00000000000E+00  0.16537105618E+04  0.42477356405E+04  0.39126077556E+04 0.  0.
        5    1    3    3  502    0 -0.57847007476E+03  0.18455341421E+04  0.50759404897E+03  0.19995743811E+04  0.46999998093E+01 0.  1.
       -5    1    3    3    0  502  0.57847007476E+03 -0.18455341421E+04  0.11461165128E+04  0.22481612593E+04  0.46999998093E+01 0. -1.
</event>
<event>
 5   0  0.2929054E-09  0.3901484E+04  0.7818609E-02  0.8024721E-01
        1   -1    0    0  501    0  0.00000000000E+00  0.00000000000E+00  0.17229668143E+04  0.17229668143E+04  0.50400001928E-02 0.  1.
       -1   -1    0    0    0  501  0.00000000000E+00  0.00000000000E+00 -0.22086285404E+04  0.22086285404E+04  0.50400001928E-02 0. -1.
    10030    2    1    2    0    0  0.00000000000E+00  0.00000000000E+00 -0.48566172614E+03  0.39315953547E+04  0.39014836564E+04 0.  0.
        1    1    3    3  502    0  0.12994889645E+04 -0.13176507871E+03 -0.17029304838E+04  0.21461607204E+04  0.50400001928E-02 0. -1.
       -1    1    3    3    0  502 -0.12994889645E+04  0.13176507871E+03  0.12172687577E+04  0.17854346343E+04  0.50400001928E-02 0.  1.
</event>
<event>
 5   0  0.2904500E-09  0.3901088E+04  0.7818609E-02  0.8024803E-01
       -1   -1    0    0    0  501  0.00000000000E+00  0.00000000000E+00  0.14212504538E+04  0.14212504538E+04  0.50400001928E-02 0.  1.
        1   -1    0    0  501    0  0.00000000000E+00  0.00000000000E+00 -0.26769545196E+04  0.26769545196E+04  0.50400001928E-02 0. -1.
    10030    2    1    2    0    0  0.00000000000E+00  0.00000000000E+00 -0.12557040659E+04  0.40982049734E+04  0.39010884767E+04 0.  0.
        4    1    3    3  502    0  0.54803003312E+03  0.13130146303E+04 -0.20295409880E+04  0.24785847921E+04  0.12699999809E+01 0. -1.
       -4    1    3    3    0  502 -0.54803003312E+03 -0.13130146303E+04  0.77383692219E+03  0.16196201813E+04  0.12699999809E+01 0.  1.
</event>
<event>
 5   0  0.2904500E-09  0.3898220E+04  0.7818609E-02  0.8025400E-01
       -1   -1    0    0    0  501  0.00000000000E+00  0.00000000000E+00  0.34486169511E+04  0.34486169511E+04  0.50400001928E-02 0.  1.
        1   -1    0    0  501    0  0.00000000000E+00  0.00000000000E+00 -0.11016095449E+04  0.11016095449E+04  0.50400001928E-02 0. -1.
    10030    2    1    2    0    0  0.00000000000E+00  0.00000000000E+00  0.23470074062E+04  0.45502264960E+04  0.38982197731E+04 0.  0.
        3    1    3    3  502    0  0.85012473785E+03  0.93328548220E+03  0.29069088768E+04  0.31692038574E+04  0.10100000352E+00 0.  1.
       -3    1    3    3    0  502 -0.85012473785E+03 -0.93328548220E+03 -0.55990147065E+03  0.13810226386E+04  0.10100000352E+00 0. -1.
</event>
<event>
 5   0  0.2904500E-09  0.3900247E+04  0.7818609E-02  0.8024978E-01
       -3   -1    0    0    0  501  0.00000000000E+00  0.00000000000E+00  0.21951966034E+04  0.21951966057E+04  0.10100000352E+00 0. -1.
        3   -1    0    0  501    0  0.00000000000E+00  0.00000000000E+00 -0.17324106656E+04  0.17324106685E+04  0.10100000352E+00 0.  1.
    10030    2    1    2    0    0  0.00000000000E+00  0.00000000000E+00  0.46278593784E+03  0.39276072743E+04  0.39002471815E+04 0.  0.
        2    1    3    3  502    0 -0.13986015660E+04 -0.49932869500E+03  0.15042083097E+04  0.21137781636E+04  0.25500000920E-02 0. -1.
       -2    1    3    3    0  502  0.13986015660E+04  0.49932869500E+03 -0.10414223718E+04  0.18138291106E+04  0.25500000920E-02 0.  1.
</event>
<event>
 5   0  0.2904500E-09  0.3898136E+04  0.7818609E-02  0.8025417E-01
       -1   -1    0    0    0  501  0.00000000000E+00  0.00000000000E+00  0.16509346133E+04  0.16509346133E+04  0.50400001928E-02 0. -1.
        1   -1    0    0  501    0  0.00000000000E+00  0.00000000000E+00 -0.23010402131E+04  0.23010402131E+04  0.50400001928E-02 0.  1.
    10030    2    1    2    0    0  0.00000000000E+00  0.00000000000E+00 -0.65010559976E+03  0.39519748264E+04  0.38981364442E+04 0.  0.
        5    1    3    3  502    0  0.10151565460E+04  0.84414247944E+03  0.11285297320E+04  0.17368709752E+04  0.46999998093E+01 0. -1.
       -5    1    3    3    0  502 -0.10151565460E+04 -0.84414247944E+03 -0.17786353317E+04  0.22151038512E+04  0.46999998093E+01 0.  1.
</event>
<event>
 5   0  0.2904500E-09  0.3895502E+04  0.7818609E-02  0.8025965E-01
        1   -1    0    0  501    0  0.00000000000E+00  0.00000000000E+00  0.28602198965E+04  0.28602198965E+04  0.50400001928E-02 0.  1.
       -1   -1    0    0    0  501  0.00000000000E+00  0.00000000000E+00 -0.13263785866E+04  0.13263785866E+04  0.50400001928E-02 0. -1.
    10030    2    1    2    0    0  0.00000000000E+00  0.00000000000E+00  0.15338413099E+04  0.41865984831E+04  0.38955022391E+04 0.  0.
        3    1    3    3  502    0  0.19293208004E+03  0.14027526283E+04  0.22043229856E+04  0.26199193802E+04  0.10100000352E+00 0.  1.
       -3    1    3    3    0  502 -0.19293208004E+03 -0.14027526283E+04 -0.67048167567E+03  0.15666791029E+04  0.10100000352E+00 0. -1.
</event>
<event>
 5   0  0.9078515E-09  0.3901116E+04  0.7818609E-02  0.8024797E-01
        2   -1    0    0  501    0  0.00000000000E+00  0.00000000000E+00  0.21899698344E+04  0.21899698344E+04  0.25500000920E-02 0.  1.
       -2   -1    0    0    0  501  0.00000000000E+00  0.00000000000E+00 -0.17373192781E+04  0.17373192781E+04  0.25500000920E-02 0. -1.
    10030    2    1    2    0    0  0.00000000000E+00  0.00000000000E+00  0.45265055630E+03  0.39272891125E+04  0.39011161540E+04 0.  0.
        3    1    3    3  502    0  0.35221033125E+03  0.12423838966E+04 -0.12453673662E+04  0.17940205548E+04  0.10100000352E+00 0. -1.
       -3    1    3    3    0  502 -0.35221033125E+03 -0.12423838966E+04  0.16980179225E+04  0.21332685577E+04  0.10100000352E+00 0.  1.
</event>
<event>
 5   0  0.2904500E-09  0.3899487E+04  0.7818609E-02  0.8025136E-01
       -1   -1    0    0    0  501  0.00000000000E+00  0.00000000000E+00  0.25482365820E+04  0.25482365820E+04  0.50400001928E-02 0.  1.
        1   -1    0    0  501    0  0.00000000000E+00  0.00000000000E+00 -0.14918156208E+04  0.14918156208E+04  0.50400001928E-02 0. -1.
    10030    2    1    2    0    0  0.00000000000E+00  0.00000000000E+00  0.10564209612E+04  0.40400522029E+04  0.38994867040E+04 0.  0.
        5    1    3    3  502    0 -0.54339970596E+03  0.18708026453E+04  0.44603377702E+03  0.19985379652E+04  0.46999998093E+01 0.  1.
       -5    1    3    3    0  502  0.54339970596E+03 -0.18708026453E+04  0.61038718415E+03  0.20415142377E+04  0.46999998093E+01 0. -1.
</event>
<event>
 5   0  0.9368546E-09  0.3900214E+04  0.7818609E-02  0.8024985E-01
       -2   -1    0    0    0  501  0.00000000000E+00  0.00000000000E+00  0.15634961869E+04  0.15634961869E+04  0.25500000920E-02 0.  1.
        2   -1    0    0  501    0  0.00000000000E+00  0.00000000000E+00 -0.24323166530E+04  0.24323166530E+04  0.25500000920E-02 0. -1.
    10030    2    1    2    0    0  0.00000000000E+00  0.00000000000E+00 -0.86882046615E+03  0.39958128399E+04  0.39002142569E+04 0.  0.
        5    1    3    3  502    0 -0.32199040453E+03 -0.82555824902E+03 -0.22141342113E+04  0.23848766506E+04  0.46999998093E+01 0. -1.
       -5    1    3    3    0  502  0.32199040453E+03  0.82555824902E+03  0.13453137451E+04  0.16109361893E+04  0.46999998093E+01 0.  1.
</event>
<event>
 5   0  0.2904500E-09  0.3900557E+04  0.7818609E-02  0.8024913E-01
       -1   -1    0    0    0  501  0.00000000000E+00  0.00000000000E+00  0.30639836293E+04  0.30639836293E+04  0.50400001928E-02 0.  1.
        1   -1    0    0  501    0  0.00000000000E+00  0.00000000000E+00 -0.12413861503E+04  0.12413861504E+04  0.50400001928E-02 0. -1.
    10030    2    1    2    0    0  0.00000000000E+00  0.00000000000E+00  0.18225974790E+04  0.43053697797E+04  0.39005573152E+04 0.  0.
        4    1    3    3  502    0 -0.10173466835E+04 -0.13868839781E+04  0.19260254575E+04  0.25822503982E+04  0.12699999809E+01 0.  1.
       -4    1    3    3    0  502  0.10173466835E+04  0.13868839781E+04 -0.10342797852E+03  0.17231193815E+04  0.12699999809E+01 0. -1.
</event>
<event>
 5   0  0.2904500E-09  0.3898272E+04  0.7818609E-02  0.8025389E-01
        1   -1    0    0  501    0  0.00000000000E+00  0.00000000000E+00  0.32368010858E+04  0.32368010858E+04  0.50400001928E-02 0.  1.
       -1   -1    0    0    0  501  0.00000000000E+00  0.00000000000E+00 -0.11737302285E+04  0.11737302286E+04  0.50400001928E-02 0. -1.
    10030    2    1    2    0    0  0.00000000000E+00  0.00000000000E+00  0.20630708572E+04  0.44105313143E+04  0.38982720676E+04 0.  0.
        5    1    3    3  502    0 -0.11109570136E+04  0.10010957960E+04  0.24458802567E+04  0.28668398279E+04  0.46999998093E+01 0.  1.
       -5    1    3    3    0  502  0.11109570136E+04 -0.10010957960E+04 -0.38280939945E+03  0.15436914864E+04  0.46999998093E+01 0. -1.
</event>
<event>
 5   0  0.9277261E-09  0.3900809E+04  0.7818609E-02  0.8024861E-01
        2   -1    0    0  501    0  0.00000000000E+00  0.00000000000E+00  0.19136332953E+04  0.19136332953E+04  0.25500000920E-02 0. -1.
       -2   -1    0    0    0  501  0.00000000000E+00  0.00000000000E+00 -0.19878820693E+04  0.19878820693E+04  0.25500000920E-02 0.  1.
    10030    2    1    2    0    0  0.00000000000E+00  0.00000000000E+00 -0.74248774023E+02  0.39015153647E+04  0.39008087957E+04 0.  0.
        1    1    3    3  502    0 -0.42620331437E+03 -0.16593357890E+04 -0.96951252530E+03  0.19685017304E+04  0.50400001928E-02 0.  1.
       -1    1    3    3    0  502  0.42620331437E+03  0.16593357890E+04  0.89526375128E+03  0.19330136343E+04  0.50400001928E-02 0. -1.
</event>
<event>
 5   0  0.9368546E-09  0.3900239E+04  0.7818609E-02  0.8024979E-01
       -2   -1    0    0    0  501  0.00000000000E+00  0.00000000000E+00  0.15673045117E+04  0.15673045117E+04  0.25500000920E-02 0. -1.
        2   -1    0    0  501    0  0.00000000000E+00  0.00000000000E+00 -0.24264376915E+04  0.24264376915E+04  0.25500000920E-02 0.  1.
    10030    2    1    2    0    0  0.00000000000E+00  0.00000000000E+00 -0.85913317979E+03  0.39937422031E+04  0.39002393471E+04 0.  0.
        5    1    3    3  502    0  0.16260868499E+04 -0.86187304690E+03 -0.10899788177E+04  0.21389388737E+04  0.46999998093E+01 0.  1.
       -5    1    3    3    0  502 -0.16260868499E+04  0.86187304690E+03  0.23084563795E+03  0.18548033294E+04  0.46999998093E+01 0. -1.
</event>
<event>
 5   0  0.2904500E-09  0.3898414E+04  0.7818609E-02  0.8025359E-01
       -1   -1    0    0    0  501  0.00000000000E+00  0.00000000000E+00  0.16838221019E+04  0.16838221019E+04  0.50400001928E-02 0. -1.
        1   -1    0    0  501    0  0.00000000000E+00  0.00000000000E+00 -0.22564192256E+04  0.22564192256E+04  0.50400001928E-02 0.  1.
    10030    2    1    2    0    0  0.00000000000E+00  0.00000000000E+00 -0.57259712374E+03  0.39402413275E+04  0.38984143254E+04 0.  0.
        5    1    3    3  502    0  0.14809398787E+04 -0.12648810643E+04 -0.20620541525E+03  0.19584815022E+04  0.46999998093E+01 0. -1.
       -5    1    3    3    0  502 -0.14809398787E+04  0.12648810643E+04 -0.36639170849E+03  0.19817598253E+04  0.46999998093E+01 0.  1.
</event>
<event>
 5   0  0.9434114E-09  0.3902873E+04  0.7818609E-02  0.8024432E-01
       -2   -1    0    0    0  501  0.00000000000E+00  0.00000000000E+00  0.15750443894E+04  0.15750443894E+04  0.25500000920E-02 0. -1.
        2   -1    0    0  501    0  0.00000000000E+00  0.00000000000E+00 -0.24177755217E+04  0.24177755217E+04  0.25500000920E-02 0.  1.
    10030    2    1    2    0    0  0.00000000000E+00  0.00000000000E+00 -0.84273113230E+03  0.39928199111E+04  0.39028726704E+04 0.  0.
        4    1    3    3  502    0 -0.55632065009E+03 -0.40035905082E+03 -0.22905814376E+04  0.23909297293E+04  0.12699999809E+01 0.  1.
       -4    1    3    3    0  502  0.55632065009E+03  0.40035905082E+03  0.14478503053E+04  0.16018901818E+04  0.12699999809E+01 0. -1.
</event>
<event>
 5   0  0.2929054E-09  0.3900865E+04  0.7818609E-02  0.8024849E-01
       -1   -1    0    0    0  501  0.00000000000E+00  0.00000000000E+00  0.18857598605E+04  0.18857598605E+04  0.50400001928E-02 0.  1.
        1   -1    0    0  501    0  0.00000000000E+00  0.00000000000E+00 -0.20173234919E+04  0.20173234919E+04  0.50400001928E-02 0. -1.
    10030    2    1    2    0    0  0.00000000000E+00  0.00000000000E+00 -0.13156363137E+03  0.39030833523E+04  0.39008653740E+04 0.  0.
        1    1    3    3  502    0  0.11249319169E+03 -0.17736486638E+04  0.73823177295E+03  0.19244402956E+04  0.50400001928E-02 0.  1.
       -1    1    3    3    0  502 -0.11249319169E+03  0.17736486638E+04 -0.86979540433E+03  0.19786430568E+04  0.50400001928E-02 0. -1.
</event>
<event>
 5   0  0.2904500E-09  0.3899853E+04  0.7818609E-02  0.8025060E-01
       -1   -1    0    0    0  501  0.00000000000E+00  0.00000000000E+00  0.30495294161E+04  0.30495294161E+04  0.50400001928E-02 0.  1.
        1   -1    0    0  501    0  0.00000000000E+00  0.00000000000E+00 -0.12468196931E+04  0.12468196931E+04  0.50400001928E-02 0. -1.
    10030    2    1    2    0    0  0.00000000000E+00  0.00000000000E+00  0.18027097230E+04  0.42963491092E+04  0.38998529873E+04 0.  0.
        2    1    3    3  502    0  0.92362772500E+03  0.92799042411E+03  0.24932421094E+04  0.28161162294E+04  0.25500000920E-02 0.  1.
       -2    1    3    3    0  502 -0.92362772500E+03 -0.92799042411E+03 -0.69053238637E+03  0.14802328797E+04  0.25500000920E-02 0. -1.
</event>
<event>
 5   0  0.2904500E-09  0.3895638E+04  0.7818609E-02  0.8025937E-01
       -1   -1    0    0    0  501  0.00000000000E+00  0.00000000000E+00  0.18818067837E+04  0.18818067837E+04  0.50400001928E-02 0.  1.
        1   -1    0    0  501    0  0.00000000000E+00  0.00000000000E+00 -0.20161471758E+04  0.20161471758E+04  0.50400001928E-02 0. -1.
    10030    2    1    2    0    0  0.00000000000E+00  0.00000000000E+00 -0.13434039214E+03  0.38979539595E+04  0.38956382955E+04 0.  0.
        2    1    3    3  502    0  0.16154753237E+04 -0.10782058424E+04 -0.21460455779E+03  0.19540582070E+04  0.25500000920E-02 0.  1.
       -2    1    3    3    0  502 -0.16154753237E+04  0.10782058424E+04  0.80264165645E+02  0.19438957525E+04  0.25500000920E-02 0. -1.
</event>
<event>
 5   0  0.2904500E-09  0.3898397E+04  0.7818609E-02  0.8025363E-01
        1   -1    0    0  501    0  0.00000000000E+00  0.00000000000E+00  0.25792313126E+04  0.25792313126E+04  0.50400001928E-02 0. -1.
       -1   -1    0    0    0  501  0.00000000000E+00  0.00000000000E+00 -0.14730651052E+04  0.14730651052E+04  0.50400001928E-02 0.  1.
    10030    2    1    2    0    0  0.00000000000E+00  0.00000000000E+00  0.11061662074E+04  0.40522964179E+04  0.38983974374E+04 0.  0.
        4    1    3    3  502    0  0.39490069446E+03  0.85914619466E+03  0.23248648896E+04  0.25097962288E+04  0.12699999809E+01 0. -1.
       -4    1    3    3    0  502 -0.39490069446E+03 -0.85914619466E+03 -0.12186986822E+04  0.15425001890E+04  0.12699999809E+01 0.  1.
</event>
<event>
 5   0  0.2929054E-09  0.3898271E+04  0.7818609E-02  0.8025389E-01
       -1   -1    0    0    0  501  0.00000000000E+00  0.00000000000E+00  0.16575322943E+04  0.16575322943E+04  0.50400001928E-02 0. -1.
        1   -1    0    0  501    0  0.00000000000E+00  0.00000000000E+00 -0.22920388810E+04  0.22920388810E+04  0.50400001928E-02 0.  1.
    10030    2    1    2    0    0  0.00000000000E+00  0.00000000000E+00 -0.63450658670E+03  0.39495711753E+04  0.38982706243E+04 0.  0.
        1    1    3    3  502    0 -0.39557234525E+03 -0.18125182632E+04  0.28846761795E+03  0.18774752998E+04  0.50400001928E-02 0. -1.
       -1    1    3    3    0  502  0.39557234525E+03  0.18125182632E+04 -0.92297420465E+03  0.20720958755E+04  0.50400001928E-02 0.  1.
</event>
<event>
 5   0  0.2904500E-09  0.3899898E+04  0.7818609E-02  0.8025050E-01
        1   -1    0    0  501    0  0.00000000000E+00  0.00000000000E+00  0.12416577143E+04  0.12416577143E+04  0.50400001928E-02 0.  1.
       -1   -1    0    0    0  501  0.00000000000E+00  0.00000000000E+00 -0.30622777560E+04  0.30622777560E+04  0.50400001928E-02 0. -1.
    10030    2    1    2    0    0  0.00000000000E+00  0.00000000000E+00 -0.18206200417E+04  0.43039354703E+04  0.38998978443E+04 0.  0.
        5    1    3    3  502    0  0.14766713744E+04 -0.81519552949E+03 -0.19900235888E+04  0.26087004568E+04  0.46999998093E+01 0.  1.
       -5    1    3    3    0  502 -0.14766713744E+04  0.81519552949E+03  0.16940354705E+03  0.16952350135E+04  0.46999998093E+01 0. -1.
</event>
<event>
 5   0  0.6335942E-09  0.3897639E+04  0.7818609E-02  0.8025521E-01
       -2   -1    0    0    0  501  0.00000000000E+00  0.00000000000E+00  0.16157703410E+04  0.16157703410E+04  0.25500000920E-02 0. -1.
        2   -1    0    0  501    0  0.00000000000E+00  0.00000000000E+00 -0.23505175710E+04  0.23505175710E+04  0.25500000920E-02 0.  1.
    10030    2    1    2    0    0  0.00000000000E+00  0.00000000000E+00 -0.73474723006E+03  0.39662879120E+04  0.38976385555E+04 0.  0.
        2    1    3    3  502    0  0.34645925530E+02  0.11868212073E+04  0.12052095613E+04  0.16918259381E+04  0.25500000920E-02 0. -1.
       -2    1    3    3    0  502 -0.34645925530E+02 -0.11868212073E+04 -0.19399567914E+04  0.22744619739E+04  0.25500000920E-02 0.  1.
</event>
<event>
 5   0  0.2904500E-09  0.3899157E+04  0.7818609E-02  0.8025205E-01
        1   -1    0    0  501    0  0.00000000000E+00  0.00000000000E+00  0.19478811621E+04  0.19478811621E+04  0.50400001928E-02 0. -1.
       -1   -1    0    0    0  501  0.00000000000E+00  0.00000000000E+00 -0.19512769749E+04  0.19512769749E+04  0.50400001928E-02 0.  1.
    10030    2    1    2    0    0  0.00000000000E+00  0.00000000000E+00 -0.33958127645E+01  0.38991581370E+04  0.38991566583E+04 0.  0.
        5    1    3    3  502    0  0.63274402596E+03 -0.18229414374E+04  0.27642642487E+03  0.19493368475E+04  0.46999998093E+01 0. -1.
       -5    1    3    3    0  502 -0.63274402596E+03  0.18229414374E+04 -0.27982223763E+03  0.19498212895E+04  0.46999998093E+01 0.  1.
</event>
<event>
 5   0  0.6335942E-09  0.3895003E+04  0.7818609E-02  0.8026069E-01
       -2   -1    0    0    0  501  0.00000000000E+00  0.00000000000E+00  0.19774721511E+04  0.19774721511E+04  0.25500000920E-02 0.  1.
        2   -1    0    0  501    0  0.00000000000E+00  0.00000000000E+00 -0.19179851133E+04  0.19179851133E+04  0.25500000920E-02 0. -1.
    10030    2    1    2    0    0  0.00000000000E+00  0.00000000000E+00  0.59487037795E+02  0.38954572643E+04  0.38950030283E+04 0.  0.
        2    1    3    3  502    0 -0.16738825319E+04  0.71364282583E+03  0.72379370994E+03  0.19583273853E+04  0.25500000920E-02 0.  1.
       -2    1    3    3    0  502  0.16738825319E+04 -0.71364282583E+03 -0.66430667215E+03  0.19371298790E+04  0.25500000920E-02 0. -1.
</event>
<event>
 5   0  0.2929054E-09  0.3900167E+04  0.7818609E-02  0.8024994E-01
       -1   -1    0    0    0  501  0.00000000000E+00  0.00000000000E+00  0.12997823079E+04  0.12997823079E+04  0.50400001928E-02 0. -1.
        1   -1    0    0  501    0  0.00000000000E+00  0.00000000000E+00 -0.29257406626E+04  0.29257406626E+04  0.50400001928E-02 0.  1.
    10030    2    1    2    0    0  0.00000000000E+00  0.00000000000E+00 -0.16259583547E+04  0.42255229705E+04  0.39001671506E+04 0.  0.
        1    1    3    3  502    0 -0.30270429793E+03  0.18730057846E+04 -0.32478363090E+03  0.19249064829E+04  0.50400001928E-02 0. -1.
       -1    1    3    3    0  502  0.30270429793E+03 -0.18730057846E+04 -0.13011747238E+04  0.23006164876E+04  0.50400001928E-02 0.  1.
</event>
<event>
 5   0  0.9277261E-09  0.3899929E+04  0.7818609E-02  0.8025044E-01
        2   -1    0    0  501    0  0.00000000000E+00  0.00000000000E+00  0.25800443145E+04  0.25800443145E+04  0.25500000920E-02 0. -1.
       -2   -1    0    0    0  501  0.00000000000E+00  0.00000000000E+00 -0.14737581938E+04  0.14737581938E+04  0.25500000920E-02 0.  1.
    10030    2    1    2    0    0  0.00000000000E+00  0.00000000000E+00  0.11062861206E+04  0.40538025083E+04  0.38999289475E+04 0.  0.
        1    1    3    3  502    0 -0.23849368005E+03 -0.28041062925E+03 -0.14373129710E+04  0.14837041259E+04  0.50400001928E-02 0.  1.
       -1    1    3    3    0  502  0.23849368005E+03  0.28041062925E+03  0.25435990917E+04  0.25700983825E+04  0.50400001928E-02 0. -1.
</event>
<event>
 5   0  0.2929054E-09  0.3898417E+04  0.7818609E-02  0.8025359E-01
        1   -1    0    0  501    0  0.00000000000E+00  0.00000000000E+00  0.14409344828E+04  0.14409344828E+04  0.50400001928E-02 0.  1.
       -1   -1    0    0    0  501  0.00000000000E+00  0.00000000000E+00 -0.26367702451E+04  0.26367702451E+04  0.50400001928E-02 0. -1.
    10030    2    1    2    0    0  0.00000000000E+00  0.00000000000E+00 -0.11958357623E+04  0.40777047279E+04  0.38984166886E+04 0.  0.
        1    1    3    3  502    0  0.16570153048E+04 -0.34399944885E+03  0.41371061177E+03  0.17421801891E+04  0.50400001928E-02 0.  1.
       -1    1    3    3    0  502 -0.16570153048E+04  0.34399944885E+03 -0.16095463741E+04  0.23355245388E+04  0.50400001928E-02 0. -1.
</event>
<event>
 5   0  0.6335942E-09  0.3904054E+04  0.7818609E-02  0.8024187E-01
       -2   -1    0    0    0  501  0.00000000000E+00  0.00000000000E+00  0.27287800660E+04  0.27287800660E+04  0.25500000920E-02 0.  1.
        2   -1    0    0  501    0  0.00000000000E+00  0.00000000000E+00 -0.13963785670E+04  0.13963785670E+04  0.25500000920E-02 0. -1.
    10030    2    1    2    0    0  0.00000000000E+00  0.00000000000E+00  0.13324014990E+04  0.41251586330E+04  0.39040543020E+04 0.  0.
        2    1    3    3  502    0 -0.62600362798E+03 -0.58919722722E+03  0.25179889112E+04  0.26606957872E+04  0.25500000920E-02 0.  1.
       -2    1    3    3    0  502  0.62600362798E+03  0.58919722722E+03 -0.11855874123E+04  0.14644628459E+04  0.25500000920E-02 0. -1.
</event>
<event>
 5   0  0.2929054E-09  0.3902894E+04  0.7818609E-02  0.8024428E-01
        1   -1    0    0  501    0  0.00000000000E+00  0.00000000000E+00  0.20884078462E+04  0.20884078462E+04  0.50400001928E-02 0. -1.
       -1   -1    0    0    0  501  0.00000000000E+00  0.00000000000E+00 -0.18234680986E+04  0.18234680986E+04  0.50400001928E-02 0.  1.
    10030    2    1    2    0    0  0.00000000000E+00  0.00000000000E+00  0.26493974755E+03  0.39118759448E+04  0.39028938414E+04 0.  0.
        1    1    3    3  502    0  0.10592168690E+04  0.29943215571E+02 -0.15099923780E+04  0.18446988788E+04  0.50400001928E-02 0.  1.
       -1    1    3    3    0  502 -0.10592168690E+04 -0.29943215571E+02  0.17749321255E+04  0.20671770660E+04  0.50400001928E-02 0. -1.
</event>
<event>
 5   0  0.2904500E-09  0.3900737E+04  0.7818609E-02  0.8024876E-01
        1   -1    0    0  501    0  0.00000000000E+00  0.00000000000E+00  0.20632951651E+04  0.20632951651E+04  0.50400001928E-02 0.  1.
       -1   -1    0    0    0  501  0.00000000000E+00  0.00000000000E+00 -0.18436223453E+04  0.18436223453E+04  0.50400001928E-02 0. -1.
    10030    2    1    2    0    0  0.00000000000E+00  0.00000000000E+00  0.21967281986E+03  0.39069175104E+04  0.39007368900E+04 0.  0.
        3    1    3    3  502    0  0.17368306942E+04  0.47382733859E+03 -0.64158151053E+03  0.19112090550E+04  0.10100000352E+00 0. -1.
       -3    1    3    3    0  502 -0.17368306942E+04 -0.47382733859E+03  0.86125433040E+03  0.19957084554E+04  0.10100000352E+00 0.  1.
</event>
<event>
 5   0  0.2929054E-09  0.3900956E+04  0.7818609E-02  0.8024830E-01
        1   -1    0    0  501    0  0.00000000000E+00  0.00000000000E+00  0.26283282831E+04  0.26283282831E+04  0.50400001928E-02 0.  1.
       -1   -1    0    0    0  501  0.00000000000E+00  0.00000000000E+00 -0.14474463577E+04  0.14474463577E+04  0.50400001928E-02 0. -1.
    10030    2    1    2    0    0  0.00000000000E+00  0.00000000000E+00  0.11808819254E+04  0.40757746408E+04  0.39009558830E+04 0.  0.
        1    1    3    3  502    0  0.15032690550E+04 -0.13299502242E+03 -0.70059560693E+03  0.16638328438E+04  0.50400001928E-02 0. -1.
       -1    1    3    3    0  502 -0.15032690550E+04  0.13299502242E+03  0.18814775323E+04  0.24119417970E+04  0.50400001928E-02 0.  1.
</event>
<event>
 5   0  0.9368546E-09  0.3900513E+04  0.7818609E-02  0.8024923E-01
        2   -1    0    0  501    0  0.00000000000E+00  0.00000000000E+00  0.15781859876E+04  0.15781859876E+04  0.25500000920E-02 0.  1.
       -2   -1    0    0    0  501  0.00000000000E+00  0.00000000000E+00 -0.24100457610E+04  0.24100457610E+04  0.25500000920E-02 0. -1.
    10030    2    1    2    0    0  0.00000000000E+00  0.00000000000E+00 -0.83185977337E+03  0.39882317486E+04  0.39005130173E+04 0.  0.
        5    1    3    3  502    0  0.19245074403E+04 -0.69957065841E+02 -0.73084236491E+03  0.20597998764E+04  0.46999998093E+01 0.  1.
       -5    1    3    3    0  502 -0.19245074403E+04  0.69957065841E+02 -0.10101740847E+03  0.19284318721E+04  0.46999998093E+01 0. -1.
</event>
<event>
 5   0  0.9277261E-09  0.3899547E+04  0.7818609E-02  0.8025124E-01
        2   -1    0    0  501    0  0.00000000000E+00  0.00000000000E+00  0.19165464119E+04  0.19165464119E+04  0.25500000920E-02 0.  1.
       -2   -1    0    0    0  501  0.00000000000E+00  0.00000000000E+00 -0.19835762113E+04  0.19835762113E+04  0.25500000920E-02 0. -1.
    10030    2    1    2    0    0  0.00000000000E+00  0.00000000000E+00 -0.67029799351E+02  0.39001226232E+04  0.38995465739E+04 0.  0.
        1    1    3    3  502    0 -0.11506557928E+04 -0.11709623126E+04  0.10185218388E+04  0.19319803900E+04  0.50400001928E-02 0.  1.
       -1    1    3    3    0  502  0.11506557928E+04  0.11709623126E+04 -0.10855516382E+04  0.19681422332E+04  0.50400001928E-02 0. -1.
</event>
<event>
 5   0  0.9277261E-09  0.3902254E+04  0.7818609E-02  0.8024561E-01
       -2   -1    0    0    0  501  0.00000000000E+00  0.00000000000E+00  0.24410898097E+04  0.24410898097E+04  0.25500000920E-02 0.  1.
        2   -1    0    0  501    0  0.00000000000E+00  0.00000000000E+00 -0.15595066866E+04  0.15595066866E+04  0.25500000920E-02 0. -1.
    10030    2    1    2    0    0  0.00000000000E+00  0.00000000000E+00  0.88158312311E+03  0.40005964963E+04  0.39022536467E+04 0.  0.
        1    1    3    3  502    0  0.11376772288E+04  0.14705648561E+03  0.20588444056E+04  0.23568570966E+04  0.50400001928E-02 0.  1.
       -1    1    3    3    0  502 -0.11376772288E+04 -0.14705648561E+03 -0.11772612825E+04  0.16437393997E+04  0.50400001928E-02 0. -1.
</event>
<event>
 5   0  0.2904500E-09  0.3900944E+04  0.7818609E-02  0.8024833E-01
       -1   -1    0    0    0  501  0.00000000000E+00  0.00000000000E+00  0.19079884779E+04  0.19079884779E+04  0.50400001928E-02 0.  1.
        1   -1    0    0  501    0  0.00000000000E+00  0.00000000000E+00 -0.19939018041E+04  0.19939018041E+04  0.50400001928E-02 0. -1.
    10030    2    1    2    0    0  0.00000000000E+00  0.00000000000E+00 -0.85913326188E+02  0.39018902820E+04  0.39009443310E+04 0.  0.
        2    1    3    3  502    0 -0.83235754849E+03  0.17415689622E+04 -0.32313194123E+03  0.19571141484E+04  0.25500000920E-02 0.  1.
       -2    1    3    3    0  502  0.83235754849E+03 -0.17415689622E+04  0.23721861504E+03  0.19447761336E+04  0.25500000920E-02 0. -1.
</event>
<event>
 5   0  0.2929054E-09  0.3900898E+04  0.7818609E-02  0.8024842E-01
        1   -1    0    0  501    0  0.00000000000E+00  0.00000000000E+00  0.20093433855E+04  0.20093433855E+04  0.50400001928E-02 0.  1.
       -1   -1    0    0    0  501  0.00000000000E+00  0.00000000000E+00 -0.18932812924E+04  0.18932812924E+04  0.50400001928E-02 0. -1.
    10030    2    1    2    0    0  0.00000000000E+00  0.00000000000E+00  0.11606209307E+03  0.39026246779E+04  0.39008984820E+04 0.  0.
        1    1    3    3  502    0 -0.17088175833E+04 -0.19767536833E+03 -0.86167938305E+03  0.19239606138E+04  0.50400001928E-02 0. -1.
       -1    1    3    3    0  502  0.17088175833E+04  0.19767536833E+03  0.97774147612E+03  0.19786640641E+04  0.50400001928E-02 0.  1.
</event>
<event>
 5   0  0.9368546E-09  0.3901911E+04  0.7818609E-02  0.8024632E-01
       -2   -1    0    0    0  501  0.00000000000E+00  0.00000000000E+00  0.14965296351E+04  0.14965296351E+04  0.25500000920E-02 0.  1.
        2   -1    0    0  501    0  0.00000000000E+00  0.00000000000E+00 -0.25433695527E+04  0.25433695527E+04  0.25500000920E-02 0. -1.
    10030    2    1    2    0    0  0.00000000000E+00  0.00000000000E+00 -0.10468399176E+04  0.40398991878E+04  0.39019112797E+04 0.  0.
        5    1    3    3  502    0  0.91200783392E+03  0.15864651636E+04  0.17694541791E+03  0.18384672353E+04  0.46999998093E+01 0.  1.
       -5    1    3    3    0  502 -0.91200783392E+03 -0.15864651636E+04 -0.12237853355E+04  0.22014319526E+04  0.46999998093E+01 0. -1.
</event>
<event>
 5   0  0.2904500E-09  0.3900442E+04  0.7818609E-02  0.8024937E-01
       -1   -1    0    0    0  501  0.00000000000E+00  0.00000000000E+00  0.16768060388E+04  0.16768060388E+04  0.50400001928E-02 0. -1.
        1   -1    0    0  501    0  0.00000000000E+00  0.00000000000E+00 -0.22682177140E+04  0.22682177140E+04  0.50400001928E-02 0.  1.
    10030    2    1    2    0    0  0.00000000000E+00  0.00000000000E+00 -0.59141167519E+03  0.39450237529E+04  0.39004415957E+04 0.  0.
        3    1    3    3  502    0 -0.10476822563E+04  0.63308940930E+03 -0.18312554420E+04  0.22027112417E+04  0.10100000352E+00 0.  1.
       -3    1    3    3    0  502  0.10476822563E+04 -0.63308940930E+03  0.12398437668E+04  0.17423125112E+04  0.10100000352E+00 0. -1.
</event>
<event>
 5   0  0.2904500E-09  0.3874504E+04  0.7818609E-02  0.8030353E-01
       -1   -1    0    0    0  501  0.00000000000E+00  0.00000000000E+00  0.23647380294E+04  0.23647380294E+04  0.50400001928E-02 0. -1.
        1   -1    0    0  501    0  0.00000000000E+00  0.00000000000E+00 -0.15870450237E+04  0.15870450237E+04  0.50400001928E-02 0.  1.
    10030    2    1    2    0    0  0.00000000000E+00  0.00000000000E+00  0.77769300573E+03  0.39517830531E+04  0.38745042118E+04 0.  0.
        4    1    3    3  502    0  0.13632922367E+04 -0.13359300247E+04  0.51077646914E+02  0.19094201456E+04  0.12699999809E+01 0.  1.
       -4    1    3    3    0  502 -0.13632922367E+04  0.13359300247E+04  0.72661535882E+03  0.20423629075E+04  0.12699999809E+01 0. -1.
</event>
<event>
 5   0  0.9078515E-09  0.3900201E+04  0.7818609E-02  0.8024987E-01
       -2   -1    0    0    0  501  0.00000000000E+00  0.00000000000E+00  0.29163565515E+04  0.29163565515E+04  0.25500000920E-02 0.  1.
        2   -1    0    0  501    0  0.00000000000E+00  0.00000000000E+00 -0.13039870606E+04  0.13039870606E+04  0.25500000920E-02 0. -1.
    10030    2    1    2    0    0  0.00000000000E+00  0.00000000000E+00  0.16123694908E+04  0.42203436121E+04  0.39002006140E+04 0.  0.
        3    1    3    3  502    0  0.37488543125E+03 -0.68464398376E+03  0.27399427595E+04  0.28489581967E+04  0.10100000352E+00 0.  1.
       -3    1    3    3    0  502 -0.37488543125E+03  0.68464398376E+03 -0.11275732687E+04  0.13713854154E+04  0.10100000352E+00 0. -1.
</event>
<event>
 5   0  0.2904500E-09  0.3906598E+04  0.7818609E-02  0.8023658E-01
        1   -1    0    0  501    0  0.00000000000E+00  0.00000000000E+00  0.24887207476E+04  0.24887207476E+04  0.50400001928E-02 0. -1.
       -1   -1    0    0    0  501  0.00000000000E+00  0.00000000000E+00 -0.15330674441E+04  0.15330674441E+04  0.50400001928E-02 0.  1.
    10030    2    1    2    0    0  0.00000000000E+00  0.00000000000E+00  0.95565330351E+03  0.40217881917E+04  0.39065978834E+04 0.  0.
        5    1    3    3  502    0 -0.74845627959E+03  0.13088974241E+04  0.17561961204E+04  0.23146589755E+04  0.46999998093E+01 0. -1.
       -5    1    3    3    0  502  0.74845627959E+03 -0.13088974241E+04 -0.80054281692E+03  0.17071292163E+04  0.46999998093E+01 0.  1.
</event>
<event>
 5   0  0.9368546E-09  0.3901404E+04  0.7818609E-02  0.8024737E-01
       -2   -1    0    0    0  501  0.00000000000E+00  0.00000000000E+00  0.20750651035E+04  0.20750651035E+04  0.25500000920E-02 0.  1.
        2   -1    0    0  501    0  0.00000000000E+00  0.00000000000E+00 -0.18337919376E+04  0.18337919376E+04  0.25500000920E-02 0. -1.
    10030    2    1    2    0    0  0.00000000000E+00  0.00000000000E+00  0.24127316588E+03  0.39088570410E+04  0.39014036739E+04 0.  0.
        5    1    3    3  502    0  0.14307102521E+04  0.84886407253E+03 -0.89999179103E+03  0.18914305044E+04  0.46999998093E+01 0. -1.
       -5    1    3    3    0  502 -0.14307102521E+04 -0.84886407253E+03  0.11412649569E+04  0.20174265367E+04  0.46999998093E+01 0.  1.
</event>
<event>
 5   0  0.9434114E-09  0.3903995E+04  0.7818609E-02  0.8024199E-01
       -2   -1    0    0    0  501  0.00000000000E+00  0.00000000000E+00  0.23061268602E+04  0.23061268602E+04  0.25500000920E-02 0. -1.
        2   -1    0    0  501    0  0.00000000000E+00  0.00000000000E+00 -0.16522482737E+04  0.16522482737E+04  0.25500000920E-02 0.  1.
    10030    2    1    2    0    0  0.00000000000E+00  0.00000000000E+00  0.65387858649E+03  0.39583751339E+04  0.39039949404E+04 0.  0.
        4    1    3    3  502    0  0.16367305047E+04  0.84726622411E+03 -0.32509353836E+03  0.18714791533E+04  0.12699999809E+01 0. -1.
       -4    1    3    3    0  502 -0.16367305047E+04 -0.84726622411E+03  0.97897212485E+03  0.20868959806E+04  0.12699999809E+01 0.  1.
</event>
<event>
 5   0  0.9434114E-09  0.3903189E+04  0.7818609E-02  0.8024366E-01
       -2   -1    0    0    0  501  0.00000000000E+00  0.00000000000E+00  0.12862843844E+04  0.12862843844E+04  0.25500000920E-02 0.  1.
        2   -1    0    0  501    0  0.00000000000E+00  0.00000000000E+00 -0.29610263996E+04  0.29610263996E+04  0.25500000920E-02 0. -1.
    10030    2    1    2    0    0  0.00000000000E+00  0.00000000000E+00 -0.16747420151E+04  0.42473107840E+04  0.39031894751E+04 0.  0.
        4    1    3    3  502    0 -0.10597061339E+04  0.97742642383E+03  0.59404300043E+03  0.15592396235E+04  0.12699999809E+01 0.  1.
       -4    1    3    3    0  502  0.10597061339E+04 -0.97742642383E+03 -0.22687850155E+04  0.26880711605E+04  0.12699999809E+01 0. -1.
</event>
<event>
 5   0  0.9277261E-09  0.3899986E+04  0.7818609E-02  0.8025032E-01
        2   -1    0    0  501    0  0.00000000000E+00  0.00000000000E+00  0.30578717976E+04  0.30578717976E+04  0.25500000920E-02 0.  1.
       -2   -1    0    0    0  501  0.00000000000E+00  0.00000000000E+00 -0.12435032433E+04  0.12435032433E+04  0.25500000920E-02 0. -1.
    10030    2    1    2    0    0  0.00000000000E+00  0.00000000000E+00  0.18143685543E+04  0.43013750409E+04  0.38999864092E+04 0.  0.
        1    1    3    3  502    0 -0.66006382592E+02  0.19227113326E+04  0.55615430840E+03  0.20026191166E+04  0.50400001928E-02 0.  1.
       -1    1    3    3    0  502  0.66006382592E+02 -0.19227113326E+04  0.12582142459E+04  0.22987559244E+04  0.50400001928E-02 0. -1.
</event>
<event>
 5   0  0.2904500E-09  0.3900258E+04  0.7818609E-02  0.8024976E-01
        1   -1    0    0  501    0  0.00000000000E+00  0.00000000000E+00  0.23975999708E+04  0.23975999708E+04  0.50400001928E-02 0. -1.
       -1   -1    0    0    0  501  0.00000000000E+00  0.00000000000E+00 -0.15861705250E+04  0.15861705250E+04  0.50400001928E-02 0.  1.
    10030    2    1    2    0    0  0.00000000000E+00  0.00000000000E+00  0.81142944580E+03  0.39837704958E+04  0.39002576348E+04 0.  0.
        2    1    3    3  502    0  0.49076459519E+03  0.35127278652E+03  0.22998105399E+04  0.23776818496E+04  0.25500000920E-02 0. -1.
       -2    1    3    3    0  502 -0.49076459519E+03 -0.35127278652E+03 -0.14883810941E+04  0.16060886462E+04  0.25500000920E-02 0.  1.
</event>
<event>
 5   0  0.9434114E-09  0.3904277E+04  0.7818609E-02  0.8024140E-01
       -2   -1    0    0    0  501  0.00000000000E+00  0.00000000000E+00  0.14638610714E+04  0.14638610714E+04  0.25500000920E-02 0. -1.
        2   -1    0    0  501    0  0.00000000000E+00  0.00000000000E+00 -0.26032827963E+04  0.26032827963E+04  0.25500000920E-02 0.  1.
    10030    2    1    2    0    0  0.00000000000E+00  0.00000000000E+00 -0.11394217249E+04  0.40671438677E+04  0.39042768054E+04 0.  0.
        4    1    3    3  502    0 -0.12857538006E+02 -0.17550873731E+03 -0.25950026492E+04  0.26009630899E+04  0.12699999809E+01 0.  1.
       -4    1    3    3    0  502  0.12857538006E+02  0.17550873731E+03  0.14555809243E+04  0.14661807778E+04  0.12699999809E+01 0. -1.
</event>
<event>
 5   0  0.2904500E-09  0.3902069E+04  0.7818609E-02  0.8024599E-01
        1   -1    0    0  501    0  0.00000000000E+00  0.00000000000E+00  0.13973371291E+04  0.13973371291E+04  0.50400001928E-02 0.  1.
       -1   -1    0    0    0  501  0.00000000000E+00  0.00000000000E+00 -0.27241357196E+04  0.27241357196E+04  0.50400001928E-02 0. -1.
    10030    2    1    2    0    0  0.00000000000E+00  0.00000000000E+00 -0.13267985905E+04  0.41214728487E+04  0.39020691873E+04 0.  0.
        5    1    3    3  502    0  0.52480553968E+03  0.11422428730E+04  0.91260197707E+03  0.15533847218E+04  0.46999998093E+01 0.  1.
       -5    1    3    3    0  502 -0.52480553968E+03 -0.11422428730E+04 -0.22394005675E+04  0.25680881269E+04  0.46999998093E+01 0. -1.
</event>
<event>
 5   0  0.2904500E-09  0.3899627E+04  0.7818609E-02  0.8025107E-01
       -1   -1    0    0    0  501  0.00000000000E+00  0.00000000000E+00  0.15319841718E+04  0.15319841718E+04  0.50400001928E-02 0.  1.
        1   -1    0    0  501    0  0.00000000000E+00  0.00000000000E+00 -0.24816001822E+04  0.24816001822E+04  0.50400001928E-02 0. -1.
    10030    2    1    2    0    0  0.00000000000E+00  0.00000000000E+00 -0.94961601046E+03  0.40135843540E+04  0.38996267513E+04 0.  0.
        3    1    3    3  502    0 -0.12205566479E+04 -0.52467226562E+03 -0.19436543579E+04  0.23543219385E+04  0.10100000352E+00 0. -1.
       -3    1    3    3    0  502  0.12205566479E+04  0.52467226562E+03  0.99403834744E+03  0.16592624155E+04  0.10100000352E+00 0.  1.
</event>
<event>
 5   0  0.6335942E-09  0.3901409E+04  0.7818609E-02  0.8024736E-01
       -2   -1    0    0    0  501  0.00000000000E+00  0.00000000000E+00  0.21563868294E+04  0.21563868294E+04  0.25500000920E-02 0. -1.
        2   -1    0    0  501    0  0.00000000000E+00  0.00000000000E+00 -0.17646405170E+04  0.17646405170E+04  0.25500000920E-02 0.  1.
    10030    2    1    2    0    0  0.00000000000E+00  0.00000000000E+00  0.39174631236E+03  0.39210273463E+04  0.39014087555E+04 0.  0.
        2    1    3    3  502    0 -0.87168197177E+03  0.71057311784E+03  0.17977840488E+04  0.21205591484E+04  0.25500000920E-02 0. -1.
       -2    1    3    3    0  502  0.87168197177E+03 -0.71057311784E+03 -0.14060377364E+04  0.18004681980E+04  0.25500000920E-02 0.  1.
</event>
<event>
 5   0  0.2904500E-09  0.3892086E+04  0.7818609E-02  0.8026677E-01
       -1   -1    0    0    0  501  0.00000000000E+00  0.00000000000E+00  0.28006452632E+04  0.28006452632E+04  0.50400001928E-02 0.  1.
        1   -1    0    0  501    0  0.00000000000E+00  0.00000000000E+00 -0.13522181882E+04  0.13522181883E+04  0.50400001928E-02 0. -1.
    10030    2    1    2    0    0  0.00000000000E+00  0.00000000000E+00  0.14484270750E+04  0.41528634515E+04  0.38920860545E+04 0.  0.
        4    1    3    3  502    0 -0.97310012020E+03  0.24743667000E+02 -0.10737863212E+04  0.14493290756E+04  0.12699999809E+01 0. -1.
       -4    1    3    3    0  502  0.97310012020E+03 -0.24743667000E+02  0.25222133962E+04  0.27035343759E+04  0.12699999809E+01 0.  1.
</event>
<event>
 5   0  0.9277261E-09  0.3899830E+04  0.7818609E-02  0.8025065E-01
        2   -1    0    0  501    0  0.00000000000E+00  0.00000000000E+00  0.22308133230E+04  0.22308133230E+04  0.25500000920E-02 0. -1.
       -2   -1    0    0    0  501  0.00000000000E+00  0.00000000000E+00 -0.17043865944E+04  0.17043865944E+04  0.25500000920E-02 0.  1.
    10030    2    1    2    0    0  0.00000000000E+00  0.00000000000E+00  0.52642672864E+03  0.39351999174E+04  0.38998299052E+04 0.  0.
        1    1    3    3  502    0  0.19040491467E+04  0.36405512525E+03  0.50998956325E+02  0.19392112265E+04  0.50400001928E-02 0. -1.
       -1    1    3    3    0  502 -0.19040491467E+04 -0.36405512525E+03  0.47542777231E+03  0.19959886909E+04  0.50400001928E-02 0.  1.
</event>
<event>
 5   0  0.9277261E-09  0.3898142E+04  0.7818609E-02  0.8025416E-01
        2   -1    0    0  501    0  0.00000000000E+00  0.00000000000E+00  0.22496072544E+04  0.22496072544E+04  0.25500000920E-02 0.  1.
       -2   -1    0    0    0  501  0.00000000000E+00  0.00000000000E+00 -0.16886846229E+04  0.16886846229E+04  0.25500000920E-02 0. -1.
    10030    2    1    2    0    0  0.00000000000E+00  0.00000000000E+00  0.56092263149E+03  0.39382918773E+04  0.38981416998E+04 0.  0.
        1    1    3    3  502    0 -0.17944634047E+04 -0.51889855160E+03 -0.28161648398E+03  0.18890903794E+04  0.50400001928E-02 0.  1.
       -1    1    3    3    0  502  0.17944634047E+04  0.51889855160E+03  0.84253911546E+03  0.20492014978E+04  0.50400001928E-02 0. -1.
</event>
<event>
 5   0  0.9277261E-09  0.3896774E+04  0.7818609E-02  0.8025700E-01
        2   -1    0    0  501    0  0.00000000000E+00  0.00000000000E+00  0.23787408886E+04  0.23787408886E+04  0.25500000920E-02 0. -1.
       -2   -1    0    0    0  501  0.00000000000E+00  0.00000000000E+00 -0.15958914116E+04  0.15958914116E+04  0.25500000920E-02 0.  1.
    10030    2    1    2    0    0  0.00000000000E+00  0.00000000000E+00  0.78284947698E+03  0.39746323002E+04  0.38967741297E+04 0.  0.
        1    1    3    3  502    0  0.51753159731E+03 -0.45736259690E+03 -0.14668415772E+04  0.16213092585E+04  0.50400001928E-02 0.  1.
       -1    1    3    3    0  502 -0.51753159731E+03  0.45736259690E+03  0.22496910541E+04  0.23533230416E+04  0.50400001928E-02 0. -1.
</event>
<event>
 5   0  0.2904500E-09  0.3896127E+04  0.7818609E-02  0.8025835E-01
       -1   -1    0    0    0  501  0.00000000000E+00  0.00000000000E+00  0.23638089846E+04  0.23638089846E+04  0.50400001928E-02 0. -1.
        1   -1    0    0  501    0  0.00000000000E+00  0.00000000000E+00 -0.16054393693E+04  0.16054393693E+04  0.50400001928E-02 0.  1.
    10030    2    1    2    0    0  0.00000000000E+00  0.00000000000E+00  0.75836961528E+03  0.39692483539E+04  0.38961273108E+04 0.  0.
        2    1    3    3  502    0  0.14450722491E+04 -0.97204090488E+03  0.12684088647E+04  0.21545204510E+04  0.25500000920E-02 0. -1.
       -2    1    3    3    0  502 -0.14450722491E+04  0.97204090488E+03 -0.51003924939E+03  0.18147279029E+04  0.25500000920E-02 0.  1.
</event>
<event>
 5   0  0.9368546E-09  0.3908294E+04  0.7818609E-02  0.8023306E-01
        2   -1    0    0  501    0  0.00000000000E+00  0.00000000000E+00  0.24842437056E+04  0.24842437056E+04  0.25500000920E-02 0. -1.
       -2   -1    0    0    0  501  0.00000000000E+00  0.00000000000E+00 -0.15371642121E+04  0.15371642121E+04  0.25500000920E-02 0.  1.
    10030    2    1    2    0    0  0.00000000000E+00  0.00000000000E+00  0.94707949354E+03  0.40214079177E+04  0.39082940107E+04 0.  0.
        5    1    3    3  502    0  0.17557392972E+04 -0.85750385352E+03  0.50143698138E+03  0.20172740207E+04  0.46999998093E+01 0. -1.
       -5    1    3    3    0  502 -0.17557392972E+04  0.85750385352E+03  0.44564251216E+03  0.20041338970E+04  0.46999998093E+01 0.  1.
</event>
<event>
 5   0  0.9368546E-09  0.3898428E+04  0.7818609E-02  0.8025356E-01
        2   -1    0    0  501    0  0.00000000000E+00  0.00000000000E+00  0.26218093338E+04  0.26218093338E+04  0.25500000920E-02 0. -1.
       -2   -1    0    0    0  501  0.00000000000E+00  0.00000000000E+00 -0.14491654320E+04  0.14491654320E+04  0.25500000920E-02 0.  1.
    10030    2    1    2    0    0  0.00000000000E+00  0.00000000000E+00  0.11726439018E+04  0.40709747659E+04  0.38984281222E+04 0.  0.
        5    1    3    3  502    0  0.14303175328E+04 -0.67501549830E+03 -0.60338335758E+03  0.16927928797E+04  0.46999998093E+01 0.  1.
       -5    1    3    3    0  502 -0.14303175328E+04  0.67501549830E+03  0.17760272594E+04  0.23781818861E+04  0.46999998093E+01 0. -1.
</event>
<event>
 5   0  0.9434114E-09  0.3898492E+04  0.7818609E-02  0.8025343E-01
       -2   -1    0    0    0  501  0.00000000000E+00  0.00000000000E+00  0.11343047384E+04  0.11343047384E+04  0.25500000920E-02 0.  1.
        2   -1    0    0  501    0  0.00000000000E+00  0.00000000000E+00 -0.33496811194E+04  0.33496811194E+04  0.25500000920E-02 0. -1.
    10030    2    1    2    0    0  0.00000000000E+00  0.00000000000E+00 -0.22153763810E+04  0.44839858577E+04  0.38984915881E+04 0.  0.
        4    1    3    3  502    0  0.17438900469E+04 -0.45539967710E+03 -0.19614757313E+04  0.26638186911E+04  0.12699999809E+01 0. -1.
       -4    1    3    3    0  502 -0.17438900469E+04  0.45539967710E+03 -0.25390064977E+03  0.18201671667E+04  0.12699999809E+01 0.  1.
</event>
<event>
 5   0  0.9434114E-09  0.3896828E+04  0.7818609E-02  0.8025689E-01
       -2   -1    0    0    0  501  0.00000000000E+00  0.00000000000E+00  0.17889987303E+04  0.17889987303E+04  0.25500000920E-02 0.  1.
        2   -1    0    0  501    0  0.00000000000E+00  0.00000000000E+00 -0.21220340891E+04  0.21220340891E+04  0.25500000920E-02 0. -1.
    10030    2    1    2    0    0  0.00000000000E+00  0.00000000000E+00 -0.33303535877E+03  0.39110328193E+04  0.38968275769E+04 0.  0.
        4    1    3    3  502    0 -0.66490434741E+03  0.16879408259E+04  0.54675764251E+03  0.18947790255E+04  0.12699999809E+01 0.  1.
       -4    1    3    3    0  502  0.66490434741E+03 -0.16879408259E+04 -0.87979300127E+03  0.20162537938E+04  0.12699999809E+01 0. -1.
</event>
<event>
 5   0  0.2904500E-09  0.3898418E+04  0.7818609E-02  0.8025358E-01
        1   -1    0    0  501    0  0.00000000000E+00  0.00000000000E+00  0.20280216252E+04  0.20280216252E+04  0.50400001928E-02 0. -1.
       -1   -1    0    0    0  501  0.00000000000E+00  0.00000000000E+00 -0.18734591852E+04  0.18734591852E+04  0.50400001928E-02 0.  1.
    10030    2    1    2    0    0  0.00000000000E+00  0.00000000000E+00  0.15456244002E+03  0.39014808105E+04  0.38984180082E+04 0.  0.
        2    1    3    3  502    0  0.53232434171E+02 -0.11504880720E+04 -0.14965188137E+04  0.18883921880E+04  0.25500000920E-02 0.  1.
       -2    1    3    3    0  502 -0.53232434171E+02  0.11504880720E+04  0.16510812537E+04  0.20130886225E+04  0.25500000920E-02 0. -1.
</event>
<event>
 5   0  0.9078515E-09  0.3900886E+04  0.7818609E-02  0.8024845E-01
       -2   -1    0    0    0  501  0.00000000000E+00  0.00000000000E+00  0.21304034914E+04  0.21304034914E+04  0.25500000920E-02 0.  1.
        2   -1    0    0  501    0  0.00000000000E+00  0.00000000000E+00 -0.17856843234E+04  0.17856843234E+04  0.25500000920E-02 0. -1.
    10030    2    1    2    0    0  0.00000000000E+00  0.00000000000E+00  0.34471916804E+03  0.39160878148E+04  0.39008861133E+04 0.  0.
        3    1    3    3  502    0 -0.96288005495E+03 -0.96188808285E+03 -0.12301752002E+04  0.18345837996E+04  0.10100000352E+00 0. -1.
       -3    1    3    3    0  502  0.96288005495E+03  0.96188808285E+03  0.15748943683E+04  0.20815040153E+04  0.10100000352E+00 0.  1.
</event>
<event>
 5   0  0.2904500E-09  0.3901067E+04  0.7818609E-02  0.8024807E-01
       -1   -1    0    0    0  501  0.00000000000E+00  0.00000000000E+00  0.14669486784E+04  0.14669486785E+04  0.50400001928E-02 0.  1.
        1   -1    0    0  501    0  0.00000000000E+00  0.00000000000E+00 -0.25935335159E+04  0.25935335159E+04  0.50400001928E-02 0. -1.
    10030    2    1    2    0    0  0.00000000000E+00  0.00000000000E+00 -0.11265848375E+04  0.40604821944E+04  0.39010668098E+04 0.  0.
        4    1    3    3  502    0  0.17576960358E+04 -0.26973063840E+03 -0.13974977870E+04  0.22616922092E+04  0.12699999809E+01 0. -1.
       -4    1    3    3    0  502 -0.17576960358E+04  0.26973063840E+03  0.27091294949E+03  0.17987899852E+04  0.12699999809E+01 0.  1.
</event>
<event>
 5   0  0.9434114E-09  0.3903871E+04  0.7818609E-02  0.8024225E-01
        2   -1    0    0  501    0  0.00000000000E+00  0.00000000000E+00  0.24760618186E+04  0.24760618186E+04  0.25500000920E-02 0. -1.
       -2   -1    0    0    0  501  0.00000000000E+00  0.00000000000E+00 -0.15387548062E+04  0.15387548062E+04  0.25500000920E-02 0.  1.
    10030    2    1    2    0    0  0.00000000000E+00  0.00000000000E+00  0.93730701238E+03  0.40148166248E+04  0.39038709117E+04 0.  0.
        4    1    3    3  502    0  0.14325157738E+04  0.87494956523E+03  0.14931637816E+04  0.22465925031E+04  0.12699999809E+01 0. -1.
       -4    1    3    3    0  502 -0.14325157738E+04 -0.87494956523E+03 -0.55585676918E+03  0.17682241217E+04  0.12699999809E+01 0.  1.
</event>
<event>
 5   0  0.6335942E-09  0.3899389E+04  0.7818609E-02  0.8025156E-01
       -2   -1    0    0    0  501  0.00000000000E+00  0.00000000000E+00  0.23991042749E+04  0.23991042749E+04  0.25500000920E-02 0.  1.
        2   -1    0    0  501    0  0.00000000000E+00  0.00000000000E+00 -0.15844698204E+04  0.15844698204E+04  0.25500000920E-02 0. -1.
    10030    2    1    2    0    0  0.00000000000E+00  0.00000000000E+00  0.81463445450E+03  0.39835740952E+04  0.38993888339E+04 0.  0.
        2    1    3    3  502    0  0.42286430060E+03  0.19407421551E+02 -0.15369574523E+04  0.15941860227E+04  0.25500000920E-02 0. -1.
       -2    1    3    3    0  502 -0.42286430060E+03 -0.19407421551E+02  0.23515919068E+04  0.23893880725E+04  0.25500000920E-02 0.  1.
</event>
<event>
 5   0  0.2904500E-09  0.3899716E+04  0.7818609E-02  0.8025088E-01
       -1   -1    0    0    0  501  0.00000000000E+00  0.00000000000E+00  0.20724515500E+04  0.20724515500E+04  0.50400001928E-02 0.  1.
        1   -1    0    0  501    0  0.00000000000E+00  0.00000000000E+00 -0.18345166159E+04  0.18345166159E+04  0.50400001928E-02 0. -1.
    10030    2    1    2    0    0  0.00000000000E+00  0.00000000000E+00  0.23793493408E+03  0.39069681660E+04  0.38997162995E+04 0.  0.
        4    1    3    3  502    0  0.45778794476E+03  0.31460517910E+03  0.19915068171E+04  0.20675220039E+04  0.12699999809E+01 0.  1.
       -4    1    3    3    0  502 -0.45778794476E+03 -0.31460517910E+03 -0.17535718831E+04  0.18394461620E+04  0.12699999809E+01 0. -1.
</event>
<event>
 5   0  0.2904500E-09  0.3908121E+04  0.7818609E-02  0.8023342E-01
        1   -1    0    0  501    0  0.00000000000E+00  0.00000000000E+00  0.24541173643E+04  0.24541173643E+04  0.50400001928E-02 0. -1.
       -1   -1    0    0    0  501  0.00000000000E+00  0.00000000000E+00 -0.15558966579E+04  0.15558966579E+04  0.50400001928E-02 0.  1.
    10030    2    1    2    0    0  0.00000000000E+00  0.00000000000E+00  0.89822070636E+03  0.40100140222E+04  0.39081212904E+04 0.  0.
        2    1    3    3  502    0 -0.42407645374E+03 -0.10001277443E+04  0.21157295472E+04  0.23783203864E+04  0.25500000920E-02 0. -1.
       -2    1    3    3    0  502  0.42407645374E+03  0.10001277443E+04 -0.12175088408E+04  0.16316936358E+04  0.25500000920E-02 0.  1.
</event>
<event>
 5   0  0.6335942E-09  0.3899055E+04  0.7818609E-02  0.8025226E-01
       -2   -1    0    0    0  501  0.00000000000E+00  0.00000000000E+00  0.31247826485E+04  0.31247826485E+04  0.25500000920E-02 0.  1.
        2   -1    0    0  501    0  0.00000000000E+00  0.00000000000E+00 -0.12162949202E+04  0.12162949202E+04  0.25500000920E-02 0. -1.
    10030    2    1    2    0    0  0.00000000000E+00  0.00000000000E+00  0.19084877282E+04  0.43410775687E+04  0.38990548918E+04 0.  0.
        2    1    3    3  502    0  0.16418731473E+04 -0.18155990637E+03  0.21069659561E+04  0.26773152544E+04  0.25500000920E-02 0.  1.
       -2    1    3    3    0  502 -0.16418731473E+04  0.18155990637E+03 -0.19847822786E+03  0.16637623143E+04  0.25500000920E-02 0. -1.
</event>
<event>
 5   0  0.9434114E-09  0.3900991E+04  0.7818609E-02  0.8024823E-01
       -2   -1    0    0    0  501  0.00000000000E+00  0.00000000000E+00  0.15305128534E+04  0.15305128534E+04  0.25500000920E-02 0. -1.
        2   -1    0    0  501    0  0.00000000000E+00  0.00000000000E+00 -0.24857239455E+04  0.24857239455E+04  0.25500000920E-02 0.  1.
    10030    2    1    2    0    0  0.00000000000E+00  0.00000000000E+00 -0.95521109210E+03  0.40162367989E+04  0.39009908734E+04 0.  0.
        4    1    3    3  502    0  0.16224966681E+04 -0.91676146681E+02  0.63293222482E+03  0.17439910459E+04  0.12699999809E+01 0. -1.
       -4    1    3    3    0  502 -0.16224966681E+04  0.91676146681E+02 -0.15881433169E+04  0.22722457530E+04  0.12699999809E+01 0.  1.
</event>
<event>
 5   0  0.2904500E-09  0.3900221E+04  0.7818609E-02  0.8024983E-01
        1   -1    0    0  501    0  0.00000000000E+00  0.00000000000E+00  0.20574033611E+04  0.20574033611E+04  0.50400001928E-02 0. -1.
       -1   -1    0    0    0  501  0.00000000000E+00  0.00000000000E+00 -0.18484133034E+04  0.18484133034E+04  0.50400001928E-02 0.  1.
    10030    2    1    2    0    0  0.00000000000E+00  0.00000000000E+00  0.20899005772E+03  0.39058166644E+04  0.39002214004E+04 0.  0.
        4    1    3    3  502    0 -0.12037606660E+03  0.12788682333E+04 -0.13648985249E+04  0.18742849175E+04  0.12699999809E+01 0.  1.
       -4    1    3    3    0  502  0.12037606660E+03 -0.12788682333E+04  0.15738885826E+04  0.20315317470E+04  0.12699999809E+01 0. -1.
</event>
<event>
 5   0  0.2904500E-09  0.3900072E+04  0.7818609E-02  0.8025014E-01
       -1   -1    0    0    0  501  0.00000000000E+00  0.00000000000E+00  0.16668531804E+04  0.16668531804E+04  0.50400001928E-02 0. -1.
        1   -1    0    0  501    0  0.00000000000E+00  0.00000000000E+00 -0.22813295202E+04  0.22813295202E+04  0.50400001928E-02 0.  1.
    10030    2    1    2    0    0  0.00000000000E+00  0.00000000000E+00 -0.61447633975E+03  0.39481827006E+04  0.39000724949E+04 0.  0.
        2    1    3    3  502    0  0.61681297776E+03  0.34763004873E+03  0.15321333426E+04  0.16878203340E+04  0.25500000920E-02 0. -1.
       -2    1    3    3    0  502 -0.61681297776E+03 -0.34763004873E+03 -0.21466096823E+04  0.22603623667E+04  0.25500000920E-02 0.  1.
</event>
<event>
 5   0  0.9368546E-09  0.3900086E+04  0.7818609E-02  0.8025011E-01
       -2   -1    0    0    0  501  0.00000000000E+00  0.00000000000E+00  0.26629778451E+04  0.26629778451E+04  0.25500000920E-02 0. -1.
        2   -1    0    0  501    0  0.00000000000E+00  0.00000000000E+00 -0.14279759668E+04  0.14279759668E+04  0.25500000920E-02 0.  1.
    10030    2    1    2    0    0  0.00000000000E+00  0.00000000000E+00  0.12350018783E+04  0.40909538119E+04  0.39000863390E+04 0.  0.
        5    1    3    3  502    0  0.33184156392E+03 -0.92954617082E+03  0.23816133204E+04  0.25780378207E+04  0.46999998093E+01 0. -1.
       -5    1    3    3    0  502 -0.33184156392E+03  0.92954617082E+03 -0.11466114421E+04  0.15129159912E+04  0.46999998093E+01 0.  1.
</event>
<event>
 5   0  0.9368546E-09  0.3902207E+04  0.7818609E-02  0.8024570E-01
        2   -1    0    0  501    0  0.00000000000E+00  0.00000000000E+00  0.13920832506E+04  0.13920832506E+04  0.25500000920E-02 0. -1.
       -2   -1    0    0    0  501  0.00000000000E+00  0.00000000000E+00 -0.27346097334E+04  0.27346097334E+04  0.25500000920E-02 0.  1.
    10030    2    1    2    0    0  0.00000000000E+00  0.00000000000E+00 -0.13425264828E+04  0.41266929840E+04  0.39022067637E+04 0.  0.
        5    1    3    3  502    0 -0.57991889425E+03 -0.60352240646E+02 -0.26403207746E+04  0.27039349474E+04  0.46999998093E+01 0.  1.
       -5    1    3    3    0  502  0.57991889425E+03  0.60352240646E+02  0.12977942918E+04  0.14227580366E+04  0.46999998093E+01 0. -1.
</event>
<event>
 5   0  0.2904500E-09  0.3903064E+04  0.7818609E-02  0.8024392E-01
        1   -1    0    0  501    0  0.00000000000E+00  0.00000000000E+00  0.25067559253E+04  0.25067559253E+04  0.50400001928E-02 0. -1.
       -1   -1    0    0    0  501  0.00000000000E+00  0.00000000000E+00 -0.15192848446E+04  0.15192848446E+04  0.50400001928E-02 0.  1.
    10030    2    1    2    0    0  0.00000000000E+00  0.00000000000E+00  0.98747108074E+03  0.40260407699E+04  0.39030635590E+04 0.  0.
        3    1    3    3  502    0 -0.19430725670E+04  0.18107743530E+03  0.48084218947E+03  0.20098580198E+04  0.10100000352E+00 0.  1.
       -3    1    3    3    0  502  0.19430725670E+04 -0.18107743530E+03  0.50662889127E+03  0.20161827501E+04  0.10100000352E+00 0. -1.
</event>
<event>
 5   0  0.6335942E-09  0.3899781E+04  0.7818609E-02  0.8025075E-01
       -2   -1    0    0    0  501  0.00000000000E+00  0.00000000000E+00  0.15436039945E+04  0.15436039945E+04  0.25500000920E-02 0.  1.
        2   -1    0    0  501    0  0.00000000000E+00  0.00000000000E+00 -0.24631146912E+04  0.24631146912E+04  0.25500000920E-02 0. -1.
    10030    2    1    2    0    0  0.00000000000E+00  0.00000000000E+00 -0.91951069666E+03  0.40067186857E+04  0.38997813663E+04 0.  0.
        2    1    3    3  502    0  0.52299391144E+03  0.18769245435E+04 -0.53736003503E+03  0.20211690134E+04  0.25500000920E-02 0. -1.
       -2    1    3    3    0  502 -0.52299391144E+03 -0.18769245435E+04 -0.38215066163E+03  0.19855496724E+04  0.25500000920E-02 0.  1.
</event>
<event>
 5   0  0.2904500E-09  0.3899550E+04  0.7818609E-02  0.8025123E-01
       -1   -1    0    0    0  501  0.00000000000E+00  0.00000000000E+00  0.19437493897E+04  0.19437493897E+04  0.50400001928E-02 0. -1.
        1   -1    0    0  501    0  0.00000000000E+00  0.00000000000E+00 -0.19558188287E+04  0.19558188287E+04  0.50400001928E-02 0.  1.
    10030    2    1    2    0    0  0.00000000000E+00  0.00000000000E+00 -0.12069439007E+02  0.38995682183E+04  0.38995495404E+04 0.  0.
        4    1    3    3  502    0  0.22574006908E+02 -0.59183101003E+03 -0.18636890385E+04  0.19555336805E+04  0.12699999809E+01 0.  1.
       -4    1    3    3    0  502 -0.22574006908E+02  0.59183101003E+03  0.18516195995E+04  0.19440345379E+04  0.12699999809E+01 0. -1.
</event>
<event>
 5   0  0.9277261E-09  0.3899156E+04  0.7818609E-02  0.8025205E-01
       -2   -1    0    0    0  501  0.00000000000E+00  0.00000000000E+00  0.15692250597E+04  0.15692250597E+04  0.25500000920E-02 0.  1.
        2   -1    0    0  501    0  0.00000000000E+00  0.00000000000E+00 -0.24221218213E+04  0.24221218213E+04  0.25500000920E-02 0. -1.
    10030    2    1    2    0    0  0.00000000000E+00  0.00000000000E+00 -0.85289676154E+03  0.39913468810E+04  0.38991559392E+04 0.  0.
        1    1    3    3  502    0 -0.11489188064E+04 -0.12004469884E+04 -0.14702473301E+04  0.22187191366E+04  0.50400001928E-02 0. -1.
       -1    1    3    3    0  502  0.11489188064E+04  0.12004469884E+04  0.61735056856E+03  0.17726277443E+04  0.50400001928E-02 0.  1.
</event>
<event>
 5   0  0.9368546E-09  0.3899669E+04  0.7818609E-02  0.8025098E-01
       -2   -1    0    0    0  501  0.00000000000E+00  0.00000000000E+00  0.27892002239E+04  0.27892002239E+04  0.25500000920E-02 0. -1.
        2   -1    0    0  501    0  0.00000000000E+00  0.00000000000E+00 -0.13630629639E+04  0.13630629639E+04  0.25500000920E-02 0.  1.
    10030    2    1    2    0    0  0.00000000000E+00  0.00000000000E+00  0.14261372599E+04  0.41522631878E+04  0.38996694856E+04 0.  0.
        5    1    3    3  502    0 -0.11252935212E+01 -0.46092459238E+03 -0.13042143941E+04  0.13832751071E+04  0.46999998093E+01 0.  1.
       -5    1    3    3    0  502  0.11252935212E+01  0.46092459238E+03  0.27303516541E+04  0.27689880807E+04  0.46999998093E+01 0. -1.
</event>
<event>
 5   0  0.6335942E-09  0.3900547E+04  0.7818609E-02  0.8024916E-01
       -2   -1    0    0    0  501  0.00000000000E+00  0.00000000000E+00  0.32530739315E+04  0.32530739315E+04  0.25500000920E-02 0.  1.
        2   -1    0    0  501    0  0.00000000000E+00  0.00000000000E+00 -0.11692221044E+04  0.11692221044E+04  0.25500000920E-02 0. -1.
    10030    2    1    2    0    0  0.00000000000E+00  0.00000000000E+00  0.20838518272E+04  0.44222960359E+04  0.39005466016E+04 0.  0.
        2    1    3    3  502    0 -0.58709034646E+03 -0.42037821313E+03  0.30959383886E+04  0.31790293208E+04  0.25500000920E-02 0.  1.
       -2    1    3    3    0  502  0.58709034646E+03  0.42037821313E+03 -0.10120865614E+04  0.12432667151E+04  0.25500000920E-02 0. -1.
</event>
<event>
 5   0  0.2929054E-09  0.3901080E+04  0.7818609E-02  0.8024805E-01
        1   -1    0    0  501    0  0.00000000000E+00  0.00000000000E+00  0.12360349654E+04  0.12360349654E+04  0.50400001928E-02 0.  1.
       -1   -1    0    0    0  501  0.00000000000E+00  0.00000000000E+00 -0.30780725659E+04  0.30780725659E+04  0.50400001928E-02 0. -1.
    10030    2    1    2    0    0  0.00000000000E+00  0.00000000000E+00 -0.18420376005E+04  0.43141075313E+04  0.39010795007E+04 0.  0.
        1    1    3    3  502    0 -0.43377279243E+03  0.18717249424E+04 -0.12929156790E+04  0.23158462921E+04  0.50400001928E-02 0. -1.
       -1    1    3    3    0  502  0.43377279243E+03 -0.18717249424E+04 -0.54912192146E+03  0.19982612392E+04  0.50400001928E-02 0.  1.
</event>
<event>
 5   0  0.6335942E-09  0.3901356E+04  0.7818609E-02  0.8024747E-01
       -2   -1    0    0    0  501  0.00000000000E+00  0.00000000000E+00  0.27696755727E+04  0.27696755727E+04  0.25500000920E-02 0. -1.
        2   -1    0    0  501    0  0.00000000000E+00  0.00000000000E+00 -0.13738591699E+04  0.13738591700E+04  0.25500000920E-02 0.  1.
    10030    2    1    2    0    0  0.00000000000E+00  0.00000000000E+00  0.13958164028E+04  0.41435347427E+04  0.39013557558E+04 0.  0.
        2    1    3    3  502    0  0.20726476858E+02 -0.16244015700E+04  0.18447699357E+04  0.24581062148E+04  0.25500000920E-02 0. -1.
       -2    1    3    3    0  502 -0.20726476858E+02  0.16244015700E+04 -0.44895353298E+03  0.16854285278E+04  0.25500000920E-02 0.  1.
</event>
<event>
 5   0  0.2904500E-09  0.3899659E+04  0.7818609E-02  0.8025100E-01
       -1   -1    0    0    0  501  0.00000000000E+00  0.00000000000E+00  0.24161854548E+04  0.24161854548E+04  0.50400001928E-02 0. -1.
        1   -1    0    0  501    0  0.00000000000E+00  0.00000000000E+00 -0.15734864294E+04  0.15734864294E+04  0.50400001928E-02 0.  1.
    10030    2    1    2    0    0  0.00000000000E+00  0.00000000000E+00  0.84269902539E+03  0.39896718842E+04  0.38996589718E+04 0.  0.
        3    1    3    3  502    0  0.86747172298E+03  0.14077320305E+03 -0.13593752514E+04  0.16187110209E+04  0.10100000352E+00 0.  1.
       -3    1    3    3    0  502 -0.86747172298E+03 -0.14077320305E+03  0.22020742767E+04  0.23709608633E+04  0.10100000352E+00 0. -1.
</event>
<event>
 5   0  0.2904500E-09  0.3899365E+04  0.7818609E-02  0.8025161E-01
       -1   -1    0    0    0  501  0.00000000000E+00  0.00000000000E+00  0.16745375733E+04  0.16745375733E+04  0.50400001928E-02 0.  1.
        1   -1    0    0  501    0  0.00000000000E+00  0.00000000000E+00 -0.22700368604E+04  0.22700368605E+04  0.50400001928E-02 0. -1.
    10030    2    1    2    0    0  0.00000000000E+00  0.00000000000E+00 -0.59549928713E+03  0.39445744338E+04  0.38993650846E+04 0.  0.
        4    1    3    3  502    0 -0.17537304350E+04  0.79814733686E+03  0.34452253481E+01  0.19268168290E+04  0.12699999809E+01 0. -1.
       -4    1    3    3    0  502  0.17537304350E+04 -0.79814733686E+03 -0.59894451248E+03  0.20177576048E+04  0.12699999809E+01 0.  1.
</event>
<event>
 5   0  0.9078515E-09  0.3899407E+04  0.7818609E-02  0.8025153E-01
        2   -1    0    0  501    0  0.00000000000E+00  0.00000000000E+00  0.22918050235E+04  0.22918050235E+04  0.25500000920E-02 0.  1.
       -2   -1    0    0    0  501  0.00000000000E+00  0.00000000000E+00 -0.16586678414E+04  0.16586678415E+04  0.25500000920E-02 0. -1.
    10030    2    1    2    0    0  0.00000000000E+00  0.00000000000E+00  0.63313718200E+03  0.39504728649E+04  0.38994067709E+04 0.  0.
        3    1    3    3  502    0 -0.77059167893E+03 -0.57063162725E+03  0.20364196806E+04  0.22508747445E+04  0.10100000352E+00 0.  1.
       -3    1    3    3    0  502  0.77059167893E+03  0.57063162725E+03 -0.14032824986E+04  0.16995981204E+04  0.10100000352E+00 0. -1.
</event>
<event>
 5   0  0.2929054E-09  0.3901382E+04  0.7818609E-02  0.8024742E-01
       -1   -1    0    0    0  501  0.00000000000E+00  0.00000000000E+00  0.21164058228E+04  0.21164058228E+04  0.50400001928E-02 0. -1.
        1   -1    0    0  501    0  0.00000000000E+00  0.00000000000E+00 -0.17979520218E+04  0.17979520218E+04  0.50400001928E-02 0.  1.
    10030    2    1    2    0    0  0.00000000000E+00  0.00000000000E+00  0.31845380093E+03  0.39143578446E+04  0.39013823848E+04 0.  0.
        1    1    3    3  502    0 -0.10780938988E+03  0.86002682983E+03  0.19125878949E+04  0.20998241518E+04  0.50400001928E-02 0. -1.
       -1    1    3    3    0  502  0.10780938988E+03 -0.86002682983E+03 -0.15941340940E+04  0.18145336928E+04  0.50400001928E-02 0.  1.
</event>
<event>
 5   0  0.2904500E-09  0.3898932E+04  0.7818609E-02  0.8025251E-01
        1   -1    0    0  501    0  0.00000000000E+00  0.00000000000E+00  0.21805785190E+04  0.21805785190E+04  0.50400001928E-02 0.  1.
       -1   -1    0    0    0  501  0.00000000000E+00  0.00000000000E+00 -0.17428482495E+04  0.17428482495E+04  0.50400001928E-02 0. -1.
    10030    2    1    2    0    0  0.00000000000E+00  0.00000000000E+00  0.43773026952E+03  0.39234267685E+04  0.38989318818E+04 0.  0.
        2    1    3    3  502    0 -0.18080906192E+04 -0.54470963510E+03  0.70617728031E+03  0.20160819986E+04  0.25500000920E-02 0. -1.
       -2    1    3    3    0  502  0.18080906192E+04  0.54470963510E+03 -0.26844701078E+03  0.19073447699E+04  0.25500000920E-02 0.  1.
</event>
<event>
 5   0  0.2904500E-09  0.3901418E+04  0.7818609E-02  0.8024734E-01
        1   -1    0    0  501    0  0.00000000000E+00  0.00000000000E+00  0.14664185132E+04  0.14664185133E+04  0.50400001928E-02 0. -1.
       -1   -1    0    0    0  501  0.00000000000E+00  0.00000000000E+00 -0.25949385003E+04  0.25949385003E+04  0.50400001928E-02 0.  1.
    10030    2    1    2    0    0  0.00000000000E+00  0.00000000000E+00 -0.11285199871E+04  0.40613570136E+04  0.39014181307E+04 0.  0.
        2    1    3    3  502    0  0.11916766774E+04 -0.40248711992E+02 -0.21714271165E+04  0.24772583605E+04  0.25500000920E-02 0.  1.
       -2    1    3    3    0  502 -0.11916766774E+04  0.40248711992E+02  0.10429071294E+04  0.15840986531E+04  0.25500000920E-02 0. -1.
</event>
<event>
 5   0  0.6335942E-09  0.3901336E+04  0.7818609E-02  0.8024751E-01
        2   -1    0    0  501    0  0.00000000000E+00  0.00000000000E+00  0.23463995965E+04  0.23463995965E+04  0.25500000920E-02 0. -1.
       -2   -1    0    0    0  501  0.00000000000E+00  0.00000000000E+00 -0.16216783116E+04  0.16216783116E+04  0.25500000920E-02 0.  1.
    10030    2    1    2    0    0  0.00000000000E+00  0.00000000000E+00  0.72472128493E+03  0.39680779081E+04  0.39013358410E+04 0.  0.
        2    1    3    3  502    0  0.26095492181E+03  0.33060612318E+03  0.22995986526E+04  0.23378519720E+04  0.25500000920E-02 0. -1.
       -2    1    3    3    0  502 -0.26095492181E+03 -0.33060612318E+03 -0.15748773676E+04  0.16302259362E+04  0.25500000920E-02 0.  1.
</event>
<event>
 5   0  0.2904500E-09  0.3900184E+04  0.7818609E-02  0.8024991E-01
        1   -1    0    0  501    0  0.00000000000E+00  0.00000000000E+00  0.27277294254E+04  0.27277294254E+04  0.50400001928E-02 0.  1.
       -1   -1    0    0    0  501  0.00000000000E+00  0.00000000000E+00 -0.13941483680E+04  0.13941483680E+04  0.50400001928E-02 0. -1.
    10030    2    1    2    0    0  0.00000000000E+00  0.00000000000E+00  0.13335810574E+04  0.41218777935E+04  0.39001843684E+04 0.  0.
        4    1    3    3  502    0 -0.15721597898E+04 -0.98476725768E+03  0.13021317404E+04  0.22664954531E+04  0.12699999809E+01 0.  1.
       -4    1    3    3    0  502  0.15721597898E+04  0.98476725768E+03  0.31449316986E+02  0.18553823404E+04  0.12699999809E+01 0. -1.
</event>
<event>
 5   0  0.2904500E-09  0.3895790E+04  0.7818609E-02  0.8025905E-01
       -1   -1    0    0    0  501  0.00000000000E+00  0.00000000000E+00  0.11008659503E+04  0.11008659503E+04  0.50400001928E-02 0. -1.
        1   -1    0    0  501    0  0.00000000000E+00  0.00000000000E+00 -0.34466463176E+04  0.34466463177E+04  0.50400001928E-02 0.  1.
    10030    2    1    2    0    0  0.00000000000E+00  0.00000000000E+00 -0.23457803674E+04  0.45475122680E+04  0.38957903300E+04 0.  0.
        4    1    3    3  502    0 -0.20390102117E+03  0.15632764045E+04  0.16256428449E+03  0.15848777565E+04  0.12699999809E+01 0. -1.
       -4    1    3    3    0  502  0.20390102117E+03 -0.15632764045E+04 -0.25083446518E+04  0.29626345115E+04  0.12699999809E+01 0.  1.
</event>
<event>
 5   0  0.9078515E-09  0.3898405E+04  0.7818609E-02  0.8025361E-01
       -2   -1    0    0    0  501  0.00000000000E+00  0.00000000000E+00  0.16833825637E+04  0.16833825637E+04  0.25500000920E-02 0. -1.
        2   -1    0    0  501    0  0.00000000000E+00  0.00000000000E+00 -0.22569974675E+04  0.22569974675E+04  0.25500000920E-02 0.  1.
    10030    2    1    2    0    0  0.00000000000E+00  0.00000000000E+00 -0.57361490372E+03  0.39403800312E+04  0.38984048959E+04 0.  0.
        3    1    3    3  502    0 -0.51954561170E+03 -0.87772650385E+03  0.13921188666E+04  0.17257828389E+04  0.10100000352E+00 0. -1.
       -3    1    3    3    0  502  0.51954561170E+03  0.87772650385E+03 -0.19657337703E+04  0.22145971923E+04  0.10100000352E+00 0.  1.
</event>
<event>
 5   0  0.9434114E-09  0.3899037E+04  0.7818609E-02  0.8025229E-01
        2   -1    0    0  501    0  0.00000000000E+00  0.00000000000E+00  0.15758729008E+04  0.15758729008E+04  0.25500000920E-02 0. -1.
       -2   -1    0    0    0  501  0.00000000000E+00  0.00000000000E+00 -0.24117574017E+04  0.24117574017E+04  0.25500000920E-02 0.  1.
    10030    2    1    2    0    0  0.00000000000E+00  0.00000000000E+00 -0.83588450093E+03  0.39876303025E+04  0.38990373851E+04 0.  0.
        4    1    3    3  502    0  0.88654490192E+03 -0.17362647976E+04 -0.42474233239E+03  0.19952405801E+04  0.12699999809E+01 0. -1.
       -4    1    3    3    0  502 -0.88654490192E+03  0.17362647976E+04 -0.41114216854E+03  0.19923897225E+04  0.12699999809E+01 0.  1.
</event>
<event>
 5   0  0.9277261E-09  0.3899492E+04  0.7818609E-02  0.8025135E-01
       -2   -1    0    0    0  501  0.00000000000E+00  0.00000000000E+00  0.16436905936E+04  0.16436905936E+04  0.25500000920E-02 0.  1.
        2   -1    0    0  501    0  0.00000000000E+00  0.00000000000E+00 -0.23127893289E+04  0.23127893289E+04  0.25500000920E-02 0. -1.
    10030    2    1    2    0    0  0.00000000000E+00  0.00000000000E+00 -0.66909873522E+03  0.39564799225E+04  0.38994923079E+04 0.  0.
        1    1    3    3  502    0 -0.77358674285E+03 -0.17406572682E+04 -0.75678720838E+03  0.20496465678E+04  0.50400001928E-02 0. -1.
       -1    1    3    3    0  502  0.77358674285E+03  0.17406572682E+04  0.87688473157E+02  0.19068333547E+04  0.50400001928E-02 0.  1.
</event>
<event>
 5   0  0.2929054E-09  0.3897998E+04  0.7818609E-02  0.8025446E-01
       -1   -1    0    0    0  501  0.00000000000E+00  0.00000000000E+00  0.24041388283E+04  0.24041388283E+04  0.50400001928E-02 0. -1.
        1   -1    0    0  501    0  0.00000000000E+00  0.00000000000E+00 -0.15800237027E+04  0.15800237027E+04  0.50400001928E-02 0.  1.
    10030    2    1    2    0    0  0.00000000000E+00  0.00000000000E+00  0.82411512560E+03  0.39841625309E+04  0.38979976055E+04 0.  0.
        1    1    3    3  502    0  0.45186977256E+03  0.10057176177E+02  0.23498318001E+04  0.23929055407E+04  0.50400001928E-02 0. -1.
       -1    1    3    3    0  502 -0.45186977256E+03 -0.10057176177E+02 -0.15257166745E+04  0.15912569902E+04  0.50400001928E-02 0.  1.
</event>
<event>
 5   0  0.9368546E-09  0.3901420E+04  0.7818609E-02  0.8024734E-01
       -2   -1    0    0    0  501  0.00000000000E+00  0.00000000000E+00  0.19002709494E+04  0.19002709495E+04  0.25500000920E-02 0.  1.
        2   -1    0    0  501    0  0.00000000000E+00  0.00000000000E+00 -0.20024880020E+04  0.20024880020E+04  0.25500000920E-02 0. -1.
    10030    2    1    2    0    0  0.00000000000E+00  0.00000000000E+00 -0.10221705259E+03  0.39027589515E+04  0.39014201398E+04 0.  0.
        5    1    3    3  502    0 -0.77897161900E+03 -0.38553319353E+03 -0.17980797822E+04  0.19971343520E+04  0.46999998093E+01 0. -1.
       -5    1    3    3    0  502  0.77897161900E+03  0.38553319353E+03  0.16958627296E+04  0.19056245995E+04  0.46999998093E+01 0.  1.
</event>
<event>
 5   0  0.6335942E-09  0.3898619E+04  0.7818609E-02  0.8025316E-01
        2   -1    0    0  501    0  0.00000000000E+00  0.00000000000E+00  0.15443198213E+04  0.15443198213E+04  0.25500000920E-02 0.  1.
       -2   -1    0    0    0  501  0.00000000000E+00  0.00000000000E+00 -0.24605055203E+04  0.24605055203E+04  0.25500000920E-02 0. -1.
    10030    2    1    2    0    0  0.00000000000E+00  0.00000000000E+00 -0.91618569907E+03  0.40048253416E+04  0.38986189582E+04 0.  0.
        2    1    3    3  502    0 -0.23081809402E+03  0.27984905461E+03  0.15093411800E+04  0.15523219008E+04  0.25500000920E-02 0.  1.
       -2    1    3    3    0  502  0.23081809402E+03 -0.27984905461E+03 -0.24255268791E+04  0.24525034408E+04  0.25500000920E-02 0. -1.
</event>
<event>
 5   0  0.2904500E-09  0.3900025E+04  0.7818609E-02  0.8025024E-01
        1   -1    0    0  501    0  0.00000000000E+00  0.00000000000E+00  0.32477397421E+04  0.32477397421E+04  0.50400001928E-02 0.  1.
       -1   -1    0    0    0  501  0.00000000000E+00  0.00000000000E+00 -0.11708291960E+04  0.11708291960E+04  0.50400001928E-02 0. -1.
    10030    2    1    2    0    0  0.00000000000E+00  0.00000000000E+00  0.20769105461E+04  0.44185689382E+04  0.39000248774E+04 0.  0.
        5    1    3    3  502    0  0.17179919596E+04 -0.85020143334E+03  0.14440919503E+04  0.23999505206E+04  0.46999998093E+01 0.  1.
       -5    1    3    3    0  502 -0.17179919596E+04  0.85020143334E+03  0.63281859580E+03  0.20186184175E+04  0.46999998093E+01 0. -1.
</event>
<event>
 5   0  0.9434114E-09  0.3897717E+04  0.7818609E-02  0.8025504E-01
        2   -1    0    0  501    0  0.00000000000E+00  0.00000000000E+00  0.14096468033E+04  0.14096468033E+04  0.25500000920E-02 0.  1.
       -2   -1    0    0    0  501  0.00000000000E+00  0.00000000000E+00 -0.26943270753E+04  0.26943270753E+04  0.25500000920E-02 0. -1.
    10030    2    1    2    0    0  0.00000000000E+00  0.00000000000E+00 -0.12846802720E+04  0.41039738786E+04  0.38977170492E+04 0.  0.
        4    1    3    3  502    0  0.27212462348E+03  0.11500783035E+04 -0.22739598285E+04  0.25627381508E+04  0.12699999809E+01 0. -1.
       -4    1    3    3    0  502 -0.27212462348E+03 -0.11500783035E+04  0.98927955650E+03  0.15412357279E+04  0.12699999809E+01 0.  1.
</event>
<event>
 5   0  0.6335942E-09  0.3901178E+04  0.7818609E-02  0.8024784E-01
        2   -1    0    0  501    0  0.00000000000E+00  0.00000000000E+00  0.14234724435E+04  0.14234724435E+04  0.25500000920E-02 0. -1.
       -2   -1    0    0    0  501  0.00000000000E+00  0.00000000000E+00 -0.26728979930E+04  0.26728979930E+04  0.25500000920E-02 0.  1.
    10030    2    1    2    0    0  0.00000000000E+00  0.00000000000E+00 -0.12494255495E+04  0.40963704365E+04  0.39011775850E+04 0.  0.
        2    1    3    3  502    0  0.48842566162E+03  0.14164424215E+04  0.68674938015E+03  0.16481788348E+04  0.25500000920E-02 0. -1.
       -2    1    3    3    0  502 -0.48842566162E+03 -0.14164424215E+04 -0.19361749296E+04  0.24481916017E+04  0.25500000920E-02 0.  1.
</event>
<event>
 5   0  0.9434114E-09  0.3898632E+04  0.7818609E-02  0.8025314E-01
        2   -1    0    0  501    0  0.00000000000E+00  0.00000000000E+00  0.26950774372E+04  0.26950774372E+04  0.25500000920E-02 0. -1.
       -2   -1    0    0    0  501  0.00000000000E+00  0.00000000000E+00 -0.14099157025E+04  0.14099157025E+04  0.25500000920E-02 0.  1.
    10030    2    1    2    0    0  0.00000000000E+00  0.00000000000E+00  0.12851617348E+04  0.41049931397E+04  0.38986315538E+04 0.  0.
        4    1    3    3  502    0  0.14010175810E+04 -0.12805992981E+04  0.11099753375E+04  0.21988250697E+04  0.12699999809E+01 0. -1.
       -4    1    3    3    0  502 -0.14010175810E+04  0.12805992981E+04  0.17518639729E+03  0.19061680700E+04  0.12699999809E+01 0.  1.
</event>
<event>
 5   0  0.6335942E-09  0.3903827E+04  0.7818609E-02  0.8024234E-01
        2   -1    0    0  501    0  0.00000000000E+00  0.00000000000E+00  0.25457302283E+04  0.25457302283E+04  0.25500000920E-02 0. -1.
       -2   -1    0    0    0  501  0.00000000000E+00  0.00000000000E+00 -0.14966100666E+04  0.14966100666E+04  0.25500000920E-02 0.  1.
    10030    2    1    2    0    0  0.00000000000E+00  0.00000000000E+00  0.10491201617E+04  0.40423402949E+04  0.39038265773E+04 0.  0.
        2    1    3    3  502    0 -0.13377991009E+04 -0.82273750099E+03 -0.67559921422E+03  0.17096893660E+04  0.25500000920E-02 0.  1.
       -2    1    3    3    0  502  0.13377991009E+04  0.82273750099E+03  0.17247193759E+04  0.23326509288E+04  0.25500000920E-02 0. -1.
</event>
<event>
 5   0  0.2904500E-09  0.3901142E+04  0.7818609E-02  0.8024792E-01
       -1   -1    0    0    0  501  0.00000000000E+00  0.00000000000E+00  0.12106298831E+04  0.12106298831E+04  0.50400001928E-02 0.  1.
        1   -1    0    0  501    0  0.00000000000E+00  0.00000000000E+00 -0.31427671349E+04  0.31427671349E+04  0.50400001928E-02 0. -1.
    10030    2    1    2    0    0  0.00000000000E+00  0.00000000000E+00 -0.19321372518E+04  0.43533970180E+04  0.39011422990E+04 0.  0.
        2    1    3    3  502    0  0.39370600908E+03 -0.40802210239E+03 -0.30487760597E+04  0.31010517441E+04  0.25500000920E-02 0. -1.
       -2    1    3    3    0  502 -0.39370600908E+03  0.40802210239E+03  0.11166388079E+04  0.12523452739E+04  0.25500000920E-02 0.  1.
</event>
<event>
 5   0  0.2904500E-09  0.3900904E+04  0.7818609E-02  0.8024841E-01
        1   -1    0    0  501    0  0.00000000000E+00  0.00000000000E+00  0.30449074654E+04  0.30449074654E+04  0.50400001928E-02 0. -1.
       -1   -1    0    0    0  501  0.00000000000E+00  0.00000000000E+00 -0.12493853916E+04  0.12493853916E+04  0.50400001928E-02 0.  1.
    10030    2    1    2    0    0  0.00000000000E+00  0.00000000000E+00  0.17955220737E+04  0.42942928570E+04  0.39009039496E+04 0.  0.
        2    1    3    3  502    0 -0.10331200022E+04 -0.94304694762E+02 -0.92047884239E+03  0.13869072116E+04  0.25500000920E-02 0.  1.
       -2    1    3    3    0  502  0.10331200022E+04  0.94304694762E+02  0.27160009161E+04  0.29073856454E+04  0.25500000920E-02 0. -1.
</event>
<event>
 5   0  0.9277261E-09  0.3910084E+04  0.7818609E-02  0.8022935E-01
        2   -1    0    0  501    0  0.00000000000E+00  0.00000000000E+00  0.13042112065E+04  0.13042112065E+04  0.25500000920E-02 0.  1.
       -2   -1    0    0    0  501  0.00000000000E+00  0.00000000000E+00 -0.29306512876E+04  0.29306512876E+04  0.25500000920E-02 0. -1.
    10030    2    1    2    0    0  0.00000000000E+00  0.00000000000E+00 -0.16264400811E+04  0.42348624940E+04  0.39100835037E+04 0.  0.
        1    1    3    3  502    0 -0.11041702960E+04 -0.11720610091E+04  0.38759683119E+03  0.16562458619E+04  0.50400001928E-02 0. -1.
       -1    1    3    3    0  502  0.11041702960E+04  0.11720610091E+04 -0.20140369123E+04  0.25786166321E+04  0.50400001928E-02 0.  1.
</event>
<event>
 5   0  0.2929054E-09  0.3899675E+04  0.7818609E-02  0.8025097E-01
       -1   -1    0    0    0  501  0.00000000000E+00  0.00000000000E+00  0.31979392232E+04  0.31979392232E+04  0.50400001928E-02 0. -1.
        1   -1    0    0  501    0  0.00000000000E+00  0.00000000000E+00 -0.11888491047E+04  0.11888491047E+04  0.50400001928E-02 0.  1.
    10030    2    1    2    0    0  0.00000000000E+00  0.00000000000E+00  0.20090901185E+04  0.43867883279E+04  0.38996754647E+04 0.  0.
        1    1    3    3  502    0  0.78727743443E+03  0.47953273894E+03  0.29373341456E+04  0.30785855989E+04  0.50400001928E-02 0. -1.
       -1    1    3    3    0  502 -0.78727743443E+03 -0.47953273894E+03 -0.92824402712E+03  0.13082027291E+04  0.50400001928E-02 0.  1.
</event>
<event>
 5   0  0.2904500E-09  0.3902194E+04  0.7818609E-02  0.8024573E-01
        1   -1    0    0  501    0  0.00000000000E+00  0.00000000000E+00  0.25517400389E+04  0.25517400389E+04  0.50400001928E-02 0.  1.
       -1   -1    0    0    0  501  0.00000000000E+00  0.00000000000E+00 -0.14918367963E+04  0.14918367963E+04  0.50400001928E-02 0. -1.
    10030    2    1    2    0    0  0.00000000000E+00  0.00000000000E+00  0.10599032426E+04  0.40435768352E+04  0.39021940929E+04 0.  0.
        5    1    3    3  502    0 -0.15135091527E+04  0.99024388950E+03  0.12882187804E+04  0.22205455708E+04  0.46999998093E+01 0.  1.
       -5    1    3    3    0  502  0.15135091527E+04 -0.99024388950E+03 -0.22831553783E+03  0.18230312643E+04  0.46999998093E+01 0. -1.
</event>
<event>
 5   0  0.9277261E-09  0.3902346E+04  0.7818609E-02  0.8024541E-01
       -2   -1    0    0    0  501  0.00000000000E+00  0.00000000000E+00  0.15547878648E+04  0.15547878648E+04  0.25500000920E-02 0. -1.
        2   -1    0    0  501    0  0.00000000000E+00  0.00000000000E+00 -0.24486144215E+04  0.24486144215E+04  0.25500000920E-02 0.  1.
    10030    2    1    2    0    0  0.00000000000E+00  0.00000000000E+00 -0.89382655673E+03  0.40034022864E+04  0.39023459551E+04 0.  0.
        1    1    3    3  502    0 -0.11592128856E+04  0.12772191052E+04 -0.13826818964E+04  0.22106271471E+04  0.50400001928E-02 0.  1.
       -1    1    3    3    0  502  0.11592128856E+04 -0.12772191052E+04  0.48885533965E+03  0.17927751393E+04  0.50400001928E-02 0. -1.
</event>
<event>
 5   0  0.2904500E-09  0.3894905E+04  0.7818609E-02  0.8026090E-01
       -1   -1    0    0    0  501  0.00000000000E+00  0.00000000000E+00  0.18621293787E+04  0.18621293787E+04  0.50400001928E-02 0.  1.
        1   -1    0    0  501    0  0.00000000000E+00  0.00000000000E+00 -0.20366849421E+04  0.20366849421E+04  0.50400001928E-02 0. -1.
    10030    2    1    2    0    0  0.00000000000E+00  0.00000000000E+00 -0.17455556332E+03  0.38988143208E+04  0.38949048080E+04 0.  0.
        4    1    3    3  502    0 -0.48540865400E+03  0.52007832405E+02 -0.19744400970E+04  0.20338981502E+04  0.12699999809E+01 0. -1.
       -4    1    3    3    0  502  0.48540865400E+03 -0.52007832405E+02  0.17998845336E+04  0.18649161706E+04  0.12699999809E+01 0.  1.
</event>
<event>
 5   0  0.6335942E-09  0.3898443E+04  0.7818609E-02  0.8025353E-01
        2   -1    0    0  501    0  0.00000000000E+00  0.00000000000E+00  0.18831168657E+04  0.18831168657E+04  0.25500000920E-02 0. -1.
       -2   -1    0    0    0  501  0.00000000000E+00  0.00000000000E+00 -0.20176467975E+04  0.20176467975E+04  0.25500000920E-02 0.  1.
    10030    2    1    2    0    0  0.00000000000E+00  0.00000000000E+00 -0.13452993179E+03  0.39007636631E+04  0.38984431320E+04 0.  0.
        2    1    3    3  502    0  0.17500929186E+04 -0.77323093841E+03 -0.43998287445E+03  0.19632361645E+04  0.25500000920E-02 0. -1.
       -2    1    3    3    0  502 -0.17500929186E+04  0.77323093841E+03  0.30545294266E+03  0.19375274986E+04  0.25500000920E-02 0.  1.
</event>
<event>
 5   0  0.2904500E-09  0.3900309E+04  0.7818609E-02  0.8024965E-01
       -1   -1    0    0    0  501  0.00000000000E+00  0.00000000000E+00  0.22304064744E+04  0.22304064744E+04  0.50400001928E-02 0.  1.
        1   -1    0    0  501    0  0.00000000000E+00  0.00000000000E+00 -0.17051161057E+04  0.17051161058E+04  0.50400001928E-02 0. -1.
    10030    2    1    2    0    0  0.00000000000E+00  0.00000000000E+00  0.52529036865E+03  0.39355225802E+04  0.39003087067E+04 0.  0.
        4    1    3    3  502    0  0.50782358482E+03 -0.15765405430E+03 -0.16305570742E+04  0.17150678060E+04  0.12699999809E+01 0. -1.
       -4    1    3    3    0  502 -0.50782358482E+03  0.15765405430E+03  0.21558474429E+04  0.22204547741E+04  0.12699999809E+01 0.  1.
</event>
<event>
 5   0  0.2929054E-09  0.3898874E+04  0.7818609E-02  0.8025263E-01
       -1   -1    0    0    0  501  0.00000000000E+00  0.00000000000E+00  0.16419048588E+04  0.16419048588E+04  0.50400001928E-02 0.  1.
        1   -1    0    0  501    0  0.00000000000E+00  0.00000000000E+00 -0.23145709237E+04  0.23145709238E+04  0.50400001928E-02 0. -1.
    10030    2    1    2    0    0  0.00000000000E+00  0.00000000000E+00 -0.67266606495E+03  0.39564757826E+04  0.38988743225E+04 0.  0.
        1    1    3    3  502    0 -0.37553416973E+03 -0.19084106197E+04 -0.20306018934E+03  0.19555793123E+04  0.50400001928E-02 0.  1.
       -1    1    3    3    0  502  0.37553416973E+03  0.19084106197E+04 -0.46960587561E+03  0.20008964702E+04  0.50400001928E-02 0. -1.
</event>
<event>
 5   0  0.9368546E-09  0.3900075E+04  0.7818609E-02  0.8025014E-01
        2   -1    0    0  501    0  0.00000000000E+00  0.00000000000E+00  0.18587168658E+04  0.18587168658E+04  0.25500000920E-02 0.  1.
       -2   -1    0    0    0  501  0.00000000000E+00  0.00000000000E+00 -0.20458451000E+04  0.20458451000E+04  0.25500000920E-02 0. -1.
    10030    2    1    2    0    0  0.00000000000E+00  0.00000000000E+00 -0.18712823418E+03  0.39045619658E+04  0.39000752774E+04 0.  0.
        5    1    3    3  502    0  0.18350954250E+04  0.54802641352E+02  0.56449422887E+03  0.19207431824E+04  0.46999998093E+01 0.  1.
       -5    1    3    3    0  502 -0.18350954250E+04 -0.54802641352E+02 -0.75162246305E+03  0.19838187834E+04  0.46999998093E+01 0. -1.
</event>
<event>
 5   0  0.2904500E-09  0.3897956E+04  0.7818609E-02  0.8025454E-01
        1   -1    0    0  501    0  0.00000000000E+00  0.00000000000E+00  0.29449938311E+04  0.29449938311E+04  0.50400001928E-02 0. -1.
       -1   -1    0    0    0  501  0.00000000000E+00  0.00000000000E+00 -0.12898213006E+04  0.12898213006E+04  0.50400001928E-02 0.  1.
    10030    2    1    2    0    0  0.00000000000E+00  0.00000000000E+00  0.16551725304E+04  0.42348151317E+04  0.38979562715E+04 0.  0.
        3    1    3    3  502    0  0.81054803337E+03 -0.16022354536E+04  0.42200077653E+01  0.17955958292E+04  0.10100000352E+00 0.  1.
       -3    1    3    3    0  502 -0.81054803337E+03  0.16022354536E+04  0.16509525227E+04  0.24392193025E+04  0.10100000352E+00 0. -1.
</event>
<event>
 5   0  0.2904500E-09  0.3900280E+04  0.7818609E-02  0.8024971E-01
       -1   -1    0    0    0  501  0.00000000000E+00  0.00000000000E+00  0.16408414916E+04  0.16408414916E+04  0.50400001928E-02 0.  1.
        1   -1    0    0  501    0  0.00000000000E+00  0.00000000000E+00 -0.23177413254E+04  0.23177413254E+04  0.50400001928E-02 0. -1.
    10030    2    1    2    0    0  0.00000000000E+00  0.00000000000E+00 -0.67689983380E+03  0.39585828170E+04  0.39002800585E+04 0.  0.
        3    1    3    3  502    0 -0.11273227692E+04  0.13005879994E+04  0.59213117831E+03  0.18201662322E+04  0.10100000352E+00 0.  1.
       -3    1    3    3    0  502  0.11273227692E+04 -0.13005879994E+04 -0.12690310121E+04  0.21384165848E+04  0.10100000352E+00 0. -1.
</event>
<event>
 5   0  0.6335942E-09  0.3899023E+04  0.7818609E-02  0.8025232E-01
       -2   -1    0    0    0  501  0.00000000000E+00  0.00000000000E+00  0.11865648937E+04  0.11865648937E+04  0.25500000920E-02 0. -1.
        2   -1    0    0  501    0  0.00000000000E+00  0.00000000000E+00 -0.32030234859E+04  0.32030234859E+04  0.25500000920E-02 0.  1.
    10030    2    1    2    0    0  0.00000000000E+00  0.00000000000E+00 -0.20164585922E+04  0.43895883797E+04  0.38990230685E+04 0.  0.
        2    1    3    3  502    0 -0.11041976055E+04 -0.12455339574E+04  0.13434403215E+03  0.16699267978E+04  0.25500000920E-02 0. -1.
       -2    1    3    3    0  502  0.11041976055E+04  0.12455339574E+04 -0.21508026244E+04  0.27196615819E+04  0.25500000920E-02 0.  1.
</event>
<event>
 5   0  0.9434114E-09  0.3900381E+04  0.7818609E-02  0.8024950E-01
       -2   -1    0    0    0  501  0.00000000000E+00  0.00000000000E+00  0.17981503264E+04  0.17981503264E+04  0.25500000920E-02 0.  1.
        2   -1    0    0  501    0  0.00000000000E+00  0.00000000000E+00 -0.21150859964E+04  0.21150859964E+04  0.25500000920E-02 0. -1.
    10030    2    1    2    0    0  0.00000000000E+00  0.00000000000E+00 -0.31693567006E+03  0.39132363228E+04  0.39003807890E+04 0.  0.
        4    1    3    3  502    0 -0.15036538785E+04  0.10801329026E+04 -0.77333266641E+03  0.20064164821E+04  0.12699999809E+01 0.  1.
       -4    1    3    3    0  502  0.15036538785E+04 -0.10801329026E+04  0.45639699635E+03  0.19068198407E+04  0.12699999809E+01 0. -1.
</event>
<event>
 5   0  0.2904500E-09  0.3901833E+04  0.7818609E-02  0.8024648E-01
        1   -1    0    0  501    0  0.00000000000E+00  0.00000000000E+00  0.17776041241E+04  0.17776041241E+04  0.50400001928E-02 0.  1.
       -1   -1    0    0    0  501  0.00000000000E+00  0.00000000000E+00 -0.21411261305E+04  0.21411261305E+04  0.50400001928E-02 0. -1.
    10030    2    1    2    0    0  0.00000000000E+00  0.00000000000E+00 -0.36352200636E+03  0.39187302546E+04  0.39018327180E+04 0.  0.
        3    1    3    3  502    0  0.14396071003E+04 -0.86100349184E+03 -0.11822069450E+04  0.20521717489E+04  0.10100000352E+00 0. -1.
       -3    1    3    3    0  502 -0.14396071003E+04  0.86100349184E+03  0.81868493861E+03  0.18665585057E+04  0.10100000352E+00 0.  1.
</event>
<event>
 5   0  0.6335942E-09  0.3900262E+04  0.7818609E-02  0.8024975E-01
       -2   -1    0    0    0  501  0.00000000000E+00  0.00000000000E+00  0.19144155530E+04  0.19144155530E+04  0.25500000920E-02 0.  1.
        2   -1    0    0  501    0  0.00000000000E+00  0.00000000000E+00 -0.19865129519E+04  0.19865129519E+04  0.25500000920E-02 0. -1.
    10030    2    1    2    0    0  0.00000000000E+00  0.00000000000E+00 -0.72097398886E+02  0.39009285048E+04  0.39002621918E+04 0.  0.
        2    1    3    3  502    0  0.14975226128E+04  0.12478278714E+04  0.21951886094E+02  0.19493922791E+04  0.25500000920E-02 0.  1.
       -2    1    3    3    0  502 -0.14975226128E+04 -0.12478278714E+04 -0.94049284980E+02  0.19515362258E+04  0.25500000920E-02 0. -1.
</event>
<event>
 5   0  0.9434114E-09  0.3910132E+04  0.7818609E-02  0.8022925E-01
        2   -1    0    0  501    0  0.00000000000E+00  0.00000000000E+00  0.11570498833E+04  0.11570498833E+04  0.25500000920E-02 0. -1.
       -2   -1    0    0    0  501  0.00000000000E+00  0.00000000000E+00 -0.33034733925E+04  0.33034733925E+04  0.25500000920E-02 0.  1.
    10030    2    1    2    0    0  0.00000000000E+00  0.00000000000E+00 -0.21464235093E+04  0.44605232758E+04  0.39101322245E+04 0.  0.
        4    1    3    3  502    0  0.53271049220E+03 -0.18809015664E+04 -0.11036236455E+04  0.22448959741E+04  0.12699999809E+01 0.  1.
       -4    1    3    3    0  502 -0.53271049220E+03  0.18809015664E+04 -0.10427998638E+04  0.22156273017E+04  0.12699999809E+01 0. -1.
</event>
<event>
 5   0  0.9078515E-09  0.3905912E+04  0.7818609E-02  0.8023801E-01
       -2   -1    0    0    0  501  0.00000000000E+00  0.00000000000E+00  0.15589610147E+04  0.15589610148E+04  0.25500000920E-02 0. -1.
        2   -1    0    0  501    0  0.00000000000E+00  0.00000000000E+00 -0.24465246048E+04  0.24465246048E+04  0.25500000920E-02 0.  1.
    10030    2    1    2    0    0  0.00000000000E+00  0.00000000000E+00 -0.88756359010E+03  0.40054856196E+04  0.39059116634E+04 0.  0.
        3    1    3    3  502    0  0.79827717361E+02  0.19434183173E+04 -0.26383988965E+03  0.19628700206E+04  0.10100000352E+00 0. -1.
       -3    1    3    3    0  502 -0.79827717361E+02 -0.19434183173E+04 -0.62372370045E+03  0.20426155990E+04  0.10100000352E+00 0.  1.
</event>
<event>
 5   0  0.2904500E-09  0.3901310E+04  0.7818609E-02  0.8024757E-01
        1   -1    0    0  501    0  0.00000000000E+00  0.00000000000E+00  0.26224362296E+04  0.26224362296E+04  0.50400001928E-02 0. -1.
       -1   -1    0    0    0  501  0.00000000000E+00  0.00000000000E+00 -0.14509616509E+04  0.14509616509E+04  0.50400001928E-02 0.  1.
    10030    2    1    2    0    0  0.00000000000E+00  0.00000000000E+00  0.11714745787E+04  0.40733978805E+04  0.39013097294E+04 0.  0.
        3    1    3    3  502    0  0.12929876217E+03  0.26768238384E+03 -0.14271716364E+04  0.14578034567E+04  0.10100000352E+00 0.  1.
       -3    1    3    3    0  502 -0.12929876217E+03 -0.26768238384E+03  0.25986462151E+04  0.26155944238E+04  0.10100000352E+00 0. -1.
</event>
<event>
 5   0  0.6335942E-09  0.3897358E+04  0.7818609E-02  0.8025579E-01
       -2   -1    0    0    0  501  0.00000000000E+00  0.00000000000E+00  0.16892065856E+04  0.16892065856E+04  0.25500000920E-02 0. -1.
        2   -1    0    0  501    0  0.00000000000E+00  0.00000000000E+00 -0.22480083466E+04  0.22480083466E+04  0.25500000920E-02 0.  1.
    10030    2    1    2    0    0  0.00000000000E+00  0.00000000000E+00 -0.55880176100E+03  0.39372149322E+04  0.38973583379E+04 0.  0.
        2    1    3    3  502    0  0.16596409469E+02  0.19124048067E+04 -0.65709988157E+03  0.20222135990E+04  0.25500000920E-02 0. -1.
       -2    1    3    3    0  502 -0.16596409469E+02 -0.19124048067E+04  0.98298120564E+02  0.19150013332E+04  0.25500000920E-02 0.  1.
</event>
<event>
 5   0  0.2904500E-09  0.3899405E+04  0.7818609E-02  0.8025153E-01
        1   -1    0    0  501    0  0.00000000000E+00  0.00000000000E+00  0.14178956951E+04  0.14178956951E+04  0.50400001928E-02 0.  1.
       -1   -1    0    0    0  501  0.00000000000E+00  0.00000000000E+00 -0.26809734987E+04  0.26809734987E+04  0.50400001928E-02 0. -1.
    10030    2    1    2    0    0  0.00000000000E+00  0.00000000000E+00 -0.12630778036E+04  0.40988691938E+04  0.38994054841E+04 0.  0.
        5    1    3    3  502    0  0.20056039270E+03  0.75320556767E+03  0.12469899072E+04  0.14705607831E+04  0.46999998093E+01 0.  1.
       -5    1    3    3    0  502 -0.20056039270E+03 -0.75320556767E+03 -0.25100677108E+04  0.26283084106E+04  0.46999998093E+01 0. -1.
</event>
<event>
 5   0  0.2904500E-09  0.3898459E+04  0.7818609E-02  0.8025350E-01
       -1   -1    0    0    0  501  0.00000000000E+00  0.00000000000E+00  0.10956759527E+04  0.10956759527E+04  0.50400001928E-02 0.  1.
        1   -1    0    0  501    0  0.00000000000E+00  0.00000000000E+00 -0.34677191828E+04  0.34677191828E+04  0.50400001928E-02 0. -1.
    10030    2    1    2    0    0  0.00000000000E+00  0.00000000000E+00 -0.23720432301E+04  0.45633951355E+04  0.38984594492E+04 0.  0.
        2    1    3    3  502    0  0.20025267545E+03 -0.19388950549E+04 -0.11754637182E+04  0.22762095951E+04  0.25500000920E-02 0. -1.
       -2    1    3    3    0  502 -0.20025267545E+03  0.19388950549E+04 -0.11965795119E+04  0.22871855404E+04  0.25500000920E-02 0.  1.
</event>
<event>
 5   0  0.6335942E-09  0.3900282E+04  0.7818609E-02  0.8024971E-01
        2   -1    0    0  501    0  0.00000000000E+00  0.00000000000E+00  0.24235529143E+04  0.24235529143E+04  0.25500000920E-02 0. -1.
       -2   -1    0    0    0  501  0.00000000000E+00  0.00000000000E+00 -0.15692041091E+04  0.15692041091E+04  0.25500000920E-02 0.  1.
    10030    2    1    2    0    0  0.00000000000E+00  0.00000000000E+00  0.85434880516E+03  0.39927570235E+04  0.39002816267E+04 0.  0.
        2    1    3    3  502    0 -0.13359038383E+04  0.75012205477E+03 -0.80796759261E+03  0.17320894299E+04  0.25500000920E-02 0. -1.
       -2    1    3    3    0  502  0.13359038383E+04 -0.75012205477E+03  0.16623163978E+04  0.22606675936E+04  0.25500000920E-02 0.  1.
</event>
<event>
 5   0  0.2904500E-09  0.3909970E+04  0.7818609E-02  0.8022959E-01
       -1   -1    0    0    0  501  0.00000000000E+00  0.00000000000E+00  0.18856889351E+04  0.18856889351E+04  0.50400001928E-02 0. -1.
        1   -1    0    0  501    0  0.00000000000E+00  0.00000000000E+00 -0.20268277531E+04  0.20268277531E+04  0.50400001928E-02 0.  1.
    10030    2    1    2    0    0  0.00000000000E+00  0.00000000000E+00 -0.14113881794E+03  0.39125166882E+04  0.39099701622E+04 0.  0.
        3    1    3    3  502    0 -0.17276259681E+03 -0.19471328845E+04 -0.42385973789E+02  0.19552416643E+04  0.10100000352E+00 0. -1.
       -3    1    3    3    0  502  0.17276259681E+03  0.19471328845E+04 -0.98752844155E+02  0.19572750239E+04  0.10100000352E+00 0.  1.
</event>
<event>
 5   0  0.2904500E-09  0.3903245E+04  0.7818609E-02  0.8024355E-01
       -1   -1    0    0    0  501  0.00000000000E+00  0.00000000000E+00  0.19258003490E+04  0.19258003490E+04  0.50400001928E-02 0.  1.
        1   -1    0    0  501    0  0.00000000000E+00  0.00000000000E+00 -0.19777913288E+04  0.19777913288E+04  0.50400001928E-02 0. -1.
    10030    2    1    2    0    0  0.00000000000E+00  0.00000000000E+00 -0.51990979774E+02  0.39035916778E+04  0.39032454349E+04 0.  0.
        3    1    3    3  502    0 -0.24079929114E+02  0.19201831968E+04  0.32209840966E+03  0.19471596617E+04  0.10100000352E+00 0.  1.
       -3    1    3    3    0  502  0.24079929114E+02 -0.19201831968E+04 -0.37408938943E+03  0.19564320161E+04  0.10100000352E+00 0. -1.
</event>
<event>
 5   0  0.2904500E-09  0.3899272E+04  0.7818609E-02  0.8025181E-01
        1   -1    0    0  501    0  0.00000000000E+00  0.00000000000E+00  0.20704081991E+04  0.20704081991E+04  0.50400001928E-02 0.  1.
       -1   -1    0    0    0  501  0.00000000000E+00  0.00000000000E+00 -0.18359084130E+04  0.18359084130E+04  0.50400001928E-02 0. -1.
    10030    2    1    2    0    0  0.00000000000E+00  0.00000000000E+00  0.23449978607E+03  0.39063166121E+04  0.38992716402E+04 0.  0.
        3    1    3    3  502    0  0.11065531273E+04 -0.15315854978E+04  0.59860303088E+03  0.19820543785E+04  0.10100000352E+00 0.  1.
       -3    1    3    3    0  502 -0.11065531273E+04  0.15315854978E+04 -0.36410324481E+03  0.19242622336E+04  0.10100000352E+00 0. -1.
</event>
<event>
 5   0  0.9368546E-09  0.3902767E+04  0.7818609E-02  0.8024454E-01
        2   -1    0    0  501    0  0.00000000000E+00  0.00000000000E+00  0.21975830278E+04  0.21975830278E+04  0.25500000920E-02 0.  1.
       -2   -1    0    0    0  501  0.00000000000E+00  0.00000000000E+00 -0.17327664369E+04  0.17327664369E+04  0.25500000920E-02 0. -1.
    10030    2    1    2    0    0  0.00000000000E+00  0.00000000000E+00  0.46481659094E+03  0.39303494647E+04  0.39027672812E+04 0.  0.
        5    1    3    3  502    0  0.50701350797E+01 -0.17394500472E+04  0.11230589300E+04  0.20705061273E+04  0.46999998093E+01 0.  1.
       -5    1    3    3    0  502 -0.50701350797E+01  0.17394500472E+04 -0.65824233903E+03  0.18598433374E+04  0.46999998093E+01 0. -1.
</event>
<event>
 5   0  0.9078515E-09  0.3907391E+04  0.7818609E-02  0.8023494E-01
       -2   -1    0    0    0  501  0.00000000000E+00  0.00000000000E+00  0.17588754685E+04  0.17588754685E+04  0.25500000920E-02 0.  1.
        2   -1    0    0  501    0  0.00000000000E+00  0.00000000000E+00 -0.21700943674E+04  0.21700943674E+04  0.25500000920E-02 0. -1.
    10030    2    1    2    0    0  0.00000000000E+00  0.00000000000E+00 -0.41121889894E+03  0.39289698359E+04  0.39073908160E+04 0.  0.
        3    1    3    3  502    0 -0.65396294484E+02 -0.14490780369E+04  0.11103664852E+04  0.18267505506E+04  0.10100000352E+00 0. -1.
       -3    1    3    3    0  502  0.65396294484E+02  0.14490780369E+04 -0.15215853842E+04  0.21022192854E+04  0.10100000352E+00 0.  1.
</event>
<event>
 5   0  0.2904500E-09  0.3902522E+04  0.7818609E-02  0.8024505E-01
       -1   -1    0    0    0  501  0.00000000000E+00  0.00000000000E+00  0.25754257969E+04  0.25754257969E+04  0.50400001928E-02 0. -1.
        1   -1    0    0  501    0  0.00000000000E+00  0.00000000000E+00 -0.14783646900E+04  0.14783646901E+04  0.50400001928E-02 0.  1.
    10030    2    1    2    0    0  0.00000000000E+00  0.00000000000E+00  0.10970611069E+04  0.40537904870E+04  0.39025215233E+04 0.  0.
        4    1    3    3  502    0  0.13739762735E+04 -0.83151438464E+03  0.16997252132E+04  0.23384384502E+04  0.12699999809E+01 0. -1.
       -4    1    3    3    0  502 -0.13739762735E+04  0.83151438464E+03 -0.60266410638E+03  0.17153520368E+04  0.12699999809E+01 0.  1.
</event>
<event>
 5   0  0.2904500E-09  0.3900028E+04  0.7818609E-02  0.8025023E-01
        1   -1    0    0  501    0  0.00000000000E+00  0.00000000000E+00  0.21603668692E+04  0.21603668692E+04  0.50400001928E-02 0.  1.
       -1   -1    0    0    0  501  0.00000000000E+00  0.00000000000E+00 -0.17601430193E+04  0.17601430193E+04  0.50400001928E-02 0. -1.
    10030    2    1    2    0    0  0.00000000000E+00  0.00000000000E+00  0.40022384983E+03  0.39205098885E+04  0.39000280327E+04 0.  0.
        3    1    3    3  502    0 -0.15521631937E+04 -0.72037874961E+03 -0.73989171340E+03  0.18642950090E+04  0.10100000352E+00 0. -1.
       -3    1    3    3    0  502  0.15521631937E+04  0.72037874961E+03  0.11401155632E+04  0.20562148795E+04  0.10100000352E+00 0.  1.
</event>
<event>
 5   0  0.6335942E-09  0.3899285E+04  0.7818609E-02  0.8025178E-01
        2   -1    0    0  501    0  0.00000000000E+00  0.00000000000E+00  0.23477173678E+04  0.23477173678E+04  0.25500000920E-02 0. -1.
       -2   -1    0    0    0  501  0.00000000000E+00  0.00000000000E+00 -0.16190648499E+04  0.16190648499E+04  0.25500000920E-02 0.  1.
    10030    2    1    2    0    0  0.00000000000E+00  0.00000000000E+00  0.72865251793E+03  0.39667822177E+04  0.38992854051E+04 0.  0.
        2    1    3    3  502    0  0.10486192146E+04 -0.94410794489E+03 -0.10043866620E+04  0.17319742018E+04  0.25500000920E-02 0.  1.
       -2    1    3    3    0  502 -0.10486192146E+04  0.94410794489E+03  0.17330391799E+04  0.22348080159E+04  0.25500000920E-02 0. -1.
</event>
<event>
 5   0  0.9368546E-09  0.3905465E+04  0.7818609E-02  0.8023894E-01
       -2   -1    0    0    0  501  0.00000000000E+00  0.00000000000E+00  0.17529389843E+04  0.17529389843E+04  0.25500000920E-02 0. -1.
        2   -1    0    0  501    0  0.00000000000E+00  0.00000000000E+00 -0.21752979039E+04  0.21752979039E+04  0.25500000920E-02 0.  1.
    10030    2    1    2    0    0  0.00000000000E+00  0.00000000000E+00 -0.42235891960E+03  0.39282368881E+04  0.39054651442E+04 0.  0.
        5    1    3    3  502    0 -0.11501894960E+04 -0.12739791809E+04  0.72547720122E+03  0.18634103385E+04  0.46999998093E+01 0. -1.
       -5    1    3    3    0  502  0.11501894960E+04  0.12739791809E+04 -0.11478361208E+04  0.20648265497E+04  0.46999998093E+01 0.  1.
</event>
<event>
 5   0  0.9368546E-09  0.3899707E+04  0.7818609E-02  0.8025090E-01
       -2   -1    0    0    0  501  0.00000000000E+00  0.00000000000E+00  0.20946305625E+04  0.20946305625E+04  0.25500000920E-02 0.  1.
        2   -1    0    0  501    0  0.00000000000E+00  0.00000000000E+00 -0.18150831791E+04  0.18150831791E+04  0.25500000920E-02 0. -1.
    10030    2    1    2    0    0  0.00000000000E+00  0.00000000000E+00  0.27954738345E+03  0.39097137416E+04  0.38997070149E+04 0.  0.
        5    1    3    3  502    0  0.50981701240E+03 -0.17088503525E+04  0.93035513334E+03  0.20113840204E+04  0.46999998093E+01 0.  1.
       -5    1    3    3    0  502 -0.50981701240E+03  0.17088503525E+04 -0.65080774989E+03  0.18983297212E+04  0.46999998093E+01 0. -1.
</event>
<event>
 5   0  0.2929054E-09  0.3899886E+04  0.7818609E-02  0.8025053E-01
       -1   -1    0    0    0  501  0.00000000000E+00  0.00000000000E+00  0.25320220077E+04  0.25320220077E+04  0.50400001928E-02 0.  1.
        1   -1    0    0  501    0  0.00000000000E+00  0.00000000000E+00 -0.15016767016E+04  0.15016767016E+04  0.50400001928E-02 0. -1.
    10030    2    1    2    0    0  0.00000000000E+00  0.00000000000E+00  0.10303453061E+04  0.40336987093E+04  0.38998863865E+04 0.  0.
        1    1    3    3  502    0 -0.16649767126E+04  0.81290245891E+03 -0.11339679030E+03  0.18562911122E+04  0.50400001928E-02 0. -1.
       -1    1    3    3    0  502  0.16649767126E+04 -0.81290245891E+03  0.11437420964E+04  0.21774075971E+04  0.50400001928E-02 0.  1.
</event>
<event>
 5   0  0.9277261E-09  0.3897576E+04  0.7818609E-02  0.8025534E-01
        2   -1    0    0  501    0  0.00000000000E+00  0.00000000000E+00  0.22771535475E+04  0.22771535475E+04  0.25500000920E-02 0. -1.
       -2   -1    0    0    0  501  0.00000000000E+00  0.00000000000E+00 -0.16677726974E+04  0.16677726974E+04  0.25500000920E-02 0.  1.
    10030    2    1    2    0    0  0.00000000000E+00  0.00000000000E+00  0.60938085003E+03  0.39449262449E+04  0.38975759206E+04 0.  0.
        1    1    3    3  502    0  0.12318052762E+04  0.10095244501E+04  0.14414062193E+04  0.21480539431E+04  0.50400001928E-02 0. -1.
       -1    1    3    3    0  502 -0.12318052762E+04 -0.10095244501E+04 -0.83202536923E+03  0.17968723017E+04  0.50400001928E-02 0.  1.
</event>
<event>
 5   0  0.9368546E-09  0.3899093E+04  0.7818609E-02  0.8025218E-01
        2   -1    0    0  501    0  0.00000000000E+00  0.00000000000E+00  0.15608269235E+04  0.15608269235E+04  0.25500000920E-02 0.  1.
       -2   -1    0    0    0  501  0.00000000000E+00  0.00000000000E+00 -0.24350758044E+04  0.24350758044E+04  0.25500000920E-02 0. -1.
    10030    2    1    2    0    0  0.00000000000E+00  0.00000000000E+00 -0.87424888098E+03  0.39959027279E+04  0.38990931644E+04 0.  0.
        5    1    3    3  502    0  0.11444965161E+04 -0.46864141072E+03  0.11073481420E+04  0.16600418804E+04  0.46999998093E+01 0.  1.
       -5    1    3    3    0  502 -0.11444965161E+04  0.46864141072E+03 -0.19815970230E+04  0.23358608475E+04  0.46999998093E+01 0. -1.
</event>
<event>
 5   0  0.2929054E-09  0.3900002E+04  0.7818609E-02  0.8025029E-01
       -1   -1    0    0    0  501  0.00000000000E+00  0.00000000000E+00  0.17435849807E+04  0.17435849807E+04  0.50400001928E-02 0. -1.
        1   -1    0    0  501    0  0.00000000000E+00  0.00000000000E+00 -0.21808536721E+04  0.21808536721E+04  0.50400001928E-02 0.  1.
    10030    2    1    2    0    0  0.00000000000E+00  0.00000000000E+00 -0.43726869138E+03  0.39244386528E+04  0.39000019014E+04 0.  0.
        1    1    3    3  502    0 -0.12068784745E+04 -0.14641427978E+04  0.23388768723E+03  0.19117984294E+04  0.50400001928E-02 0. -1.
       -1    1    3    3    0  502  0.12068784745E+04  0.14641427978E+04 -0.67115637861E+03  0.20126402234E+04  0.50400001928E-02 0.  1.
</event>
<event>
 5   0  0.6335942E-09  0.3899705E+04  0.7818609E-02  0.8025090E-01
        2   -1    0    0  501    0  0.00000000000E+00  0.00000000000E+00  0.16785203488E+04  0.16785203488E+04  0.25500000920E-02 0.  1.
       -2   -1    0    0    0  501  0.00000000000E+00  0.00000000000E+00 -0.22650458180E+04  0.22650458180E+04  0.25500000920E-02 0. -1.
    10030    2    1    2    0    0  0.00000000000E+00  0.00000000000E+00 -0.58652546923E+03  0.39435661669E+04  0.38997053717E+04 0.  0.
        2    1    3    3  502    0  0.21769806748E+03 -0.15511800234E+04  0.88099235973E+03  0.17971364588E+04  0.25500000920E-02 0.  1.
       -2    1    3    3    0  502 -0.21769806748E+03  0.15511800234E+04 -0.14675178290E+04  0.21464297081E+04  0.25500000920E-02 0. -1.
</event>
<event>
 5   0  0.9078515E-09  0.3900266E+04  0.7818609E-02  0.8024974E-01
        2   -1    0    0  501    0  0.00000000000E+00  0.00000000000E+00  0.16048064057E+04  0.16048064057E+04  0.25500000920E-02 0. -1.
       -2   -1    0    0    0  501  0.00000000000E+00  0.00000000000E+00 -0.23697677135E+04  0.23697677135E+04  0.25500000920E-02 0.  1.
    10030    2    1    2    0    0  0.00000000000E+00  0.00000000000E+00 -0.76496130776E+03  0.39745741192E+04  0.39002658405E+04 0.  0.
        3    1    3    3  502    0 -0.23619530899E+03 -0.43710374754E+03  0.15392285827E+04  0.16174277573E+04  0.10100000352E+00 0. -1.
       -3    1    3    3    0  502  0.23619530899E+03  0.43710374754E+03 -0.23041898904E+04  0.23571463619E+04  0.10100000352E+00 0.  1.
</event>
<event>
 5   0  0.2904500E-09  0.3899463E+04  0.7818609E-02  0.8025141E-01
        1   -1    0    0  501    0  0.00000000000E+00  0.00000000000E+00  0.16979431670E+04  0.16979431670E+04  0.50400001928E-02 0. -1.
       -1   -1    0    0    0  501  0.00000000000E+00  0.00000000000E+00 -0.22388570944E+04  0.22388570944E+04  0.50400001928E-02 0.  1.
    10030    2    1    2    0    0  0.00000000000E+00  0.00000000000E+00 -0.54091392739E+03  0.39368002613E+04  0.38994625810E+04 0.  0.
        2    1    3    3  502    0  0.15712577194E+04  0.11218240173E+04  0.43851975119E+01  0.19306369873E+04  0.25500000920E-02 0.  1.
       -2    1    3    3    0  502 -0.15712577194E+04 -0.11218240173E+04 -0.54529912490E+03  0.20061632741E+04  0.25500000920E-02 0. -1.
</event>
<event>
 5   0  0.9078515E-09  0.3899244E+04  0.7818609E-02  0.8025186E-01
       -2   -1    0    0    0  501  0.00000000000E+00  0.00000000000E+00  0.16650310396E+04  0.16650310396E+04  0.25500000920E-02 0.  1.
        2   -1    0    0  501    0  0.00000000000E+00  0.00000000000E+00 -0.22828559376E+04  0.22828559376E+04  0.25500000920E-02 0. -1.
    10030    2    1    2    0    0  0.00000000000E+00  0.00000000000E+00 -0.61782489808E+03  0.39478869772E+04  0.38992440267E+04 0.  0.
        3    1    3    3  502    0 -0.11656481373E+04 -0.82859114649E+03  0.10326559003E+04  0.17639946391E+04  0.10100000352E+00 0.  1.
       -3    1    3    3    0  502  0.11656481373E+04  0.82859114649E+03 -0.16504807984E+04  0.21838923381E+04  0.10100000352E+00 0. -1.
</event>
<event>
 5   0  0.2904500E-09  0.3900547E+04  0.7818609E-02  0.8024915E-01
       -1   -1    0    0    0  501  0.00000000000E+00  0.00000000000E+00  0.14566628926E+04  0.14566628926E+04  0.50400001928E-02 0. -1.
        1   -1    0    0  501    0  0.00000000000E+00  0.00000000000E+00 -0.26111506880E+04  0.26111506881E+04  0.50400001928E-02 0.  1.
    10030    2    1    2    0    0  0.00000000000E+00  0.00000000000E+00 -0.11544877954E+04  0.40678135807E+04  0.39005467896E+04 0.  0.
        4    1    3    3  502    0  0.12802204618E+04  0.13906326988E+04 -0.76289832985E+02  0.18917308174E+04  0.12699999809E+01 0. -1.
       -4    1    3    3    0  502 -0.12802204618E+04 -0.13906326988E+04 -0.10781979624E+04  0.21760827633E+04  0.12699999809E+01 0.  1.
</event>
<event>
 5   0  0.2904500E-09  0.3896662E+04  0.7818609E-02  0.8025724E-01
        1   -1    0    0  501    0  0.00000000000E+00  0.00000000000E+00  0.24055486012E+04  0.24055486012E+04  0.50400001928E-02 0. -1.
       -1   -1    0    0    0  501  0.00000000000E+00  0.00000000000E+00 -0.15780159638E+04  0.15780159638E+04  0.50400001928E-02 0.  1.
    10030    2    1    2    0    0  0.00000000000E+00  0.00000000000E+00  0.82753263736E+03  0.39835645650E+04  0.38966622098E+04 0.  0.
        5    1    3    3  502    0  0.14390344825E+04  0.11586650824E+04 -0.21861386319E+03  0.18604136976E+04  0.46999998093E+01 0.  1.
       -5    1    3    3    0  502 -0.14390344825E+04 -0.11586650824E+04  0.10461465005E+04  0.21231508674E+04  0.46999998093E+01 0. -1.
</event>
<event>
 5   0  0.2904500E-09  0.3898145E+04  0.7818609E-02  0.8025415E-01
       -1   -1    0    0    0  501  0.00000000000E+00  0.00000000000E+00  0.19392763785E+04  0.19392763785E+04  0.50400001928E-02 0.  1.
        1   -1    0    0  501    0  0.00000000000E+00  0.00000000000E+00 -0.19589177696E+04  0.19589177696E+04  0.50400001928E-02 0. -1.
    10030    2    1    2    0    0  0.00000000000E+00  0.00000000000E+00 -0.19641391039E+02  0.38981941481E+04  0.38981446653E+04 0.  0.
        5    1    3    3  502    0  0.16378592779E+04 -0.50988170053E+03  0.91555503623E+03  0.19444344877E+04  0.46999998093E+01 0.  1.
       -5    1    3    3    0  502 -0.16378592779E+04  0.50988170053E+03 -0.93519642727E+03  0.19537596603E+04  0.46999998093E+01 0. -1.
</event>
<event>
 5   0  0.2904500E-09  0.3898460E+04  0.7818609E-02  0.8025350E-01
       -1   -1    0    0    0  501  0.00000000000E+00  0.00000000000E+00  0.17771532558E+04  0.17771532558E+04  0.50400001928E-02 0. -1.
        1   -1    0    0  501    0  0.00000000000E+00  0.00000000000E+00 -0.21379684943E+04  0.21379684943E+04  0.50400001928E-02 0.  1.
    10030    2    1    2    0    0  0.00000000000E+00  0.00000000000E+00 -0.36081523846E+03  0.39151217501E+04  0.38984600398E+04 0.  0.
        5    1    3    3  502    0  0.12917151246E+04 -0.93058211491E+02  0.12826260557E+04  0.18227285817E+04  0.46999998093E+01 0. -1.
       -5    1    3    3    0  502 -0.12917151246E+04  0.93058211491E+02 -0.16434412942E+04  0.20923931684E+04  0.46999998093E+01 0.  1.
</event>
<event>
 5   0  0.9078515E-09  0.3906444E+04  0.7818609E-02  0.8023690E-01
        2   -1    0    0  501    0  0.00000000000E+00  0.00000000000E+00  0.22391962739E+04  0.22391962739E+04  0.25500000920E-02 0.  1.
       -2   -1    0    0    0  501  0.00000000000E+00  0.00000000000E+00 -0.17037703263E+04  0.17037703263E+04  0.25500000920E-02 0. -1.
    10030    2    1    2    0    0  0.00000000000E+00  0.00000000000E+00  0.53542594757E+03  0.39429666001E+04  0.39064439922E+04 0.  0.
        3    1    3    3  502    0 -0.12874497562E+04  0.99914696139E+03  0.13544661443E+04  0.21190564106E+04  0.10100000352E+00 0. -1.
       -3    1    3    3    0  502  0.12874497562E+04 -0.99914696139E+03 -0.81904019671E+03  0.18239101895E+04  0.10100000352E+00 0.  1.
</event>
<event>
 5   0  0.2904500E-09  0.3899728E+04  0.7818609E-02  0.8025086E-01
        1   -1    0    0  501    0  0.00000000000E+00  0.00000000000E+00  0.27684363434E+04  0.27684363434E+04  0.50400001928E-02 0. -1.
       -1   -1    0    0    0  501  0.00000000000E+00  0.00000000000E+00 -0.13733273789E+04  0.13733273789E+04  0.50400001928E-02 0.  1.
    10030    2    1    2    0    0  0.00000000000E+00  0.00000000000E+00  0.13951089645E+04  0.41417637223E+04  0.38997279019E+04 0.  0.
        5    1    3    3  502    0  0.17006222052E+04 -0.86562351953E+03  0.27202900662E+03  0.19275481402E+04  0.46999998093E+01 0.  1.
       -5    1    3    3    0  502 -0.17006222052E+04  0.86562351953E+03  0.11230799579E+04  0.22142155821E+04  0.46999998093E+01 0. -1.
</event>
<event>
 5   0  0.2904500E-09  0.3899269E+04  0.7818609E-02  0.8025181E-01
       -1   -1    0    0    0  501  0.00000000000E+00  0.00000000000E+00  0.13305026032E+04  0.13305026033E+04  0.50400001928E-02 0.  1.
        1   -1    0    0  501    0  0.00000000000E+00  0.00000000000E+00 -0.28568712260E+04  0.28568712260E+04  0.50400001928E-02 0. -1.
    10030    2    1    2    0    0  0.00000000000E+00  0.00000000000E+00 -0.15263686228E+04  0.41873738293E+04  0.38992689589E+04 0.  0.
        5    1    3    3  502    0 -0.30512690778E+03 -0.13726419707E+04 -0.22134502138E+04  0.26223333786E+04  0.46999998093E+01 0. -1.
       -5    1    3    3    0  502  0.30512690778E+03  0.13726419707E+04  0.68708159103E+03  0.15650404507E+04  0.46999998093E+01 0.  1.
</event>
<event>
 5   0  0.9277261E-09  0.3899720E+04  0.7818609E-02  0.8025088E-01
       -2   -1    0    0    0  501  0.00000000000E+00  0.00000000000E+00  0.18302081240E+04  0.18302081240E+04  0.25500000920E-02 0.  1.
        2   -1    0    0  501    0  0.00000000000E+00  0.00000000000E+00 -0.20773337870E+04  0.20773337870E+04  0.25500000920E-02 0. -1.
    10030    2    1    2    0    0  0.00000000000E+00  0.00000000000E+00 -0.24712566300E+03  0.39075419111E+04  0.38997195660E+04 0.  0.
        1    1    3    3  502    0 -0.98970412326E+03 -0.70009334236E+02  0.15583563701E+04  0.18474009134E+04  0.50400001928E-02 0.  1.
       -1    1    3    3    0  502  0.98970412326E+03  0.70009334236E+02 -0.18054820331E+04  0.20601409977E+04  0.50400001928E-02 0. -1.
</event>
<event>
 5   0  0.9434114E-09  0.3904801E+04  0.7818609E-02  0.8024031E-01
       -2   -1    0    0    0  501  0.00000000000E+00  0.00000000000E+00  0.26798900755E+04  0.26798900755E+04  0.25500000920E-02 0.  1.
        2   -1    0    0  501    0  0.00000000000E+00  0.00000000000E+00 -0.14223972156E+04  0.14223972156E+04  0.25500000920E-02 0. -1.
    10030    2    1    2    0    0  0.00000000000E+00  0.00000000000E+00  0.12574928599E+04  0.41022872910E+04  0.39048012402E+04 0.  0.
        4    1    3    3  502    0 -0.71932417913E+03  0.97860464556E+03  0.22347086764E+04  0.25434265879E+04  0.12699999809E+01 0.  1.
       -4    1    3    3    0  502  0.71932417913E+03 -0.97860464556E+03 -0.97721581643E+03  0.15588607031E+04  0.12699999809E+01 0. -1.
</event>
<event>
 5   0  0.6335942E-09  0.3901535E+04  0.7818609E-02  0.8024710E-01
        2   -1    0    0  501    0  0.00000000000E+00  0.00000000000E+00  0.16472061585E+04  0.16472061585E+04  0.25500000920E-02 0.  1.
       -2   -1    0    0    0  501  0.00000000000E+00  0.00000000000E+00 -0.23102713361E+04  0.23102713361E+04  0.25500000920E-02 0. -1.
    10030    2    1    2    0    0  0.00000000000E+00  0.00000000000E+00 -0.66306517762E+03  0.39574774946E+04  0.39015346584E+04 0.  0.
        2    1    3    3  502    0  0.12621253729E+04 -0.14828765205E+04 -0.21319816597E+03  0.19589121190E+04  0.25500000920E-02 0.  1.
       -2    1    3    3    0  502 -0.12621253729E+04  0.14828765205E+04 -0.44986701165E+03  0.19985653755E+04  0.25500000920E-02 0. -1.
</event>
<event>
 5   0  0.2904500E-09  0.3900766E+04  0.7818609E-02  0.8024870E-01
       -1   -1    0    0    0  501  0.00000000000E+00  0.00000000000E+00  0.25407262870E+04  0.25407262870E+04  0.50400001928E-02 0. -1.
        1   -1    0    0  501    0  0.00000000000E+00  0.00000000000E+00 -0.14972074121E+04  0.14972074121E+04  0.50400001928E-02 0.  1.
    10030    2    1    2    0    0  0.00000000000E+00  0.00000000000E+00  0.10435188749E+04  0.40379336991E+04  0.39007661961E+04 0.  0.
        2    1    3    3  502    0  0.10138820529E+04  0.13137152319E+04  0.15825829594E+04  0.22931143345E+04  0.25500000920E-02 0. -1.
       -2    1    3    3    0  502 -0.10138820529E+04 -0.13137152319E+04 -0.53906408458E+03  0.17448193646E+04  0.25500000920E-02 0.  1.
</event>
<event>
 5   0  0.9368546E-09  0.3898408E+04  0.7818609E-02  0.8025360E-01
        2   -1    0    0  501    0  0.00000000000E+00  0.00000000000E+00  0.18193087247E+04  0.18193087247E+04  0.25500000920E-02 0. -1.
       -2   -1    0    0    0  501  0.00000000000E+00  0.00000000000E+00 -0.20883731235E+04  0.20883731235E+04  0.25500000920E-02 0.  1.
    10030    2    1    2    0    0  0.00000000000E+00  0.00000000000E+00 -0.26906439874E+03  0.39076818482E+04  0.38984075949E+04 0.  0.
        5    1    3    3  502    0  0.77719587548E+03  0.13928586353E+04  0.98852811012E+03  0.18765123291E+04  0.46999998093E+01 0. -1.
       -5    1    3    3    0  502 -0.77719587548E+03 -0.13928586353E+04 -0.12575925089E+04  0.20311695191E+04  0.46999998093E+01 0.  1.
</event>
<event>
 5   0  0.2904500E-09  0.3903259E+04  0.7818609E-02  0.8024352E-01
        1   -1    0    0  501    0  0.00000000000E+00  0.00000000000E+00  0.16140701031E+04  0.16140701031E+04  0.50400001928E-02 0. -1.
       -1   -1    0    0    0  501  0.00000000000E+00  0.00000000000E+00 -0.23597842013E+04  0.23597842013E+04  0.50400001928E-02 0.  1.
    10030    2    1    2    0    0  0.00000000000E+00  0.00000000000E+00 -0.74571409815E+03  0.39738543044E+04  0.39032587048E+04 0.  0.
        4    1    3    3  502    0 -0.15252263000E+03 -0.18381574665E+04  0.27646296569E+03  0.18650789283E+04  0.12699999809E+01 0.  1.
       -4    1    3    3    0  502  0.15252263000E+03  0.18381574665E+04 -0.10221770638E+04  0.21087753761E+04  0.12699999809E+01 0. -1.
</event>
<event>
 5   0  0.9434114E-09  0.3899517E+04  0.7818609E-02  0.8025130E-01
        2   -1    0    0  501    0  0.00000000000E+00  0.00000000000E+00  0.13271556297E+04  0.13271556297E+04  0.25500000920E-02 0.  1.
       -2   -1    0    0    0  501  0.00000000000E+00  0.00000000000E+00 -0.28644406382E+04  0.28644406382E+04  0.25500000920E-02 0. -1.
    10030    2    1    2    0    0  0.00000000000E+00  0.00000000000E+00 -0.15372850085E+04  0.41915962679E+04  0.38995171592E+04 0.  0.
        4    1    3    3  502    0  0.14334383903E+04 -0.76027952988E+03  0.39343787845E+03  0.16696004190E+04  0.12699999809E+01 0.  1.
       -4    1    3    3    0  502 -0.14334383903E+04  0.76027952988E+03 -0.19307228870E+04  0.25219958488E+04  0.12699999809E+01 0. -1.
</event>
<event>
 5   0  0.9368546E-09  0.3891329E+04  0.7818609E-02  0.8026835E-01
        2   -1    0    0  501    0  0.00000000000E+00  0.00000000000E+00  0.22491315993E+04  0.22491315993E+04  0.25500000920E-02 0.  1.
       -2   -1    0    0    0  501  0.00000000000E+00  0.00000000000E+00 -0.16831432192E+04  0.16831432192E+04  0.25500000920E-02 0. -1.
    10030    2    1    2    0    0  0.00000000000E+00  0.00000000000E+00  0.56598838010E+03  0.39322748184E+04  0.38913291304E+04 0.  0.
        5    1    3    3  502    0  0.18949473155E+04 -0.31909701358E+03 -0.25074725873E+02  0.19217957915E+04  0.46999998093E+01 0. -1.
       -5    1    3    3    0  502 -0.18949473155E+04  0.31909701358E+03  0.59106310597E+03  0.20104790269E+04  0.46999998093E+01 0.  1.
</event>
<event>
 5   0  0.6335942E-09  0.3899504E+04  0.7818609E-02  0.8025132E-01
        2   -1    0    0  501    0  0.00000000000E+00  0.00000000000E+00  0.29277203730E+04  0.29277203730E+04  0.25500000920E-02 0.  1.
       -2   -1    0    0    0  501  0.00000000000E+00  0.00000000000E+00 -0.12984616311E+04  0.12984616311E+04  0.25500000920E-02 0. -1.
    10030    2    1    2    0    0  0.00000000000E+00  0.00000000000E+00  0.16292587419E+04  0.42261820041E+04  0.38995038510E+04 0.  0.
        2    1    3    3  502    0 -0.88059393293E+02 -0.15061162599E+04  0.21531638557E+04  0.26291168165E+04  0.25500000920E-02 0.  1.
       -2    1    3    3    0  502  0.88059393293E+02  0.15061162599E+04 -0.52390511386E+03  0.15970651876E+04  0.25500000920E-02 0. -1.
</event>
<event>
 5   0  0.2929054E-09  0.3908573E+04  0.7818609E-02  0.8023249E-01
        1   -1    0    0  501    0  0.00000000000E+00  0.00000000000E+00  0.22301333275E+04  0.22301333275E+04  0.50400001928E-02 0.  1.
       -1   -1    0    0    0  501  0.00000000000E+00  0.00000000000E+00 -0.17125594709E+04  0.17125594709E+04  0.50400001928E-02 0. -1.
    10030    2    1    2    0    0  0.00000000000E+00  0.00000000000E+00  0.51757385662E+03  0.39426927985E+04  0.39085731164E+04 0.  0.
        1    1    3    3  502    0 -0.92750387840E+03 -0.11846551366E+04 -0.99932343772E+03  0.18061889631E+04  0.50400001928E-02 0. -1.
       -1    1    3    3    0  502  0.92750387840E+03  0.11846551366E+04  0.15168972943E+04  0.21365038354E+04  0.50400001928E-02 0.  1.
</event>
<event>
 5   0  0.2904500E-09  0.3902409E+04  0.7818609E-02  0.8024528E-01
       -1   -1    0    0    0  501  0.00000000000E+00  0.00000000000E+00  0.18787794899E+04  0.18787794899E+04  0.50400001928E-02 0. -1.
        1   -1    0    0  501    0  0.00000000000E+00  0.00000000000E+00 -0.20264212742E+04  0.20264212742E+04  0.50400001928E-02 0.  1.
    10030    2    1    2    0    0  0.00000000000E+00  0.00000000000E+00 -0.14764178428E+03  0.39052007641E+04  0.39024088601E+04 0.  0.
        2    1    3    3  502    0 -0.12948277949E+04  0.41772849409E+02 -0.15339311461E+04  0.20078019699E+04  0.25500000920E-02 0.  1.
       -2    1    3    3    0  502  0.12948277949E+04 -0.41772849409E+02  0.13862893619E+04  0.18973987942E+04  0.25500000920E-02 0. -1.
</event>
<event>
 5   0  0.6335942E-09  0.3899053E+04  0.7818609E-02  0.8025226E-01
        2   -1    0    0  501    0  0.00000000000E+00  0.00000000000E+00  0.14125405655E+04  0.14125405655E+04  0.25500000920E-02 0. -1.
       -2   -1    0    0    0  501  0.00000000000E+00  0.00000000000E+00 -0.26906507586E+04  0.26906507586E+04  0.25500000920E-02 0.  1.
    10030    2    1    2    0    0  0.00000000000E+00  0.00000000000E+00 -0.12781101931E+04  0.41031913240E+04  0.38990528819E+04 0.  0.
        2    1    3    3  502    0 -0.15825558152E+04 -0.76398849626E+02  0.55634601174E+03  0.16792380943E+04  0.25500000920E-02 0.  1.
       -2    1    3    3    0  502  0.15825558152E+04  0.76398849626E+02 -0.18344562048E+04  0.24239532297E+04  0.25500000920E-02 0. -1.
</event>
<event>
 5   0  0.9368546E-09  0.3895646E+04  0.7818609E-02  0.8025935E-01
        2   -1    0    0  501    0  0.00000000000E+00  0.00000000000E+00  0.19032882315E+04  0.19032882315E+04  0.25500000920E-02 0.  1.
       -2   -1    0    0    0  501  0.00000000000E+00  0.00000000000E+00 -0.19934001074E+04  0.19934001074E+04  0.25500000920E-02 0. -1.
    10030    2    1    2    0    0  0.00000000000E+00  0.00000000000E+00 -0.90111875934E+02  0.38966883389E+04  0.38956462700E+04 0.  0.
        5    1    3    3  502    0  0.65124995544E+03  0.16357091182E+04  0.78842684986E+03  0.19290696751E+04  0.46999998093E+01 0.  1.
       -5    1    3    3    0  502 -0.65124995544E+03 -0.16357091182E+04 -0.87853872580E+03  0.19676186639E+04  0.46999998093E+01 0. -1.
</event>
<event>
 5   0  0.2904500E-09  0.3892094E+04  0.7818609E-02  0.8026676E-01
       -1   -1    0    0    0  501  0.00000000000E+00  0.00000000000E+00  0.12837258674E+04  0.12837258675E+04  0.50400001928E-02 0. -1.
        1   -1    0    0  501    0  0.00000000000E+00  0.00000000000E+00 -0.29500836419E+04  0.29500836419E+04  0.50400001928E-02 0.  1.
    10030    2    1    2    0    0  0.00000000000E+00  0.00000000000E+00 -0.16663577745E+04  0.42338095094E+04  0.38920938746E+04 0.  0.
        4    1    3    3  502    0  0.40804121351E+03  0.72401294466E+03 -0.27473328462E+04  0.28702842641E+04  0.12699999809E+01 0.  1.
       -4    1    3    3    0  502 -0.40804121351E+03 -0.72401294466E+03  0.10809750717E+04  0.13635252453E+04  0.12699999809E+01 0. -1.
</event>
<event>
 5   0  0.2904500E-09  0.3900631E+04  0.7818609E-02  0.8024898E-01
       -1   -1    0    0    0  501  0.00000000000E+00  0.00000000000E+00  0.18105913091E+04  0.18105913091E+04  0.50400001928E-02 0.  1.
        1   -1    0    0  501    0  0.00000000000E+00  0.00000000000E+00 -0.21008220189E+04  0.21008220189E+04  0.50400001928E-02 0. -1.
    10030    2    1    2    0    0  0.00000000000E+00  0.00000000000E+00 -0.29023070985E+03  0.39114133281E+04  0.39006307641E+04 0.  0.
        2    1    3    3  502    0 -0.10899876868E+04  0.99277262409E+03 -0.14253824730E+04  0.20507037414E+04  0.25500000920E-02 0. -1.
       -2    1    3    3    0  502  0.10899876868E+04 -0.99277262409E+03  0.11351517631E+04  0.18607095867E+04  0.25500000920E-02 0.  1.
</event>
<event>
 5   0  0.9434114E-09  0.3896835E+04  0.7818609E-02  0.8025688E-01
       -2   -1    0    0    0  501  0.00000000000E+00  0.00000000000E+00  0.12617553720E+04  0.12617553720E+04  0.25500000920E-02 0. -1.
        2   -1    0    0  501    0  0.00000000000E+00  0.00000000000E+00 -0.30087691519E+04  0.30087691519E+04  0.25500000920E-02 0.  1.
    10030    2    1    2    0    0  0.00000000000E+00  0.00000000000E+00 -0.17470137800E+04  0.42705245239E+04  0.38968349416E+04 0.  0.
        4    1    3    3  502    0 -0.12571082697E+04  0.12275631012E+03 -0.24993295949E+04  0.28003643246E+04  0.12699999809E+01 0.  1.
       -4    1    3    3    0  502  0.12571082697E+04 -0.12275631012E+03  0.75231581494E+03  0.14701601994E+04  0.12699999809E+01 0. -1.
</event>
<event>
 5   0  0.2904500E-09  0.3898434E+04  0.7818609E-02  0.8025355E-01
        1   -1    0    0  501    0  0.00000000000E+00  0.00000000000E+00  0.27371250456E+04  0.27371250456E+04  0.50400001928E-02 0. -1.
       -1   -1    0    0    0  501  0.00000000000E+00  0.00000000000E+00 -0.13881156736E+04  0.13881156736E+04  0.50400001928E-02 0.  1.
    10030    2    1    2    0    0  0.00000000000E+00  0.00000000000E+00  0.13490093719E+04  0.41252407192E+04  0.38984336221E+04 0.  0.
        5    1    3    3  502    0 -0.62334100697E+03  0.14700998443E+04 -0.50842234938E+03  0.16757872593E+04  0.46999998093E+01 0.  1.
       -5    1    3    3    0  502  0.62334100697E+03 -0.14700998443E+04  0.18574317213E+04  0.24494534599E+04  0.46999998093E+01 0. -1.
</event>
<event>
 5   0  0.9434114E-09  0.3900028E+04  0.7818609E-02  0.8025023E-01
       -2   -1    0    0    0  501  0.00000000000E+00  0.00000000000E+00  0.21120829173E+04  0.21120829173E+04  0.25500000920E-02 0.  1.
        2   -1    0    0  501    0  0.00000000000E+00  0.00000000000E+00 -0.18003817306E+04  0.18003817306E+04  0.25500000920E-02 0. -1.
    10030    2    1    2    0    0  0.00000000000E+00  0.00000000000E+00  0.31170118666E+03  0.39124646479E+04  0.39000284604E+04 0.  0.
        4    1    3    3  502    0  0.79188214664E+03 -0.11284525189E+04 -0.12277032499E+04  0.18460063121E+04  0.12699999809E+01 0. -1.
       -4    1    3    3    0  502 -0.79188214664E+03  0.11284525189E+04  0.15394044365E+04  0.20664583358E+04  0.12699999809E+01 0.  1.
</event>
<event>
 5   0  0.6335942E-09  0.3899988E+04  0.7818609E-02  0.8025032E-01
       -2   -1    0    0    0  501  0.00000000000E+00  0.00000000000E+00  0.18613529248E+04  0.18613529248E+04  0.25500000920E-02 0. -1.
        2   -1    0    0  501    0  0.00000000000E+00  0.00000000000E+00 -0.20428568427E+04  0.20428568427E+04  0.25500000920E-02 0.  1.
    10030    2    1    2    0    0  0.00000000000E+00  0.00000000000E+00 -0.18150391797E+03  0.39042097675E+04  0.38999884918E+04 0.  0.
        2    1    3    3  502    0 -0.83394728910E+03  0.15180864660E+04  0.80599826024E+03  0.19104156078E+04  0.25500000920E-02 0. -1.
       -2    1    3    3    0  502  0.83394728910E+03 -0.15180864660E+04 -0.98750217821E+03  0.19937941597E+04  0.25500000920E-02 0.  1.
</event>
<event>
 5   0  0.9078515E-09  0.3908220E+04  0.7818609E-02  0.8023322E-01
       -2   -1    0    0    0  501  0.00000000000E+00  0.00000000000E+00  0.25040179311E+04  0.25040179311E+04  0.25500000920E-02 0. -1.
        2   -1    0    0  501    0  0.00000000000E+00  0.00000000000E+00 -0.15249678105E+04  0.15249678105E+04  0.25500000920E-02 0.  1.
    10030    2    1    2    0    0  0.00000000000E+00  0.00000000000E+00  0.97905012055E+03  0.40289857416E+04  0.39082204349E+04 0.  0.
        3    1    3    3  502    0 -0.38872876559E+02  0.18324622163E+04  0.11880449415E+04  0.21842343437E+04  0.10100000352E+00 0. -1.
       -3    1    3    3    0  502  0.38872876559E+02 -0.18324622163E+04 -0.20899482099E+03  0.18447513979E+04  0.10100000352E+00 0.  1.
</event>
<event>
 5   0  0.2904500E-09  0.3900470E+04  0.7818609E-02  0.8024932E-01
       -1   -1    0    0    0  501  0.00000000000E+00  0.00000000000E+00  0.18670234358E+04  0.18670234358E+04  0.50400001928E-02 0. -1.
        1   -1    0    0  501    0  0.00000000000E+00  0.00000000000E+00 -0.20371547628E+04  0.20371547628E+04  0.50400001928E-02 0.  1.
    10030    2    1    2    0    0  0.00000000000E+00  0.00000000000E+00 -0.17013132701E+03  0.39041781985E+04  0.39004695535E+04 0.  0.
        2    1    3    3  502    0 -0.52074317145E+03 -0.14761243744E+04  0.10793542679E+04  0.19013474840E+04  0.25500000920E-02 0. -1.
       -2    1    3    3    0  502  0.52074317145E+03  0.14761243744E+04 -0.12494855949E+04  0.20028307146E+04  0.25500000920E-02 0.  1.
</event>
<event>
 5   0  0.2904500E-09  0.3899026E+04  0.7818609E-02  0.8025232E-01
        1   -1    0    0  501    0  0.00000000000E+00  0.00000000000E+00  0.20149761882E+04  0.20149761882E+04  0.50400001928E-02 0. -1.
       -1   -1    0    0    0  501  0.00000000000E+00  0.00000000000E+00 -0.18861770275E+04  0.18861770275E+04  0.50400001928E-02 0.  1.
    10030    2    1    2    0    0  0.00000000000E+00  0.00000000000E+00  0.12879916078E+03  0.39011532157E+04  0.38990264411E+04 0.  0.
        4    1    3    3  502    0  0.14153696530E+04  0.38161006766E+02  0.14052322939E+04  0.19948450892E+04  0.12699999809E+01 0. -1.
       -4    1    3    3    0  502 -0.14153696530E+04 -0.38161006766E+02 -0.12764331331E+04  0.19063081265E+04  0.12699999809E+01 0.  1.
</event>
<event>
 5   0  0.2904500E-09  0.3900082E+04  0.7818609E-02  0.8025012E-01
       -1   -1    0    0    0  501  0.00000000000E+00  0.00000000000E+00  0.19662383612E+04  0.19662383612E+04  0.50400001928E-02 0. -1.
        1   -1    0    0  501    0  0.00000000000E+00  0.00000000000E+00 -0.19339773083E+04  0.19339773083E+04  0.50400001928E-02 0.  1.
    10030    2    1    2    0    0  0.00000000000E+00  0.00000000000E+00  0.32261052911E+02  0.39002156695E+04  0.39000822418E+04 0.  0.
        5    1    3    3  502    0  0.69516259708E+03  0.26647142062E+03  0.18185185248E+04  0.19650164807E+04  0.46999998093E+01 0. -1.
       -5    1    3    3    0  502 -0.69516259708E+03 -0.26647142062E+03 -0.17862574719E+04  0.19351991888E+04  0.46999998093E+01 0.  1.
</event>
<event>
 5   0  0.9277261E-09  0.3900546E+04  0.7818609E-02  0.8024916E-01
        2   -1    0    0  501    0  0.00000000000E+00  0.00000000000E+00  0.21154292970E+04  0.21154292970E+04  0.25500000920E-02 0.  1.
       -2   -1    0    0    0  501  0.00000000000E+00  0.00000000000E+00 -0.17980106315E+04  0.17980106315E+04  0.25500000920E-02 0. -1.
    10030    2    1    2    0    0  0.00000000000E+00  0.00000000000E+00  0.31741866546E+03  0.39134399285E+04  0.39005457907E+04 0.  0.
        1    1    3    3  502    0  0.45971638632E+03  0.12021287261E+04 -0.13114371662E+04  0.18374765497E+04  0.50400001928E-02 0. -1.
       -1    1    3    3    0  502 -0.45971638632E+03 -0.12021287261E+04  0.16288558317E+04  0.20759633788E+04  0.50400001928E-02 0.  1.
</event>
<event>
 5   0  0.9368546E-09  0.3899546E+04  0.7818609E-02  0.8025124E-01
        2   -1    0    0  501    0  0.00000000000E+00  0.00000000000E+00  0.15925219770E+04  0.15925219770E+04  0.25500000920E-02 0.  1.
       -2   -1    0    0    0  501  0.00000000000E+00  0.00000000000E+00 -0.23871668377E+04  0.23871668377E+04  0.25500000920E-02 0. -1.
    10030    2    1    2    0    0  0.00000000000E+00  0.00000000000E+00 -0.79464486066E+03  0.39796888147E+04  0.38995464617E+04 0.  0.
        5    1    3    3  502    0  0.54888346780E+01 -0.13491319731E+04 -0.18338758851E+04  0.22766883977E+04  0.46999998093E+01 0. -1.
       -5    1    3    3    0  502 -0.54888346780E+01  0.13491319731E+04  0.10392310245E+04  0.17030004170E+04  0.46999998093E+01 0.  1.
</event>
<event>
 5   0  0.9434114E-09  0.3899226E+04  0.7818609E-02  0.8025190E-01
        2   -1    0    0  501    0  0.00000000000E+00  0.00000000000E+00  0.21432587939E+04  0.21432587939E+04  0.25500000920E-02 0.  1.
       -2   -1    0    0    0  501  0.00000000000E+00  0.00000000000E+00 -0.17734633119E+04  0.17734633119E+04  0.25500000920E-02 0. -1.
    10030    2    1    2    0    0  0.00000000000E+00  0.00000000000E+00  0.36979548205E+03  0.39167221058E+04  0.38992259944E+04 0.  0.
        4    1    3    3  502    0  0.83183214374E+03 -0.15183882516E+04 -0.71552932779E+03  0.18733476532E+04  0.12699999809E+01 0. -1.
       -4    1    3    3    0  502 -0.83183214374E+03  0.15183882516E+04  0.10853248098E+04  0.20433744526E+04  0.12699999809E+01 0.  1.
</event>
<event>
 5   0  0.2904500E-09  0.3900071E+04  0.7818609E-02  0.8025014E-01
       -1   -1    0    0    0  501  0.00000000000E+00  0.00000000000E+00  0.19535087859E+04  0.19535087859E+04  0.50400001928E-02 0.  1.
        1   -1    0    0  501    0  0.00000000000E+00  0.00000000000E+00 -0.19465681217E+04  0.19465681217E+04  0.50400001928E-02 0. -1.
    10030    2    1    2    0    0  0.00000000000E+00  0.00000000000E+00  0.69406642116E+01  0.39000769077E+04  0.39000707318E+04 0.  0.
        5    1    3    3  502    0  0.10490339072E+04  0.62947405005E+02 -0.16391464428E+04  0.19471152162E+04  0.46999998093E+01 0. -1.
       -5    1    3    3    0  502 -0.10490339072E+04 -0.62947405005E+02  0.16460871070E+04  0.19529616914E+04  0.46999998093E+01 0.  1.
</event>
<event>
 5   0  0.2929054E-09  0.3900431E+04  0.7818609E-02  0.8024939E-01
        1   -1    0    0  501    0  0.00000000000E+00  0.00000000000E+00  0.16411310288E+04  0.16411310288E+04  0.50400001928E-02 0.  1.
       -1   -1    0    0    0  501  0.00000000000E+00  0.00000000000E+00 -0.23175122065E+04  0.23175122065E+04  0.50400001928E-02 0. -1.
    10030    2    1    2    0    0  0.00000000000E+00  0.00000000000E+00 -0.67638117771E+03  0.39586432353E+04  0.39004313565E+04 0.  0.
        1    1    3    3  502    0  0.88473101835E+03 -0.16604110249E+04  0.18291896437E+03  0.18902838660E+04  0.50400001928E-02 0.  1.
       -1    1    3    3    0  502 -0.88473101835E+03  0.16604110249E+04 -0.85930014208E+03  0.20683593693E+04  0.50400001928E-02 0. -1.
</event>
<event>
 5   0  0.9368546E-09  0.3900352E+04  0.7818609E-02  0.8024956E-01
        2   -1    0    0  501    0  0.00000000000E+00  0.00000000000E+00  0.16257060968E+04  0.16257060968E+04  0.25500000920E-02 0. -1.
       -2   -1    0    0    0  501  0.00000000000E+00  0.00000000000E+00 -0.23394062179E+04  0.23394062179E+04  0.25500000920E-02 0.  1.
    10030    2    1    2    0    0  0.00000000000E+00  0.00000000000E+00 -0.71370012107E+03  0.39651123147E+04  0.39003522668E+04 0.  0.
        5    1    3    3  502    0 -0.35752024029E+03  0.57801238840E+03 -0.22151074770E+04  0.23170330745E+04  0.46999998093E+01 0.  1.
       -5    1    3    3    0  502  0.35752024029E+03 -0.57801238840E+03  0.15014073560E+04  0.16480792402E+04  0.46999998093E+01 0. -1.
</event>
<event>
 5   0  0.2904500E-09  0.3899568E+04  0.7818609E-02  0.8025119E-01
       -1   -1    0    0    0  501  0.00000000000E+00  0.00000000000E+00  0.18228259610E+04  0.18228259610E+04  0.50400001928E-02 0.  1.
        1   -1    0    0  501    0  0.00000000000E+00  0.00000000000E+00 -0.20855842816E+04  0.20855842816E+04  0.50400001928E-02 0. -1.
    10030    2    1    2    0    0  0.00000000000E+00  0.00000000000E+00 -0.26275832061E+03  0.39084102426E+04  0.38995677567E+04 0.  0.
        2    1    3    3  502    0  0.14343720310E+03 -0.54407595889E+03  0.17396866761E+04  0.18284153279E+04  0.25500000920E-02 0.  1.
       -2    1    3    3    0  502 -0.14343720310E+03  0.54407595889E+03 -0.20024449967E+04  0.20799949147E+04  0.25500000920E-02 0. -1.
</event>
<event>
 5   0  0.2904500E-09  0.3898832E+04  0.7818609E-02  0.8025272E-01
        1   -1    0    0  501    0  0.00000000000E+00  0.00000000000E+00  0.17079368418E+04  0.17079368418E+04  0.50400001928E-02 0. -1.
       -1   -1    0    0    0  501  0.00000000000E+00  0.00000000000E+00 -0.22250368061E+04  0.22250368061E+04  0.50400001928E-02 0.  1.
    10030    2    1    2    0    0  0.00000000000E+00  0.00000000000E+00 -0.51709996430E+03  0.39329736479E+04  0.38988317920E+04 0.  0.
        3    1    3    3  502    0 -0.18338278556E+04  0.65498726065E+02 -0.92234550130E+03  0.20537614080E+04  0.10100000352E+00 0.  1.
       -3    1    3    3    0  502  0.18338278556E+04 -0.65498726065E+02  0.40524553700E+03  0.18792122399E+04  0.10100000352E+00 0. -1.
</event>
<event>
 5   0  0.9277261E-09  0.3900959E+04  0.7818609E-02  0.8024830E-01
        2   -1    0    0  501    0  0.00000000000E+00  0.00000000000E+00  0.15801698557E+04  0.15801698557E+04  0.25500000920E-02 0. -1.
       -2   -1    0    0    0  501  0.00000000000E+00  0.00000000000E+00 -0.24075710586E+04  0.24075710586E+04  0.25500000920E-02 0.  1.
    10030    2    1    2    0    0  0.00000000000E+00  0.00000000000E+00 -0.82740120285E+03  0.39877409143E+04  0.39009594780E+04 0.  0.
        1    1    3    3  502    0  0.86625278693E+03 -0.16937993084E+04  0.26009325528E+02  0.19026367160E+04  0.50400001928E-02 0.  1.
       -1    1    3    3    0  502 -0.86625278693E+03  0.16937993084E+04 -0.85341052838E+03  0.20851041983E+04  0.50400001928E-02 0. -1.
</event>
<event>
 5   0  0.2904500E-09  0.3896463E+04  0.7818609E-02  0.8025765E-01
        1   -1    0    0  501    0  0.00000000000E+00  0.00000000000E+00  0.28881897212E+04  0.28881897212E+04  0.50400001928E-02 0.  1.
       -1   -1    0    0    0  501  0.00000000000E+00  0.00000000000E+00 -0.13141814082E+04  0.13141814082E+04  0.50400001928E-02 0. -1.
    10030    2    1    2    0    0  0.00000000000E+00  0.00000000000E+00  0.15740083130E+04  0.42023711294E+04  0.38964626188E+04 0.  0.
        2    1    3    3  502    0 -0.27332730031E+03 -0.69286240144E+02  0.28660659687E+04  0.28799032160E+04  0.25500000920E-02 0.  1.
       -2    1    3    3    0  502  0.27332730031E+03  0.69286240144E+02 -0.12920576558E+04  0.13224679134E+04  0.25500000920E-02 0. -1.
</event>
<event>
 5   0  0.2904500E-09  0.3900565E+04  0.7818609E-02  0.8024912E-01
        1   -1    0    0  501    0  0.00000000000E+00  0.00000000000E+00  0.20032640030E+04  0.20032640030E+04  0.50400001928E-02 0.  1.
       -1   -1    0    0    0  501  0.00000000000E+00  0.00000000000E+00 -0.18987023693E+04  0.18987023693E+04  0.50400001928E-02 0. -1.
    10030    2    1    2    0    0  0.00000000000E+00  0.00000000000E+00  0.10456163370E+03  0.39019663723E+04  0.39005651430E+04 0.  0.
        4    1    3    3  502    0 -0.11427237543E+04  0.41333991353E+02  0.16327453395E+04  0.19933351535E+04  0.12699999809E+01 0.  1.
       -4    1    3    3    0  502  0.11427237543E+04 -0.41333991353E+02 -0.15281837058E+04  0.19086312188E+04  0.12699999809E+01 0. -1.
</event>
<event>
 5   0  0.9434114E-09  0.3900530E+04  0.7818609E-02  0.8024919E-01
        2   -1    0    0  501    0  0.00000000000E+00  0.00000000000E+00  0.12173230229E+04  0.12173230229E+04  0.25500000920E-02 0.  1.
       -2   -1    0    0    0  501  0.00000000000E+00  0.00000000000E+00 -0.31245066097E+04  0.31245066097E+04  0.25500000920E-02 0. -1.
    10030    2    1    2    0    0  0.00000000000E+00  0.00000000000E+00 -0.19071835868E+04  0.43418296326E+04  0.39005301338E+04 0.  0.
        4    1    3    3  502    0  0.86042443453E+03 -0.62073907499E+03  0.86797501055E+03  0.13707769471E+04  0.12699999809E+01 0.  1.
       -4    1    3    3    0  502 -0.86042443453E+03  0.62073907499E+03 -0.27751585973E+04  0.29710526855E+04  0.12699999809E+01 0. -1.
</event>
<event>
 5   0  0.2904500E-09  0.3900920E+04  0.7818609E-02  0.8024838E-01
       -1   -1    0    0    0  501  0.00000000000E+00  0.00000000000E+00  0.23864824282E+04  0.23864824282E+04  0.50400001928E-02 0.  1.
        1   -1    0    0  501    0  0.00000000000E+00  0.00000000000E+00 -0.15941008032E+04  0.15941008033E+04  0.50400001928E-02 0. -1.
    10030    2    1    2    0    0  0.00000000000E+00  0.00000000000E+00  0.79238162497E+03  0.39805832315E+04  0.39009196638E+04 0.  0.
        5    1    3    3  502    0  0.33296394584E+03  0.29961313209E+03  0.23332830849E+04  0.23758924770E+04  0.46999998093E+01 0.  1.
       -5    1    3    3    0  502 -0.33296394584E+03 -0.29961313209E+03 -0.15409014599E+04  0.16046907544E+04  0.46999998093E+01 0. -1.
</event>
<event>
 5   0  0.2904500E-09  0.3890542E+04  0.7818609E-02  0.8026999E-01
        1   -1    0    0  501    0  0.00000000000E+00  0.00000000000E+00  0.20861012028E+04  0.20861012028E+04  0.50400001928E-02 0.  1.
       -1   -1    0    0    0  501  0.00000000000E+00  0.00000000000E+00 -0.18139479346E+04  0.18139479346E+04  0.50400001928E-02 0. -1.
    10030    2    1    2    0    0  0.00000000000E+00  0.00000000000E+00  0.27215326821E+03  0.39000491374E+04  0.38905418483E+04 0.  0.
        5    1    3    3  502    0  0.10641947823E+04 -0.88556110517E+02  0.17659971070E+04  0.20637636956E+04  0.46999998093E+01 0.  1.
       -5    1    3    3    0  502 -0.10641947823E+04  0.88556110517E+02 -0.14938438387E+04  0.18362854419E+04  0.46999998093E+01 0. -1.
</event>
<event>
 5   0  0.2904500E-09  0.3899990E+04  0.7818609E-02  0.8025031E-01
        1   -1    0    0  501    0  0.00000000000E+00  0.00000000000E+00  0.13636910582E+04  0.13636910582E+04  0.50400001928E-02 0. -1.
       -1   -1    0    0    0  501  0.00000000000E+00  0.00000000000E+00 -0.27883732647E+04  0.27883732647E+04  0.50400001928E-02 0.  1.
    10030    2    1    2    0    0  0.00000000000E+00  0.00000000000E+00 -0.14246822065E+04  0.41520643229E+04  0.38999895836E+04 0.  0.
        2    1    3    3  502    0  0.50909040310E+03  0.77923878273E+03 -0.25365962143E+04  0.27019819529E+04  0.25500000920E-02 0.  1.
       -2    1    3    3    0  502 -0.50909040310E+03 -0.77923878273E+03  0.11119140079E+04  0.14500823701E+04  0.25500000920E-02 0. -1.
</event>
<event>
 5   0  0.9434114E-09  0.3900156E+04  0.7818609E-02  0.8024997E-01
        2   -1    0    0  501    0  0.00000000000E+00  0.00000000000E+00  0.20526012392E+04  0.20526012392E+04  0.25500000920E-02 0. -1.
       -2   -1    0    0    0  501  0.00000000000E+00  0.00000000000E+00 -0.18526751382E+04  0.18526751382E+04  0.25500000920E-02 0.  1.
    10030    2    1    2    0    0  0.00000000000E+00  0.00000000000E+00  0.19992610100E+03  0.39052763773E+04  0.39001555273E+04 0.  0.
        4    1    3    3  502    0 -0.18485226033E+04 -0.43531910739E+03  0.54356067368E+03  0.19753476552E+04  0.12699999809E+01 0. -1.
       -4    1    3    3    0  502  0.18485226033E+04  0.43531910739E+03 -0.34363457268E+03  0.19299287221E+04  0.12699999809E+01 0.  1.
</event>
<event>
 5   0  0.2904500E-09  0.3900823E+04  0.7818609E-02  0.8024858E-01
       -1   -1    0    0    0  501  0.00000000000E+00  0.00000000000E+00  0.16520438849E+04  0.16520438849E+04  0.50400001928E-02 0. -1.
        1   -1    0    0  501    0  0.00000000000E+00  0.00000000000E+00 -0.23026659344E+04  0.23026659344E+04  0.50400001928E-02 0.  1.
    10030    2    1    2    0    0  0.00000000000E+00  0.00000000000E+00 -0.65062204945E+03  0.39547098193E+04  0.39008230803E+04 0.  0.
        2    1    3    3  502    0  0.76707265697E+03 -0.59175492592E+03  0.13908613655E+04  0.16950131833E+04  0.25500000920E-02 0. -1.
       -2    1    3    3    0  502 -0.76707265697E+03  0.59175492592E+03 -0.20414834149E+04  0.22596966360E+04  0.25500000920E-02 0.  1.
</event>
<event>
 5   0  0.9277261E-09  0.3900023E+04  0.7818609E-02  0.8025024E-01
       -2   -1    0    0    0  501  0.00000000000E+00  0.00000000000E+00  0.20232153678E+04  0.20232153678E+04  0.25500000920E-02 0.  1.
        2   -1    0    0  501    0  0.00000000000E+00  0.00000000000E+00 -0.18794563096E+04  0.18794563096E+04  0.25500000920E-02 0. -1.
    10030    2    1    2    0    0  0.00000000000E+00  0.00000000000E+00  0.14375905821E+03  0.39026716774E+04  0.39000230197E+04 0.  0.
        1    1    3    3  502    0  0.30396444273E+03 -0.66364571264E+03 -0.17375865738E+04  0.18846822320E+04  0.50400001928E-02 0. -1.
       -1    1    3    3    0  502 -0.30396444273E+03  0.66364571264E+03  0.18813456320E+04  0.20179894453E+04  0.50400001928E-02 0.  1.
</event>
<event>
 5   0  0.9277261E-09  0.3899581E+04  0.7818609E-02  0.8025116E-01
       -2   -1    0    0    0  501  0.00000000000E+00  0.00000000000E+00  0.16291947372E+04  0.16291947372E+04  0.25500000920E-02 0.  1.
        2   -1    0    0  501    0  0.00000000000E+00  0.00000000000E+00 -0.23334733047E+04  0.23334733047E+04  0.25500000920E-02 0. -1.
    10030    2    1    2    0    0  0.00000000000E+00  0.00000000000E+00 -0.70427856747E+03  0.39626680418E+04  0.38995807094E+04 0.  0.
        1    1    3    3  502    0 -0.13147159307E+04 -0.53395829832E+03 -0.17109683517E+04  0.22228365085E+04  0.50400001928E-02 0. -1.
       -1    1    3    3    0  502  0.13147159307E+04  0.53395829832E+03  0.10066897842E+04  0.17398315334E+04  0.50400001928E-02 0.  1.
</event>
<event>
 5   0  0.9078515E-09  0.3899088E+04  0.7818609E-02  0.8025219E-01
       -2   -1    0    0    0  501  0.00000000000E+00  0.00000000000E+00  0.27992063434E+04  0.27992063434E+04  0.25500000920E-02 0.  1.
        2   -1    0    0  501    0  0.00000000000E+00  0.00000000000E+00 -0.13577854549E+04  0.13577854549E+04  0.25500000920E-02 0. -1.
    10030    2    1    2    0    0  0.00000000000E+00  0.00000000000E+00  0.14414208884E+04  0.41569917983E+04  0.38990879232E+04 0.  0.
        3    1    3    3  502    0 -0.72112088547E+03  0.17915914398E+02 -0.12102730882E+04  0.14089347997E+04  0.10100000352E+00 0. -1.
       -3    1    3    3    0  502  0.72112088547E+03 -0.17915914398E+02  0.26516939767E+04  0.27480569986E+04  0.10100000352E+00 0.  1.
</event>
<event>
 5   0  0.2929054E-09  0.3901145E+04  0.7818609E-02  0.8024791E-01
        1   -1    0    0  501    0  0.00000000000E+00  0.00000000000E+00  0.27276361100E+04  0.27276361100E+04  0.50400001928E-02 0.  1.
       -1   -1    0    0    0  501  0.00000000000E+00  0.00000000000E+00 -0.13948827814E+04  0.13948827814E+04  0.50400001928E-02 0. -1.
    10030    2    1    2    0    0  0.00000000000E+00  0.00000000000E+00  0.13327533286E+04  0.41225188914E+04  0.39011447775E+04 0.  0.
        1    1    3    3  502    0 -0.15821345822E+04 -0.67709934246E+03  0.16366969231E+04  0.23749505624E+04  0.50400001928E-02 0.  1.
       -1    1    3    3    0  502  0.15821345822E+04  0.67709934246E+03 -0.30394359450E+03  0.17475683290E+04  0.50400001928E-02 0. -1.
</event>
<event>
 5   0  0.2904500E-09  0.3903326E+04  0.7818609E-02  0.8024338E-01
        1   -1    0    0  501    0  0.00000000000E+00  0.00000000000E+00  0.12666088302E+04  0.12666088302E+04  0.50400001928E-02 0. -1.
       -1   -1    0    0    0  501  0.00000000000E+00  0.00000000000E+00 -0.30072335752E+04  0.30072335752E+04  0.50400001928E-02 0.  1.
    10030    2    1    2    0    0  0.00000000000E+00  0.00000000000E+00 -0.17406247449E+04  0.42738424054E+04  0.39033260693E+04 0.  0.
        3    1    3    3  502    0  0.13593585602E+04  0.10826207003E+04 -0.18429255479E+04  0.25330412277E+04  0.10100000352E+00 0.  1.
       -3    1    3    3    0  502 -0.13593585602E+04 -0.10826207003E+04  0.10230080295E+03  0.17408011777E+04  0.10100000352E+00 0. -1.
</event>
<event>
 5   0  0.9277261E-09  0.3900874E+04  0.7818609E-02  0.8024847E-01
       -2   -1    0    0    0  501  0.00000000000E+00  0.00000000000E+00  0.12545377293E+04  0.12545377293E+04  0.25500000920E-02 0. -1.
        2   -1    0    0  501    0  0.00000000000E+00  0.00000000000E+00 -0.30323561225E+04  0.30323561225E+04  0.25500000920E-02 0.  1.
    10030    2    1    2    0    0  0.00000000000E+00  0.00000000000E+00 -0.17778183932E+04  0.42868938518E+04  0.39008743452E+04 0.  0.
        1    1    3    3  502    0  0.96240168205E+03  0.41824060204E+03  0.91788567887E+03  0.13941507516E+04  0.50400001928E-02 0. -1.
       -1    1    3    3    0  502 -0.96240168205E+03 -0.41824060204E+03 -0.26957040721E+04  0.28927431001E+04  0.50400001928E-02 0.  1.
</event>
<event>
 5   0  0.2904500E-09  0.3899972E+04  0.7818609E-02  0.8025035E-01
        1   -1    0    0  501    0  0.00000000000E+00  0.00000000000E+00  0.19354710237E+04  0.19354710237E+04  0.50400001928E-02 0. -1.
       -1   -1    0    0    0  501  0.00000000000E+00  0.00000000000E+00 -0.19646100428E+04  0.19646100428E+04  0.50400001928E-02 0.  1.
    10030    2    1    2    0    0  0.00000000000E+00  0.00000000000E+00 -0.29139019100E+02  0.39000810666E+04  0.38999722106E+04 0.  0.
        5    1    3    3  502    0 -0.16068949046E+04 -0.23547061198E+03  0.10647502326E+04  0.19419765167E+04  0.46999998093E+01 0. -1.
       -5    1    3    3    0  502  0.16068949046E+04  0.23547061198E+03 -0.10938892517E+04  0.19581045499E+04  0.46999998093E+01 0.  1.
</event>
<event>
 5   0  0.6335942E-09  0.3899550E+04  0.7818609E-02  0.8025123E-01
       -2   -1    0    0    0  501  0.00000000000E+00  0.00000000000E+00  0.23673586984E+04  0.23673586984E+04  0.25500000920E-02 0.  1.
        2   -1    0    0  501    0  0.00000000000E+00  0.00000000000E+00 -0.16058499036E+04  0.16058499036E+04  0.25500000920E-02 0. -1.
    10030    2    1    2    0    0  0.00000000000E+00  0.00000000000E+00  0.76150879479E+03  0.39732086021E+04  0.38995500960E+04 0.  0.
        2    1    3    3  502    0  0.18241894076E+04  0.58791661174E+03  0.15784724441E+02  0.19166538797E+04  0.25500000920E-02 0. -1.
       -2    1    3    3    0  502 -0.18241894076E+04 -0.58791661174E+03  0.74572407035E+03  0.20565547224E+04  0.25500000920E-02 0.  1.
</event>
<event>
 5   0  0.2929054E-09  0.3903835E+04  0.7818609E-02  0.8024232E-01
       -1   -1    0    0    0  501  0.00000000000E+00  0.00000000000E+00  0.24484822662E+04  0.24484822662E+04  0.50400001928E-02 0. -1.
        1   -1    0    0  501    0  0.00000000000E+00  0.00000000000E+00 -0.15560587451E+04  0.15560587451E+04  0.50400001928E-02 0.  1.
    10030    2    1    2    0    0  0.00000000000E+00  0.00000000000E+00  0.89242352107E+03  0.40045410113E+04  0.39038351617E+04 0.  0.
        1    1    3    3  502    0  0.15247068685E+04  0.12834906340E+03 -0.79698340649E+03  0.17252208749E+04  0.50400001928E-02 0.  1.
       -1    1    3    3    0  502 -0.15247068685E+04 -0.12834906340E+03  0.16894069276E+04  0.22793201363E+04  0.50400001928E-02 0. -1.
</event>
<event>
 5   0  0.2929054E-09  0.3902070E+04  0.7818609E-02  0.8024599E-01
       -1   -1    0    0    0  501  0.00000000000E+00  0.00000000000E+00  0.12320568435E+04  0.12320568435E+04  0.50400001928E-02 0. -1.
        1   -1    0    0  501    0  0.00000000000E+00  0.00000000000E+00 -0.30895797032E+04  0.30895797032E+04  0.50400001928E-02 0.  1.
    10030    2    1    2    0    0  0.00000000000E+00  0.00000000000E+00 -0.18575228597E+04  0.43216365467E+04  0.39020701259E+04 0.  0.
        1    1    3    3  502    0  0.19058520806E+04  0.31745887068E+02 -0.46776278881E+03  0.19626721533E+04  0.50400001928E-02 0. -1.
       -1    1    3    3    0  502 -0.19058520806E+04 -0.31745887068E+02 -0.13897600709E+04  0.23589643934E+04  0.50400001928E-02 0.  1.
</event>
<event>
 5   0  0.2904500E-09  0.3900763E+04  0.7818609E-02  0.8024871E-01
        1   -1    0    0  501    0  0.00000000000E+00  0.00000000000E+00  0.22574676791E+04  0.22574676791E+04  0.50400001928E-02 0. -1.
       -1   -1    0    0    0  501  0.00000000000E+00  0.00000000000E+00 -0.16850685307E+04  0.16850685307E+04  0.50400001928E-02 0.  1.
    10030    2    1    2    0    0  0.00000000000E+00  0.00000000000E+00  0.57239914836E+03  0.39425362098E+04  0.39007628716E+04 0.  0.
        2    1    3    3  502    0  0.12035417309E+04  0.12964505241E+04 -0.54399258345E+03  0.18507362293E+04  0.25500000920E-02 0.  1.
       -2    1    3    3    0  502 -0.12035417309E+04 -0.12964505241E+04  0.11163917318E+04  0.20917999805E+04  0.25500000920E-02 0. -1.
</event>
<event>
 5   0  0.6335942E-09  0.3899978E+04  0.7818609E-02  0.8025034E-01
       -2   -1    0    0    0  501  0.00000000000E+00  0.00000000000E+00  0.16846912459E+04  0.16846912459E+04  0.25500000920E-02 0.  1.
        2   -1    0    0  501    0  0.00000000000E+00  0.00000000000E+00 -0.22570651948E+04  0.22570651948E+04  0.25500000920E-02 0. -1.
    10030    2    1    2    0    0  0.00000000000E+00  0.00000000000E+00 -0.57237394888E+03  0.39417564406E+04  0.38999784487E+04 0.  0.
        2    1    3    3  502    0  0.47362875867E+03  0.18843560624E+04 -0.45329414827E+03  0.19951434925E+04  0.25500000920E-02 0. -1.
       -2    1    3    3    0  502 -0.47362875867E+03 -0.18843560624E+04 -0.11907980061E+03  0.19466129481E+04  0.25500000920E-02 0.  1.
</event>
<event>
 5   0  0.2904500E-09  0.3900703E+04  0.7818609E-02  0.8024883E-01
       -1   -1    0    0    0  501  0.00000000000E+00  0.00000000000E+00  0.22522986397E+04  0.22522986397E+04  0.50400001928E-02 0. -1.
        1   -1    0    0  501    0  0.00000000000E+00  0.00000000000E+00 -0.16888843577E+04  0.16888843577E+04  0.50400001928E-02 0.  1.
    10030    2    1    2    0    0  0.00000000000E+00  0.00000000000E+00  0.56341428200E+03  0.39411829975E+04  0.39007034964E+04 0.  0.
        3    1    3    3  502    0 -0.60825701418E+03  0.69203019639E+03 -0.14551401482E+04  0.17222994075E+04  0.10100000352E+00 0.  1.
       -3    1    3    3    0  502  0.60825701418E+03 -0.69203019639E+03  0.20185544302E+04  0.22188835900E+04  0.10100000352E+00 0. -1.
</event>
<event>
 5   0  0.2904500E-09  0.3895816E+04  0.7818609E-02  0.8025900E-01
        1   -1    0    0  501    0  0.00000000000E+00  0.00000000000E+00  0.23811037013E+04  0.23811037013E+04  0.50400001928E-02 0.  1.
       -1   -1    0    0    0  501  0.00000000000E+00  0.00000000000E+00 -0.15935237973E+04  0.15935237973E+04  0.50400001928E-02 0. -1.
    10030    2    1    2    0    0  0.00000000000E+00  0.00000000000E+00  0.78757990401E+03  0.39746274985E+04  0.38958159154E+04 0.  0.
        5    1    3    3  502    0  0.15589359122E+04 -0.79338904507E+03  0.12682024634E+04  0.21605802307E+04  0.46999998093E+01 0.  1.
       -5    1    3    3    0  502 -0.15589359122E+04  0.79338904507E+03 -0.48062255940E+03  0.18140472678E+04  0.46999998093E+01 0. -1.
</event>
<event>
 5   0  0.2904500E-09  0.3905196E+04  0.7818609E-02  0.8023949E-01
        1   -1    0    0  501    0  0.00000000000E+00  0.00000000000E+00  0.17593121010E+04  0.17593121010E+04  0.50400001928E-02 0. -1.
       -1   -1    0    0    0  501  0.00000000000E+00  0.00000000000E+00 -0.21671187988E+04  0.21671187988E+04  0.50400001928E-02 0.  1.
    10030    2    1    2    0    0  0.00000000000E+00  0.00000000000E+00 -0.40780669787E+03  0.39264308998E+04  0.39051956812E+04 0.  0.
        2    1    3    3  502    0  0.16434410446E+04  0.95079587774E+03  0.25434582909E+03  0.19156208051E+04  0.25500000920E-02 0.  1.
       -2    1    3    3    0  502 -0.16434410446E+04 -0.95079587774E+03 -0.66215252696E+03  0.20108100947E+04  0.25500000920E-02 0. -1.
</event>
<event>
 5   0  0.6335942E-09  0.3898241E+04  0.7818609E-02  0.8025395E-01
       -2   -1    0    0    0  501  0.00000000000E+00  0.00000000000E+00  0.15681735348E+04  0.15681735348E+04  0.25500000920E-02 0.  1.
        2   -1    0    0  501    0  0.00000000000E+00  0.00000000000E+00 -0.24226080468E+04  0.24226080468E+04  0.25500000920E-02 0. -1.
    10030    2    1    2    0    0  0.00000000000E+00  0.00000000000E+00 -0.85443451194E+03  0.39907815816E+04  0.38982405386E+04 0.  0.
        2    1    3    3  502    0 -0.10167631066E+04 -0.70819345935E+03  0.11130678788E+04  0.16656125881E+04  0.25500000920E-02 0.  1.
       -2    1    3    3    0  502  0.10167631066E+04  0.70819345935E+03 -0.19675023907E+04  0.23251689935E+04  0.25500000920E-02 0. -1.
</event>
<event>
 5   0  0.2904500E-09  0.3901722E+04  0.7818609E-02  0.8024671E-01
       -3   -1    0    0    0  501  0.00000000000E+00  0.00000000000E+00  0.19251247963E+04  0.19251247990E+04  0.10100000352E+00 0. -1.
        3   -1    0    0  501    0  0.00000000000E+00  0.00000000000E+00 -0.19769410144E+04  0.19769410170E+04  0.10100000352E+00 0.  1.
    10030    2    1    2    0    0  0.00000000000E+00  0.00000000000E+00 -0.51816218070E+02  0.39020658159E+04  0.39017217624E+04 0.  0.
        5    1    3    3  502    0  0.11204930783E+04  0.33816016266E+03 -0.15868080679E+04  0.19717603730E+04  0.46999998093E+01 0.  1.
       -5    1    3    3    0  502 -0.11204930783E+04 -0.33816016266E+03  0.15349918498E+04  0.19303054429E+04  0.46999998093E+01 0. -1.
</event>
<event>
 5   0  0.6335942E-09  0.3900646E+04  0.7818609E-02  0.8024895E-01
       -2   -1    0    0    0  501  0.00000000000E+00  0.00000000000E+00  0.21035967419E+04  0.21035967419E+04  0.25500000920E-02 0. -1.
        2   -1    0    0  501    0  0.00000000000E+00  0.00000000000E+00 -0.18082176321E+04  0.18082176321E+04  0.25500000920E-02 0.  1.
    10030    2    1    2    0    0  0.00000000000E+00  0.00000000000E+00  0.29537910974E+03  0.39118143740E+04  0.39006464693E+04 0.  0.
        2    1    3    3  502    0  0.79136170211E+03  0.36510560748E+03  0.18974500806E+04  0.20880307125E+04  0.25500000920E-02 0. -1.
       -2    1    3    3    0  502 -0.79136170211E+03 -0.36510560748E+03 -0.16020709709E+04  0.18237836615E+04  0.25500000920E-02 0.  1.
</event>
<event>
 5   0  0.9434114E-09  0.3911005E+04  0.7818609E-02  0.8022744E-01
        2   -1    0    0  501    0  0.00000000000E+00  0.00000000000E+00  0.18948108182E+04  0.18948108182E+04  0.25500000920E-02 0. -1.
       -2   -1    0    0    0  501  0.00000000000E+00  0.00000000000E+00 -0.20181380429E+04  0.20181380429E+04  0.25500000920E-02 0.  1.
    10030    2    1    2    0    0  0.00000000000E+00  0.00000000000E+00 -0.12332722463E+03  0.39129488611E+04  0.39110048818E+04 0.  0.
        4    1    3    3  502    0 -0.10537272293E+04  0.69947158826E+03 -0.15538427019E+04  0.20035045125E+04  0.12699999809E+01 0.  1.
       -4    1    3    3    0  502  0.10537272293E+04 -0.69947158826E+03  0.14305154773E+04  0.19094443486E+04  0.12699999809E+01 0. -1.
</event>
<event>
 5   0  0.2904500E-09  0.3897209E+04  0.7818609E-02  0.8025610E-01
        1   -1    0    0  501    0  0.00000000000E+00  0.00000000000E+00  0.21668999224E+04  0.21668999224E+04  0.50400001928E-02 0.  1.
       -1   -1    0    0    0  501  0.00000000000E+00  0.00000000000E+00 -0.17523000284E+04  0.17523000284E+04  0.50400001928E-02 0. -1.
    10030    2    1    2    0    0  0.00000000000E+00  0.00000000000E+00  0.41459989402E+03  0.39191999508E+04  0.38972086398E+04 0.  0.
        4    1    3    3  502    0  0.37927942967E+03 -0.11422641668E+04  0.17484084242E+04  0.21226290169E+04  0.12699999809E+01 0.  1.
       -4    1    3    3    0  502 -0.37927942967E+03  0.11422641668E+04 -0.13338085301E+04  0.17965709339E+04  0.12699999809E+01 0. -1.
</event>
<event>
 5   0  0.6335942E-09  0.3907602E+04  0.7818609E-02  0.8023450E-01
       -2   -1    0    0    0  501  0.00000000000E+00  0.00000000000E+00  0.19109402257E+04  0.19109402257E+04  0.25500000920E-02 0.  1.
        2   -1    0    0  501    0  0.00000000000E+00  0.00000000000E+00 -0.19976234560E+04  0.19976234560E+04  0.25500000920E-02 0. -1.
    10030    2    1    2    0    0  0.00000000000E+00  0.00000000000E+00 -0.86683230315E+02  0.39085636817E+04  0.39076023430E+04 0.  0.
        2    1    3    3  502    0  0.76398586348E+03  0.15065552668E+04  0.93871245912E+03  0.19325020705E+04  0.25500000920E-02 0.  1.
       -2    1    3    3    0  502 -0.76398586348E+03 -0.15065552668E+04 -0.10253956894E+04  0.19760616112E+04  0.25500000920E-02 0. -1.
</event>
<event>
 5   0  0.9434114E-09  0.3900323E+04  0.7818609E-02  0.8024962E-01
        2   -1    0    0  501    0  0.00000000000E+00  0.00000000000E+00  0.16012568316E+04  0.16012568316E+04  0.25500000920E-02 0.  1.
       -2   -1    0    0    0  501  0.00000000000E+00  0.00000000000E+00 -0.23750901428E+04  0.23750901428E+04  0.25500000920E-02 0. -1.
    10030    2    1    2    0    0  0.00000000000E+00  0.00000000000E+00 -0.77383331121E+03  0.39763469745E+04  0.39003227133E+04 0.  0.
        4    1    3    3  502    0 -0.19269206710E+04 -0.10920640477E+03 -0.10186268079E+03  0.19326993894E+04  0.12699999809E+01 0.  1.
       -4    1    3    3    0  502  0.19269206710E+04  0.10920640477E+03 -0.67197063042E+03  0.20436475851E+04  0.12699999809E+01 0. -1.
</event>
<event>
 5   0  0.9078515E-09  0.3900328E+04  0.7818609E-02  0.8024961E-01
       -2   -1    0    0    0  501  0.00000000000E+00  0.00000000000E+00  0.13890406433E+04  0.13890406433E+04  0.25500000920E-02 0.  1.
        2   -1    0    0  501    0  0.00000000000E+00  0.00000000000E+00 -0.27379608493E+04  0.27379608493E+04  0.25500000920E-02 0. -1.
    10030    2    1    2    0    0  0.00000000000E+00  0.00000000000E+00 -0.13489202060E+04  0.41270014926E+04  0.39003276270E+04 0.  0.
        3    1    3    3  502    0 -0.66395479789E+03 -0.14326071628E+04  0.53658182073E+03  0.16676688272E+04  0.10100000352E+00 0.  1.
       -3    1    3    3    0  502  0.66395479789E+03  0.14326071628E+04 -0.18855020267E+04  0.24593326655E+04  0.10100000352E+00 0. -1.
</event>
<event>
 5   0  0.9368546E-09  0.3899125E+04  0.7818609E-02  0.8025211E-01
        2   -1    0    0  501    0  0.00000000000E+00  0.00000000000E+00  0.19969627214E+04  0.19969627214E+04  0.25500000920E-02 0. -1.
       -2   -1    0    0    0  501  0.00000000000E+00  0.00000000000E+00 -0.19032869361E+04  0.19032869361E+04  0.25500000920E-02 0.  1.
    10030    2    1    2    0    0  0.00000000000E+00  0.00000000000E+00  0.93675785328E+02  0.39002496575E+04  0.38991245476E+04 0.  0.
        5    1    3    3  502    0  0.17996924581E+04 -0.15225767232E+03 -0.68733276717E+03  0.19324915952E+04  0.46999998093E+01 0. -1.
       -5    1    3    3    0  502 -0.17996924581E+04  0.15225767232E+03  0.78100855250E+03  0.19677580623E+04  0.46999998093E+01 0.  1.
</event>
<event>
 5   0  0.9078515E-09  0.3900592E+04  0.7818609E-02  0.8024906E-01
       -2   -1    0    0    0  501  0.00000000000E+00  0.00000000000E+00  0.21707182379E+04  0.21707182380E+04  0.25500000920E-02 0.  1.
        2   -1    0    0  501    0  0.00000000000E+00  0.00000000000E+00 -0.17522557887E+04  0.17522557887E+04  0.25500000920E-02 0. -1.
    10030    2    1    2    0    0  0.00000000000E+00  0.00000000000E+00  0.41846244922E+03  0.39229740267E+04  0.39005915439E+04 0.  0.
        3    1    3    3  502    0 -0.90020645755E+03  0.12071184966E+03 -0.15265664858E+04  0.17763299982E+04  0.10100000352E+00 0. -1.
       -3    1    3    3    0  502  0.90020645755E+03 -0.12071184966E+03  0.19450289350E+04  0.21466440285E+04  0.10100000352E+00 0.  1.
</event>
<event>
 5   0  0.2904500E-09  0.3899107E+04  0.7818609E-02  0.8025215E-01
        1   -1    0    0  501    0  0.00000000000E+00  0.00000000000E+00  0.28081452623E+04  0.28081452623E+04  0.50400001928E-02 0. -1.
       -1   -1    0    0    0  501  0.00000000000E+00  0.00000000000E+00 -0.13534764089E+04  0.13534764089E+04  0.50400001928E-02 0.  1.
    10030    2    1    2    0    0  0.00000000000E+00  0.00000000000E+00  0.14546688533E+04  0.41616216712E+04  0.38991067518E+04 0.  0.
        5    1    3    3  502    0 -0.80779787658E+03  0.54627303880E+03 -0.10744527464E+04  0.14510073868E+04  0.46999998093E+01 0.  1.
       -5    1    3    3    0  502  0.80779787658E+03 -0.54627303880E+03  0.25291215998E+04  0.27106142844E+04  0.46999998093E+01 0. -1.
</event>
<event>
 5   0  0.9368546E-09  0.3901851E+04  0.7818609E-02  0.8024644E-01
       -2   -1    0    0    0  501  0.00000000000E+00  0.00000000000E+00  0.26510437773E+04  0.26510437773E+04  0.25500000920E-02 0.  1.
        2   -1    0    0  501    0  0.00000000000E+00  0.00000000000E+00 -0.14357023525E+04  0.14357023525E+04  0.25500000920E-02 0. -1.
    10030    2    1    2    0    0  0.00000000000E+00  0.00000000000E+00  0.12153414249E+04  0.40867461298E+04  0.39018507340E+04 0.  0.
        5    1    3    3  502    0  0.29987494299E+03 -0.18821291454E+04  0.10442595825E+04  0.21732085190E+04  0.46999998093E+01 0.  1.
       -5    1    3    3    0  502 -0.29987494299E+03  0.18821291454E+04  0.17108184233E+03  0.19135376108E+04  0.46999998093E+01 0. -1.
</event>
<event>
 5   0  0.9434114E-09  0.3899013E+04  0.7818609E-02  0.8025235E-01
        2   -1    0    0  501    0  0.00000000000E+00  0.00000000000E+00  0.29191935215E+04  0.29191935215E+04  0.25500000920E-02 0.  1.
       -2   -1    0    0    0  501  0.00000000000E+00  0.00000000000E+00 -0.13019262327E+04  0.13019262327E+04  0.25500000920E-02 0. -1.
    10030    2    1    2    0    0  0.00000000000E+00  0.00000000000E+00  0.16172672889E+04  0.42211197542E+04  0.38990125026E+04 0.  0.
        4    1    3    3  502    0 -0.70984543450E+03 -0.30357482285E+03 -0.11293742485E+04  0.13680372875E+04  0.12699999809E+01 0. -1.
       -4    1    3    3    0  502  0.70984543450E+03  0.30357482285E+03  0.27466415374E+04  0.28530824667E+04  0.12699999809E+01 0.  1.
</event>
<event>
 5   0  0.2904500E-09  0.3900394E+04  0.7818609E-02  0.8024947E-01
       -1   -1    0    0    0  501  0.00000000000E+00  0.00000000000E+00  0.16311938221E+04  0.16311938221E+04  0.50400001928E-02 0.  1.
        1   -1    0    0  501    0  0.00000000000E+00  0.00000000000E+00 -0.23315856455E+04  0.23315856455E+04  0.50400001928E-02 0. -1.
    10030    2    1    2    0    0  0.00000000000E+00  0.00000000000E+00 -0.70039182342E+03  0.39627794676E+04  0.39003938778E+04 0.  0.
        4    1    3    3  502    0 -0.94147251096E+02  0.11235503353E+03 -0.23259801584E+04  0.23305949173E+04  0.12699999809E+01 0. -1.
       -4    1    3    3    0  502  0.94147251096E+02 -0.11235503353E+03  0.16255883350E+04  0.16321845503E+04  0.12699999809E+01 0.  1.
</event>
<event>
 5   0  0.9078515E-09  0.3897053E+04  0.7818609E-02  0.8025642E-01
        2   -1    0    0  501    0  0.00000000000E+00  0.00000000000E+00  0.21922137497E+04  0.21922137497E+04  0.25500000920E-02 0.  1.
       -2   -1    0    0    0  501  0.00000000000E+00  0.00000000000E+00 -0.17319279100E+04  0.17319279100E+04  0.25500000920E-02 0. -1.
    10030    2    1    2    0    0  0.00000000000E+00  0.00000000000E+00  0.46028583967E+03  0.39241416598E+04  0.38970533370E+04 0.  0.
        3    1    3    3  502    0 -0.13877330904E+04  0.60523622920E+03 -0.10050219698E+04  0.18171910173E+04  0.10100000352E+00 0. -1.
       -3    1    3    3    0  502  0.13877330904E+04 -0.60523622920E+03  0.14653078094E+04  0.21069506425E+04  0.10100000352E+00 0.  1.
</event>
<event>
 5   0  0.2904500E-09  0.3901166E+04  0.7818609E-02  0.8024787E-01
       -1   -1    0    0    0  501  0.00000000000E+00  0.00000000000E+00  0.25400811921E+04  0.25400811921E+04  0.50400001928E-02 0. -1.
        1   -1    0    0  501    0  0.00000000000E+00  0.00000000000E+00 -0.14978949031E+04  0.14978949031E+04  0.50400001928E-02 0.  1.
    10030    2    1    2    0    0  0.00000000000E+00  0.00000000000E+00  0.10421862890E+04  0.40379760952E+04  0.39011663236E+04 0.  0.
        3    1    3    3  502    0 -0.13332220157E+04  0.11472946635E+04  0.13938770440E+04  0.22442502562E+04  0.10100000352E+00 0. -1.
       -3    1    3    3    0  502  0.13332220157E+04 -0.11472946635E+04 -0.35169075499E+03  0.17937258390E+04  0.10100000352E+00 0.  1.
</event>
<event>
 5   0  0.2904500E-09  0.3897673E+04  0.7818609E-02  0.8025513E-01
        1   -1    0    0  501    0  0.00000000000E+00  0.00000000000E+00  0.27074346847E+04  0.27074346847E+04  0.50400001928E-02 0. -1.
       -1   -1    0    0    0  501  0.00000000000E+00  0.00000000000E+00 -0.14027901774E+04  0.14027901774E+04  0.50400001928E-02 0.  1.
    10030    2    1    2    0    0  0.00000000000E+00  0.00000000000E+00  0.13046445074E+04  0.41102248621E+04  0.38976725268E+04 0.  0.
        3    1    3    3  502    0  0.71007927737E+02  0.97667887807E+03  0.24291461429E+04  0.26191018976E+04  0.10100000352E+00 0. -1.
       -3    1    3    3    0  502 -0.71007927737E+02 -0.97667887807E+03 -0.11245016355E+04  0.14911229644E+04  0.10100000352E+00 0.  1.
</event>
<event>
 5   0  0.2904500E-09  0.3900005E+04  0.7818609E-02  0.8025028E-01
       -1   -1    0    0    0  501  0.00000000000E+00  0.00000000000E+00  0.13972450094E+04  0.13972450094E+04  0.50400001928E-02 0. -1.
        1   -1    0    0  501    0  0.00000000000E+00  0.00000000000E+00 -0.27214340121E+04  0.27214340121E+04  0.50400001928E-02 0.  1.
    10030    2    1    2    0    0  0.00000000000E+00  0.00000000000E+00 -0.13241890027E+04  0.41186790215E+04  0.39000051753E+04 0.  0.
        5    1    3    3  502    0  0.99227531330E+03 -0.15044117509E+04 -0.14485817712E+04  0.23122016027E+04  0.46999998093E+01 0.  1.
       -5    1    3    3    0  502 -0.99227531330E+03  0.15044117509E+04  0.12439276847E+03  0.18064774188E+04  0.46999998093E+01 0. -1.
</event>
<event>
 5   0  0.6335942E-09  0.3891916E+04  0.7818609E-02  0.8026713E-01
        2   -1    0    0  501    0  0.00000000000E+00  0.00000000000E+00  0.23843100364E+04  0.23843100364E+04  0.25500000920E-02 0.  1.
       -2   -1    0    0    0  501  0.00000000000E+00  0.00000000000E+00 -0.15881962909E+04  0.15881962909E+04  0.25500000920E-02 0. -1.
    10030    2    1    2    0    0  0.00000000000E+00  0.00000000000E+00  0.79611374548E+03  0.39725063273E+04  0.38919159067E+04 0.  0.
        2    1    3    3  502    0 -0.12432606006E+04 -0.88776507907E+03 -0.83227786458E+03  0.17396868110E+04  0.25500000920E-02 0. -1.
       -2    1    3    3    0  502  0.12432606006E+04  0.88776507907E+03  0.16283916101E+04  0.22328195163E+04  0.25500000920E-02 0.  1.
</event>
<event>
 5   0  0.9368546E-09  0.3902708E+04  0.7818609E-02  0.8024466E-01
       -2   -1    0    0    0  501  0.00000000000E+00  0.00000000000E+00  0.19664125606E+04  0.19664125606E+04  0.25500000920E-02 0.  1.
        2   -1    0    0  501    0  0.00000000000E+00  0.00000000000E+00 -0.19364112068E+04  0.19364112068E+04  0.25500000920E-02 0. -1.
    10030    2    1    2    0    0  0.00000000000E+00  0.00000000000E+00  0.30001353767E+02  0.39028237675E+04  0.39027084542E+04 0.  0.
        5    1    3    3  502    0  0.18580619354E+04 -0.41842475173E+03 -0.40961497885E+03  0.19481478254E+04  0.46999998093E+01 0. -1.
       -5    1    3    3    0  502 -0.18580619354E+04  0.41842475173E+03  0.43961633262E+03  0.19546759421E+04  0.46999998093E+01 0.  1.
</event>
<event>
 5   0  0.2904500E-09  0.3900110E+04  0.7818609E-02  0.8025006E-01
        1   -1    0    0  501    0  0.00000000000E+00  0.00000000000E+00  0.18244678701E+04  0.18244678701E+04  0.50400001928E-02 0. -1.
       -1   -1    0    0    0  501  0.00000000000E+00  0.00000000000E+00 -0.20842864225E+04  0.20842864225E+04  0.50400001928E-02 0.  1.
    10030    2    1    2    0    0  0.00000000000E+00  0.00000000000E+00 -0.25981855244E+03  0.39087542926E+04  0.39001095420E+04 0.  0.
        4    1    3    3  502    0 -0.17727267397E+04 -0.65935576306E+03  0.34590813977E+03  0.19227491178E+04  0.12699999809E+01 0. -1.
       -4    1    3    3    0  502  0.17727267397E+04  0.65935576306E+03 -0.60572669221E+03  0.19860051748E+04  0.12699999809E+01 0.  1.
</event>
<event>
 5   0  0.6335942E-09  0.3899022E+04  0.7818609E-02  0.8025233E-01
        2   -1    0    0  501    0  0.00000000000E+00  0.00000000000E+00  0.16020393449E+04  0.16020393449E+04  0.25500000920E-02 0. -1.
       -2   -1    0    0    0  501  0.00000000000E+00  0.00000000000E+00 -0.23723465127E+04  0.23723465127E+04  0.25500000920E-02 0.  1.
    10030    2    1    2    0    0  0.00000000000E+00  0.00000000000E+00 -0.77030716784E+03  0.39743858577E+04  0.38990216481E+04 0.  0.
        2    1    3    3  502    0  0.11573097778E+04 -0.10348872252E+04  0.81671915738E+03  0.17542484638E+04  0.25500000920E-02 0. -1.
       -2    1    3    3    0  502 -0.11573097778E+04  0.10348872252E+04 -0.15870263252E+04  0.22201373939E+04  0.25500000920E-02 0.  1.
</event>
<event>
 5   0  0.2904500E-09  0.3901280E+04  0.7818609E-02  0.8024763E-01
       -1   -1    0    0    0  501  0.00000000000E+00  0.00000000000E+00  0.18851777471E+04  0.18851777471E+04  0.50400001928E-02 0. -1.
        1   -1    0    0  501    0  0.00000000000E+00  0.00000000000E+00 -0.20183756439E+04  0.20183756439E+04  0.50400001928E-02 0.  1.
    10030    2    1    2    0    0  0.00000000000E+00  0.00000000000E+00 -0.13319789673E+03  0.39035533910E+04  0.39012802254E+04 0.  0.
        5    1    3    3  502    0  0.36840172222E+03  0.15017264117E+04 -0.12564397256E+04  0.19923767010E+04  0.46999998093E+01 0.  1.
       -5    1    3    3    0  502 -0.36840172222E+03 -0.15017264117E+04  0.11232418289E+04  0.19111766901E+04  0.46999998093E+01 0. -1.
</event>
<event>
 5   0  0.6335942E-09  0.3900604E+04  0.7818609E-02  0.8024904E-01
        2   -1    0    0  501    0  0.00000000000E+00  0.00000000000E+00  0.25284103888E+04  0.25284103888E+04  0.25500000920E-02 0. -1.
       -2   -1    0    0    0  501  0.00000000000E+00  0.00000000000E+00 -0.15043752998E+04  0.15043752998E+04  0.25500000920E-02 0.  1.
    10030    2    1    2    0    0  0.00000000000E+00  0.00000000000E+00  0.10240350891E+04  0.40327856886E+04  0.39006041259E+04 0.  0.
        2    1    3    3  502    0  0.64297382286E+03 -0.11277038770E+04  0.20168643652E+04  0.23985147985E+04  0.25500000920E-02 0. -1.
       -2    1    3    3    0  502 -0.64297382286E+03  0.11277038770E+04 -0.99282927610E+03  0.16342708902E+04  0.25500000920E-02 0.  1.
</event>
<event>
 5   0  0.9078515E-09  0.3895790E+04  0.7818609E-02  0.8025905E-01
        2   -1    0    0  501    0  0.00000000000E+00  0.00000000000E+00  0.10569267089E+04  0.10569267089E+04  0.25500000920E-02 0. -1.
       -2   -1    0    0    0  501  0.00000000000E+00  0.00000000000E+00 -0.35899322934E+04  0.35899322934E+04  0.25500000920E-02 0.  1.
    10030    2    1    2    0    0  0.00000000000E+00  0.00000000000E+00 -0.25330055845E+04  0.46468590023E+04  0.38957902017E+04 0.  0.
        3    1    3    3  502    0 -0.17451101892E+04  0.41644564572E+03 -0.21713412253E+04  0.28166574650E+04  0.10100000352E+00 0.  1.
       -3    1    3    3    0  502  0.17451101892E+04 -0.41644564572E+03 -0.36166435919E+03  0.18302015373E+04  0.10100000352E+00 0. -1.
</event>
<event>
 5   0  0.2904500E-09  0.3900477E+04  0.7818609E-02  0.8024930E-01
       -1   -1    0    0    0  501  0.00000000000E+00  0.00000000000E+00  0.21577776889E+04  0.21577776889E+04  0.50400001928E-02 0.  1.
        1   -1    0    0  501    0  0.00000000000E+00  0.00000000000E+00 -0.17626609437E+04  0.17626609437E+04  0.50400001928E-02 0. -1.
    10030    2    1    2    0    0  0.00000000000E+00  0.00000000000E+00  0.39511674527E+03  0.39204386326E+04  0.39004771285E+04 0.  0.
        2    1    3    3  502    0 -0.24024488638E+01  0.79684480254E+03  0.19866856936E+04  0.21405343857E+04  0.25500000920E-02 0.  1.
       -2    1    3    3    0  502  0.24024488638E+01 -0.79684480254E+03 -0.15915689483E+04  0.17799042470E+04  0.25500000920E-02 0. -1.
</event>
<event>
 5   0  0.2904500E-09  0.3900938E+04  0.7818609E-02  0.8024834E-01
        1   -1    0    0  501    0  0.00000000000E+00  0.00000000000E+00  0.23145741855E+04  0.23145741855E+04  0.50400001928E-02 0. -1.
       -1   -1    0    0    0  501  0.00000000000E+00  0.00000000000E+00 -0.16436413142E+04  0.16436413142E+04  0.50400001928E-02 0.  1.
    10030    2    1    2    0    0  0.00000000000E+00  0.00000000000E+00  0.67093287125E+03  0.39582154997E+04  0.39009382236E+04 0.  0.
        5    1    3    3  502    0 -0.13903130147E+04  0.42251652608E+03 -0.98472037722E+03  0.17553309673E+04  0.46999998093E+01 0.  1.
       -5    1    3    3    0  502  0.13903130147E+04 -0.42251652608E+03  0.16556532485E+04  0.22028845323E+04  0.46999998093E+01 0. -1.
</event>
<event>
 5   0  0.9078515E-09  0.3902203E+04  0.7818609E-02  0.8024571E-01
       -2   -1    0    0    0  501  0.00000000000E+00  0.00000000000E+00  0.12432226497E+04  0.12432226497E+04  0.25500000920E-02 0.  1.
        2   -1    0    0  501    0  0.00000000000E+00  0.00000000000E+00 -0.30620399940E+04  0.30620399940E+04  0.25500000920E-02 0. -1.
    10030    2    1    2    0    0  0.00000000000E+00  0.00000000000E+00 -0.18188173444E+04  0.43052626437E+04  0.39022032109E+04 0.  0.
        3    1    3    3  502    0 -0.12499839009E+04 -0.60392607713E+03  0.60319015224E+03  0.15136131702E+04  0.10100000352E+00 0.  1.
       -3    1    3    3    0  502  0.12499839009E+04  0.60392607713E+03 -0.24220074966E+04  0.27916494735E+04  0.10100000352E+00 0. -1.
</event>
<event>
 5   0  0.9078515E-09  0.3901062E+04  0.7818609E-02  0.8024808E-01
       -2   -1    0    0    0  501  0.00000000000E+00  0.00000000000E+00  0.23214689138E+04  0.23214689138E+04  0.25500000920E-02 0.  1.
        2   -1    0    0  501    0  0.00000000000E+00  0.00000000000E+00 -0.16388640783E+04  0.16388640783E+04  0.25500000920E-02 0. -1.
    10030    2    1    2    0    0  0.00000000000E+00  0.00000000000E+00  0.68260483546E+03  0.39603329921E+04  0.39010624254E+04 0.  0.
        3    1    3    3  502    0  0.68934952187E+03  0.18183310491E+04  0.49540274329E+03  0.20067272998E+04  0.10100000352E+00 0. -1.
       -3    1    3    3    0  502 -0.68934952187E+03 -0.18183310491E+04  0.18720209217E+03  0.19536056923E+04  0.10100000352E+00 0.  1.
</event>
<event>
 5   0  0.6335942E-09  0.3898301E+04  0.7818609E-02  0.8025383E-01
       -2   -1    0    0    0  501  0.00000000000E+00  0.00000000000E+00  0.18626402929E+04  0.18626402929E+04  0.25500000920E-02 0. -1.
        2   -1    0    0  501    0  0.00000000000E+00  0.00000000000E+00 -0.20396784219E+04  0.20396784219E+04  0.25500000920E-02 0.  1.
    10030    2    1    2    0    0  0.00000000000E+00  0.00000000000E+00 -0.17703812901E+03  0.39023187148E+04  0.38983007647E+04 0.  0.
        2    1    3    3  502    0 -0.16609446217E+04  0.10198353269E+04 -0.10818830846E+03  0.19520517002E+04  0.25500000920E-02 0.  1.
       -2    1    3    3    0  502  0.16609446217E+04 -0.10198353269E+04 -0.68849820547E+02  0.19502670145E+04  0.25500000920E-02 0. -1.
</event>
<event>
 5   0  0.2929054E-09  0.3901061E+04  0.7818609E-02  0.8024809E-01
       -1   -1    0    0    0  501  0.00000000000E+00  0.00000000000E+00  0.22770283525E+04  0.22770283525E+04  0.50400001928E-02 0. -1.
        1   -1    0    0  501    0  0.00000000000E+00  0.00000000000E+00 -0.16708484805E+04  0.16708484805E+04  0.50400001928E-02 0.  1.
    10030    2    1    2    0    0  0.00000000000E+00  0.00000000000E+00  0.60617987199E+03  0.39478768330E+04  0.39010610674E+04 0.  0.
        1    1    3    3  502    0 -0.56670105376E+03  0.12118842290E+03  0.21878942186E+04  0.22633421814E+04  0.50400001928E-02 0. -1.
       -1    1    3    3    0  502  0.56670105376E+03 -0.12118842290E+03 -0.15817143466E+04  0.16845346516E+04  0.50400001928E-02 0.  1.
</event>
<event>
 5   0  0.9434114E-09  0.3901392E+04  0.7818609E-02  0.8024740E-01
       -2   -1    0    0    0  501  0.00000000000E+00  0.00000000000E+00  0.20674061751E+04  0.20674061751E+04  0.25500000920E-02 0.  1.
        2   -1    0    0  501    0  0.00000000000E+00  0.00000000000E+00 -0.18405747294E+04  0.18405747294E+04  0.25500000920E-02 0. -1.
    10030    2    1    2    0    0  0.00000000000E+00  0.00000000000E+00  0.22683144565E+03  0.39079809045E+04  0.39013923470E+04 0.  0.
        4    1    3    3  502    0  0.14332421292E+03  0.18200965991E+04  0.80154054094E+03  0.19939313709E+04  0.12699999809E+01 0.  1.
       -4    1    3    3    0  502 -0.14332421292E+03 -0.18200965991E+04 -0.57470909530E+03  0.19140495336E+04  0.12699999809E+01 0. -1.
</event>
<event>
 5   0  0.9277261E-09  0.3898626E+04  0.7818609E-02  0.8025315E-01
       -2   -1    0    0    0  501  0.00000000000E+00  0.00000000000E+00  0.18911254162E+04  0.18911254162E+04  0.25500000920E-02 0.  1.
        2   -1    0    0  501    0  0.00000000000E+00  0.00000000000E+00 -0.20092912074E+04  0.20092912074E+04  0.25500000920E-02 0. -1.
    10030    2    1    2    0    0  0.00000000000E+00  0.00000000000E+00 -0.11816579118E+03  0.39004166237E+04  0.38986262560E+04 0.  0.
        1    1    3    3  502    0 -0.55962930861E+03  0.12838348509E+04  0.12974176292E+04  0.19091122000E+04  0.50400001928E-02 0.  1.
       -1    1    3    3    0  502  0.55962930861E+03 -0.12838348509E+04 -0.14155834204E+04  0.19913044237E+04  0.50400001928E-02 0. -1.
</event>
<event>
 5   0  0.9368546E-09  0.3900318E+04  0.7818609E-02  0.8024963E-01
       -2   -1    0    0    0  501  0.00000000000E+00  0.00000000000E+00  0.15580043244E+04  0.15580043244E+04  0.25500000920E-02 0. -1.
        2   -1    0    0  501    0  0.00000000000E+00  0.00000000000E+00 -0.24410201260E+04  0.24410201260E+04  0.25500000920E-02 0.  1.
    10030    2    1    2    0    0  0.00000000000E+00  0.00000000000E+00 -0.88301580156E+03  0.39990244504E+04  0.39003178908E+04 0.  0.
        5    1    3    3  502    0  0.10885619533E+04  0.80096523296E+03 -0.18829986014E+04  0.23178046193E+04  0.46999998093E+01 0.  1.
       -5    1    3    3    0  502 -0.10885619533E+04 -0.80096523296E+03  0.99998279982E+03  0.16812198311E+04  0.46999998093E+01 0. -1.
</event>
<event>
 5   0  0.2904500E-09  0.3896513E+04  0.7818609E-02  0.8025755E-01
        1   -1    0    0  501    0  0.00000000000E+00  0.00000000000E+00  0.17709094896E+04  0.17709094896E+04  0.50400001928E-02 0.  1.
       -1   -1    0    0    0  501  0.00000000000E+00  0.00000000000E+00 -0.21433642476E+04  0.21433642476E+04  0.50400001928E-02 0. -1.
    10030    2    1    2    0    0  0.00000000000E+00  0.00000000000E+00 -0.37245475801E+03  0.39142737372E+04  0.38965133572E+04 0.  0.
        4    1    3    3  502    0 -0.66467412926E+03 -0.89255472227E+03  0.14202040757E+04  0.18042801501E+04  0.12699999809E+01 0.  1.
       -4    1    3    3    0  502  0.66467412926E+03  0.89255472227E+03 -0.17926588337E+04  0.21099935871E+04  0.12699999809E+01 0. -1.
</event>
<event>
 5   0  0.9434114E-09  0.3900426E+04  0.7818609E-02  0.8024941E-01
        2   -1    0    0  501    0  0.00000000000E+00  0.00000000000E+00  0.15113478921E+04  0.15113478921E+04  0.25500000920E-02 0. -1.
       -2   -1    0    0    0  501  0.00000000000E+00  0.00000000000E+00 -0.25165159124E+04  0.25165159124E+04  0.25500000920E-02 0.  1.
    10030    2    1    2    0    0  0.00000000000E+00  0.00000000000E+00 -0.10051680203E+04  0.40278638045E+04  0.39004261407E+04 0.  0.
        4    1    3    3  502    0 -0.89638623959E+03 -0.17117917989E+04 -0.23016588994E+03  0.19459489724E+04  0.12699999809E+01 0. -1.
       -4    1    3    3    0  502  0.89638623959E+03  0.17117917989E+04 -0.77500213035E+03  0.20819148321E+04  0.12699999809E+01 0.  1.
</event>
<event>
 5   0  0.2904500E-09  0.3898358E+04  0.7818609E-02  0.8025371E-01
        1   -1    0    0  501    0  0.00000000000E+00  0.00000000000E+00  0.16804319255E+04  0.16804319255E+04  0.50400001928E-02 0.  1.
       -1   -1    0    0    0  501  0.00000000000E+00  0.00000000000E+00 -0.22609057045E+04  0.22609057045E+04  0.50400001928E-02 0. -1.
    10030    2    1    2    0    0  0.00000000000E+00  0.00000000000E+00 -0.58047377900E+03  0.39413376299E+04  0.38983576677E+04 0.  0.
        5    1    3    3  502    0 -0.16050098170E+04 -0.10857531333E+04 -0.50317630012E+03  0.20020301841E+04  0.46999998093E+01 0. -1.
       -5    1    3    3    0  502  0.16050098170E+04  0.10857531333E+04 -0.77297478886E+02  0.19393074458E+04  0.46999998093E+01 0.  1.
</event>
<event>
 5   0  0.2904500E-09  0.3898456E+04  0.7818609E-02  0.8025350E-01
       -1   -1    0    0    0  501  0.00000000000E+00  0.00000000000E+00  0.15234810613E+04  0.15234810613E+04  0.50400001928E-02 0.  1.
        1   -1    0    0  501    0  0.00000000000E+00  0.00000000000E+00 -0.24939526692E+04  0.24939526692E+04  0.50400001928E-02 0. -1.
    10030    2    1    2    0    0  0.00000000000E+00  0.00000000000E+00 -0.97047160790E+03  0.40174337304E+04  0.38984559298E+04 0.  0.
        4    1    3    3  502    0  0.12838535639E+04  0.14642561984E+04 -0.57244633920E+03  0.20297838831E+04  0.12699999809E+01 0.  1.
       -4    1    3    3    0  502 -0.12838535639E+04 -0.14642561984E+04 -0.39802526870E+03  0.19876498473E+04  0.12699999809E+01 0. -1.
</event>
<event>
 5   0  0.9277261E-09  0.3898888E+04  0.7818609E-02  0.8025260E-01
       -2   -1    0    0    0  501  0.00000000000E+00  0.00000000000E+00  0.18580140884E+04  0.18580140884E+04  0.25500000920E-02 0.  1.
        2   -1    0    0  501    0  0.00000000000E+00  0.00000000000E+00 -0.20453734346E+04  0.20453734346E+04  0.25500000920E-02 0. -1.
    10030    2    1    2    0    0  0.00000000000E+00  0.00000000000E+00 -0.18735934620E+03  0.39033875231E+04  0.38988883840E+04 0.  0.
        1    1    3    3  502    0 -0.18935419084E+04 -0.33900533566E+03  0.22276588406E+03  0.19365046387E+04  0.50400001928E-02 0.  1.
       -1    1    3    3    0  502  0.18935419084E+04  0.33900533566E+03 -0.41012523025E+03  0.19668828844E+04  0.50400001928E-02 0. -1.
</event>
<event>
 5   0  0.2904500E-09  0.3901965E+04  0.7818609E-02  0.8024621E-01
        1   -1    0    0  501    0  0.00000000000E+00  0.00000000000E+00  0.23605830489E+04  0.23605830489E+04  0.50400001928E-02 0.  1.
       -1   -1    0    0    0  501  0.00000000000E+00  0.00000000000E+00 -0.16124545775E+04  0.16124545775E+04  0.50400001928E-02 0. -1.
    10030    2    1    2    0    0  0.00000000000E+00  0.00000000000E+00  0.74812847144E+03  0.39730376264E+04  0.39019651166E+04 0.  0.
        4    1    3    3  502    0  0.41777174261E+03  0.17793610037E+04  0.10688958982E+04  0.21173565747E+04  0.12699999809E+01 0.  1.
       -4    1    3    3    0  502 -0.41777174261E+03 -0.17793610037E+04 -0.32076742672E+03  0.18556810517E+04  0.12699999809E+01 0. -1.
</event>
<event>
 5   0  0.2929054E-09  0.3898947E+04  0.7818609E-02  0.8025248E-01
       -1   -1    0    0    0  501  0.00000000000E+00  0.00000000000E+00  0.13097650156E+04  0.13097650156E+04  0.50400001928E-02 0. -1.
        1   -1    0    0  501    0  0.00000000000E+00  0.00000000000E+00 -0.29016253886E+04  0.29016253886E+04  0.50400001928E-02 0.  1.
    10030    2    1    2    0    0  0.00000000000E+00  0.00000000000E+00 -0.15918603731E+04  0.42113904042E+04  0.38989472540E+04 0.  0.
        1    1    3    3  502    0 -0.19199363797E+03 -0.18824965787E+04 -0.13023195492E+04  0.22971049463E+04  0.50400001928E-02 0. -1.
       -1    1    3    3    0  502  0.19199363797E+03  0.18824965787E+04 -0.28954082387E+03  0.19142854580E+04  0.50400001928E-02 0.  1.
</event>
<event>
 5   0  0.2904500E-09  0.3900413E+04  0.7818609E-02  0.8024943E-01
        1   -1    0    0  501    0  0.00000000000E+00  0.00000000000E+00  0.21542130008E+04  0.21542130008E+04  0.50400001928E-02 0. -1.
       -1   -1    0    0    0  501  0.00000000000E+00  0.00000000000E+00 -0.17655197127E+04  0.17655197127E+04  0.50400001928E-02 0.  1.
    10030    2    1    2    0    0  0.00000000000E+00  0.00000000000E+00  0.38869328808E+03  0.39197327135E+04  0.39004130644E+04 0.  0.
        2    1    3    3  502    0 -0.16576594654E+04 -0.17802207139E+02  0.12266413816E+04  0.20622320192E+04  0.25500000920E-02 0. -1.
       -2    1    3    3    0  502  0.16576594654E+04  0.17802207139E+02 -0.83794809354E+03  0.18575006943E+04  0.25500000920E-02 0.  1.
</event>
<event>
 5   0  0.9277261E-09  0.3885327E+04  0.7818609E-02  0.8028088E-01
        2   -1    0    0  501    0  0.00000000000E+00  0.00000000000E+00  0.22841017904E+04  0.22841017904E+04  0.25500000920E-02 0. -1.
       -2   -1    0    0    0  501  0.00000000000E+00  0.00000000000E+00 -0.16522647862E+04  0.16522647862E+04  0.25500000920E-02 0.  1.
    10030    2    1    2    0    0  0.00000000000E+00  0.00000000000E+00  0.63183700420E+03  0.39363665766E+04  0.38853267334E+04 0.  0.
        1    1    3    3  502    0  0.20105634875E+03 -0.12480271313E+03  0.22694448370E+04  0.22817491626E+04  0.50400001928E-02 0. -1.
       -1    1    3    3    0  502 -0.20105634875E+03  0.12480271313E+03 -0.16376078328E+04  0.16546174140E+04  0.50400001928E-02 0.  1.
</event>
<event>
 5   0  0.2904500E-09  0.3901491E+04  0.7818609E-02  0.8024719E-01
       -1   -1    0    0    0  501  0.00000000000E+00  0.00000000000E+00  0.17264966622E+04  0.17264966622E+04  0.50400001928E-02 0.  1.
        1   -1    0    0  501    0  0.00000000000E+00  0.00000000000E+00 -0.22041216325E+04  0.22041216325E+04  0.50400001928E-02 0. -1.
    10030    2    1    2    0    0  0.00000000000E+00  0.00000000000E+00 -0.47762497026E+03  0.39306182947E+04  0.39014913259E+04 0.  0.
        5    1    3    3  502    0  0.71361740307E+03  0.11796640546E+04  0.11515373007E+04  0.17963622476E+04  0.46999998093E+01 0.  1.
       -5    1    3    3    0  502 -0.71361740307E+03 -0.11796640546E+04 -0.16291622709E+04  0.21342560471E+04  0.46999998093E+01 0. -1.
</event>
<event>
 5   0  0.9277261E-09  0.3900655E+04  0.7818609E-02  0.8024893E-01
       -2   -1    0    0    0  501  0.00000000000E+00  0.00000000000E+00  0.13846978648E+04  0.13846978648E+04  0.25500000920E-02 0.  1.
        2   -1    0    0  501    0  0.00000000000E+00  0.00000000000E+00 -0.27470095182E+04  0.27470095182E+04  0.25500000920E-02 0. -1.
    10030    2    1    2    0    0  0.00000000000E+00  0.00000000000E+00 -0.13623116534E+04  0.41317073829E+04  0.39006554394E+04 0.  0.
        1    1    3    3  502    0 -0.12749151027E+03  0.15491165885E+04 -0.19289686690E+04  0.24772840806E+04  0.50400001928E-02 0. -1.
       -1    1    3    3    0  502  0.12749151027E+03 -0.15491165885E+04  0.56665701559E+03  0.16544233023E+04  0.50400001928E-02 0.  1.
</event>
<event>
 5   0  0.6335942E-09  0.3901925E+04  0.7818609E-02  0.8024629E-01
       -2   -1    0    0    0  501  0.00000000000E+00  0.00000000000E+00  0.18601281092E+04  0.18601281092E+04  0.25500000920E-02 0.  1.
        2   -1    0    0  501    0  0.00000000000E+00  0.00000000000E+00 -0.20462322507E+04  0.20462322507E+04  0.25500000920E-02 0. -1.
    10030    2    1    2    0    0  0.00000000000E+00  0.00000000000E+00 -0.18610414147E+03  0.39063603599E+04  0.39019247186E+04 0.  0.
        2    1    3    3  502    0 -0.85279669308E+02 -0.15599072342E+04 -0.12629997763E+04  0.20089180262E+04  0.25500000920E-02 0. -1.
       -2    1    3    3    0  502  0.85279669308E+02  0.15599072342E+04  0.10768956348E+04  0.18974423336E+04  0.25500000920E-02 0.  1.
</event>
<event>
 5   0  0.9434114E-09  0.3899292E+04  0.7818609E-02  0.8025176E-01
        2   -1    0    0  501    0  0.00000000000E+00  0.00000000000E+00  0.16987041882E+04  0.16987041882E+04  0.25500000920E-02 0. -1.
       -2   -1    0    0    0  501  0.00000000000E+00  0.00000000000E+00 -0.22376585987E+04  0.22376585987E+04  0.25500000920E-02 0.  1.
    10030    2    1    2    0    0  0.00000000000E+00  0.00000000000E+00 -0.53895441046E+03  0.39363627869E+04  0.38992922606E+04 0.  0.
        4    1    3    3  502    0  0.97928582719E+03 -0.30434027715E+01 -0.19713600121E+04  0.22011978339E+04  0.12699999809E+01 0.  1.
       -4    1    3    3    0  502 -0.97928582719E+03  0.30434027715E+01  0.14324056017E+04  0.17351649530E+04  0.12699999809E+01 0. -1.
</event>
<event>
 5   0  0.9277261E-09  0.3899542E+04  0.7818609E-02  0.8025124E-01
       -2   -1    0    0    0  501  0.00000000000E+00  0.00000000000E+00  0.28838485944E+04  0.28838485944E+04  0.25500000920E-02 0. -1.
        2   -1    0    0  501    0  0.00000000000E+00  0.00000000000E+00 -0.13182409484E+04  0.13182409484E+04  0.25500000920E-02 0.  1.
    10030    2    1    2    0    0  0.00000000000E+00  0.00000000000E+00  0.15656076461E+04  0.42020895428E+04  0.38995421814E+04 0.  0.
        1    1    3    3  502    0 -0.11634381900E+04  0.13098454367E+04 -0.13934976250E+03  0.17574702974E+04  0.50400001928E-02 0.  1.
       -1    1    3    3    0  502  0.11634381900E+04 -0.13098454367E+04  0.17049574086E+04  0.24446192454E+04  0.50400001928E-02 0. -1.
</event>
<event>
 5   0  0.2929054E-09  0.3902548E+04  0.7818609E-02  0.8024500E-01
       -1   -1    0    0    0  501  0.00000000000E+00  0.00000000000E+00  0.28845123430E+04  0.28845123430E+04  0.50400001928E-02 0. -1.
        1   -1    0    0  501    0  0.00000000000E+00  0.00000000000E+00 -0.13199699076E+04  0.13199699076E+04  0.50400001928E-02 0.  1.
    10030    2    1    2    0    0  0.00000000000E+00  0.00000000000E+00  0.15645424354E+04  0.42044822506E+04  0.39025476247E+04 0.  0.
        1    1    3    3  502    0 -0.48787533839E+03 -0.71803757409E+03  0.26650076508E+04  0.28028317970E+04  0.50400001928E-02 0. -1.
       -1    1    3    3    0  502  0.48787533839E+03  0.71803757409E+03 -0.11004652154E+04  0.14016504535E+04  0.50400001928E-02 0.  1.
</event>
<event>
 5   0  0.2904500E-09  0.3898986E+04  0.7818609E-02  0.8025240E-01
       -1   -1    0    0    0  501  0.00000000000E+00  0.00000000000E+00  0.15834979981E+04  0.15834979981E+04  0.50400001928E-02 0.  1.
        1   -1    0    0  501    0  0.00000000000E+00  0.00000000000E+00 -0.24000801574E+04  0.24000801574E+04  0.50400001928E-02 0. -1.
    10030    2    1    2    0    0  0.00000000000E+00  0.00000000000E+00 -0.81658215932E+03  0.39835781555E+04  0.38989855729E+04 0.  0.
        5    1    3    3  502    0  0.19039182205E+04  0.39532075489E+03 -0.55029192598E+03  0.20208974203E+04  0.46999998093E+01 0.  1.
       -5    1    3    3    0  502 -0.19039182205E+04 -0.39532075489E+03 -0.26629023334E+03  0.19626807351E+04  0.46999998093E+01 0. -1.
</event>
<event>
 5   0  0.2904500E-09  0.3900487E+04  0.7818609E-02  0.8024928E-01
       -3   -1    0    0    0  501  0.00000000000E+00  0.00000000000E+00  0.19430026873E+04  0.19430026899E+04  0.10100000352E+00 0. -1.
        3   -1    0    0  501    0  0.00000000000E+00  0.00000000000E+00 -0.19575113141E+04  0.19575113167E+04  0.10100000352E+00 0.  1.
    10030    2    1    2    0    0  0.00000000000E+00  0.00000000000E+00 -0.14508626820E+02  0.39005140066E+04  0.39004870229E+04 0.  0.
        2    1    3    3  502    0 -0.15423601988E+04  0.89857516790E+03 -0.79284070419E+03  0.19531791258E+04  0.25500000920E-02 0.  1.
       -2    1    3    3    0  502  0.15423601988E+04 -0.89857516790E+03  0.77833207737E+03  0.19473348808E+04  0.25500000920E-02 0. -1.
</event>
<event>
 5   0  0.6335942E-09  0.3899862E+04  0.7818609E-02  0.8025058E-01
        2   -1    0    0  501    0  0.00000000000E+00  0.00000000000E+00  0.27092775728E+04  0.27092775728E+04  0.25500000920E-02 0. -1.
       -2   -1    0    0    0  501  0.00000000000E+00  0.00000000000E+00 -0.14034113304E+04  0.14034113304E+04  0.25500000920E-02 0.  1.
    10030    2    1    2    0    0  0.00000000000E+00  0.00000000000E+00  0.13058662424E+04  0.41126889032E+04  0.38998619683E+04 0.  0.
        2    1    3    3  502    0 -0.89829016584E+03  0.14601133524E+04 -0.32695447938E+03  0.17452092870E+04  0.25500000920E-02 0.  1.
       -2    1    3    3    0  502  0.89829016584E+03 -0.14601133524E+04  0.16328207218E+04  0.23674796162E+04  0.25500000920E-02 0. -1.
</event>
<event>
 5   0  0.6335942E-09  0.3901795E+04  0.7818609E-02  0.8024656E-01
        2   -1    0    0  501    0  0.00000000000E+00  0.00000000000E+00  0.20337025713E+04  0.20337025713E+04  0.25500000920E-02 0. -1.
       -2   -1    0    0    0  501  0.00000000000E+00  0.00000000000E+00 -0.18714640864E+04  0.18714640864E+04  0.25500000920E-02 0.  1.
    10030    2    1    2    0    0  0.00000000000E+00  0.00000000000E+00  0.16223848494E+03  0.39051666577E+04  0.39017951379E+04 0.  0.
        2    1    3    3  502    0  0.91357932772E+02 -0.28892690480E+03  0.20100043786E+04  0.20327180400E+04  0.25500000920E-02 0. -1.
       -2    1    3    3    0  502 -0.91357932772E+02  0.28892690480E+03 -0.18477658936E+04  0.18724486177E+04  0.25500000920E-02 0.  1.
</event>
<event>
 5   0  0.9368546E-09  0.3898954E+04  0.7818609E-02  0.8025247E-01
       -2   -1    0    0    0  501  0.00000000000E+00  0.00000000000E+00  0.16248875534E+04  0.16248875534E+04  0.25500000920E-02 0.  1.
        2   -1    0    0  501    0  0.00000000000E+00  0.00000000000E+00 -0.23389073700E+04  0.23389073700E+04  0.25500000920E-02 0. -1.
    10030    2    1    2    0    0  0.00000000000E+00  0.00000000000E+00 -0.71401981663E+03  0.39637949235E+04  0.38989544620E+04 0.  0.
        5    1    3    3  502    0  0.44144196281E+02 -0.17485937284E+04  0.51806641235E+03  0.18242652315E+04  0.46999998093E+01 0.  1.
       -5    1    3    3    0  502 -0.44144196281E+02  0.17485937284E+04 -0.12320862290E+04  0.21395296920E+04  0.46999998093E+01 0. -1.
</event>
<event>
 5   0  0.9368546E-09  0.3900007E+04  0.7818609E-02  0.8025028E-01
       -2   -1    0    0    0  501  0.00000000000E+00  0.00000000000E+00  0.24821311242E+04  0.24821311242E+04  0.25500000920E-02 0.  1.
        2   -1    0    0  501    0  0.00000000000E+00  0.00000000000E+00 -0.15319550521E+04  0.15319550521E+04  0.25500000920E-02 0. -1.
    10030    2    1    2    0    0  0.00000000000E+00  0.00000000000E+00  0.95017607208E+03  0.40140861763E+04  0.39000068285E+04 0.  0.
        5    1    3    3  502    0  0.14064142583E+04  0.76319051808E+03 -0.67197539934E+03  0.17355212071E+04  0.46999998093E+01 0. -1.
       -5    1    3    3    0  502 -0.14064142583E+04 -0.76319051808E+03  0.16221514714E+04  0.22785649692E+04  0.46999998093E+01 0.  1.
</event>
<event>
 5   0  0.9434114E-09  0.3900169E+04  0.7818609E-02  0.8024994E-01
       -2   -1    0    0    0  501  0.00000000000E+00  0.00000000000E+00  0.16836707183E+04  0.16836707183E+04  0.25500000920E-02 0.  1.
        2   -1    0    0  501    0  0.00000000000E+00  0.00000000000E+00 -0.22586545035E+04  0.22586545035E+04  0.25500000920E-02 0. -1.
    10030    2    1    2    0    0  0.00000000000E+00  0.00000000000E+00 -0.57498378512E+03  0.39423252218E+04  0.39001694580E+04 0.  0.
        4    1    3    3  502    0 -0.15313577732E+04 -0.26071577200E+03  0.90414803411E+03  0.17973632420E+04  0.12699999809E+01 0.  1.
       -4    1    3    3    0  502  0.15313577732E+04  0.26071577200E+03 -0.14791318192E+04  0.21449619798E+04  0.12699999809E+01 0. -1.
</event>
<event>
 5   0  0.2904500E-09  0.3905672E+04  0.7818609E-02  0.8023851E-01
       -1   -1    0    0    0  501  0.00000000000E+00  0.00000000000E+00  0.31275085988E+04  0.31275085988E+04  0.50400001928E-02 0.  1.
        1   -1    0    0  501    0  0.00000000000E+00  0.00000000000E+00 -0.12193630069E+04  0.12193630069E+04  0.50400001928E-02 0. -1.
    10030    2    1    2    0    0  0.00000000000E+00  0.00000000000E+00  0.19081455920E+04  0.43468716057E+04  0.39056719212E+04 0.  0.
        4    1    3    3  502    0  0.18663822939E+04  0.47774295307E+02  0.31675990129E+03  0.18936746548E+04  0.12699999809E+01 0. -1.
       -4    1    3    3    0  502 -0.18663822939E+04 -0.47774295307E+02  0.15913856907E+04  0.24531969509E+04  0.12699999809E+01 0.  1.
</event>
<event>
 5   0  0.2904500E-09  0.3900895E+04  0.7818609E-02  0.8024843E-01
        1   -1    0    0  501    0  0.00000000000E+00  0.00000000000E+00  0.19794909202E+04  0.19794909203E+04  0.50400001928E-02 0.  1.
       -1   -1    0    0    0  501  0.00000000000E+00  0.00000000000E+00 -0.19218301051E+04  0.19218301051E+04  0.50400001928E-02 0. -1.
    10030    2    1    2    0    0  0.00000000000E+00  0.00000000000E+00  0.57660815134E+02  0.39013210254E+04  0.39008948939E+04 0.  0.
        5    1    3    3  502    0 -0.15897041008E+04 -0.25428602156E+03  0.11300422596E+04  0.19669362236E+04  0.46999998093E+01 0.  1.
       -5    1    3    3    0  502  0.15897041008E+04  0.25428602156E+03 -0.10723814445E+04  0.19343848018E+04  0.46999998093E+01 0. -1.
</event>
<event>
 5   0  0.2929054E-09  0.3898673E+04  0.7818609E-02  0.8025305E-01
       -1   -1    0    0    0  501  0.00000000000E+00  0.00000000000E+00  0.21322798243E+04  0.21322798243E+04  0.50400001928E-02 0.  1.
        1   -1    0    0  501    0  0.00000000000E+00  0.00000000000E+00 -0.17820891084E+04  0.17820891084E+04  0.50400001928E-02 0. -1.
    10030    2    1    2    0    0  0.00000000000E+00  0.00000000000E+00  0.35019071592E+03  0.39143689327E+04  0.38986729285E+04 0.  0.
        1    1    3    3  502    0  0.10183453823E+04  0.16492944595E+04 -0.32408223631E+02  0.19386205984E+04  0.50400001928E-02 0. -1.
       -1    1    3    3    0  502 -0.10183453823E+04 -0.16492944595E+04  0.38259893955E+03  0.19757483342E+04  0.50400001928E-02 0.  1.
</event>
<event>
 5   0  0.2904500E-09  0.3909130E+04  0.7818609E-02  0.8023133E-01
       -1   -1    0    0    0  501  0.00000000000E+00  0.00000000000E+00  0.16181110504E+04  0.16181110504E+04  0.50400001928E-02 0. -1.
        1   -1    0    0  501    0  0.00000000000E+00  0.00000000000E+00 -0.23609782348E+04  0.23609782348E+04  0.50400001928E-02 0.  1.
    10030    2    1    2    0    0  0.00000000000E+00  0.00000000000E+00 -0.74286718440E+03  0.39790892852E+04  0.39091303234E+04 0.  0.
        3    1    3    3  502    0 -0.15312672660E+04 -0.74449049172E+02 -0.16055684665E+04  0.22199486958E+04  0.10100000352E+00 0.  1.
       -3    1    3    3    0  502  0.15312672660E+04  0.74449049172E+02  0.86270128213E+03  0.17591405894E+04  0.10100000352E+00 0. -1.
</event>
<event>
 5   0  0.9277261E-09  0.3899878E+04  0.7818609E-02  0.8025055E-01
        2   -1    0    0  501    0  0.00000000000E+00  0.00000000000E+00  0.21877777184E+04  0.21877777184E+04  0.25500000920E-02 0.  1.
       -2   -1    0    0    0  501  0.00000000000E+00  0.00000000000E+00 -0.17379563460E+04  0.17379563460E+04  0.25500000920E-02 0. -1.
    10030    2    1    2    0    0  0.00000000000E+00  0.00000000000E+00  0.44982137239E+03  0.39257340644E+04  0.38998780337E+04 0.  0.
        1    1    3    3  502    0 -0.10998043816E+04 -0.57684481129E+03  0.17381881050E+04  0.21362625078E+04  0.50400001928E-02 0.  1.
       -1    1    3    3    0  502  0.10998043816E+04  0.57684481129E+03 -0.12883667326E+04  0.17894715566E+04  0.50400001928E-02 0. -1.
</event>
<event>
 5   0  0.9434114E-09  0.3891995E+04  0.7818609E-02  0.8026696E-01
       -2   -1    0    0    0  501  0.00000000000E+00  0.00000000000E+00  0.19863514013E+04  0.19863514013E+04  0.25500000920E-02 0. -1.
        2   -1    0    0  501    0  0.00000000000E+00  0.00000000000E+00 -0.19064634467E+04  0.19064634467E+04  0.25500000920E-02 0.  1.
    10030    2    1    2    0    0  0.00000000000E+00  0.00000000000E+00  0.79887954598E+02  0.38928148481E+04  0.38919950355E+04 0.  0.
        4    1    3    3  502    0  0.78297886815E+03  0.14435438924E+04  0.10842088414E+04  0.19678377225E+04  0.12699999809E+01 0. -1.
       -4    1    3    3    0  502 -0.78297886815E+03 -0.14435438924E+04 -0.10043208868E+04  0.19249771256E+04  0.12699999809E+01 0.  1.
</event>
<event>
 5   0  0.2904500E-09  0.3907939E+04  0.7818609E-02  0.8023380E-01
       -1   -1    0    0    0  501  0.00000000000E+00  0.00000000000E+00  0.33467179540E+04  0.33467179540E+04  0.50400001928E-02 0.  1.
        1   -1    0    0  501    0  0.00000000000E+00  0.00000000000E+00 -0.11408181797E+04  0.11408181797E+04  0.50400001928E-02 0. -1.
    10030    2    1    2    0    0  0.00000000000E+00  0.00000000000E+00  0.22058997743E+04  0.44875361336E+04  0.39079389372E+04 0.  0.
        5    1    3    3  502    0 -0.17688774739E+04  0.82435415333E+03  0.12147987699E+04  0.22987486660E+04  0.46999998093E+01 0. -1.
       -5    1    3    3    0  502  0.17688774739E+04 -0.82435415333E+03  0.99110100437E+03  0.21887874677E+04  0.46999998093E+01 0.  1.
</event>
<event>
 5   0  0.6335942E-09  0.3895875E+04  0.7818609E-02  0.8025888E-01
       -2   -1    0    0    0  501  0.00000000000E+00  0.00000000000E+00  0.16844477250E+04  0.16844477250E+04  0.25500000920E-02 0.  1.
        2   -1    0    0  501    0  0.00000000000E+00  0.00000000000E+00 -0.22526441510E+04  0.22526441510E+04  0.25500000920E-02 0. -1.
    10030    2    1    2    0    0  0.00000000000E+00  0.00000000000E+00 -0.56819642599E+03  0.39370918761E+04  0.38958754167E+04 0.  0.
        2    1    3    3  502    0 -0.13847200979E+04  0.26382314410E+03 -0.16427203894E+04  0.21646206778E+04  0.25500000920E-02 0. -1.
       -2    1    3    3    0  502  0.13847200979E+04 -0.26382314410E+03  0.10745239634E+04  0.17724711983E+04  0.25500000920E-02 0.  1.
</event>
<event>
 5   0  0.2904500E-09  0.3902500E+04  0.7818609E-02  0.8024509E-01
       -1   -1    0    0    0  501  0.00000000000E+00  0.00000000000E+00  0.15793865718E+04  0.15793865718E+04  0.50400001928E-02 0. -1.
        1   -1    0    0  501    0  0.00000000000E+00  0.00000000000E+00 -0.24106685014E+04  0.24106685014E+04  0.50400001928E-02 0.  1.
    10030    2    1    2    0    0  0.00000000000E+00  0.00000000000E+00 -0.83128192964E+03  0.39900550732E+04  0.39025004600E+04 0.  0.
        2    1    3    3  502    0  0.10957728433E+04  0.19641173314E+03  0.12228360410E+04  0.16536697603E+04  0.25500000920E-02 0. -1.
       -2    1    3    3    0  502 -0.10957728433E+04 -0.19641173314E+03 -0.20541179706E+04  0.23363853129E+04  0.25500000920E-02 0.  1.
</event>
<event>
 5   0  0.9078515E-09  0.3898573E+04  0.7818609E-02  0.8025326E-01
       -2   -1    0    0    0  501  0.00000000000E+00  0.00000000000E+00  0.22715605342E+04  0.22715605342E+04  0.25500000920E-02 0.  1.
        2   -1    0    0  501    0  0.00000000000E+00  0.00000000000E+00 -0.16727348944E+04  0.16727348944E+04  0.25500000920E-02 0. -1.
    10030    2    1    2    0    0  0.00000000000E+00  0.00000000000E+00  0.59882563983E+03  0.39442954286E+04  0.38985733648E+04 0.  0.
        3    1    3    3  502    0 -0.44394857053E+03 -0.30786490108E+03  0.21943031208E+04  0.22598312606E+04  0.10100000352E+00 0.  1.
       -3    1    3    3    0  502  0.44394857053E+03  0.30786490108E+03 -0.15954774809E+04  0.16844641679E+04  0.10100000352E+00 0. -1.
</event>
<event>
 5   0  0.9078515E-09  0.3899212E+04  0.7818609E-02  0.8025193E-01
        2   -1    0    0  501    0  0.00000000000E+00  0.00000000000E+00  0.20522923550E+04  0.20522923550E+04  0.25500000920E-02 0. -1.
       -2   -1    0    0    0  501  0.00000000000E+00  0.00000000000E+00 -0.18520573279E+04  0.18520573279E+04  0.25500000920E-02 0.  1.
    10030    2    1    2    0    0  0.00000000000E+00  0.00000000000E+00  0.20023502706E+03  0.39043496829E+04  0.38992117640E+04 0.  0.
        3    1    3    3  502    0 -0.14292366940E+04 -0.10497060222E+04  0.91134727011E+03  0.19937788538E+04  0.10100000352E+00 0. -1.
       -3    1    3    3    0  502  0.14292366940E+04  0.10497060222E+04 -0.71111224305E+03  0.19105708291E+04  0.10100000352E+00 0.  1.
</event>
<event>
 5   0  0.9078515E-09  0.3899842E+04  0.7818609E-02  0.8025062E-01
       -2   -1    0    0    0  501  0.00000000000E+00  0.00000000000E+00  0.20696665912E+04  0.20696665912E+04  0.25500000920E-02 0. -1.
        2   -1    0    0  501    0  0.00000000000E+00  0.00000000000E+00 -0.18371031841E+04  0.18371031841E+04  0.25500000920E-02 0.  1.
    10030    2    1    2    0    0  0.00000000000E+00  0.00000000000E+00  0.23256340712E+03  0.39067697753E+04  0.38998415787E+04 0.  0.
        3    1    3    3  502    0  0.18216883431E+04  0.91059886283E+02  0.80696339940E+03  0.19945000026E+04  0.10100000352E+00 0. -1.
       -3    1    3    3    0  502 -0.18216883431E+04 -0.91059886283E+02 -0.57439999228E+03  0.19122697727E+04  0.10100000352E+00 0.  1.
</event>
<event>
 5   0  0.9078515E-09  0.3899968E+04  0.7818609E-02  0.8025036E-01
       -2   -1    0    0    0  501  0.00000000000E+00  0.00000000000E+00  0.28928742465E+04  0.28928742465E+04  0.25500000920E-02 0. -1.
        2   -1    0    0  501    0  0.00000000000E+00  0.00000000000E+00 -0.13144149656E+04  0.13144149656E+04  0.25500000920E-02 0.  1.
    10030    2    1    2    0    0  0.00000000000E+00  0.00000000000E+00  0.15784592809E+04  0.42072892121E+04  0.38999677964E+04 0.  0.
        3    1    3    3  502    0 -0.11711456591E+03  0.73771724019E+03 -0.11539586140E+04  0.13746137788E+04  0.10100000352E+00 0.  1.
       -3    1    3    3    0  502  0.11711456591E+03 -0.73771724019E+03  0.27324178948E+04  0.28326754333E+04  0.10100000352E+00 0. -1.
</event>
<event>
 5   0  0.6335942E-09  0.3899751E+04  0.7818609E-02  0.8025081E-01
       -2   -1    0    0    0  501  0.00000000000E+00  0.00000000000E+00  0.13809102532E+04  0.13809102532E+04  0.25500000920E-02 0. -1.
        2   -1    0    0  501    0  0.00000000000E+00  0.00000000000E+00 -0.27532674551E+04  0.27532674551E+04  0.25500000920E-02 0.  1.
    10030    2    1    2    0    0  0.00000000000E+00  0.00000000000E+00 -0.13723572019E+04  0.41341777083E+04  0.38997514067E+04 0.  0.
        2    1    3    3  502    0  0.38491824943E+03 -0.96168405964E+01 -0.27125650313E+04  0.27397561190E+04  0.25500000920E-02 0.  1.
       -2    1    3    3    0  502 -0.38491824943E+03  0.96168405964E+01  0.13402078295E+04  0.13944215892E+04  0.25500000920E-02 0. -1.
</event>
<event>
 5   0  0.9368546E-09  0.3901549E+04  0.7818609E-02  0.8024707E-01
       -2   -1    0    0    0  501  0.00000000000E+00  0.00000000000E+00  0.14057911146E+04  0.14057911146E+04  0.25500000920E-02 0.  1.
        2   -1    0    0  501    0  0.00000000000E+00  0.00000000000E+00 -0.27070314144E+04  0.27070314144E+04  0.25500000920E-02 0. -1.
    10030    2    1    2    0    0  0.00000000000E+00  0.00000000000E+00 -0.13012402998E+04  0.41128225289E+04  0.39015487741E+04 0.  0.
        5    1    3    3  502    0  0.10834467071E+04 -0.12876602869E+04 -0.16907490266E+04  0.23854936894E+04  0.46999998093E+01 0.  1.
       -5    1    3    3    0  502 -0.10834467071E+04  0.12876602869E+04  0.38950872675E+03  0.17273288395E+04  0.46999998093E+01 0. -1.
</event>
<event>
 5   0  0.6335942E-09  0.3897572E+04  0.7818609E-02  0.8025534E-01
       -2   -1    0    0    0  501  0.00000000000E+00  0.00000000000E+00  0.18587580234E+04  0.18587580234E+04  0.25500000920E-02 0.  1.
        2   -1    0    0  501    0  0.00000000000E+00  0.00000000000E+00 -0.20431742505E+04  0.20431742505E+04  0.25500000920E-02 0. -1.
    10030    2    1    2    0    0  0.00000000000E+00  0.00000000000E+00 -0.18441622713E+03  0.39019322739E+04  0.38975718243E+04 0.  0.
        2    1    3    3  502    0 -0.14117777741E+04 -0.13333150891E+04 -0.25646763660E+03  0.19587295012E+04  0.25500000920E-02 0. -1.
       -2    1    3    3    0  502  0.14117777741E+04  0.13333150891E+04  0.72051409476E+02  0.19432027727E+04  0.25500000920E-02 0.  1.
</event>
<event>
 5   0  0.9434114E-09  0.3900141E+04  0.7818609E-02  0.8025000E-01
       -2   -1    0    0    0  501  0.00000000000E+00  0.00000000000E+00  0.16396694996E+04  0.16396694996E+04  0.25500000920E-02 0. -1.
        2   -1    0    0  501    0  0.00000000000E+00  0.00000000000E+00 -0.23192327429E+04  0.23192327429E+04  0.25500000920E-02 0.  1.
    10030    2    1    2    0    0  0.00000000000E+00  0.00000000000E+00 -0.67956324329E+03  0.39589022426E+04  0.39001411211E+04 0.  0.
        4    1    3    3  502    0 -0.88475726017E+03  0.38219386457E+03  0.13810197246E+04  0.16840678882E+04  0.12699999809E+01 0. -1.
       -4    1    3    3    0  502  0.88475726017E+03 -0.38219386457E+03 -0.20605829678E+04  0.22748343544E+04  0.12699999809E+01 0.  1.
</event>
<event>
 5   0  0.9434114E-09  0.3901951E+04  0.7818609E-02  0.8024624E-01
       -2   -1    0    0    0  501  0.00000000000E+00  0.00000000000E+00  0.28904510077E+04  0.28904510077E+04  0.25500000920E-02 0.  1.
        2   -1    0    0  501    0  0.00000000000E+00  0.00000000000E+00 -0.13168549637E+04  0.13168549637E+04  0.25500000920E-02 0. -1.
    10030    2    1    2    0    0  0.00000000000E+00  0.00000000000E+00  0.15735960440E+04  0.42073059714E+04  0.39019506695E+04 0.  0.
        4    1    3    3  502    0  0.40680165375E+03  0.38475274418E+03  0.28019508713E+04  0.28573506187E+04  0.12699999809E+01 0.  1.
       -4    1    3    3    0  502 -0.40680165375E+03 -0.38475274418E+03 -0.12283548273E+04  0.13499553527E+04  0.12699999809E+01 0. -1.
</event>
<event>
 5   0  0.2929054E-09  0.3898533E+04  0.7818609E-02  0.8025334E-01
        1   -1    0    0  501    0  0.00000000000E+00  0.00000000000E+00  0.28676526390E+04  0.28676526390E+04  0.50400001928E-02 0. -1.
       -1   -1    0    0    0  501  0.00000000000E+00  0.00000000000E+00 -0.13250000395E+04  0.13250000395E+04  0.50400001928E-02 0.  1.
    10030    2    1    2    0    0  0.00000000000E+00  0.00000000000E+00  0.15426525996E+04  0.41926526785E+04  0.38985329856E+04 0.  0.
        1    1    3    3  502    0  0.84806190780E+03 -0.88298789029E+02 -0.11138115034E+04  0.14027051510E+04  0.50400001928E-02 0.  1.
       -1    1    3    3    0  502 -0.84806190780E+03  0.88298789029E+02  0.26564641030E+04  0.27899475275E+04  0.50400001928E-02 0. -1.
</event>
<event>
 5   0  0.2904500E-09  0.3899727E+04  0.7818609E-02  0.8025086E-01
        1   -1    0    0  501    0  0.00000000000E+00  0.00000000000E+00  0.14612677874E+04  0.14612677874E+04  0.50400001928E-02 0. -1.
       -1   -1    0    0    0  501  0.00000000000E+00  0.00000000000E+00 -0.26018277614E+04  0.26018277614E+04  0.50400001928E-02 0.  1.
    10030    2    1    2    0    0  0.00000000000E+00  0.00000000000E+00 -0.11405599739E+04  0.40630955488E+04  0.38997267064E+04 0.  0.
        5    1    3    3  502    0  0.17132067773E+04  0.91310261018E+03 -0.38069230781E+03  0.19783282240E+04  0.46999998093E+01 0. -1.
       -5    1    3    3    0  502 -0.17132067773E+04 -0.91310261018E+03 -0.75986766612E+03  0.20847673248E+04  0.46999998093E+01 0.  1.
</event>
<event>
 5   0  0.9368546E-09  0.3899943E+04  0.7818609E-02  0.8025041E-01
        2   -1    0    0  501    0  0.00000000000E+00  0.00000000000E+00  0.29754991669E+04  0.29754991669E+04  0.25500000920E-02 0. -1.
       -2   -1    0    0    0  501  0.00000000000E+00  0.00000000000E+00 -0.12778991874E+04  0.12778991874E+04  0.25500000920E-02 0.  1.
    10030    2    1    2    0    0  0.00000000000E+00  0.00000000000E+00  0.16975999795E+04  0.42533983543E+04  0.38999425470E+04 0.  0.
        5    1    3    3  502    0 -0.16231658526E+04 -0.91877132353E+03  0.14691742227E+04  0.23743005531E+04  0.46999998093E+01 0. -1.
       -5    1    3    3    0  502  0.16231658526E+04  0.91877132353E+03  0.22842575679E+03  0.18790978012E+04  0.46999998093E+01 0.  1.
</event>
<event>
 5   0  0.2904500E-09  0.3899697E+04  0.7818609E-02  0.8025092E-01
       -1   -1    0    0    0  501  0.00000000000E+00  0.00000000000E+00  0.32557389487E+04  0.32557389487E+04  0.50400001928E-02 0.  1.
        1   -1    0    0  501    0  0.00000000000E+00  0.00000000000E+00 -0.11677560915E+04  0.11677560915E+04  0.50400001928E-02 0. -1.
    10030    2    1    2    0    0  0.00000000000E+00  0.00000000000E+00  0.20879828573E+04  0.44234950402E+04  0.38996969060E+04 0.  0.
        5    1    3    3  502    0 -0.68603839613E+03  0.15851327170E+03 -0.10185061912E+04  0.12382051889E+04  0.46999998093E+01 0. -1.
       -5    1    3    3    0  502  0.68603839613E+03 -0.15851327170E+03  0.31064890485E+04  0.31852898513E+04  0.46999998093E+01 0.  1.
</event>
<event>
 5   0  0.9277261E-09  0.3897177E+04  0.7818609E-02  0.8025617E-01
        2   -1    0    0  501    0  0.00000000000E+00  0.00000000000E+00  0.26218470624E+04  0.26218470624E+04  0.25500000920E-02 0. -1.
       -2   -1    0    0    0  501  0.00000000000E+00  0.00000000000E+00 -0.14482146231E+04  0.14482146231E+04  0.25500000920E-02 0.  1.
    10030    2    1    2    0    0  0.00000000000E+00  0.00000000000E+00  0.11736324394E+04  0.40700616855E+04  0.38971770580E+04 0.  0.
        1    1    3    3  502    0 -0.64786088208E+03 -0.98705171492E+03  0.22057458079E+04  0.25018611831E+04  0.50400001928E-02 0. -1.
       -1    1    3    3    0  502  0.64786088208E+03  0.98705171492E+03 -0.10321133685E+04  0.15682005025E+04  0.50400001928E-02 0.  1.
</event>
<event>
 5   0  0.6335942E-09  0.3899871E+04  0.7818609E-02  0.8025056E-01
       -2   -1    0    0    0  501  0.00000000000E+00  0.00000000000E+00  0.27720242794E+04  0.27720242794E+04  0.25500000920E-02 0.  1.
        2   -1    0    0  501    0  0.00000000000E+00  0.00000000000E+00 -0.13716502560E+04  0.13716502560E+04  0.25500000920E-02 0. -1.
    10030    2    1    2    0    0  0.00000000000E+00  0.00000000000E+00  0.14003740235E+04  0.41436745354E+04  0.38998706709E+04 0.  0.
        2    1    3    3  502    0 -0.10799497544E+04 -0.28981778092E+03  0.23975414197E+04  0.26454660605E+04  0.25500000920E-02 0.  1.
       -2    1    3    3    0  502  0.10799497544E+04  0.28981778092E+03 -0.99716739619E+03  0.14982084749E+04  0.25500000920E-02 0. -1.
</event>
<event>
 5   0  0.2904500E-09  0.3901409E+04  0.7818609E-02  0.8024736E-01
        1   -1    0    0  501    0  0.00000000000E+00  0.00000000000E+00  0.12547601920E+04  0.12547601920E+04  0.50400001928E-02 0. -1.
       -1   -1    0    0    0  501  0.00000000000E+00  0.00000000000E+00 -0.30326501721E+04  0.30326501721E+04  0.50400001928E-02 0.  1.
    10030    2    1    2    0    0  0.00000000000E+00  0.00000000000E+00 -0.17778899801E+04  0.42874103640E+04  0.39014093413E+04 0.  0.
        4    1    3    3  502    0  0.37367559859E+03 -0.23454542963E+03 -0.29771029519E+04  0.30096160238E+04  0.12699999809E+01 0.  1.
       -4    1    3    3    0  502 -0.37367559859E+03  0.23454542963E+03  0.11992129717E+04  0.12777943403E+04  0.12699999809E+01 0. -1.
</event>
<event>
 5   0  0.2904500E-09  0.3899515E+04  0.7818609E-02  0.8025130E-01
       -1   -1    0    0    0  501  0.00000000000E+00  0.00000000000E+00  0.18537667723E+04  0.18537667723E+04  0.50400001928E-02 0.  1.
        1   -1    0    0  501    0  0.00000000000E+00  0.00000000000E+00 -0.20507188453E+04  0.20507188453E+04  0.50400001928E-02 0. -1.
    10030    2    1    2    0    0  0.00000000000E+00  0.00000000000E+00 -0.19695207299E+03  0.39044856175E+04  0.38995150748E+04 0.  0.
        2    1    3    3  502    0  0.80152620214E+03  0.17457504486E+04  0.23581412899E+03  0.19353803722E+04  0.25500000920E-02 0.  1.
       -2    1    3    3    0  502 -0.80152620214E+03 -0.17457504486E+04 -0.43276620198E+03  0.19691052453E+04  0.25500000920E-02 0. -1.
</event>
<event>
 5   0  0.2904500E-09  0.3900407E+04  0.7818609E-02  0.8024945E-01
       -1   -1    0    0    0  501  0.00000000000E+00  0.00000000000E+00  0.15155459078E+04  0.15155459078E+04  0.50400001928E-02 0.  1.
        1   -1    0    0  501    0  0.00000000000E+00  0.00000000000E+00 -0.25095206121E+04  0.25095206121E+04  0.50400001928E-02 0. -1.
    10030    2    1    2    0    0  0.00000000000E+00  0.00000000000E+00 -0.99397470434E+03  0.40250665199E+04  0.39004070014E+04 0.  0.
        2    1    3    3  502    0 -0.25311286394E+03  0.12035156772E+04 -0.20588922882E+04  0.23982396798E+04  0.25500000920E-02 0. -1.
       -2    1    3    3    0  502  0.25311286394E+03 -0.12035156772E+04  0.10649175839E+04  0.16268268401E+04  0.25500000920E-02 0.  1.
</event>
<event>
 5   0  0.6335942E-09  0.3898571E+04  0.7818609E-02  0.8025326E-01
        2   -1    0    0  501    0  0.00000000000E+00  0.00000000000E+00  0.15662007818E+04  0.15662007818E+04  0.25500000920E-02 0.  1.
       -2   -1    0    0    0  501  0.00000000000E+00  0.00000000000E+00 -0.24260707189E+04  0.24260707189E+04  0.25500000920E-02 0. -1.
    10030    2    1    2    0    0  0.00000000000E+00  0.00000000000E+00 -0.85986993709E+03  0.39922715008E+04  0.38985709468E+04 0.  0.
        2    1    3    3  502    0 -0.60156935988E+03  0.19355835479E+03 -0.23182623397E+04  0.24028505586E+04  0.25500000920E-02 0. -1.
       -2    1    3    3    0  502  0.60156935988E+03 -0.19355835479E+03  0.14583924026E+04  0.15894209422E+04  0.25500000920E-02 0.  1.
</event>
<event>
 5   0  0.2904500E-09  0.3899884E+04  0.7818609E-02  0.8025053E-01
        1   -1    0    0  501    0  0.00000000000E+00  0.00000000000E+00  0.17699061970E+04  0.17699061970E+04  0.50400001928E-02 0.  1.
       -1   -1    0    0    0  501  0.00000000000E+00  0.00000000000E+00 -0.21482912840E+04  0.21482912840E+04  0.50400001928E-02 0. -1.
    10030    2    1    2    0    0  0.00000000000E+00  0.00000000000E+00 -0.37838508706E+03  0.39181974810E+04  0.38998841298E+04 0.  0.
        4    1    3    3  502    0  0.12746751843E+04 -0.12330156280E+04 -0.10036459398E+04  0.20377514936E+04  0.12699999809E+01 0. -1.
       -4    1    3    3    0  502 -0.12746751843E+04  0.12330156280E+04  0.62526085272E+03  0.18804459873E+04  0.12699999809E+01 0.  1.
</event>
<event>
 5   0  0.2904500E-09  0.3894730E+04  0.7818609E-02  0.8026126E-01
        1   -1    0    0  501    0  0.00000000000E+00  0.00000000000E+00  0.19754592671E+04  0.19754592671E+04  0.50400001928E-02 0. -1.
       -1   -1    0    0    0  501  0.00000000000E+00  0.00000000000E+00 -0.19196703756E+04  0.19196703756E+04  0.50400001928E-02 0.  1.
    10030    2    1    2    0    0  0.00000000000E+00  0.00000000000E+00  0.55788891475E+02  0.38951296427E+04  0.38947300976E+04 0.  0.
        2    1    3    3  502    0 -0.11903564942E+04 -0.13639745736E+04  0.74550231352E+03  0.19578429253E+04  0.25500000920E-02 0. -1.
       -2    1    3    3    0  502  0.11903564942E+04  0.13639745736E+04 -0.68971342204E+03  0.19372867174E+04  0.25500000920E-02 0.  1.
</event>
<event>
 5   0  0.2904500E-09  0.3896098E+04  0.7818609E-02  0.8025841E-01
        1   -1    0    0  501    0  0.00000000000E+00  0.00000000000E+00  0.18989172071E+04  0.18989172071E+04  0.50400001928E-02 0.  1.
       -1   -1    0    0    0  501  0.00000000000E+00  0.00000000000E+00 -0.19984515899E+04  0.19984515899E+04  0.50400001928E-02 0. -1.
    10030    2    1    2    0    0  0.00000000000E+00  0.00000000000E+00 -0.99534382795E+02  0.38973687971E+04  0.38960975921E+04 0.  0.
        3    1    3    3  502    0 -0.11966025293E+04  0.14334634843E+04  0.50558863110E+03  0.19345012401E+04  0.10100000352E+00 0.  1.
       -3    1    3    3    0  502  0.11966025293E+04 -0.14334634843E+04 -0.60512301389E+03  0.19628675569E+04  0.10100000352E+00 0. -1.
</event>
<event>
 5   0  0.2904500E-09  0.3898868E+04  0.7818609E-02  0.8025265E-01
        1   -1    0    0  501    0  0.00000000000E+00  0.00000000000E+00  0.26774625964E+04  0.26774625964E+04  0.50400001928E-02 0. -1.
       -1   -1    0    0    0  501  0.00000000000E+00  0.00000000000E+00 -0.14193636973E+04  0.14193636973E+04  0.50400001928E-02 0.  1.
    10030    2    1    2    0    0  0.00000000000E+00  0.00000000000E+00  0.12580988991E+04  0.40968262937E+04  0.38988681487E+04 0.  0.
        4    1    3    3  502    0  0.18544215079E+04  0.28041245268E+03  0.11878211002E+04  0.22200069485E+04  0.12699999809E+01 0.  1.
       -4    1    3    3    0  502 -0.18544215079E+04 -0.28041245268E+03  0.70277798890E+02  0.18768193452E+04  0.12699999809E+01 0. -1.
</event>
<event>
 5   0  0.9434114E-09  0.3900457E+04  0.7818609E-02  0.8024934E-01
        2   -1    0    0  501    0  0.00000000000E+00  0.00000000000E+00  0.27019300400E+04  0.27019300400E+04  0.25500000920E-02 0. -1.
       -2   -1    0    0    0  501  0.00000000000E+00  0.00000000000E+00 -0.14076568993E+04  0.14076568993E+04  0.25500000920E-02 0.  1.
    10030    2    1    2    0    0  0.00000000000E+00  0.00000000000E+00  0.12942731407E+04  0.41095869393E+04  0.39004566206E+04 0.  0.
        4    1    3    3  502    0  0.18650753482E+04 -0.25872919038E+03  0.11202572561E+03  0.18862656824E+04  0.12699999809E+01 0.  1.
       -4    1    3    3    0  502 -0.18650753482E+04  0.25872919038E+03  0.11822474151E+04  0.22233212570E+04  0.12699999809E+01 0. -1.
</event>
<event>
 5   0  0.6335942E-09  0.3903593E+04  0.7818609E-02  0.8024282E-01
        2   -1    0    0  501    0  0.00000000000E+00  0.00000000000E+00  0.28529110634E+04  0.28529110634E+04  0.25500000920E-02 0.  1.
       -2   -1    0    0    0  501  0.00000000000E+00  0.00000000000E+00 -0.13353063462E+04  0.13353063462E+04  0.25500000920E-02 0. -1.
    10030    2    1    2    0    0  0.00000000000E+00  0.00000000000E+00  0.15176047173E+04  0.41882174096E+04  0.39035933436E+04 0.  0.
        2    1    3    3  502    0 -0.14840183037E+04 -0.61847083920E+03  0.19461513797E+04  0.25243457960E+04  0.25500000920E-02 0.  1.
       -2    1    3    3    0  502  0.14840183037E+04  0.61847083920E+03 -0.42854666243E+03  0.16638716136E+04  0.25500000920E-02 0. -1.
</event>
<event>
 5   0  0.9078515E-09  0.3896606E+04  0.7818609E-02  0.8025735E-01
        2   -1    0    0  501    0  0.00000000000E+00  0.00000000000E+00  0.28205478806E+04  0.28205478806E+04  0.25500000920E-02 0.  1.
       -2   -1    0    0    0  501  0.00000000000E+00  0.00000000000E+00 -0.13457971091E+04  0.13457971091E+04  0.25500000920E-02 0. -1.
    10030    2    1    2    0    0  0.00000000000E+00  0.00000000000E+00  0.14747507715E+04  0.41663449897E+04  0.38966063101E+04 0.  0.
        3    1    3    3  502    0 -0.17265764276E+04 -0.26402676800E+03  0.16603262233E+04  0.24098671068E+04  0.10100000352E+00 0.  1.
       -3    1    3    3    0  502  0.17265764276E+04  0.26402676800E+03 -0.18557545179E+03  0.17564778829E+04  0.10100000352E+00 0. -1.
</event>
<event>
 5   0  0.9078515E-09  0.3903320E+04  0.7818609E-02  0.8024339E-01
        2   -1    0    0  501    0  0.00000000000E+00  0.00000000000E+00  0.19268672031E+04  0.19268672031E+04  0.25500000920E-02 0. -1.
       -2   -1    0    0    0  501  0.00000000000E+00  0.00000000000E+00 -0.19767714883E+04  0.19767714883E+04  0.25500000920E-02 0.  1.
    10030    2    1    2    0    0  0.00000000000E+00  0.00000000000E+00 -0.49904285226E+02  0.39036386914E+04  0.39033196891E+04 0.  0.
        3    1    3    3  502    0 -0.71268365907E+02  0.73852632129E+03 -0.18302245478E+04  0.19748980259E+04  0.10100000352E+00 0.  1.
       -3    1    3    3    0  502  0.71268365907E+02 -0.73852632129E+03  0.17803202626E+04  0.19287406655E+04  0.10100000352E+00 0. -1.
</event>
<event>
 5   0  0.9434114E-09  0.3892861E+04  0.7818609E-02  0.8026516E-01
       -2   -1    0    0    0  501  0.00000000000E+00  0.00000000000E+00  0.14389039550E+04  0.14389039550E+04  0.25500000920E-02 0.  1.
        2   -1    0    0  501    0  0.00000000000E+00  0.00000000000E+00 -0.26329700347E+04  0.26329700347E+04  0.25500000920E-02 0. -1.
    10030    2    1    2    0    0  0.00000000000E+00  0.00000000000E+00 -0.11940660798E+04  0.40718739897E+04  0.38928606429E+04 0.  0.
        4    1    3    3  502    0 -0.11761667905E+04  0.87060147430E+00  0.10251613811E+04  0.15602328503E+04  0.12699999809E+01 0.  1.
       -4    1    3    3    0  502  0.11761667905E+04 -0.87060147430E+00 -0.22192274609E+04  0.25116411394E+04  0.12699999809E+01 0. -1.
</event>
<event>
 5   0  0.2904500E-09  0.3899846E+04  0.7818609E-02  0.8025061E-01
       -1   -1    0    0    0  501  0.00000000000E+00  0.00000000000E+00  0.18869928303E+04  0.18869928303E+04  0.50400001928E-02 0.  1.
        1   -1    0    0  501    0  0.00000000000E+00  0.00000000000E+00 -0.20149523230E+04  0.20149523230E+04  0.50400001928E-02 0. -1.
    10030    2    1    2    0    0  0.00000000000E+00  0.00000000000E+00 -0.12795949269E+03  0.39019451533E+04  0.38998464518E+04 0.  0.
        3    1    3    3  502    0  0.12445435547E+04  0.11054824190E+04  0.95205703411E+03  0.19176529000E+04  0.10100000352E+00 0.  1.
       -3    1    3    3    0  502 -0.12445435547E+04 -0.11054824190E+04 -0.10800165268E+04  0.19842922534E+04  0.10100000352E+00 0. -1.
</event>
<event>
 5   0  0.2929054E-09  0.3900380E+04  0.7818609E-02  0.8024950E-01
       -1   -1    0    0    0  501  0.00000000000E+00  0.00000000000E+00  0.19922386384E+04  0.19922386384E+04  0.50400001928E-02 0. -1.
        1   -1    0    0  501    0  0.00000000000E+00  0.00000000000E+00 -0.19090289986E+04  0.19090289986E+04  0.50400001928E-02 0.  1.
    10030    2    1    2    0    0  0.00000000000E+00  0.00000000000E+00  0.83209639780E+02  0.39012676370E+04  0.39003801521E+04 0.  0.
        1    1    3    3  502    0 -0.17244865108E+04  0.80273591459E+03 -0.38861240203E+03  0.19414577702E+04  0.50400001928E-02 0. -1.
       -1    1    3    3    0  502  0.17244865108E+04 -0.80273591459E+03  0.47182204181E+03  0.19598098667E+04  0.50400001928E-02 0.  1.
</event>
<event>
 5   0  0.9078515E-09  0.3900385E+04  0.7818609E-02  0.8024949E-01
        2   -1    0    0  501    0  0.00000000000E+00  0.00000000000E+00  0.21900440469E+04  0.21900440469E+04  0.25500000920E-02 0.  1.
       -2   -1    0    0    0  501  0.00000000000E+00  0.00000000000E+00 -0.17366094234E+04  0.17366094234E+04  0.25500000920E-02 0. -1.
    10030    2    1    2    0    0  0.00000000000E+00  0.00000000000E+00  0.45343462353E+03  0.39266534702E+04  0.39003851755E+04 0.  0.
        3    1    3    3  502    0  0.50649100795E+03  0.12715870257E+04 -0.11718052477E+04  0.18018308061E+04  0.10100000352E+00 0. -1.
       -3    1    3    3    0  502 -0.50649100795E+03 -0.12715870257E+04  0.16252398712E+04  0.21248226642E+04  0.10100000352E+00 0.  1.
</event>
<event>
 5   0  0.2904500E-09  0.3900604E+04  0.7818609E-02  0.8024904E-01
       -1   -1    0    0    0  501  0.00000000000E+00  0.00000000000E+00  0.21822198021E+04  0.21822198021E+04  0.50400001928E-02 0.  1.
        1   -1    0    0  501    0  0.00000000000E+00  0.00000000000E+00 -0.17430311641E+04  0.17430311641E+04  0.50400001928E-02 0. -1.
    10030    2    1    2    0    0  0.00000000000E+00  0.00000000000E+00  0.43918863801E+03  0.39252509663E+04  0.39006036057E+04 0.  0.
        2    1    3    3  502    0  0.67786326871E+02  0.86321638009E+03 -0.15390006818E+04  0.17658597349E+04  0.25500000920E-02 0. -1.
       -2    1    3    3    0  502 -0.67786326871E+02 -0.86321638009E+03  0.19781893198E+04  0.21593912313E+04  0.25500000920E-02 0.  1.
</event>
<event>
 5   0  0.9277261E-09  0.3901031E+04  0.7818609E-02  0.8024815E-01
       -2   -1    0    0    0  501  0.00000000000E+00  0.00000000000E+00  0.15601676672E+04  0.15601676672E+04  0.25500000920E-02 0. -1.
        2   -1    0    0  501    0  0.00000000000E+00  0.00000000000E+00 -0.24385263768E+04  0.24385263768E+04  0.25500000920E-02 0.  1.
    10030    2    1    2    0    0  0.00000000000E+00  0.00000000000E+00 -0.87835870958E+03  0.39986940439E+04  0.39010306375E+04 0.  0.
        1    1    3    3  502    0 -0.18188899451E+04  0.57486970199E+03 -0.21958259929E+02  0.19076996545E+04  0.50400001928E-02 0. -1.
       -1    1    3    3    0  502  0.18188899451E+04 -0.57486970199E+03 -0.85640044965E+03  0.20909943895E+04  0.50400001928E-02 0.  1.
</event>
<event>
 5   0  0.9277261E-09  0.3902367E+04  0.7818609E-02  0.8024537E-01
       -2   -1    0    0    0  501  0.00000000000E+00  0.00000000000E+00  0.13479538464E+04  0.13479538464E+04  0.25500000920E-02 0.  1.
        2   -1    0    0  501    0  0.00000000000E+00  0.00000000000E+00 -0.28243669881E+04  0.28243669881E+04  0.25500000920E-02 0. -1.
    10030    2    1    2    0    0  0.00000000000E+00  0.00000000000E+00 -0.14764131417E+04  0.41723208345E+04  0.39023666385E+04 0.  0.
        1    1    3    3  502    0  0.28639179825E+03  0.48788186163E+02  0.13247000388E+04  0.13561824148E+04  0.50400001928E-02 0.  1.
       -1    1    3    3    0  502 -0.28639179825E+03 -0.48788186163E+02 -0.28011131805E+04  0.28161384198E+04  0.50400001928E-02 0. -1.
</event>
<event>
 5   0  0.2929054E-09  0.3902629E+04  0.7818609E-02  0.8024483E-01
       -1   -1    0    0    0  501  0.00000000000E+00  0.00000000000E+00  0.20675130619E+04  0.20675130619E+04  0.50400001928E-02 0.  1.
        1   -1    0    0  501    0  0.00000000000E+00  0.00000000000E+00 -0.18416465821E+04  0.18416465821E+04  0.50400001928E-02 0. -1.
    10030    2    1    2    0    0  0.00000000000E+00  0.00000000000E+00  0.22586647985E+03  0.39091596440E+04  0.39026290441E+04 0.  0.
        1    1    3    3  502    0  0.75707163107E+03  0.81340644868E+03 -0.14937586311E+04  0.18617471239E+04  0.50400001928E-02 0. -1.
       -1    1    3    3    0  502 -0.75707163107E+03 -0.81340644868E+03  0.17196251110E+04  0.20474125201E+04  0.50400001928E-02 0.  1.
</event>
<event>
 5   0  0.9078515E-09  0.3900698E+04  0.7818609E-02  0.8024884E-01
       -2   -1    0    0    0  501  0.00000000000E+00  0.00000000000E+00  0.19709671267E+04  0.19709671267E+04  0.25500000920E-02 0. -1.
        2   -1    0    0  501    0  0.00000000000E+00  0.00000000000E+00 -0.19299463547E+04  0.19299463547E+04  0.25500000920E-02 0.  1.
    10030    2    1    2    0    0  0.00000000000E+00  0.00000000000E+00  0.41020772022E+02  0.39009134814E+04  0.39006977947E+04 0.  0.
        3    1    3    3  502    0  0.73066089660E+03 -0.11751836218E+02  0.18288850649E+04  0.19694730367E+04  0.10100000352E+00 0. -1.
       -3    1    3    3    0  502 -0.73066089660E+03  0.11751836218E+02 -0.17878642929E+04  0.19314404447E+04  0.10100000352E+00 0.  1.
</event>
<event>
 5   0  0.9277261E-09  0.3900558E+04  0.7818609E-02  0.8024913E-01
        2   -1    0    0  501    0  0.00000000000E+00  0.00000000000E+00  0.21538412351E+04  0.21538412351E+04  0.25500000920E-02 0.  1.
       -2   -1    0    0    0  501  0.00000000000E+00  0.00000000000E+00 -0.17659557913E+04  0.17659557913E+04  0.25500000920E-02 0. -1.
    10030    2    1    2    0    0  0.00000000000E+00  0.00000000000E+00  0.38788544377E+03  0.39197970264E+04  0.39005581153E+04 0.  0.
        1    1    3    3  502    0 -0.17432230140E+04 -0.24420471839E+03  0.10378023014E+04  0.20434030532E+04  0.50400001928E-02 0. -1.
       -1    1    3    3    0  502  0.17432230140E+04  0.24420471839E+03 -0.64991685759E+03  0.18763939732E+04  0.50400001928E-02 0.  1.
</event>
<event>
 5   0  0.2904500E-09  0.3902808E+04  0.7818609E-02  0.8024445E-01
        1   -1    0    0  501    0  0.00000000000E+00  0.00000000000E+00  0.24136945917E+04  0.24136945917E+04  0.50400001928E-02 0. -1.
       -1   -1    0    0    0  501  0.00000000000E+00  0.00000000000E+00 -0.15776554742E+04  0.15776554742E+04  0.50400001928E-02 0.  1.
    10030    2    1    2    0    0  0.00000000000E+00  0.00000000000E+00  0.83603911756E+03  0.39913500659E+04  0.39028084686E+04 0.  0.
        2    1    3    3  502    0 -0.87340176506E+02 -0.17147887868E+04 -0.53029807627E+03  0.17970378236E+04  0.25500000920E-02 0.  1.
       -2    1    3    3    0  502  0.87340176506E+02  0.17147887868E+04  0.13663371938E+04  0.21943122423E+04  0.25500000920E-02 0. -1.
</event>
<event>
 5   0  0.6335942E-09  0.3900609E+04  0.7818609E-02  0.8024902E-01
       -2   -1    0    0    0  501  0.00000000000E+00  0.00000000000E+00  0.16083317421E+04  0.16083317421E+04  0.25500000920E-02 0. -1.
        2   -1    0    0  501    0  0.00000000000E+00  0.00000000000E+00 -0.23649898978E+04  0.23649898978E+04  0.25500000920E-02 0.  1.
    10030    2    1    2    0    0  0.00000000000E+00  0.00000000000E+00 -0.75665815570E+03  0.39733216398E+04  0.39006093484E+04 0.  0.
        2    1    3    3  502    0 -0.50513893731E+03  0.18688027900E+04 -0.13706134420E+03  0.19407150811E+04  0.25500000920E-02 0.  1.
       -2    1    3    3    0  502  0.50513893731E+03 -0.18688027900E+04 -0.61959681150E+03  0.20326065588E+04  0.25500000920E-02 0. -1.
</event>
<event>
 5   0  0.6335942E-09  0.3903809E+04  0.7818609E-02  0.8024237E-01
       -2   -1    0    0    0  501  0.00000000000E+00  0.00000000000E+00  0.16512929778E+04  0.16512929778E+04  0.25500000920E-02 0. -1.
        2   -1    0    0  501    0  0.00000000000E+00  0.00000000000E+00 -0.23072417288E+04  0.23072417288E+04  0.25500000920E-02 0.  1.
    10030    2    1    2    0    0  0.00000000000E+00  0.00000000000E+00 -0.65594875100E+03  0.39585347066E+04  0.39038094548E+04 0.  0.
        2    1    3    3  502    0  0.15328979816E+04  0.76598009633E+03 -0.12756505910E+04  0.21363019825E+04  0.25500000920E-02 0.  1.
       -2    1    3    3    0  502 -0.15328979816E+04 -0.76598009633E+03  0.61970184004E+03  0.18222327241E+04  0.25500000920E-02 0. -1.
</event>
<event>
 5   0  0.2904500E-09  0.3899916E+04  0.7818609E-02  0.8025047E-01
       -1   -1    0    0    0  501  0.00000000000E+00  0.00000000000E+00  0.15324698218E+04  0.15324698218E+04  0.50400001928E-02 0. -1.
        1   -1    0    0  501    0  0.00000000000E+00  0.00000000000E+00 -0.24811817011E+04  0.24811817011E+04  0.50400001928E-02 0.  1.
    10030    2    1    2    0    0  0.00000000000E+00  0.00000000000E+00 -0.94871187929E+03  0.40136515229E+04  0.38999159373E+04 0.  0.
        3    1    3    3  502    0  0.18732823955E+04 -0.50728819045E+03 -0.27960776054E+03  0.19607928884E+04  0.10100000352E+00 0. -1.
       -3    1    3    3    0  502 -0.18732823955E+04  0.50728819045E+03 -0.66910411875E+03  0.20528586345E+04  0.10100000352E+00 0.  1.
</event>
<event>
 5   0  0.2904500E-09  0.3904797E+04  0.7818609E-02  0.8024032E-01
        1   -1    0    0  501    0  0.00000000000E+00  0.00000000000E+00  0.16394212475E+04  0.16394212475E+04  0.50400001928E-02 0.  1.
       -1   -1    0    0    0  501  0.00000000000E+00  0.00000000000E+00 -0.23251257749E+04  0.23251257749E+04  0.50400001928E-02 0. -1.
    10030    2    1    2    0    0  0.00000000000E+00  0.00000000000E+00 -0.68570452734E+03  0.39645470224E+04  0.39047973564E+04 0.  0.
        2    1    3    3  502    0  0.95448204077E+03 -0.76364867984E+03  0.12028307505E+04  0.17149335517E+04  0.25500000920E-02 0.  1.
       -2    1    3    3    0  502 -0.95448204077E+03  0.76364867984E+03 -0.18885352778E+04  0.22496134708E+04  0.25500000920E-02 0. -1.
</event>
<event>
 5   0  0.2904500E-09  0.3897754E+04  0.7818609E-02  0.8025497E-01
       -1   -1    0    0    0  501  0.00000000000E+00  0.00000000000E+00  0.24695301713E+04  0.24695301713E+04  0.50400001928E-02 0. -1.
        1   -1    0    0  501    0  0.00000000000E+00  0.00000000000E+00 -0.15379934238E+04  0.15379934238E+04  0.50400001928E-02 0.  1.
    10030    2    1    2    0    0  0.00000000000E+00  0.00000000000E+00  0.93153674753E+03  0.40075235951E+04  0.38977537959E+04 0.  0.
        5    1    3    3  502    0  0.69343617747E+03  0.73385742151E+03  0.21796562554E+04  0.24021498557E+04  0.46999998093E+01 0. -1.
       -5    1    3    3    0  502 -0.69343617747E+03 -0.73385742151E+03 -0.12481195079E+04  0.16053737395E+04  0.46999998093E+01 0.  1.
</event>
<event>
 5   0  0.2904500E-09  0.3899010E+04  0.7818609E-02  0.8025235E-01
        1   -1    0    0  501    0  0.00000000000E+00  0.00000000000E+00  0.19320094629E+04  0.19320094629E+04  0.50400001928E-02 0. -1.
       -1   -1    0    0    0  501  0.00000000000E+00  0.00000000000E+00 -0.19671594641E+04  0.19671594641E+04  0.50400001928E-02 0.  1.
    10030    2    1    2    0    0  0.00000000000E+00  0.00000000000E+00 -0.35150001221E+02  0.38991689271E+04  0.38990104898E+04 0.  0.
        4    1    3    3  502    0 -0.27820125880E+03  0.16837375669E+04  0.92490743327E+03  0.19410882277E+04  0.12699999809E+01 0. -1.
       -4    1    3    3    0  502  0.27820125880E+03 -0.16837375669E+04 -0.96005743449E+03  0.19580806994E+04  0.12699999809E+01 0.  1.
</event>
<event>
 5   0  0.2929054E-09  0.3900818E+04  0.7818609E-02  0.8024859E-01
       -1   -1    0    0    0  501  0.00000000000E+00  0.00000000000E+00  0.21337767344E+04  0.21337767344E+04  0.50400001928E-02 0. -1.
        1   -1    0    0  501    0  0.00000000000E+00  0.00000000000E+00 -0.17827995121E+04  0.17827995121E+04  0.50400001928E-02 0.  1.
    10030    2    1    2    0    0  0.00000000000E+00  0.00000000000E+00  0.35097722223E+03  0.39165762465E+04  0.39008184378E+04 0.  0.
        1    1    3    3  502    0 -0.67163336960E+03 -0.48533397631E+03 -0.15972756680E+04  0.17994249113E+04  0.50400001928E-02 0.  1.
       -1    1    3    3    0  502  0.67163336960E+03  0.48533397631E+03  0.19482528903E+04  0.21171513352E+04  0.50400001928E-02 0. -1.
</event>
<event>
 5   0  0.9368546E-09  0.3900010E+04  0.7818609E-02  0.8025027E-01
       -2   -1    0    0    0  501  0.00000000000E+00  0.00000000000E+00  0.25957518621E+04  0.25957518622E+04  0.25500000920E-02 0. -1.
        2   -1    0    0  501    0  0.00000000000E+00  0.00000000000E+00 -0.14649006746E+04  0.14649006746E+04  0.25500000920E-02 0.  1.
    10030    2    1    2    0    0  0.00000000000E+00  0.00000000000E+00  0.11308511875E+04  0.40606525368E+04  0.39000095661E+04 0.  0.
        5    1    3    3  502    0  0.32438283288E+03 -0.74359762215E+03  0.24116928022E+04  0.25444932517E+04  0.46999998093E+01 0. -1.
       -5    1    3    3    0  502 -0.32438283288E+03  0.74359762215E+03 -0.12808416146E+04  0.15161592851E+04  0.46999998093E+01 0.  1.
</event>
<event>
 5   0  0.2904500E-09  0.3899033E+04  0.7818609E-02  0.8025230E-01
        1   -1    0    0  501    0  0.00000000000E+00  0.00000000000E+00  0.24285622291E+04  0.24285622291E+04  0.50400001928E-02 0. -1.
       -1   -1    0    0    0  501  0.00000000000E+00  0.00000000000E+00 -0.15649646888E+04  0.15649646889E+04  0.50400001928E-02 0.  1.
    10030    2    1    2    0    0  0.00000000000E+00  0.00000000000E+00  0.86359754028E+03  0.39935269180E+04  0.38990327689E+04 0.  0.
        4    1    3    3  502    0 -0.49263809220E+03 -0.29451881123E+03 -0.14764642293E+04  0.15841028544E+04  0.12699999809E+01 0.  1.
       -4    1    3    3    0  502  0.49263809220E+03  0.29451881123E+03  0.23400617696E+04  0.24094240636E+04  0.12699999809E+01 0. -1.
</event>
<event>
 5   0  0.9368546E-09  0.3900785E+04  0.7818609E-02  0.8024866E-01
       -2   -1    0    0    0  501  0.00000000000E+00  0.00000000000E+00  0.30675667913E+04  0.30675667913E+04  0.25500000920E-02 0.  1.
        2   -1    0    0  501    0  0.00000000000E+00  0.00000000000E+00 -0.12400806392E+04  0.12400806392E+04  0.25500000920E-02 0. -1.
    10030    2    1    2    0    0  0.00000000000E+00  0.00000000000E+00  0.18274861521E+04  0.43076474305E+04  0.39007846325E+04 0.  0.
        5    1    3    3  502    0 -0.11091003894E+03  0.48172737422E+03  0.29972337943E+04  0.30377285605E+04  0.46999998093E+01 0.  1.
       -5    1    3    3    0  502  0.11091003894E+03 -0.48172737422E+03 -0.11697476422E+04  0.12699188699E+04  0.46999998093E+01 0. -1.
</event>
<event>
 5   0  0.9078515E-09  0.3899472E+04  0.7818609E-02  0.8025139E-01
       -2   -1    0    0    0  501  0.00000000000E+00  0.00000000000E+00  0.15826551067E+04  0.15826551067E+04  0.25500000920E-02 0.  1.
        2   -1    0    0  501    0  0.00000000000E+00  0.00000000000E+00 -0.24019573631E+04  0.24019573631E+04  0.25500000920E-02 0. -1.
    10030    2    1    2    0    0  0.00000000000E+00  0.00000000000E+00 -0.81930225640E+03  0.39846124699E+04  0.38994718037E+04 0.  0.
        3    1    3    3  502    0 -0.17049152665E+04  0.92809309570E+03 -0.22296787354E+03  0.19539210688E+04  0.10100000352E+00 0.  1.
       -3    1    3    3    0  502  0.17049152665E+04 -0.92809309570E+03 -0.59633438286E+03  0.20306914011E+04  0.10100000352E+00 0. -1.
</event>
<event>
 5   0  0.9078515E-09  0.3892549E+04  0.7818609E-02  0.8026581E-01
        2   -1    0    0  501    0  0.00000000000E+00  0.00000000000E+00  0.16115114921E+04  0.16115114921E+04  0.25500000920E-02 0. -1.
       -2   -1    0    0    0  501  0.00000000000E+00  0.00000000000E+00 -0.23505790871E+04  0.23505790871E+04  0.25500000920E-02 0.  1.
    10030    2    1    2    0    0  0.00000000000E+00  0.00000000000E+00 -0.73906759501E+03  0.39620905793E+04  0.38925494022E+04 0.  0.
        3    1    3    3  502    0  0.69426700993E+03  0.68620180472E+02 -0.22189334674E+04  0.23260226037E+04  0.10100000352E+00 0.  1.
       -3    1    3    3    0  502 -0.69426700993E+03 -0.68620180472E+02  0.14798658724E+04  0.16360679756E+04  0.10100000352E+00 0. -1.
</event>
<event>
 5   0  0.2904500E-09  0.3900450E+04  0.7818609E-02  0.8024936E-01
       -1   -1    0    0    0  501  0.00000000000E+00  0.00000000000E+00  0.21431311191E+04  0.21431311191E+04  0.50400001928E-02 0.  1.
        1   -1    0    0  501    0  0.00000000000E+00  0.00000000000E+00 -0.17746825611E+04  0.17746825611E+04  0.50400001928E-02 0. -1.
    10030    2    1    2    0    0  0.00000000000E+00  0.00000000000E+00  0.36844855799E+03  0.39178136801E+04  0.39004499346E+04 0.  0.
        5    1    3    3  502    0  0.12985192661E+04 -0.14653879865E+03 -0.12698837639E+04  0.18221560767E+04  0.46999998093E+01 0. -1.
       -5    1    3    3    0  502 -0.12985192661E+04  0.14653879865E+03  0.16383323219E+04  0.20956576035E+04  0.46999998093E+01 0.  1.
</event>
<event>
 5   0  0.9368546E-09  0.3899990E+04  0.7818609E-02  0.8025031E-01
        2   -1    0    0  501    0  0.00000000000E+00  0.00000000000E+00  0.28931709291E+04  0.28931709291E+04  0.25500000920E-02 0.  1.
       -2   -1    0    0    0  501  0.00000000000E+00  0.00000000000E+00 -0.13142951137E+04  0.13142951137E+04  0.25500000920E-02 0. -1.
    10030    2    1    2    0    0  0.00000000000E+00  0.00000000000E+00  0.15788758154E+04  0.42074660428E+04  0.38999899566E+04 0.  0.
        5    1    3    3  502    0 -0.13383802531E+04  0.10563970172E+04  0.18101952109E+04  0.24867780663E+04  0.46999998093E+01 0.  1.
       -5    1    3    3    0  502  0.13383802531E+04 -0.10563970172E+04 -0.23131939548E+03  0.17206879765E+04  0.46999998093E+01 0. -1.
</event>
<event>
 5   0  0.9078515E-09  0.3896741E+04  0.7818609E-02  0.8025707E-01
        2   -1    0    0  501    0  0.00000000000E+00  0.00000000000E+00  0.17785331902E+04  0.17785331902E+04  0.25500000920E-02 0. -1.
       -2   -1    0    0    0  501  0.00000000000E+00  0.00000000000E+00 -0.21344266131E+04  0.21344266131E+04  0.25500000920E-02 0.  1.
    10030    2    1    2    0    0  0.00000000000E+00  0.00000000000E+00 -0.35589342287E+03  0.39129598033E+04  0.38967414969E+04 0.  0.
        3    1    3    3  502    0 -0.19454954507E+04  0.59406237668E+02 -0.26587205520E+03  0.19644769303E+04  0.10100000352E+00 0. -1.
       -3    1    3    3    0  502  0.19454954507E+04 -0.59406237668E+02 -0.90021367673E+02  0.19484828730E+04  0.10100000352E+00 0.  1.
</event>
<event>
 5   0  0.2929054E-09  0.3904165E+04  0.7818609E-02  0.8024164E-01
       -1   -1    0    0    0  501  0.00000000000E+00  0.00000000000E+00  0.22684888965E+04  0.22684888965E+04  0.50400001928E-02 0.  1.
        1   -1    0    0  501    0  0.00000000000E+00  0.00000000000E+00 -0.16798079492E+04  0.16798079492E+04  0.50400001928E-02 0. -1.
    10030    2    1    2    0    0  0.00000000000E+00  0.00000000000E+00  0.58868094731E+03  0.39482968457E+04  0.39041647921E+04 0.  0.
        1    1    3    3  502    0 -0.48180883277E+03  0.48243649864E+03 -0.15554724634E+04  0.16983460516E+04  0.50400001928E-02 0. -1.
       -1    1    3    3    0  502  0.48180883277E+03 -0.48243649864E+03  0.21441534108E+04  0.22499507940E+04  0.50400001928E-02 0.  1.
</event>
<event>
 5   0  0.2904500E-09  0.3901672E+04  0.7818609E-02  0.8024682E-01
       -1   -1    0    0    0  501  0.00000000000E+00  0.00000000000E+00  0.18551352417E+04  0.18551352417E+04  0.50400001928E-02 0. -1.
        1   -1    0    0  501    0  0.00000000000E+00  0.00000000000E+00 -0.20514738482E+04  0.20514738482E+04  0.50400001928E-02 0.  1.
    10030    2    1    2    0    0  0.00000000000E+00  0.00000000000E+00 -0.19633860642E+03  0.39066090899E+04  0.39016721714E+04 0.  0.
        3    1    3    3  502    0 -0.32346292659E+03 -0.16071078717E+04 -0.11570221629E+04  0.20065204389E+04  0.10100000352E+00 0.  1.
       -3    1    3    3    0  502  0.32346292659E+03  0.16071078717E+04  0.96068355643E+03  0.19000886510E+04  0.10100000352E+00 0. -1.
</event>
<event>
 5   0  0.2904500E-09  0.3900117E+04  0.7818609E-02  0.8025005E-01
        1   -1    0    0  501    0  0.00000000000E+00  0.00000000000E+00  0.23884086722E+04  0.23884086722E+04  0.50400001928E-02 0.  1.
       -1   -1    0    0    0  501  0.00000000000E+00  0.00000000000E+00 -0.15921596529E+04  0.15921596529E+04  0.50400001928E-02 0. -1.
    10030    2    1    2    0    0  0.00000000000E+00  0.00000000000E+00  0.79624901936E+03  0.39805683251E+04  0.39001168816E+04 0.  0.
        2    1    3    3  502    0 -0.18889429664E+04 -0.37167978434E+03  0.81110614672E+02  0.19268706039E+04  0.25500000920E-02 0.  1.
       -2    1    3    3    0  502  0.18889429664E+04  0.37167978434E+03  0.71513840469E+03  0.20536977212E+04  0.25500000920E-02 0. -1.
</event>
<event>
 5   0  0.9277261E-09  0.3899294E+04  0.7818609E-02  0.8025176E-01
       -2   -1    0    0    0  501  0.00000000000E+00  0.00000000000E+00  0.32860640394E+04  0.32860640394E+04  0.25500000920E-02 0.  1.
        2   -1    0    0  501    0  0.00000000000E+00  0.00000000000E+00 -0.11567407124E+04  0.11567407124E+04  0.25500000920E-02 0. -1.
    10030    2    1    2    0    0  0.00000000000E+00  0.00000000000E+00  0.21293233269E+04  0.44428047518E+04  0.38992943249E+04 0.  0.
        1    1    3    3  502    0  0.85117474948E+02 -0.66945737712E+03 -0.10194217189E+04  0.12225542137E+04  0.50400001928E-02 0. -1.
       -1    1    3    3    0  502 -0.85117474948E+02  0.66945737712E+03  0.31487450459E+04  0.32202505381E+04  0.50400001928E-02 0.  1.
</event>
<event>
 5   0  0.9368546E-09  0.3901584E+04  0.7818609E-02  0.8024700E-01
        2   -1    0    0  501    0  0.00000000000E+00  0.00000000000E+00  0.21006210074E+04  0.21006210074E+04  0.25500000920E-02 0.  1.
       -2   -1    0    0    0  501  0.00000000000E+00  0.00000000000E+00 -0.18116496797E+04  0.18116496797E+04  0.25500000920E-02 0. -1.
    10030    2    1    2    0    0  0.00000000000E+00  0.00000000000E+00  0.28897132774E+03  0.39122706871E+04  0.39015839733E+04 0.  0.
        5    1    3    3  502    0  0.10371267696E+04  0.10298643219E+04  0.14400442668E+04  0.20518289496E+04  0.46999998093E+01 0. -1.
       -5    1    3    3    0  502 -0.10371267696E+04 -0.10298643219E+04 -0.11510729391E+04  0.18604417376E+04  0.46999998093E+01 0.  1.
</event>
<event>
 5   0  0.6335942E-09  0.3891772E+04  0.7818609E-02  0.8026743E-01
        2   -1    0    0  501    0  0.00000000000E+00  0.00000000000E+00  0.16346493652E+04  0.16346493652E+04  0.25500000920E-02 0. -1.
       -2   -1    0    0    0  501  0.00000000000E+00  0.00000000000E+00 -0.23163818705E+04  0.23163818705E+04  0.25500000920E-02 0.  1.
    10030    2    1    2    0    0  0.00000000000E+00  0.00000000000E+00 -0.68173250527E+03  0.39510312357E+04  0.38917719122E+04 0.  0.
        2    1    3    3  502    0  0.11088739504E+04  0.12086666315E+04  0.72197280818E+03  0.17921275623E+04  0.25500000920E-02 0. -1.
       -2    1    3    3    0  502 -0.11088739504E+04 -0.12086666315E+04 -0.14037053134E+04  0.21589036734E+04  0.25500000920E-02 0.  1.
</event>
<event>
 5   0  0.9078515E-09  0.3902616E+04  0.7818609E-02  0.8024485E-01
        2   -1    0    0  501    0  0.00000000000E+00  0.00000000000E+00  0.15467734048E+04  0.15467734048E+04  0.25500000920E-02 0.  1.
       -2   -1    0    0    0  501  0.00000000000E+00  0.00000000000E+00 -0.24616429635E+04  0.24616429635E+04  0.25500000920E-02 0. -1.
    10030    2    1    2    0    0  0.00000000000E+00  0.00000000000E+00 -0.91486955871E+03  0.40084163683E+04  0.39026164905E+04 0.  0.
        3    1    3    3  502    0 -0.10516182844E+04  0.14565796470E+04  0.32484186409E+03  0.18256635865E+04  0.10100000352E+00 0.  1.
       -3    1    3    3    0  502  0.10516182844E+04 -0.14565796470E+04 -0.12397114228E+04  0.21827527818E+04  0.10100000352E+00 0. -1.
</event>
<event>
 5   0  0.2904500E-09  0.3900602E+04  0.7818609E-02  0.8024904E-01
       -1   -1    0    0    0  501  0.00000000000E+00  0.00000000000E+00  0.16173274751E+04  0.16173274751E+04  0.50400001928E-02 0.  1.
        1   -1    0    0  501    0  0.00000000000E+00  0.00000000000E+00 -0.23518271800E+04  0.23518271800E+04  0.50400001928E-02 0. -1.
    10030    2    1    2    0    0  0.00000000000E+00  0.00000000000E+00 -0.73449970492E+03  0.39691546551E+04  0.39006023714E+04 0.  0.
        2    1    3    3  502    0  0.59057021383E+03  0.58663671029E+03 -0.21619814851E+04  0.23166958689E+04  0.25500000920E-02 0. -1.
       -2    1    3    3    0  502 -0.59057021383E+03 -0.58663671029E+03  0.14274817802E+04  0.16524587862E+04  0.25500000920E-02 0.  1.
</event>
<event>
 5   0  0.2929054E-09  0.3903130E+04  0.7818609E-02  0.8024379E-01
        1   -1    0    0  501    0  0.00000000000E+00  0.00000000000E+00  0.15976368474E+04  0.15976368474E+04  0.50400001928E-02 0.  1.
       -1   -1    0    0    0  501  0.00000000000E+00  0.00000000000E+00 -0.23838996619E+04  0.23838996619E+04  0.50400001928E-02 0. -1.
    10030    2    1    2    0    0  0.00000000000E+00  0.00000000000E+00 -0.78626281455E+03  0.39815365093E+04  0.39031299954E+04 0.  0.
        1    1    3    3  502    0  0.12153743651E+04 -0.10265282622E+04  0.75993407842E+03  0.17630640726E+04  0.50400001928E-02 0.  1.
       -1    1    3    3    0  502 -0.12153743651E+04  0.10265282622E+04 -0.15461968930E+04  0.22184724367E+04  0.50400001928E-02 0. -1.
</event>
<event>
 5   0  0.9078515E-09  0.3887591E+04  0.7818609E-02  0.8027615E-01
       -2   -1    0    0    0  501  0.00000000000E+00  0.00000000000E+00  0.13320333521E+04  0.13320333521E+04  0.25500000920E-02 0. -1.
        2   -1    0    0  501    0  0.00000000000E+00  0.00000000000E+00 -0.28365218200E+04  0.28365218200E+04  0.25500000920E-02 0.  1.
    10030    2    1    2    0    0  0.00000000000E+00  0.00000000000E+00 -0.15044884680E+04  0.41685551721E+04  0.38875913717E+04 0.  0.
        3    1    3    3  502    0 -0.35107731728E+03  0.12198359642E+04 -0.23307387495E+04  0.26539778053E+04  0.10100000352E+00 0.  1.
       -3    1    3    3    0  502  0.35107731728E+03 -0.12198359642E+04  0.82625028152E+03  0.15145773669E+04  0.10100000352E+00 0. -1.
</event>
<event>
 5   0  0.9078515E-09  0.3900816E+04  0.7818609E-02  0.8024859E-01
       -2   -1    0    0    0  501  0.00000000000E+00  0.00000000000E+00  0.27493871769E+04  0.27493871769E+04  0.25500000920E-02 0.  1.
        2   -1    0    0  501    0  0.00000000000E+00  0.00000000000E+00 -0.13836144723E+04  0.13836144723E+04  0.25500000920E-02 0. -1.
    10030    2    1    2    0    0  0.00000000000E+00  0.00000000000E+00  0.13657727047E+04  0.41330016492E+04  0.39008162674E+04 0.  0.
        3    1    3    3  502    0 -0.11749691767E+04 -0.50626872065E+03 -0.87689137680E+03  0.15510638545E+04  0.10100000352E+00 0. -1.
       -3    1    3    3    0  502  0.11749691767E+04  0.50626872065E+03  0.22426640815E+04  0.25819377948E+04  0.10100000352E+00 0.  1.
</event>
<event>
 5   0  0.2904500E-09  0.3895468E+04  0.7818609E-02  0.8025972E-01
       -1   -1    0    0    0  501  0.00000000000E+00  0.00000000000E+00  0.21230370572E+04  0.21230370572E+04  0.50400001928E-02 0. -1.
        1   -1    0    0  501    0  0.00000000000E+00  0.00000000000E+00 -0.17869064553E+04  0.17869064553E+04  0.50400001928E-02 0.  1.
    10030    2    1    2    0    0  0.00000000000E+00  0.00000000000E+00  0.33613060190E+03  0.39099435125E+04  0.38954684557E+04 0.  0.
        3    1    3    3  502    0 -0.22562284062E+03 -0.15493285145E+04  0.13309662378E+04  0.20549441959E+04  0.10100000352E+00 0. -1.
       -3    1    3    3    0  502  0.22562284062E+03  0.15493285145E+04 -0.99483563591E+03  0.18549993166E+04  0.10100000352E+00 0.  1.
</event>
<event>
 5   0  0.2904500E-09  0.3900000E+04  0.7818609E-02  0.8025029E-01
        1   -1    0    0  501    0  0.00000000000E+00  0.00000000000E+00  0.16080455210E+04  0.16080455210E+04  0.50400001928E-02 0.  1.
       -1   -1    0    0    0  501  0.00000000000E+00  0.00000000000E+00 -0.23646723947E+04  0.23646723948E+04  0.50400001928E-02 0. -1.
    10030    2    1    2    0    0  0.00000000000E+00  0.00000000000E+00 -0.75662687376E+03  0.39727179158E+04  0.39000004374E+04 0.  0.
        2    1    3    3  502    0  0.67294457458E+03 -0.49251478122E+03  0.14172426950E+04  0.16443850117E+04  0.25500000920E-02 0.  1.
       -2    1    3    3    0  502 -0.67294457458E+03  0.49251478122E+03 -0.21738695687E+04  0.23283329041E+04  0.25500000920E-02 0. -1.
</event>
<event>
 5   0  0.2904500E-09  0.3898716E+04  0.7818609E-02  0.8025296E-01
        1   -1    0    0  501    0  0.00000000000E+00  0.00000000000E+00  0.12575467823E+04  0.12575467823E+04  0.50400001928E-02 0. -1.
       -1   -1    0    0    0  501  0.00000000000E+00  0.00000000000E+00 -0.30217541397E+04  0.30217541397E+04  0.50400001928E-02 0.  1.
    10030    2    1    2    0    0  0.00000000000E+00  0.00000000000E+00 -0.17642073574E+04  0.42793009220E+04  0.38987162991E+04 0.  0.
        2    1    3    3  502    0  0.92701780840E+03 -0.43445956445E+03  0.93871183363E+03  0.13889913739E+04  0.25500000920E-02 0. -1.
       -2    1    3    3    0  502 -0.92701780840E+03  0.43445956445E+03 -0.27029191911E+04  0.28903095481E+04  0.25500000920E-02 0.  1.
</event>
<event>
 5   0  0.6335942E-09  0.3901460E+04  0.7818609E-02  0.8024726E-01
       -2   -1    0    0    0  501  0.00000000000E+00  0.00000000000E+00  0.32109844133E+04  0.32109844133E+04  0.25500000920E-02 0. -1.
        2   -1    0    0  501    0  0.00000000000E+00  0.00000000000E+00 -0.11851029819E+04  0.11851029819E+04  0.25500000920E-02 0.  1.
    10030    2    1    2    0    0  0.00000000000E+00  0.00000000000E+00  0.20258814314E+04  0.43960873952E+04  0.39014598309E+04 0.  0.
        2    1    3    3  502    0 -0.17448492891E+04  0.12197575578E+03  0.39745688208E+02  0.17495590434E+04  0.25500000920E-02 0.  1.
       -2    1    3    3    0  502  0.17448492891E+04 -0.12197575578E+03  0.19861357432E+04  0.26465283518E+04  0.25500000920E-02 0. -1.
</event>
<event>
 5   0  0.2904500E-09  0.3900929E+04  0.7818609E-02  0.8024836E-01
        1   -1    0    0  501    0  0.00000000000E+00  0.00000000000E+00  0.20056205099E+04  0.20056205099E+04  0.50400001928E-02 0.  1.
       -1   -1    0    0    0  501  0.00000000000E+00  0.00000000000E+00 -0.18968256110E+04  0.18968256110E+04  0.50400001928E-02 0. -1.
    10030    2    1    2    0    0  0.00000000000E+00  0.00000000000E+00  0.10879489889E+03  0.39024461210E+04  0.39009292992E+04 0.  0.
        5    1    3    3  502    0  0.94994048804E+03 -0.64732843779E+03 -0.15219275346E+04  0.19072772604E+04  0.46999998093E+01 0. -1.
       -5    1    3    3    0  502 -0.94994048804E+03  0.64732843779E+03  0.16307224335E+04  0.19951688606E+04  0.46999998093E+01 0.  1.
</event>
<event>
 5   0  0.9368546E-09  0.3904387E+04  0.7818609E-02  0.8024117E-01
       -2   -1    0    0    0  501  0.00000000000E+00  0.00000000000E+00  0.13573157336E+04  0.13573157336E+04  0.25500000920E-02 0.  1.
        2   -1    0    0  501    0  0.00000000000E+00  0.00000000000E+00 -0.28077909262E+04  0.28077909262E+04  0.25500000920E-02 0. -1.
    10030    2    1    2    0    0  0.00000000000E+00  0.00000000000E+00 -0.14504751926E+04  0.41651066598E+04  0.39043866616E+04 0.  0.
        5    1    3    3  502    0 -0.66124890494E+03 -0.12942215070E+04 -0.21156432650E+04  0.25667543588E+04  0.46999998093E+01 0. -1.
       -5    1    3    3    0  502  0.66124890494E+03  0.12942215070E+04  0.66516807245E+03  0.15983523010E+04  0.46999998093E+01 0.  1.
</event>
<event>
 5   0  0.9368546E-09  0.3900303E+04  0.7818609E-02  0.8024966E-01
       -2   -1    0    0    0  501  0.00000000000E+00  0.00000000000E+00  0.27561830340E+04  0.27561830340E+04  0.25500000920E-02 0. -1.
        2   -1    0    0  501    0  0.00000000000E+00  0.00000000000E+00 -0.13798398325E+04  0.13798398325E+04  0.25500000920E-02 0.  1.
    10030    2    1    2    0    0  0.00000000000E+00  0.00000000000E+00  0.13763432016E+04  0.41360228665E+04  0.39003031349E+04 0.  0.
        5    1    3    3  502    0 -0.96787852539E+03 -0.11763537428E+04  0.19793249621E+04  0.24976681853E+04  0.46999998093E+01 0.  1.
       -5    1    3    3    0  502  0.96787852539E+03  0.11763537428E+04 -0.60298176053E+03  0.16383546813E+04  0.46999998093E+01 0. -1.
</event>
<event>
 5   0  0.9434114E-09  0.3899382E+04  0.7818609E-02  0.8025158E-01
       -2   -1    0    0    0  501  0.00000000000E+00  0.00000000000E+00  0.16941899232E+04  0.16941899232E+04  0.25500000920E-02 0. -1.
        2   -1    0    0  501    0  0.00000000000E+00  0.00000000000E+00 -0.22437242006E+04  0.22437242006E+04  0.25500000920E-02 0.  1.
    10030    2    1    2    0    0  0.00000000000E+00  0.00000000000E+00 -0.54953427734E+03  0.39379141238E+04  0.38993819670E+04 0.  0.
        4    1    3    3  502    0  0.14141829036E+04  0.52867360468E+03 -0.15206042792E+04  0.21428131164E+04  0.12699999809E+01 0.  1.
       -4    1    3    3    0  502 -0.14141829036E+04 -0.52867360468E+03  0.97107000186E+03  0.17951010073E+04  0.12699999809E+01 0. -1.
</event>
<event>
 5   0  0.2904500E-09  0.3900340E+04  0.7818609E-02  0.8024959E-01
       -1   -1    0    0    0  501  0.00000000000E+00  0.00000000000E+00  0.32482232126E+04  0.32482232126E+04  0.50400001928E-02 0.  1.
        1   -1    0    0  501    0  0.00000000000E+00  0.00000000000E+00 -0.11708439868E+04  0.11708439868E+04  0.50400001928E-02 0. -1.
    10030    2    1    2    0    0  0.00000000000E+00  0.00000000000E+00  0.20773792258E+04  0.44190671994E+04  0.39003397885E+04 0.  0.
        3    1    3    3  502    0  0.15051546851E+04  0.72480765834E+02  0.24412347870E+04  0.28688623848E+04  0.10100000352E+00 0.  1.
       -3    1    3    3    0  502 -0.15051546851E+04 -0.72480765834E+02 -0.36385556125E+03  0.15502048146E+04  0.10100000352E+00 0. -1.
</event>
<event>
 5   0  0.9368546E-09  0.3900985E+04  0.7818609E-02  0.8024824E-01
       -2   -1    0    0    0  501  0.00000000000E+00  0.00000000000E+00  0.30699544761E+04  0.30699544761E+04  0.25500000920E-02 0. -1.
        2   -1    0    0  501    0  0.00000000000E+00  0.00000000000E+00 -0.12392433334E+04  0.12392433334E+04  0.25500000920E-02 0.  1.
    10030    2    1    2    0    0  0.00000000000E+00  0.00000000000E+00  0.18307111427E+04  0.43091978095E+04  0.39009848082E+04 0.  0.
        5    1    3    3  502    0  0.43817905019E+03 -0.18778233139E+04  0.12396343189E+04  0.22923648516E+04  0.46999998093E+01 0. -1.
       -5    1    3    3    0  502 -0.43817905019E+03  0.18778233139E+04  0.59107682384E+03  0.20168329579E+04  0.46999998093E+01 0.  1.
</event>
<event>
 5   0  0.6335942E-09  0.3901001E+04  0.7818609E-02  0.8024821E-01
       -2   -1    0    0    0  501  0.00000000000E+00  0.00000000000E+00  0.26025908472E+04  0.26025908472E+04  0.25500000920E-02 0.  1.
        2   -1    0    0  501    0  0.00000000000E+00  0.00000000000E+00 -0.14617945072E+04  0.14617945072E+04  0.25500000920E-02 0. -1.
    10030    2    1    2    0    0  0.00000000000E+00  0.00000000000E+00  0.11407963399E+04  0.40643853544E+04  0.39010014125E+04 0.  0.
        2    1    3    3  502    0 -0.39462057403E+03 -0.13033780284E+04 -0.88448677788E+03  0.16238339024E+04  0.25500000920E-02 0. -1.
       -2    1    3    3    0  502  0.39462057403E+03  0.13033780284E+04  0.20252831178E+04  0.24405514520E+04  0.25500000920E-02 0.  1.
</event>
<event>
 5   0  0.6335942E-09  0.3898008E+04  0.7818609E-02  0.8025444E-01
        2   -1    0    0  501    0  0.00000000000E+00  0.00000000000E+00  0.26100151995E+04  0.26100151995E+04  0.25500000920E-02 0. -1.
       -2   -1    0    0    0  501  0.00000000000E+00  0.00000000000E+00 -0.14553999103E+04  0.14553999103E+04  0.25500000920E-02 0.  1.
    10030    2    1    2    0    0  0.00000000000E+00  0.00000000000E+00  0.11546152892E+04  0.40654151098E+04  0.38980076384E+04 0.  0.
        2    1    3    3  502    0 -0.13933719514E+02 -0.11253678111E+04 -0.10822464213E+04  0.15613789339E+04  0.25500000920E-02 0.  1.
       -2    1    3    3    0  502  0.13933719514E+02  0.11253678111E+04  0.22368617104E+04  0.25040361759E+04  0.25500000920E-02 0. -1.
</event>
<event>
 5   0  0.6335942E-09  0.3900265E+04  0.7818609E-02  0.8024974E-01
        2   -1    0    0  501    0  0.00000000000E+00  0.00000000000E+00  0.19072063046E+04  0.19072063046E+04  0.25500000920E-02 0. -1.
       -2   -1    0    0    0  501  0.00000000000E+00  0.00000000000E+00 -0.19940243919E+04  0.19940243919E+04  0.25500000920E-02 0.  1.
    10030    2    1    2    0    0  0.00000000000E+00  0.00000000000E+00 -0.86818087343E+02  0.39012306965E+04  0.39002645509E+04 0.  0.
        2    1    3    3  502    0 -0.76330854599E+03 -0.13015668722E+04  0.11923319867E+04  0.19231151359E+04  0.25500000920E-02 0. -1.
       -2    1    3    3    0  502  0.76330854599E+03  0.13015668722E+04 -0.12791500741E+04  0.19781155606E+04  0.25500000920E-02 0.  1.
</event>
<event>
 5   0  0.6335942E-09  0.3900611E+04  0.7818609E-02  0.8024902E-01
       -2   -1    0    0    0  501  0.00000000000E+00  0.00000000000E+00  0.21205400553E+04  0.21205400553E+04  0.25500000920E-02 0.  1.
        2   -1    0    0  501    0  0.00000000000E+00  0.00000000000E+00 -0.17937370631E+04  0.17937370631E+04  0.25500000920E-02 0. -1.
    10030    2    1    2    0    0  0.00000000000E+00  0.00000000000E+00  0.32680299213E+03  0.39142771184E+04  0.39006108706E+04 0.  0.
        2    1    3    3  502    0 -0.11470875234E+04  0.11511448834E+03  0.17420087462E+04  0.20889364767E+04  0.25500000920E-02 0.  1.
       -2    1    3    3    0  502  0.11470875234E+04 -0.11511448834E+03 -0.14152057541E+04  0.18253406417E+04  0.25500000920E-02 0. -1.
</event>
<event>
 5   0  0.6335942E-09  0.3900775E+04  0.7818609E-02  0.8024868E-01
        2   -1    0    0  501    0  0.00000000000E+00  0.00000000000E+00  0.16766381925E+04  0.16766381925E+04  0.25500000920E-02 0. -1.
       -2   -1    0    0    0  501  0.00000000000E+00  0.00000000000E+00 -0.22688320308E+04  0.22688320308E+04  0.25500000920E-02 0.  1.
    10030    2    1    2    0    0  0.00000000000E+00  0.00000000000E+00 -0.59219383829E+03  0.39454702233E+04  0.39007745052E+04 0.  0.
        2    1    3    3  502    0  0.18280971178E+04 -0.41902323511E+03 -0.83747832318E+03  0.20539935456E+04  0.25500000920E-02 0. -1.
       -2    1    3    3    0  502 -0.18280971178E+04  0.41902323511E+03  0.24528448489E+03  0.18914766777E+04  0.25500000920E-02 0.  1.
</event>
<event>
 5   0  0.9277261E-09  0.3892148E+04  0.7818609E-02  0.8026664E-01
        2   -1    0    0  501    0  0.00000000000E+00  0.00000000000E+00  0.19980702092E+04  0.19980702092E+04  0.25500000920E-02 0. -1.
       -2   -1    0    0    0  501  0.00000000000E+00  0.00000000000E+00 -0.18954307548E+04  0.18954307548E+04  0.25500000920E-02 0.  1.
    10030    2    1    2    0    0  0.00000000000E+00  0.00000000000E+00  0.10263945439E+03  0.38935009640E+04  0.38921478517E+04 0.  0.
        1    1    3    3  502    0  0.92636964463E+03 -0.59421737165E+03  0.16568539372E+04  0.19890751551E+04  0.50400001928E-02 0. -1.
       -1    1    3    3    0  502 -0.92636964463E+03  0.59421737165E+03 -0.15542144828E+04  0.19044258090E+04  0.50400001928E-02 0.  1.
</event>
<event>
 5   0  0.2904500E-09  0.3895621E+04  0.7818609E-02  0.8025941E-01
       -1   -1    0    0    0  501  0.00000000000E+00  0.00000000000E+00  0.13183478918E+04  0.13183478918E+04  0.50400001928E-02 0.  1.
        1   -1    0    0  501    0  0.00000000000E+00  0.00000000000E+00 -0.28778186594E+04  0.28778186594E+04  0.50400001928E-02 0. -1.
    10030    2    1    2    0    0  0.00000000000E+00  0.00000000000E+00 -0.15594707676E+04  0.41961665512E+04  0.38956212150E+04 0.  0.
        2    1    3    3  502    0 -0.59037970724E+03 -0.14841226229E+04  0.42108007129E+03  0.16518100935E+04  0.25500000920E-02 0.  1.
       -2    1    3    3    0  502  0.59037970724E+03  0.14841226229E+04 -0.19805508388E+04  0.25443564577E+04  0.25500000920E-02 0. -1.
</event>
<event>
 5   0  0.2929054E-09  0.3902169E+04  0.7818609E-02  0.8024578E-01
        1   -1    0    0  501    0  0.00000000000E+00  0.00000000000E+00  0.29284514953E+04  0.29284514953E+04  0.50400001928E-02 0. -1.
       -1   -1    0    0    0  501  0.00000000000E+00  0.00000000000E+00 -0.12999122945E+04  0.12999122945E+04  0.50400001928E-02 0.  1.
    10030    2    1    2    0    0  0.00000000000E+00  0.00000000000E+00  0.16285392008E+04  0.42283637898E+04  0.39021686804E+04 0.  0.
        1    1    3    3  502    0  0.65150978296E+03  0.11777572019E+04  0.23448439029E+04  0.27036771170E+04  0.50400001928E-02 0. -1.
       -1    1    3    3    0  502 -0.65150978296E+03 -0.11777572019E+04 -0.71630470209E+03  0.15246866728E+04  0.50400001928E-02 0.  1.
</event>
<event>
 5   0  0.2904500E-09  0.3906368E+04  0.7818609E-02  0.8023706E-01
       -1   -1    0    0    0  501  0.00000000000E+00  0.00000000000E+00  0.16196403632E+04  0.16196403633E+04  0.50400001928E-02 0.  1.
        1   -1    0    0  501    0  0.00000000000E+00  0.00000000000E+00 -0.23554160268E+04  0.23554160268E+04  0.50400001928E-02 0. -1.
    10030    2    1    2    0    0  0.00000000000E+00  0.00000000000E+00 -0.73577566354E+03  0.39750563900E+04  0.39063675553E+04 0.  0.
        3    1    3    3  502    0  0.60080163987E+03  0.15752096180E+04  0.63569896466E+03  0.18017661155E+04  0.10100000352E+00 0. -1.
       -3    1    3    3    0  502 -0.60080163987E+03 -0.15752096180E+04 -0.13714746282E+04  0.21732902745E+04  0.10100000352E+00 0.  1.
</event>
<event>
 5   0  0.2904500E-09  0.3899279E+04  0.7818609E-02  0.8025179E-01
       -1   -1    0    0    0  501  0.00000000000E+00  0.00000000000E+00  0.30663880612E+04  0.30663880612E+04  0.50400001928E-02 0. -1.
        1   -1    0    0  501    0  0.00000000000E+00  0.00000000000E+00 -0.12396000468E+04  0.12396000468E+04  0.50400001928E-02 0.  1.
    10030    2    1    2    0    0  0.00000000000E+00  0.00000000000E+00  0.18267880144E+04  0.43059881079E+04  0.38992793098E+04 0.  0.
        2    1    3    3  502    0  0.13929437395E+04 -0.82542110777E+03  0.21127116840E+04  0.26617969355E+04  0.25500000920E-02 0. -1.
       -2    1    3    3    0  502 -0.13929437395E+04  0.82542110777E+03 -0.28592366955E+03  0.16441911724E+04  0.25500000920E-02 0.  1.
</event>
<event>
 5   0  0.2929054E-09  0.3900503E+04  0.7818609E-02  0.8024925E-01
       -1   -1    0    0    0  501  0.00000000000E+00  0.00000000000E+00  0.20414196993E+04  0.20414196993E+04  0.50400001928E-02 0.  1.
        1   -1    0    0  501    0  0.00000000000E+00  0.00000000000E+00 -0.18631549393E+04  0.18631549393E+04  0.50400001928E-02 0. -1.
    10030    2    1    2    0    0  0.00000000000E+00  0.00000000000E+00  0.17826475998E+03  0.39045746387E+04  0.39005031450E+04 0.  0.
        1    1    3    3  502    0  0.94396813630E+03  0.11010666201E+04  0.13943559907E+04  0.20118777729E+04  0.50400001928E-02 0.  1.
       -1    1    3    3    0  502 -0.94396813630E+03 -0.11010666201E+04 -0.12160912307E+04  0.18926968658E+04  0.50400001928E-02 0. -1.
</event>
<event>
 5   0  0.6335942E-09  0.3902412E+04  0.7818609E-02  0.8024528E-01
       -2   -1    0    0    0  501  0.00000000000E+00  0.00000000000E+00  0.17533610755E+04  0.17533610755E+04  0.25500000920E-02 0. -1.
        2   -1    0    0  501    0  0.00000000000E+00  0.00000000000E+00 -0.21713747776E+04  0.21713747776E+04  0.25500000920E-02 0.  1.
    10030    2    1    2    0    0  0.00000000000E+00  0.00000000000E+00 -0.41801370214E+03  0.39247358531E+04  0.39024115700E+04 0.  0.
        2    1    3    3  502    0  0.10099906668E+04 -0.16678001390E+04 -0.13397736455E+03  0.19543767255E+04  0.25500000920E-02 0. -1.
       -2    1    3    3    0  502 -0.10099906668E+04  0.16678001390E+04 -0.28403633758E+03  0.19703591276E+04  0.25500000920E-02 0.  1.
</event>
<event>
 5   0  0.6335942E-09  0.3898266E+04  0.7818609E-02  0.8025390E-01
        2   -1    0    0  501    0  0.00000000000E+00  0.00000000000E+00  0.19309022471E+04  0.19309022471E+04  0.25500000920E-02 0.  1.
       -2   -1    0    0    0  501  0.00000000000E+00  0.00000000000E+00 -0.19675361678E+04  0.19675361678E+04  0.25500000920E-02 0. -1.
    10030    2    1    2    0    0  0.00000000000E+00  0.00000000000E+00 -0.36633920695E+02  0.38984384149E+04  0.38982662853E+04 0.  0.
        2    1    3    3  502    0 -0.17922855553E+04  0.10461985972E+03 -0.77722277736E+03  0.19563507028E+04  0.25500000920E-02 0.  1.
       -2    1    3    3    0  502  0.17922855553E+04 -0.10461985972E+03  0.74058885666E+03  0.19420877121E+04  0.25500000920E-02 0. -1.
</event>
<event>
 5   0  0.6335942E-09  0.3899178E+04  0.7818609E-02  0.8025200E-01
       -2   -1    0    0    0  501  0.00000000000E+00  0.00000000000E+00  0.19193683991E+04  0.19193683991E+04  0.25500000920E-02 0. -1.
        2   -1    0    0  501    0  0.00000000000E+00  0.00000000000E+00 -0.19802851623E+04  0.19802851623E+04  0.25500000920E-02 0.  1.
    10030    2    1    2    0    0  0.00000000000E+00  0.00000000000E+00 -0.60916763227E+02  0.38996535615E+04  0.38991777399E+04 0.  0.
        2    1    3    3  502    0 -0.38617010859E+03 -0.17233409317E+04  0.79539382678E+03  0.19369260852E+04  0.25500000920E-02 0. -1.
       -2    1    3    3    0  502  0.38617010859E+03  0.17233409317E+04 -0.85631059000E+03  0.19627274763E+04  0.25500000920E-02 0.  1.
</event>
<event>
 5   0  0.2904500E-09  0.3902313E+04  0.7818609E-02  0.8024548E-01
       -1   -1    0    0    0  501  0.00000000000E+00  0.00000000000E+00  0.20694423895E+04  0.20694423895E+04  0.50400001928E-02 0. -1.
        1   -1    0    0  501    0  0.00000000000E+00  0.00000000000E+00 -0.18396314191E+04  0.18396314191E+04  0.50400001928E-02 0.  1.
    10030    2    1    2    0    0  0.00000000000E+00  0.00000000000E+00  0.22981097032E+03  0.39090738086E+04  0.39023127705E+04 0.  0.
        5    1    3    3  502    0 -0.37070940659E+03 -0.17655465822E+03 -0.17958563035E+04  0.18422049192E+04  0.46999998093E+01 0.  1.
       -5    1    3    3    0  502  0.37070940659E+03  0.17655465822E+03  0.20256672739E+04  0.20668688894E+04  0.46999998093E+01 0. -1.
</event>
<event>
 5   0  0.2904500E-09  0.3886806E+04  0.7818609E-02  0.8027779E-01
        1   -1    0    0  501    0  0.00000000000E+00  0.00000000000E+00  0.26156692802E+04  0.26156692802E+04  0.50400001928E-02 0.  1.
       -1   -1    0    0    0  501  0.00000000000E+00  0.00000000000E+00 -0.14439195266E+04  0.14439195266E+04  0.50400001928E-02 0. -1.
    10030    2    1    2    0    0  0.00000000000E+00  0.00000000000E+00  0.11717497537E+04  0.40595888068E+04  0.38868063748E+04 0.  0.
        4    1    3    3  502    0 -0.93427864424E+03  0.12133842919E+04  0.18355740789E+04  0.23905045152E+04  0.12699999809E+01 0. -1.
       -4    1    3    3    0  502  0.93427864424E+03 -0.12133842919E+04 -0.66382432528E+03  0.16690842917E+04  0.12699999809E+01 0.  1.
</event>
<event>
 5   0  0.2904500E-09  0.3898626E+04  0.7818609E-02  0.8025315E-01
       -1   -1    0    0    0  501  0.00000000000E+00  0.00000000000E+00  0.16326607144E+04  0.16326607144E+04  0.50400001928E-02 0. -1.
        1   -1    0    0  501    0  0.00000000000E+00  0.00000000000E+00 -0.23273790661E+04  0.23273790661E+04  0.50400001928E-02 0.  1.
    10030    2    1    2    0    0  0.00000000000E+00  0.00000000000E+00 -0.69471835179E+03  0.39600397805E+04  0.38986255879E+04 0.  0.
        3    1    3    3  502    0 -0.19122537290E+04  0.37548548673E+03 -0.39409135245E+03  0.19882182172E+04  0.10100000352E+00 0.  1.
       -3    1    3    3    0  502  0.19122537290E+04 -0.37548548673E+03 -0.30062699934E+03  0.19718215634E+04  0.10100000352E+00 0. -1.
</event>
<event>
 5   0  0.2904500E-09  0.3899165E+04  0.7818609E-02  0.8025203E-01
        1   -1    0    0  501    0  0.00000000000E+00  0.00000000000E+00  0.20183257216E+04  0.20183257216E+04  0.50400001928E-02 0. -1.
       -1   -1    0    0    0  501  0.00000000000E+00  0.00000000000E+00 -0.18831806772E+04  0.18831806772E+04  0.50400001928E-02 0.  1.
    10030    2    1    2    0    0  0.00000000000E+00  0.00000000000E+00  0.13514504440E+03  0.39015063988E+04  0.38991650384E+04 0.  0.
        4    1    3    3  502    0  0.14706065219E+04 -0.49595714663E+03 -0.11130569031E+04  0.19098571455E+04  0.12699999809E+01 0.  1.
       -4    1    3    3    0  502 -0.14706065219E+04  0.49595714663E+03  0.12482019475E+04  0.19916492533E+04  0.12699999809E+01 0. -1.
</event>
<event>
 5   0  0.2904500E-09  0.3901273E+04  0.7818609E-02  0.8024765E-01
       -1   -1    0    0    0  501  0.00000000000E+00  0.00000000000E+00  0.17631370163E+04  0.17631370163E+04  0.50400001928E-02 0. -1.
        1   -1    0    0  501    0  0.00000000000E+00  0.00000000000E+00 -0.21580751209E+04  0.21580751209E+04  0.50400001928E-02 0.  1.
    10030    2    1    2    0    0  0.00000000000E+00  0.00000000000E+00 -0.39493810458E+03  0.39212121373E+04  0.39012726794E+04 0.  0.
        2    1    3    3  502    0 -0.57708494755E+03  0.10921243620E+04 -0.17148935985E+04  0.21134385993E+04  0.25500000920E-02 0.  1.
       -2    1    3    3    0  502  0.57708494755E+03 -0.10921243620E+04  0.13199554939E+04  0.18077735380E+04  0.25500000920E-02 0. -1.
</event>
<event>
 5   0  0.9277261E-09  0.3898933E+04  0.7818609E-02  0.8025251E-01
       -2   -1    0    0    0  501  0.00000000000E+00  0.00000000000E+00  0.11520370576E+04  0.11520370576E+04  0.25500000920E-02 0.  1.
        2   -1    0    0  501    0  0.00000000000E+00  0.00000000000E+00 -0.32988693864E+04  0.32988693864E+04  0.25500000920E-02 0. -1.
    10030    2    1    2    0    0  0.00000000000E+00  0.00000000000E+00 -0.21468323288E+04  0.44509064441E+04  0.38989330753E+04 0.  0.
        1    1    3    3  502    0  0.84108459899E+03 -0.12217899748E+04 -0.25175030051E+04  0.29219882659E+04  0.50400001928E-02 0. -1.
       -1    1    3    3    0  502 -0.84108459899E+03  0.12217899748E+04  0.37067067627E+03  0.15289181782E+04  0.50400001928E-02 0.  1.
</event>
<event>
 5   0  0.6335942E-09  0.3899618E+04  0.7818609E-02  0.8025109E-01
       -2   -1    0    0    0  501  0.00000000000E+00  0.00000000000E+00  0.14023498807E+04  0.14023498807E+04  0.25500000920E-02 0. -1.
        2   -1    0    0  501    0  0.00000000000E+00  0.00000000000E+00 -0.27109892830E+04  0.27109892830E+04  0.25500000920E-02 0.  1.
    10030    2    1    2    0    0  0.00000000000E+00  0.00000000000E+00 -0.13086394023E+04  0.41133391637E+04  0.38996181852E+04 0.  0.
        2    1    3    3  502    0  0.35166967271E+03  0.19170366334E+04 -0.59602334151E+03  0.20381228707E+04  0.25500000920E-02 0.  1.
       -2    1    3    3    0  502 -0.35166967271E+03 -0.19170366334E+04 -0.71261606077E+03  0.20752162930E+04  0.25500000920E-02 0. -1.
</event>
<event>
 5   0  0.9078515E-09  0.3900236E+04  0.7818609E-02  0.8024980E-01
       -2   -1    0    0    0  501  0.00000000000E+00  0.00000000000E+00  0.17109258196E+04  0.17109258196E+04  0.25500000920E-02 0. -1.
        2   -1    0    0  501    0  0.00000000000E+00  0.00000000000E+00 -0.22227498067E+04  0.22227498068E+04  0.25500000920E-02 0.  1.
    10030    2    1    2    0    0  0.00000000000E+00  0.00000000000E+00 -0.51182398718E+03  0.39336756263E+04  0.39002359082E+04 0.  0.
        3    1    3    3  502    0  0.12952612775E+04  0.10638582834E+04  0.74936025104E+03  0.18360384038E+04  0.10100000352E+00 0. -1.
       -3    1    3    3    0  502 -0.12952612775E+04 -0.10638582834E+04 -0.12611842382E+04  0.20976372225E+04  0.10100000352E+00 0.  1.
</event>
<event>
 5   0  0.9078515E-09  0.3898736E+04  0.7818609E-02  0.8025292E-01
       -2   -1    0    0    0  501  0.00000000000E+00  0.00000000000E+00  0.20688920427E+04  0.20688920427E+04  0.25500000920E-02 0.  1.
        2   -1    0    0  501    0  0.00000000000E+00  0.00000000000E+00 -0.18367490529E+04  0.18367490529E+04  0.25500000920E-02 0. -1.
    10030    2    1    2    0    0  0.00000000000E+00  0.00000000000E+00  0.23214298982E+03  0.39056410956E+04  0.38987359490E+04 0.  0.
        3    1    3    3  502    0  0.26933663376E+03 -0.19206897719E+04 -0.80347360147E+02  0.19411458293E+04  0.10100000352E+00 0. -1.
       -3    1    3    3    0  502 -0.26933663376E+03  0.19206897719E+04  0.31249034997E+03  0.19644952663E+04  0.10100000352E+00 0.  1.
</event>
<event>
 5   0  0.2904500E-09  0.3900542E+04  0.7818609E-02  0.8024916E-01
        1   -1    0    0  501    0  0.00000000000E+00  0.00000000000E+00  0.21407710606E+04  0.21407710606E+04  0.50400001928E-02 0. -1.
       -1   -1    0    0    0  501  0.00000000000E+00  0.00000000000E+00 -0.17767229362E+04  0.17767229362E+04  0.50400001928E-02 0.  1.
    10030    2    1    2    0    0  0.00000000000E+00  0.00000000000E+00  0.36404812432E+03  0.39174939968E+04  0.39005420364E+04 0.  0.
        3    1    3    3  502    0 -0.19451384269E+04 -0.98333008469E+02  0.79974625831E+02  0.19492636639E+04  0.10100000352E+00 0. -1.
       -3    1    3    3    0  502  0.19451384269E+04  0.98333008469E+02  0.28407349849E+03  0.19682303329E+04  0.10100000352E+00 0.  1.
</event>
<event>
 5   0  0.2904500E-09  0.3901140E+04  0.7818609E-02  0.8024792E-01
       -1   -1    0    0    0  501  0.00000000000E+00  0.00000000000E+00  0.25399519730E+04  0.25399519730E+04  0.50400001928E-02 0. -1.
        1   -1    0    0  501    0  0.00000000000E+00  0.00000000000E+00 -0.14979508678E+04  0.14979508678E+04  0.50400001928E-02 0.  1.
    10030    2    1    2    0    0  0.00000000000E+00  0.00000000000E+00  0.10420011052E+04  0.40379028408E+04  0.39011399678E+04 0.  0.
        2    1    3    3  502    0  0.98702782742E+03 -0.15600494447E+04  0.11729592695E+04  0.21871926412E+04  0.25500000920E-02 0. -1.
       -2    1    3    3    0  502 -0.98702782742E+03  0.15600494447E+04 -0.13095816426E+03  0.18507101996E+04  0.25500000920E-02 0.  1.
</event>
<event>
 5   0  0.2904500E-09  0.3900413E+04  0.7818609E-02  0.8024943E-01
       -1   -1    0    0    0  501  0.00000000000E+00  0.00000000000E+00  0.23109876084E+04  0.23109876085E+04  0.50400001928E-02 0.  1.
        1   -1    0    0  501    0  0.00000000000E+00  0.00000000000E+00 -0.16457488278E+04  0.16457488278E+04  0.50400001928E-02 0. -1.
    10030    2    1    2    0    0  0.00000000000E+00  0.00000000000E+00  0.66523878063E+03  0.39567364363E+04  0.39004128744E+04 0.  0.
        3    1    3    3  502    0 -0.15084520555E+04 -0.12230955165E+04  0.51384652532E+03  0.20088376012E+04  0.10100000352E+00 0.  1.
       -3    1    3    3    0  502  0.15084520555E+04  0.12230955165E+04  0.15139225531E+03  0.19478988350E+04  0.10100000352E+00 0. -1.
</event>
<event>
 5   0  0.6335942E-09  0.3900365E+04  0.7818609E-02  0.8024953E-01
        2   -1    0    0  501    0  0.00000000000E+00  0.00000000000E+00  0.25639334637E+04  0.25639334637E+04  0.25500000920E-02 0.  1.
       -2   -1    0    0    0  501  0.00000000000E+00  0.00000000000E+00 -0.14833504168E+04  0.14833504168E+04  0.25500000920E-02 0. -1.
    10030    2    1    2    0    0  0.00000000000E+00  0.00000000000E+00  0.10805830469E+04  0.40472838805E+04  0.39003649942E+04 0.  0.
        2    1    3    3  502    0  0.45986271777E+03 -0.18939606806E+04  0.61105860082E+03  0.20425360199E+04  0.25500000920E-02 0. -1.
       -2    1    3    3    0  502 -0.45986271777E+03  0.18939606806E+04  0.46952444612E+03  0.20047478606E+04  0.25500000920E-02 0.  1.
</event>
<event>
 5   0  0.9434114E-09  0.3899288E+04  0.7818609E-02  0.8025177E-01
       -2   -1    0    0    0  501  0.00000000000E+00  0.00000000000E+00  0.21036301543E+04  0.21036301543E+04  0.25500000920E-02 0. -1.
        2   -1    0    0  501    0  0.00000000000E+00  0.00000000000E+00 -0.18069295190E+04  0.18069295190E+04  0.25500000920E-02 0.  1.
    10030    2    1    2    0    0  0.00000000000E+00  0.00000000000E+00  0.29670063528E+03  0.39105596733E+04  0.38992878441E+04 0.  0.
        4    1    3    3  502    0 -0.11041962987E+04 -0.14518351471E+02 -0.14630456276E+04  0.18330205590E+04  0.12699999809E+01 0.  1.
       -4    1    3    3    0  502  0.11041962987E+04  0.14518351471E+02  0.17597462628E+04  0.20775391142E+04  0.12699999809E+01 0. -1.
</event>
<event>
 5   0  0.9434114E-09  0.3899976E+04  0.7818609E-02  0.8025034E-01
        2   -1    0    0  501    0  0.00000000000E+00  0.00000000000E+00  0.27911124153E+04  0.27911124153E+04  0.25500000920E-02 0. -1.
       -2   -1    0    0    0  501  0.00000000000E+00  0.00000000000E+00 -0.13623434928E+04  0.13623434928E+04  0.25500000920E-02 0.  1.
    10030    2    1    2    0    0  0.00000000000E+00  0.00000000000E+00  0.14287689226E+04  0.41534559081E+04  0.38999763264E+04 0.  0.
        4    1    3    3  502    0 -0.94258574445E+03  0.24083135091E+03  0.25141899182E+04  0.26958524038E+04  0.12699999809E+01 0. -1.
       -4    1    3    3    0  502  0.94258574445E+03 -0.24083135091E+03 -0.10854209956E+04  0.14576035043E+04  0.12699999809E+01 0.  1.
</event>
<event>
 5   0  0.9078515E-09  0.3898218E+04  0.7818609E-02  0.8025400E-01
        2   -1    0    0  501    0  0.00000000000E+00  0.00000000000E+00  0.18985118050E+04  0.18985118050E+04  0.25500000920E-02 0. -1.
       -2   -1    0    0    0  501  0.00000000000E+00  0.00000000000E+00 -0.20010548638E+04  0.20010548638E+04  0.25500000920E-02 0.  1.
    10030    2    1    2    0    0  0.00000000000E+00  0.00000000000E+00 -0.10254305881E+03  0.38995666688E+04  0.38982181988E+04 0.  0.
        3    1    3    3  502    0 -0.79393552336E+03  0.44083926494E+03 -0.17764994936E+04  0.19951499527E+04  0.10100000352E+00 0.  1.
       -3    1    3    3    0  502  0.79393552336E+03 -0.44083926494E+03  0.16739564348E+04  0.19044167161E+04  0.10100000352E+00 0. -1.
</event>
<event>
 5   0  0.2904500E-09  0.3901582E+04  0.7818609E-02  0.8024700E-01
       -1   -1    0    0    0  501  0.00000000000E+00  0.00000000000E+00  0.17648754242E+04  0.17648754243E+04  0.50400001928E-02 0. -1.
        1   -1    0    0  501    0  0.00000000000E+00  0.00000000000E+00 -0.21562918175E+04  0.21562918175E+04  0.50400001928E-02 0.  1.
    10030    2    1    2    0    0  0.00000000000E+00  0.00000000000E+00 -0.39141639320E+03  0.39211672417E+04  0.39015824667E+04 0.  0.
        2    1    3    3  502    0 -0.89366684612E+03 -0.17303156543E+04 -0.81322379601E+02  0.19491654688E+04  0.25500000920E-02 0. -1.
       -2    1    3    3    0  502  0.89366684612E+03  0.17303156543E+04 -0.31009401360E+03  0.19720017729E+04  0.25500000920E-02 0.  1.
</event>
<event>
 5   0  0.9277261E-09  0.3898284E+04  0.7818609E-02  0.8025386E-01
       -2   -1    0    0    0  501  0.00000000000E+00  0.00000000000E+00  0.16169606608E+04  0.16169606608E+04  0.25500000920E-02 0.  1.
        2   -1    0    0  501    0  0.00000000000E+00  0.00000000000E+00 -0.23495650034E+04  0.23495650034E+04  0.25500000920E-02 0. -1.
    10030    2    1    2    0    0  0.00000000000E+00  0.00000000000E+00 -0.73260434251E+03  0.39665256642E+04  0.38982838175E+04 0.  0.
        1    1    3    3  502    0 -0.11558859021E+04  0.73279496053E+03 -0.17784348301E+04  0.22440791247E+04  0.50400001928E-02 0. -1.
       -1    1    3    3    0  502  0.11558859021E+04 -0.73279496053E+03  0.10458304876E+04  0.17224465395E+04  0.50400001928E-02 0.  1.
</event>
<event>
 5   0  0.2904500E-09  0.3899762E+04  0.7818609E-02  0.8025079E-01
        1   -1    0    0  501    0  0.00000000000E+00  0.00000000000E+00  0.18679410980E+04  0.18679410980E+04  0.50400001928E-02 0.  1.
       -1   -1    0    0    0  501  0.00000000000E+00  0.00000000000E+00 -0.20354155106E+04  0.20354155106E+04  0.50400001928E-02 0. -1.
    10030    2    1    2    0    0  0.00000000000E+00  0.00000000000E+00 -0.16747441264E+03  0.39033566086E+04  0.38997621895E+04 0.  0.
        2    1    3    3  502    0 -0.98159942274E+03 -0.79132169570E+03 -0.15724913465E+04  0.20155536429E+04  0.25500000920E-02 0. -1.
       -2    1    3    3    0  502  0.98159942274E+03  0.79132169570E+03  0.14050169338E+04  0.18878029656E+04  0.25500000920E-02 0.  1.
</event>
<event>
 5   0  0.9368546E-09  0.3900413E+04  0.7818609E-02  0.8024943E-01
        2   -1    0    0  501    0  0.00000000000E+00  0.00000000000E+00  0.15928688286E+04  0.15928688286E+04  0.25500000920E-02 0. -1.
       -2   -1    0    0    0  501  0.00000000000E+00  0.00000000000E+00 -0.23877082169E+04  0.23877082169E+04  0.25500000920E-02 0.  1.
    10030    2    1    2    0    0  0.00000000000E+00  0.00000000000E+00 -0.79483938821E+03  0.39805770455E+04  0.39004133066E+04 0.  0.
        5    1    3    3  502    0  0.59857706610E+03  0.11359698406E+02  0.14967601699E+04  0.16120597516E+04  0.46999998093E+01 0. -1.
       -5    1    3    3    0  502 -0.59857706610E+03 -0.11359698406E+02 -0.22915995581E+04  0.23685172939E+04  0.46999998093E+01 0.  1.
</event>
<event>
 5   0  0.9078515E-09  0.3900625E+04  0.7818609E-02  0.8024899E-01
        2   -1    0    0  501    0  0.00000000000E+00  0.00000000000E+00  0.23534978096E+04  0.23534978096E+04  0.25500000920E-02 0.  1.
       -2   -1    0    0    0  501  0.00000000000E+00  0.00000000000E+00 -0.16161978824E+04  0.16161978824E+04  0.25500000920E-02 0. -1.
    10030    2    1    2    0    0  0.00000000000E+00  0.00000000000E+00  0.73729992719E+03  0.39696956921E+04  0.39006246557E+04 0.  0.
        3    1    3    3  502    0 -0.71095497899E+03 -0.10601507177E+03  0.22137688704E+04  0.23275456600E+04  0.10100000352E+00 0.  1.
       -3    1    3    3    0  502  0.71095497899E+03  0.10601507177E+03 -0.14764689432E+04  0.16421500321E+04  0.10100000352E+00 0. -1.
</event>
<event>
 5   0  0.2904500E-09  0.3903775E+04  0.7818609E-02  0.8024244E-01
       -1   -1    0    0    0  501  0.00000000000E+00  0.00000000000E+00  0.15648755878E+04  0.15648755878E+04  0.50400001928E-02 0.  1.
        1   -1    0    0  501    0  0.00000000000E+00  0.00000000000E+00 -0.24346122884E+04  0.24346122884E+04  0.50400001928E-02 0. -1.
    10030    2    1    2    0    0  0.00000000000E+00  0.00000000000E+00 -0.86973670054E+03  0.39994878762E+04  0.39037752681E+04 0.  0.
        2    1    3    3  502    0 -0.91105134187E+03  0.11079046865E+03 -0.21997700462E+04  0.23835430207E+04  0.25500000920E-02 0. -1.
       -2    1    3    3    0  502  0.91105134187E+03 -0.11079046865E+03  0.13300333457E+04  0.16159448555E+04  0.25500000920E-02 0.  1.
</event>
<event>
 5   0  0.9368546E-09  0.3901800E+04  0.7818609E-02  0.8024655E-01
       -2   -1    0    0    0  501  0.00000000000E+00  0.00000000000E+00  0.31919816681E+04  0.31919816681E+04  0.25500000920E-02 0.  1.
        2   -1    0    0  501    0  0.00000000000E+00  0.00000000000E+00 -0.11923660032E+04  0.11923660032E+04  0.25500000920E-02 0. -1.
    10030    2    1    2    0    0  0.00000000000E+00  0.00000000000E+00  0.19996156649E+04  0.43843476713E+04  0.39017998021E+04 0.  0.
        5    1    3    3  502    0  0.19010386235E+03 -0.49066435001E+03  0.31107280656E+04  0.31549234810E+04  0.46999998093E+01 0.  1.
       -5    1    3    3    0  502 -0.19010386235E+03  0.49066435001E+03 -0.11111124007E+04  0.12294241903E+04  0.46999998093E+01 0. -1.
</event>
<event>
 5   0  0.2904500E-09  0.3899404E+04  0.7818609E-02  0.8025153E-01
       -1   -1    0    0    0  501  0.00000000000E+00  0.00000000000E+00  0.16527092771E+04  0.16527092771E+04  0.50400001928E-02 0.  1.
        1   -1    0    0  501    0  0.00000000000E+00  0.00000000000E+00 -0.23000643749E+04  0.23000643749E+04  0.50400001928E-02 0. -1.
    10030    2    1    2    0    0  0.00000000000E+00  0.00000000000E+00 -0.64735509776E+03  0.39527736520E+04  0.38994039188E+04 0.  0.
        5    1    3    3  502    0  0.12010221632E+04  0.89023986054E+03 -0.15923396447E+04  0.21841586205E+04  0.46999998093E+01 0. -1.
       -5    1    3    3    0  502 -0.12010221632E+04 -0.89023986054E+03  0.94498454689E+03  0.17686150315E+04  0.46999998093E+01 0.  1.
</event>
<event>
 5   0  0.6335942E-09  0.3900997E+04  0.7818609E-02  0.8024822E-01
        2   -1    0    0  501    0  0.00000000000E+00  0.00000000000E+00  0.26985481894E+04  0.26985481894E+04  0.25500000920E-02 0.  1.
       -2   -1    0    0    0  501  0.00000000000E+00  0.00000000000E+00 -0.14098115484E+04  0.14098115484E+04  0.25500000920E-02 0. -1.
    10030    2    1    2    0    0  0.00000000000E+00  0.00000000000E+00  0.12887366409E+04  0.41083597378E+04  0.39009970015E+04 0.  0.
        2    1    3    3  502    0 -0.22683894454E+03 -0.91383228221E+03 -0.11546184914E+04  0.14898621438E+04  0.25500000920E-02 0. -1.
       -2    1    3    3    0  502  0.22683894454E+03  0.91383228221E+03  0.24433551324E+04  0.26184975940E+04  0.25500000920E-02 0.  1.
</event>
<event>
 5   0  0.6335942E-09  0.3900771E+04  0.7818609E-02  0.8024869E-01
        2   -1    0    0  501    0  0.00000000000E+00  0.00000000000E+00  0.20017810153E+04  0.20017810153E+04  0.25500000920E-02 0. -1.
       -2   -1    0    0    0  501  0.00000000000E+00  0.00000000000E+00 -0.19003093799E+04  0.19003093799E+04  0.25500000920E-02 0.  1.
    10030    2    1    2    0    0  0.00000000000E+00  0.00000000000E+00  0.10147163532E+03  0.39020903952E+04  0.39007708161E+04 0.  0.
        2    1    3    3  502    0  0.60485210087E+03 -0.91161735381E+03 -0.15644654629E+04  0.19090428095E+04  0.25500000920E-02 0.  1.
       -2    1    3    3    0  502 -0.60485210087E+03  0.91161735381E+03  0.16659370982E+04  0.19930475857E+04  0.25500000920E-02 0. -1.
</event>
<event>
 5   0  0.2904500E-09  0.3896941E+04  0.7818609E-02  0.8025666E-01
        1   -1    0    0  501    0  0.00000000000E+00  0.00000000000E+00  0.17097382219E+04  0.17097382219E+04  0.50400001928E-02 0. -1.
       -1   -1    0    0    0  501  0.00000000000E+00  0.00000000000E+00 -0.22205375903E+04  0.22205375903E+04  0.50400001928E-02 0.  1.
    10030    2    1    2    0    0  0.00000000000E+00  0.00000000000E+00 -0.51079936840E+03  0.39302758122E+04  0.38969413602E+04 0.  0.
        3    1    3    3  502    0  0.30628271099E+03  0.13554806942E+04  0.11220801732E+04  0.17861133605E+04  0.10100000352E+00 0. -1.
       -3    1    3    3    0  502 -0.30628271099E+03 -0.13554806942E+04 -0.16328795416E+04  0.21441624516E+04  0.10100000352E+00 0.  1.
</event>
<event>
 5   0  0.9434114E-09  0.3899755E+04  0.7818609E-02  0.8025080E-01
        2   -1    0    0  501    0  0.00000000000E+00  0.00000000000E+00  0.16459895844E+04  0.16459895844E+04  0.25500000920E-02 0. -1.
       -2   -1    0    0    0  501  0.00000000000E+00  0.00000000000E+00 -0.23098706068E+04  0.23098706068E+04  0.25500000920E-02 0.  1.
    10030    2    1    2    0    0  0.00000000000E+00  0.00000000000E+00 -0.66388102246E+03  0.39558601912E+04  0.38997553565E+04 0.  0.
        4    1    3    3  502    0 -0.63449326227E+03  0.17496121303E+04  0.25806038367E+03  0.18789148679E+04  0.12699999809E+01 0. -1.
       -4    1    3    3    0  502  0.63449326227E+03 -0.17496121303E+04 -0.92194140613E+03  0.20769453232E+04  0.12699999809E+01 0.  1.
</event>
<event>
 5   0  0.2929054E-09  0.3904367E+04  0.7818609E-02  0.8024122E-01
       -1   -1    0    0    0  501  0.00000000000E+00  0.00000000000E+00  0.21146689047E+04  0.21146689047E+04  0.50400001928E-02 0. -1.
        1   -1    0    0  501    0  0.00000000000E+00  0.00000000000E+00 -0.18021832387E+04  0.18021832387E+04  0.50400001928E-02 0.  1.
    10030    2    1    2    0    0  0.00000000000E+00  0.00000000000E+00  0.31248566601E+03  0.39168521435E+04  0.39043672243E+04 0.  0.
        1    1    3    3  502    0  0.65832829676E+03 -0.18151070328E+04 -0.13279506078E+03  0.19353666874E+04  0.50400001928E-02 0.  1.
       -1    1    3    3    0  502 -0.65832829676E+03  0.18151070328E+04  0.44528072679E+03  0.19814854560E+04  0.50400001928E-02 0. -1.
</event>
<event>
 5   0  0.6335942E-09  0.3897034E+04  0.7818609E-02  0.8025646E-01
        2   -1    0    0  501    0  0.00000000000E+00  0.00000000000E+00  0.20138608387E+04  0.20138608387E+04  0.25500000920E-02 0. -1.
       -2   -1    0    0    0  501  0.00000000000E+00  0.00000000000E+00 -0.18852931476E+04  0.18852931476E+04  0.25500000920E-02 0.  1.
    10030    2    1    2    0    0  0.00000000000E+00  0.00000000000E+00  0.12856769109E+03  0.38991539863E+04  0.38970337639E+04 0.  0.
        2    1    3    3  502    0  0.93728798038E+03  0.76095531239E+03 -0.14659783122E+04  0.18991193110E+04  0.25500000920E-02 0.  1.
       -2    1    3    3    0  502 -0.93728798038E+03 -0.76095531239E+03  0.15945460033E+04  0.20000346752E+04  0.25500000920E-02 0. -1.
</event>
<event>
 5   0  0.2904500E-09  0.3901447E+04  0.7818609E-02  0.8024728E-01
       -1   -1    0    0    0  501  0.00000000000E+00  0.00000000000E+00  0.18781373674E+04  0.18781373674E+04  0.50400001928E-02 0. -1.
        1   -1    0    0  501    0  0.00000000000E+00  0.00000000000E+00 -0.20261149406E+04  0.20261149406E+04  0.50400001928E-02 0.  1.
    10030    2    1    2    0    0  0.00000000000E+00  0.00000000000E+00 -0.14797757315E+03  0.39042523080E+04  0.39014470036E+04 0.  0.
        3    1    3    3  502    0  0.18079390228E+04 -0.71851693340E+03 -0.21696235548E+03  0.19575450870E+04  0.10100000352E+00 0.  1.
       -3    1    3    3    0  502 -0.18079390228E+04  0.71851693340E+03  0.68984782330E+02  0.19467072210E+04  0.10100000352E+00 0. -1.
</event>
<event>
 5   0  0.9277261E-09  0.3898894E+04  0.7818609E-02  0.8025259E-01
       -2   -1    0    0    0  501  0.00000000000E+00  0.00000000000E+00  0.24766107241E+04  0.24766107241E+04  0.25500000920E-02 0. -1.
        2   -1    0    0  501    0  0.00000000000E+00  0.00000000000E+00 -0.15344937121E+04  0.15344937121E+04  0.25500000920E-02 0.  1.
    10030    2    1    2    0    0  0.00000000000E+00  0.00000000000E+00  0.94211701199E+03  0.40111044362E+04  0.38988939885E+04 0.  0.
        1    1    3    3  502    0 -0.14246189883E+04  0.20111155288E+03  0.18243476061E+04  0.23234089839E+04  0.50400001928E-02 0. -1.
       -1    1    3    3    0  502  0.14246189883E+04 -0.20111155288E+03 -0.88223059411E+03  0.16876954523E+04  0.50400001928E-02 0.  1.
</event>
<event>
 5   0  0.9368546E-09  0.3899042E+04  0.7818609E-02  0.8025228E-01
        2   -1    0    0  501    0  0.00000000000E+00  0.00000000000E+00  0.13608696783E+04  0.13608696783E+04  0.25500000920E-02 0. -1.
       -2   -1    0    0    0  501  0.00000000000E+00  0.00000000000E+00 -0.27927968298E+04  0.27927968298E+04  0.25500000920E-02 0.  1.
    10030    2    1    2    0    0  0.00000000000E+00  0.00000000000E+00 -0.14319271515E+04  0.41536665081E+04  0.38990422021E+04 0.  0.
        5    1    3    3  502    0  0.95591178839E+03 -0.31954955174E+02  0.10937442162E+04  0.14529580059E+04  0.46999998093E+01 0. -1.
       -5    1    3    3    0  502 -0.95591178839E+03  0.31954955174E+02 -0.25256713677E+04  0.27007085022E+04  0.46999998093E+01 0.  1.
</event>
<event>
 5   0  0.2929054E-09  0.3899057E+04  0.7818609E-02  0.8025225E-01
       -1   -1    0    0    0  501  0.00000000000E+00  0.00000000000E+00  0.19040462955E+04  0.19040462956E+04  0.50400001928E-02 0.  1.
        1   -1    0    0  501    0  0.00000000000E+00  0.00000000000E+00 -0.19960973703E+04  0.19960973703E+04  0.50400001928E-02 0. -1.
    10030    2    1    2    0    0  0.00000000000E+00  0.00000000000E+00 -0.92051074778E+02  0.39001436659E+04  0.38990572212E+04 0.  0.
        1    1    3    3  502    0 -0.16490078255E+04  0.19356090670E+03 -0.10680583356E+04  0.19741938206E+04  0.50400001928E-02 0. -1.
       -1    1    3    3    0  502  0.16490078255E+04 -0.19356090670E+03  0.97600726084E+03  0.19259498452E+04  0.50400001928E-02 0.  1.
</event>
<event>
 5   0  0.2904500E-09  0.3899112E+04  0.7818609E-02  0.8025214E-01
        1   -1    0    0  501    0  0.00000000000E+00  0.00000000000E+00  0.23032441362E+04  0.23032441362E+04  0.50400001928E-02 0. -1.
       -1   -1    0    0    0  501  0.00000000000E+00  0.00000000000E+00 -0.16501805424E+04  0.16501805424E+04  0.50400001928E-02 0.  1.
    10030    2    1    2    0    0  0.00000000000E+00  0.00000000000E+00  0.65306359377E+03  0.39534246785E+04  0.38991120311E+04 0.  0.
        2    1    3    3  502    0 -0.14634913740E+03  0.56016774857E+03 -0.15610015559E+04  0.16649119599E+04  0.25500000920E-02 0.  1.
       -2    1    3    3    0  502  0.14634913740E+03 -0.56016774857E+03  0.22140651497E+04  0.22885127187E+04  0.25500000920E-02 0. -1.
</event>
<event>
 5   0  0.2904500E-09  0.3900720E+04  0.7818609E-02  0.8024880E-01
        1   -1    0    0  501    0  0.00000000000E+00  0.00000000000E+00  0.17903765566E+04  0.17903765566E+04  0.50400001928E-02 0.  1.
       -1   -1    0    0    0  501  0.00000000000E+00  0.00000000000E+00 -0.21246389681E+04  0.21246389681E+04  0.50400001928E-02 0. -1.
    10030    2    1    2    0    0  0.00000000000E+00  0.00000000000E+00 -0.33426241143E+03  0.39150155247E+04  0.39007198309E+04 0.  0.
        4    1    3    3  502    0  0.35282168344E+02  0.42766364746E+03 -0.20766708893E+04  0.21205434733E+04  0.12699999809E+01 0. -1.
       -4    1    3    3    0  502 -0.35282168344E+02 -0.42766364746E+03  0.17424084778E+04  0.17944720514E+04  0.12699999809E+01 0.  1.
</event>
<event>
 5   0  0.6335942E-09  0.3899142E+04  0.7818609E-02  0.8025208E-01
        2   -1    0    0  501    0  0.00000000000E+00  0.00000000000E+00  0.20507042624E+04  0.20507042624E+04  0.25500000920E-02 0.  1.
       -2   -1    0    0    0  501  0.00000000000E+00  0.00000000000E+00 -0.18534250072E+04  0.18534250072E+04  0.25500000920E-02 0. -1.
    10030    2    1    2    0    0  0.00000000000E+00  0.00000000000E+00  0.19727925527E+03  0.39041292696E+04  0.38991417324E+04 0.  0.
        2    1    3    3  502    0  0.68416002326E+03 -0.88431225544E+03 -0.15005080000E+04  0.18712582293E+04  0.25500000920E-02 0. -1.
       -2    1    3    3    0  502 -0.68416002326E+03  0.88431225544E+03  0.16977872553E+04  0.20328710403E+04  0.25500000920E-02 0.  1.
</event>
<event>
 5   0  0.6335942E-09  0.3895678E+04  0.7818609E-02  0.8025929E-01
       -2   -1    0    0    0  501  0.00000000000E+00  0.00000000000E+00  0.24862046120E+04  0.24862046120E+04  0.25500000920E-02 0. -1.
        2   -1    0    0  501    0  0.00000000000E+00  0.00000000000E+00 -0.15260514319E+04  0.15260514319E+04  0.25500000920E-02 0.  1.
    10030    2    1    2    0    0  0.00000000000E+00  0.00000000000E+00  0.96015318006E+03  0.40122560439E+04  0.38956776602E+04 0.  0.
        2    1    3    3  502    0 -0.53812386999E+03  0.18407550743E+03  0.23987844108E+04  0.24652845153E+04  0.25500000920E-02 0. -1.
       -2    1    3    3    0  502  0.53812386999E+03 -0.18407550743E+03 -0.14386312308E+04  0.15469715285E+04  0.25500000920E-02 0.  1.
</event>
<event>
 5   0  0.9434114E-09  0.3899684E+04  0.7818609E-02  0.8025095E-01
        2   -1    0    0  501    0  0.00000000000E+00  0.00000000000E+00  0.26959526825E+04  0.26959526825E+04  0.25500000920E-02 0.  1.
       -2   -1    0    0    0  501  0.00000000000E+00  0.00000000000E+00 -0.14102193883E+04  0.14102193883E+04  0.25500000920E-02 0. -1.
    10030    2    1    2    0    0  0.00000000000E+00  0.00000000000E+00  0.12857332943E+04  0.41061720708E+04  0.38996844707E+04 0.  0.
        4    1    3    3  502    0  0.18300903878E+04 -0.60576207564E+03  0.33461190457E+03  0.19565646576E+04  0.12699999809E+01 0.  1.
       -4    1    3    3    0  502 -0.18300903878E+04  0.60576207564E+03  0.95112138973E+03  0.21496074132E+04  0.12699999809E+01 0. -1.
</event>
<event>
 5   0  0.9078515E-09  0.3900351E+04  0.7818609E-02  0.8024956E-01
        2   -1    0    0  501    0  0.00000000000E+00  0.00000000000E+00  0.29840562578E+04  0.29840562578E+04  0.25500000920E-02 0. -1.
       -2   -1    0    0    0  501  0.00000000000E+00  0.00000000000E+00 -0.12745016710E+04  0.12745016710E+04  0.25500000920E-02 0.  1.
    10030    2    1    2    0    0  0.00000000000E+00  0.00000000000E+00  0.17095545868E+04  0.42585579287E+04  0.39003511056E+04 0.  0.
        3    1    3    3  502    0  0.17160053305E+03  0.11788337507E+04 -0.83107717200E+03  0.14525099073E+04  0.10100000352E+00 0.  1.
       -3    1    3    3    0  502 -0.17160053305E+03 -0.11788337507E+04  0.25406317588E+04  0.28060480215E+04  0.10100000352E+00 0. -1.
</event>
<event>
 5   0  0.6335942E-09  0.3904855E+04  0.7818609E-02  0.8024020E-01
       -2   -1    0    0    0  501  0.00000000000E+00  0.00000000000E+00  0.15016140434E+04  0.15016140434E+04  0.25500000920E-02 0. -1.
        2   -1    0    0  501    0  0.00000000000E+00  0.00000000000E+00 -0.25385840097E+04  0.25385840097E+04  0.25500000920E-02 0.  1.
    10030    2    1    2    0    0  0.00000000000E+00  0.00000000000E+00 -0.10369699663E+04  0.40401980531E+04  0.39048551314E+04 0.  0.
        2    1    3    3  502    0 -0.14053308572E+04 -0.13120277640E+04 -0.16669789862E+03  0.19298082447E+04  0.25500000920E-02 0. -1.
       -2    1    3    3    0  502  0.14053308572E+04  0.13120277640E+04 -0.87027206767E+03  0.21103898084E+04  0.25500000920E-02 0.  1.
</event>
<event>
 5   0  0.9434114E-09  0.3897591E+04  0.7818609E-02  0.8025530E-01
        2   -1    0    0  501    0  0.00000000000E+00  0.00000000000E+00  0.14268420550E+04  0.14268420550E+04  0.25500000920E-02 0. -1.
       -2   -1    0    0    0  501  0.00000000000E+00  0.00000000000E+00 -0.26616852108E+04  0.26616852108E+04  0.25500000920E-02 0.  1.
    10030    2    1    2    0    0  0.00000000000E+00  0.00000000000E+00 -0.12348431558E+04  0.40885272658E+04  0.38975912541E+04 0.  0.
        4    1    3    3  502    0 -0.11879841595E+04  0.15252751027E+04 -0.36040388073E+03  0.19666375041E+04  0.12699999809E+01 0. -1.
       -4    1    3    3    0  502  0.11879841595E+04 -0.15252751027E+04 -0.87443927505E+03  0.21218897617E+04  0.12699999809E+01 0.  1.
</event>
<event>
 5   0  0.6335942E-09  0.3899294E+04  0.7818609E-02  0.8025176E-01
        2   -1    0    0  501    0  0.00000000000E+00  0.00000000000E+00  0.16391052591E+04  0.16391052592E+04  0.25500000920E-02 0. -1.
       -2   -1    0    0    0  501  0.00000000000E+00  0.00000000000E+00 -0.23190234156E+04  0.23190234156E+04  0.25500000920E-02 0.  1.
    10030    2    1    2    0    0  0.00000000000E+00  0.00000000000E+00 -0.67991815648E+03  0.39581286748E+04  0.38992940267E+04 0.  0.
        2    1    3    3  502    0 -0.13053102725E+04  0.75724841848E+03 -0.15930337264E+04  0.21943145919E+04  0.25500000920E-02 0.  1.
       -2    1    3    3    0  502  0.13053102725E+04 -0.75724841848E+03  0.91311556992E+03  0.17638140829E+04  0.25500000920E-02 0. -1.
</event>
<event>
 5   0  0.9434114E-09  0.3926586E+04  0.7818609E-02  0.8019522E-01
        2   -1    0    0  501    0  0.00000000000E+00  0.00000000000E+00  0.19091011937E+04  0.19091011937E+04  0.25500000920E-02 0.  1.
       -2   -1    0    0    0  501  0.00000000000E+00  0.00000000000E+00 -0.20190233365E+04  0.20190233365E+04  0.25500000920E-02 0. -1.
    10030    2    1    2    0    0  0.00000000000E+00  0.00000000000E+00 -0.10992214272E+03  0.39281245302E+04  0.39265862333E+04 0.  0.
        4    1    3    3  502    0  0.17028285406E+02 -0.75795862130E+03  0.17567500754E+04  0.19133644907E+04  0.12699999809E+01 0.  1.
       -4    1    3    3    0  502 -0.17028285406E+02  0.75795862130E+03 -0.18666722181E+04  0.20147600395E+04  0.12699999809E+01 0. -1.
</event>
<event>
 5   0  0.9078515E-09  0.3909036E+04  0.7818609E-02  0.8023153E-01
        2   -1    0    0  501    0  0.00000000000E+00  0.00000000000E+00  0.21348047577E+04  0.21348047577E+04  0.25500000920E-02 0.  1.
       -2   -1    0    0    0  501  0.00000000000E+00  0.00000000000E+00 -0.17894564803E+04  0.17894564803E+04  0.25500000920E-02 0. -1.
    10030    2    1    2    0    0  0.00000000000E+00  0.00000000000E+00  0.34534827735E+03  0.39242612380E+04  0.39090357930E+04 0.  0.
        3    1    3    3  502    0  0.57839402881E+03 -0.14379928501E+03  0.20413544693E+04  0.21265808158E+04  0.10100000352E+00 0.  1.
       -3    1    3    3    0  502 -0.57839402881E+03  0.14379928501E+03 -0.16960061919E+04  0.17976804221E+04  0.10100000352E+00 0. -1.
</event>
<event>
 5   0  0.2904500E-09  0.3902398E+04  0.7818609E-02  0.8024531E-01
        1   -1    0    0  501    0  0.00000000000E+00  0.00000000000E+00  0.18120724524E+04  0.18120724524E+04  0.50400001928E-02 0. -1.
       -1   -1    0    0    0  501  0.00000000000E+00  0.00000000000E+00 -0.21010078141E+04  0.21010078141E+04  0.50400001928E-02 0.  1.
    10030    2    1    2    0    0  0.00000000000E+00  0.00000000000E+00 -0.28893536173E+03  0.39130802666E+04  0.39023984329E+04 0.  0.
        2    1    3    3  502    0 -0.18071521158E+04  0.48057266132E+03 -0.70315480377E+03  0.19977926645E+04  0.25500000920E-02 0.  1.
       -2    1    3    3    0  502  0.18071521158E+04 -0.48057266132E+03  0.41421944204E+03  0.19152876020E+04  0.25500000920E-02 0. -1.
</event>
<event>
 5   0  0.9078515E-09  0.3895449E+04  0.7818609E-02  0.8025976E-01
       -2   -1    0    0    0  501  0.00000000000E+00  0.00000000000E+00  0.21274985273E+04  0.21274985273E+04  0.25500000920E-02 0.  1.
        2   -1    0    0  501    0  0.00000000000E+00  0.00000000000E+00 -0.17831411868E+04  0.17831411868E+04  0.25500000920E-02 0. -1.
    10030    2    1    2    0    0  0.00000000000E+00  0.00000000000E+00  0.34435734050E+03  0.39106397140E+04  0.38954487540E+04 0.  0.
        3    1    3    3  502    0  0.10943503574E+04  0.16056782477E+04  0.30620923507E+03  0.19671221227E+04  0.10100000352E+00 0. -1.
       -3    1    3    3    0  502 -0.10943503574E+04 -0.16056782477E+04  0.38148105424E+02  0.19435175914E+04  0.10100000352E+00 0.  1.
</event>
<event>
 5   0  0.9078515E-09  0.3899917E+04  0.7818609E-02  0.8025046E-01
        2   -1    0    0  501    0  0.00000000000E+00  0.00000000000E+00  0.13868601002E+04  0.13868601002E+04  0.25500000920E-02 0.  1.
       -2   -1    0    0    0  501  0.00000000000E+00  0.00000000000E+00 -0.27416888559E+04  0.27416888559E+04  0.25500000920E-02 0. -1.
    10030    2    1    2    0    0  0.00000000000E+00  0.00000000000E+00 -0.13548287557E+04  0.41285489561E+04  0.38999173742E+04 0.  0.
        3    1    3    3  502    0 -0.98760618113E+03  0.31457305904E+03 -0.24259140073E+04  0.26380638657E+04  0.10100000352E+00 0. -1.
       -3    1    3    3    0  502  0.98760618113E+03 -0.31457305904E+03  0.10710852516E+04  0.14904850904E+04  0.10100000352E+00 0.  1.
</event>
<event>
 5   0  0.9368546E-09  0.3900491E+04  0.7818609E-02  0.8024927E-01
       -2   -1    0    0    0  501  0.00000000000E+00  0.00000000000E+00  0.12220909452E+04  0.12220909452E+04  0.25500000920E-02 0. -1.
        2   -1    0    0  501    0  0.00000000000E+00  0.00000000000E+00 -0.31122544963E+04  0.31122544963E+04  0.25500000920E-02 0.  1.
    10030    2    1    2    0    0  0.00000000000E+00  0.00000000000E+00 -0.18901635511E+04  0.43343454414E+04  0.39004912711E+04 0.  0.
        5    1    3    3  502    0  0.41347149718E+03  0.17913130786E+03 -0.30536076683E+04  0.30866792167E+04  0.46999998093E+01 0.  1.
       -5    1    3    3    0  502 -0.41347149718E+03 -0.17913130786E+03  0.11634441173E+04  0.12476662248E+04  0.46999998093E+01 0. -1.
</event>
<event>
 5   0  0.2904500E-09  0.3900048E+04  0.7818609E-02  0.8025019E-01
        1   -1    0    0  501    0  0.00000000000E+00  0.00000000000E+00  0.22634498508E+04  0.22634498509E+04  0.50400001928E-02 0. -1.
       -1   -1    0    0    0  501  0.00000000000E+00  0.00000000000E+00 -0.16799986476E+04  0.16799986476E+04  0.50400001928E-02 0.  1.
    10030    2    1    2    0    0  0.00000000000E+00  0.00000000000E+00  0.58345120327E+03  0.39434484984E+04  0.39000475322E+04 0.  0.
        4    1    3    3  502    0  0.15420533415E+04  0.11889115327E+04  0.18494769911E+03  0.19559259712E+04  0.12699999809E+01 0. -1.
       -4    1    3    3    0  502 -0.15420533415E+04 -0.11889115327E+04  0.39850350416E+03  0.19875225272E+04  0.12699999809E+01 0.  1.
</event>
<event>
 5   0  0.2904500E-09  0.3898945E+04  0.7818609E-02  0.8025249E-01
       -1   -1    0    0    0  501  0.00000000000E+00  0.00000000000E+00  0.28388609353E+04  0.28388609353E+04  0.50400001928E-02 0. -1.
        1   -1    0    0  501    0  0.00000000000E+00  0.00000000000E+00 -0.13387212669E+04  0.13387212669E+04  0.50400001928E-02 0.  1.
    10030    2    1    2    0    0  0.00000000000E+00  0.00000000000E+00  0.15001396684E+04  0.41775822023E+04  0.38989452461E+04 0.  0.
        5    1    3    3  502    0  0.78860274903E+03 -0.15168564243E+04  0.17538634122E+04  0.24492461424E+04  0.46999998093E+01 0. -1.
       -5    1    3    3    0  502 -0.78860274903E+03  0.15168564243E+04 -0.25372374375E+03  0.17283360599E+04  0.46999998093E+01 0.  1.
</event>
<event>
 5   0  0.2904500E-09  0.3904129E+04  0.7818609E-02  0.8024171E-01
       -1   -1    0    0    0  501  0.00000000000E+00  0.00000000000E+00  0.13806425436E+04  0.13806425436E+04  0.50400001928E-02 0.  1.
        1   -1    0    0  501    0  0.00000000000E+00  0.00000000000E+00 -0.27599877605E+04  0.27599877605E+04  0.50400001928E-02 0. -1.
    10030    2    1    2    0    0  0.00000000000E+00  0.00000000000E+00 -0.13793452169E+04  0.41406303041E+04  0.39041293636E+04 0.  0.
        5    1    3    3  502    0 -0.89071405942E+03  0.84383751769E+03 -0.22999001456E+04  0.26067213241E+04  0.46999998093E+01 0. -1.
       -5    1    3    3    0  502  0.89071405942E+03 -0.84383751769E+03  0.92055492871E+03  0.15339089799E+04  0.46999998093E+01 0.  1.
</event>
<event>
 5   0  0.9277261E-09  0.3901555E+04  0.7818609E-02  0.8024706E-01
        2   -1    0    0  501    0  0.00000000000E+00  0.00000000000E+00  0.17865802564E+04  0.17865802564E+04  0.25500000920E-02 0. -1.
       -2   -1    0    0    0  501  0.00000000000E+00  0.00000000000E+00 -0.21300656106E+04  0.21300656106E+04  0.25500000920E-02 0.  1.
    10030    2    1    2    0    0  0.00000000000E+00  0.00000000000E+00 -0.34348535416E+03  0.39166458670E+04  0.39015551590E+04 0.  0.
        1    1    3    3  502    0  0.22454636965E+02  0.95071240254E+03  0.15381289610E+04  0.18083691503E+04  0.50400001928E-02 0. -1.
       -1    1    3    3    0  502 -0.22454636965E+02 -0.95071240254E+03 -0.18816143152E+04  0.21082767167E+04  0.50400001928E-02 0.  1.
</event>
<event>
 5   0  0.9277261E-09  0.3902009E+04  0.7818609E-02  0.8024612E-01
        2   -1    0    0  501    0  0.00000000000E+00  0.00000000000E+00  0.22634341427E+04  0.22634341427E+04  0.25500000920E-02 0. -1.
       -2   -1    0    0    0  501  0.00000000000E+00  0.00000000000E+00 -0.16817003412E+04  0.16817003412E+04  0.25500000920E-02 0.  1.
    10030    2    1    2    0    0  0.00000000000E+00  0.00000000000E+00  0.58173380154E+03  0.39451344839E+04  0.39020086981E+04 0.  0.
        1    1    3    3  502    0  0.18362291671E+04 -0.37010993191E+03 -0.26078142749E+03  0.18912233789E+04  0.50400001928E-02 0. -1.
       -1    1    3    3    0  502 -0.18362291671E+04  0.37010993191E+03  0.84251522903E+03  0.20539111050E+04  0.50400001928E-02 0.  1.
</event>
<event>
 5   0  0.2904500E-09  0.3900386E+04  0.7818609E-02  0.8024949E-01
        1   -1    0    0  501    0  0.00000000000E+00  0.00000000000E+00  0.18916687007E+04  0.18916687007E+04  0.50400001928E-02 0.  1.
       -1   -1    0    0    0  501  0.00000000000E+00  0.00000000000E+00 -0.20105280984E+04  0.20105280985E+04  0.50400001928E-02 0. -1.
    10030    2    1    2    0    0  0.00000000000E+00  0.00000000000E+00 -0.11885939777E+03  0.39021967991E+04  0.39003861735E+04 0.  0.
        4    1    3    3  502    0 -0.11686196283E+04 -0.12253862241E+04 -0.10273539999E+04  0.19805809976E+04  0.12699999809E+01 0. -1.
       -4    1    3    3    0  502  0.11686196283E+04  0.12253862241E+04  0.90849460209E+03  0.19216158016E+04  0.12699999809E+01 0.  1.
</event>
<event>
 5   0  0.6335942E-09  0.3900693E+04  0.7818609E-02  0.8024885E-01
        2   -1    0    0  501    0  0.00000000000E+00  0.00000000000E+00  0.17572717552E+04  0.17572717552E+04  0.25500000920E-02 0. -1.
       -2   -1    0    0    0  501  0.00000000000E+00  0.00000000000E+00 -0.21646344906E+04  0.21646344906E+04  0.25500000920E-02 0.  1.
    10030    2    1    2    0    0  0.00000000000E+00  0.00000000000E+00 -0.40736273535E+03  0.39219062458E+04  0.39006927849E+04 0.  0.
        2    1    3    3  502    0  0.34720597683E+03  0.19176261802E+04 -0.28161998751E+03  0.19690484947E+04  0.25500000920E-02 0. -1.
       -2    1    3    3    0  502 -0.34720597683E+03 -0.19176261802E+04 -0.12574274785E+03  0.19528577511E+04  0.25500000920E-02 0.  1.
</event>
<event>
 5   0  0.2904500E-09  0.3899611E+04  0.7818609E-02  0.8025110E-01
        1   -1    0    0  501    0  0.00000000000E+00  0.00000000000E+00  0.23032226728E+04  0.23032226728E+04  0.50400001928E-02 0.  1.
       -1   -1    0    0    0  501  0.00000000000E+00  0.00000000000E+00 -0.16506179075E+04  0.16506179075E+04  0.50400001928E-02 0. -1.
    10030    2    1    2    0    0  0.00000000000E+00  0.00000000000E+00  0.65260476537E+03  0.39538405803E+04  0.38996105389E+04 0.  0.
        5    1    3    3  502    0 -0.85211573714E+03  0.17530459646E+04  0.37645863989E+03  0.19851988770E+04  0.46999998093E+01 0. -1.
       -5    1    3    3    0  502  0.85211573714E+03 -0.17530459646E+04  0.27614612548E+03  0.19686417034E+04  0.46999998093E+01 0.  1.
</event>
<event>
 5   0  0.9368546E-09  0.3899020E+04  0.7818609E-02  0.8025233E-01
       -2   -1    0    0    0  501  0.00000000000E+00  0.00000000000E+00  0.15415601869E+04  0.15415601869E+04  0.25500000920E-02 0. -1.
        2   -1    0    0  501    0  0.00000000000E+00  0.00000000000E+00 -0.24654179844E+04  0.24654179844E+04  0.25500000920E-02 0.  1.
    10030    2    1    2    0    0  0.00000000000E+00  0.00000000000E+00 -0.92385779752E+03  0.40069781713E+04  0.38990204969E+04 0.  0.
        5    1    3    3  502    0 -0.15612638888E+04  0.67818603196E+03  0.51469248277E+03  0.17783170882E+04  0.46999998093E+01 0. -1.
       -5    1    3    3    0  502  0.15612638888E+04 -0.67818603196E+03 -0.14385502803E+04  0.22286610831E+04  0.46999998093E+01 0.  1.
</event>
<event>
 5   0  0.9368546E-09  0.3901236E+04  0.7818609E-02  0.8024772E-01
        2   -1    0    0  501    0  0.00000000000E+00  0.00000000000E+00  0.16493794266E+04  0.16493794266E+04  0.25500000920E-02 0. -1.
       -2   -1    0    0    0  501  0.00000000000E+00  0.00000000000E+00 -0.23068742622E+04  0.23068742622E+04  0.25500000920E-02 0.  1.
    10030    2    1    2    0    0  0.00000000000E+00  0.00000000000E+00 -0.65749483566E+03  0.39562536888E+04  0.39012361876E+04 0.  0.
        5    1    3    3  502    0  0.74639547556E+03  0.39530389706E+03 -0.21118147427E+04  0.22744570724E+04  0.46999998093E+01 0.  1.
       -5    1    3    3    0  502 -0.74639547556E+03 -0.39530389706E+03  0.14543199070E+04  0.16817966164E+04  0.46999998093E+01 0. -1.
</event>
<event>
 5   0  0.2929054E-09  0.3900806E+04  0.7818609E-02  0.8024862E-01
       -1   -1    0    0    0  501  0.00000000000E+00  0.00000000000E+00  0.14617947226E+04  0.14617947226E+04  0.50400001928E-02 0. -1.
        1   -1    0    0  501    0  0.00000000000E+00  0.00000000000E+00 -0.26023298339E+04  0.26023298339E+04  0.50400001928E-02 0.  1.
    10030    2    1    2    0    0  0.00000000000E+00  0.00000000000E+00 -0.11405351113E+04  0.40641245565E+04  0.39008060796E+04 0.  0.
        1    1    3    3  502    0 -0.16528906093E+03 -0.16541405145E+04 -0.16330599696E+04  0.23303189009E+04  0.50400001928E-02 0.  1.
       -1    1    3    3    0  502  0.16528906093E+03  0.16541405145E+04  0.49252485830E+03  0.17338056556E+04  0.50400001928E-02 0. -1.
</event>
<event>
 5   0  0.2904500E-09  0.3900492E+04  0.7818609E-02  0.8024927E-01
        1   -1    0    0  501    0  0.00000000000E+00  0.00000000000E+00  0.19832627867E+04  0.19832627867E+04  0.50400001928E-02 0.  1.
       -1   -1    0    0    0  501  0.00000000000E+00  0.00000000000E+00 -0.19177787212E+04  0.19177787213E+04  0.50400001928E-02 0. -1.
    10030    2    1    2    0    0  0.00000000000E+00  0.00000000000E+00  0.65484065460E+02  0.39010415080E+04  0.39004918516E+04 0.  0.
        2    1    3    3  502    0 -0.13944076747E+04  0.68829788730E+02 -0.13291946522E+04  0.19276588719E+04  0.25500000920E-02 0. -1.
       -2    1    3    3    0  502  0.13944076747E+04 -0.68829788730E+02  0.13946787176E+04  0.19733826361E+04  0.25500000920E-02 0.  1.
</event>
<event>
 5   0  0.9078515E-09  0.3902598E+04  0.7818609E-02  0.8024489E-01
       -2   -1    0    0    0  501  0.00000000000E+00  0.00000000000E+00  0.14045590601E+04  0.14045590601E+04  0.25500000920E-02 0. -1.
        2   -1    0    0  501    0  0.00000000000E+00  0.00000000000E+00 -0.27108630515E+04  0.27108630515E+04  0.25500000920E-02 0.  1.
    10030    2    1    2    0    0  0.00000000000E+00  0.00000000000E+00 -0.13063039914E+04  0.41154221116E+04  0.39025977296E+04 0.  0.
        3    1    3    3  502    0 -0.11981528970E+04  0.60823248634E+03 -0.21452524846E+04  0.25313287726E+04  0.10100000352E+00 0.  1.
       -3    1    3    3    0  502  0.11981528970E+04 -0.60823248634E+03  0.83894849325E+03  0.15840933390E+04  0.10100000352E+00 0. -1.
</event>
<event>
 5   0  0.9434114E-09  0.3900328E+04  0.7818609E-02  0.8024961E-01
       -2   -1    0    0    0  501  0.00000000000E+00  0.00000000000E+00  0.17471638461E+04  0.17471638461E+04  0.25500000920E-02 0.  1.
        2   -1    0    0  501    0  0.00000000000E+00  0.00000000000E+00 -0.21767506806E+04  0.21767506806E+04  0.25500000920E-02 0. -1.
    10030    2    1    2    0    0  0.00000000000E+00  0.00000000000E+00 -0.42958683450E+03  0.39239145266E+04  0.39003282380E+04 0.  0.
        4    1    3    3  502    0 -0.64214789399E+03 -0.10865180238E+04  0.12808923894E+04  0.17982108497E+04  0.12699999809E+01 0.  1.
       -4    1    3    3    0  502  0.64214789399E+03  0.10865180238E+04 -0.17104792239E+04  0.21257036769E+04  0.12699999809E+01 0. -1.
</event>
<event>
 5   0  0.9368546E-09  0.3902517E+04  0.7818609E-02  0.8024506E-01
        2   -1    0    0  501    0  0.00000000000E+00  0.00000000000E+00  0.21715008271E+04  0.21715008271E+04  0.25500000920E-02 0. -1.
       -2   -1    0    0    0  501  0.00000000000E+00  0.00000000000E+00 -0.17533536737E+04  0.17533536737E+04  0.25500000920E-02 0.  1.
    10030    2    1    2    0    0  0.00000000000E+00  0.00000000000E+00  0.41814715341E+03  0.39248545008E+04  0.39025165997E+04 0.  0.
        5    1    3    3  502    0 -0.15975194057E+04  0.93187560156E+03  0.83466822606E+03  0.20290770133E+04  0.46999998093E+01 0.  1.
       -5    1    3    3    0  502  0.15975194057E+04 -0.93187560156E+03 -0.41652107265E+03  0.18957774875E+04  0.46999998093E+01 0. -1.
</event>
<event>
 5   0  0.9368546E-09  0.3895574E+04  0.7818609E-02  0.8025950E-01
       -2   -1    0    0    0  501  0.00000000000E+00  0.00000000000E+00  0.23528202934E+04  0.23528202934E+04  0.25500000920E-02 0. -1.
        2   -1    0    0  501    0  0.00000000000E+00  0.00000000000E+00 -0.16124794403E+04  0.16124794403E+04  0.25500000920E-02 0.  1.
    10030    2    1    2    0    0  0.00000000000E+00  0.00000000000E+00  0.74034085304E+03  0.39652997337E+04  0.38955740783E+04 0.  0.
        5    1    3    3  502    0 -0.33330628851E+03  0.16641391063E+03 -0.15758712675E+04  0.16193143652E+04  0.46999998093E+01 0.  1.
       -5    1    3    3    0  502  0.33330628851E+03 -0.16641391063E+03  0.23162121206E+04  0.23459853685E+04  0.46999998093E+01 0. -1.
</event>
<event>
 5   0  0.9277261E-09  0.3899532E+04  0.7818609E-02  0.8025127E-01
       -2   -1    0    0    0  501  0.00000000000E+00  0.00000000000E+00  0.23415469722E+04  0.23415469722E+04  0.25500000920E-02 0.  1.
        2   -1    0    0  501    0  0.00000000000E+00  0.00000000000E+00 -0.16235365709E+04  0.16235365709E+04  0.25500000920E-02 0. -1.
    10030    2    1    2    0    0  0.00000000000E+00  0.00000000000E+00  0.71801040137E+03  0.39650835431E+04  0.38995318395E+04 0.  0.
        1    1    3    3  502    0  0.62913878820E+03 -0.42064299151E+03  0.21861060887E+04  0.23133992245E+04  0.50400001928E-02 0.  1.
       -1    1    3    3    0  502 -0.62913878820E+03  0.42064299151E+03 -0.14680956873E+04  0.16516843186E+04  0.50400001928E-02 0. -1.
</event>
<event>
 5   0  0.6335942E-09  0.3901611E+04  0.7818609E-02  0.8024694E-01
       -2   -1    0    0    0  501  0.00000000000E+00  0.00000000000E+00  0.23901666763E+04  0.23901666763E+04  0.25500000920E-02 0.  1.
        2   -1    0    0  501    0  0.00000000000E+00  0.00000000000E+00 -0.15922077234E+04  0.15922077234E+04  0.25500000920E-02 0. -1.
    10030    2    1    2    0    0  0.00000000000E+00  0.00000000000E+00  0.79795895292E+03  0.39823743996E+04  0.39016108684E+04 0.  0.
        2    1    3    3  502    0  0.14056576575E+04 -0.72599884403E+03  0.15639618469E+04  0.22246178166E+04  0.25500000920E-02 0.  1.
       -2    1    3    3    0  502 -0.14056576575E+04  0.72599884403E+03 -0.76600289396E+03  0.17577565830E+04  0.25500000920E-02 0. -1.
</event>
<event>
 5   0  0.2904500E-09  0.3899708E+04  0.7818609E-02  0.8025090E-01
       -1   -1    0    0    0  501  0.00000000000E+00  0.00000000000E+00  0.16596893641E+04  0.16596893642E+04  0.50400001928E-02 0.  1.
        1   -1    0    0  501    0  0.00000000000E+00  0.00000000000E+00 -0.22907483774E+04  0.22907483774E+04  0.50400001928E-02 0. -1.
    10030    2    1    2    0    0  0.00000000000E+00  0.00000000000E+00 -0.63105901326E+03  0.39504377416E+04  0.38997080496E+04 0.  0.
        5    1    3    3  502    0 -0.13098298685E+04  0.14026500904E+03  0.11407315820E+04  0.17425897938E+04  0.46999998093E+01 0.  1.
       -5    1    3    3    0  502  0.13098298685E+04 -0.14026500904E+03 -0.17717905953E+04  0.22078479478E+04  0.46999998093E+01 0. -1.
</event>
<event>
 5   0  0.9078515E-09  0.3898480E+04  0.7818609E-02  0.8025345E-01
       -2   -1    0    0    0  501  0.00000000000E+00  0.00000000000E+00  0.16529830672E+04  0.16529830672E+04  0.25500000920E-02 0.  1.
        2   -1    0    0  501    0  0.00000000000E+00  0.00000000000E+00 -0.22985935297E+04  0.22985935297E+04  0.25500000920E-02 0. -1.
    10030    2    1    2    0    0  0.00000000000E+00  0.00000000000E+00 -0.64561046250E+03  0.39515765969E+04  0.38984797975E+04 0.  0.
        3    1    3    3  502    0  0.38428036791E+03 -0.10513123631E+04 -0.19403491764E+04  0.22400633970E+04  0.10100000352E+00 0. -1.
       -3    1    3    3    0  502 -0.38428036791E+03  0.10513123631E+04  0.12947387139E+04  0.17115131999E+04  0.10100000352E+00 0.  1.
</event>
<event>
 5   0  0.6335942E-09  0.3901352E+04  0.7818609E-02  0.8024748E-01
       -2   -1    0    0    0  501  0.00000000000E+00  0.00000000000E+00  0.15338209010E+04  0.15338209010E+04  0.25500000920E-02 0.  1.
        2   -1    0    0  501    0  0.00000000000E+00  0.00000000000E+00 -0.24808222129E+04  0.24808222129E+04  0.25500000920E-02 0. -1.
    10030    2    1    2    0    0  0.00000000000E+00  0.00000000000E+00 -0.94700131190E+03  0.40146431140E+04  0.39013520538E+04 0.  0.
        2    1    3    3  502    0  0.49373080540E+02  0.91661480566E+03  0.12976772870E+04  0.15895240622E+04  0.25500000920E-02 0.  1.
       -2    1    3    3    0  502 -0.49373080540E+02 -0.91661480566E+03 -0.22446785989E+04  0.24251190518E+04  0.25500000920E-02 0. -1.
</event>
<event>
 5   0  0.9434114E-09  0.3900256E+04  0.7818609E-02  0.8024976E-01
        2   -1    0    0  501    0  0.00000000000E+00  0.00000000000E+00  0.18847855638E+04  0.18847855638E+04  0.25500000920E-02 0. -1.
       -2   -1    0    0    0  501  0.00000000000E+00  0.00000000000E+00 -0.20177356739E+04  0.20177356739E+04  0.25500000920E-02 0.  1.
    10030    2    1    2    0    0  0.00000000000E+00  0.00000000000E+00 -0.13295011005E+03  0.39025212377E+04  0.39002559248E+04 0.  0.
        4    1    3    3  502    0 -0.28997854729E+03 -0.16143437566E+04  0.98903295940E+03  0.19153018378E+04  0.12699999809E+01 0. -1.
       -4    1    3    3    0  502  0.28997854729E+03  0.16143437566E+04 -0.11219830695E+04  0.19872193999E+04  0.12699999809E+01 0.  1.
</event>
<event>
 5   0  0.2904500E-09  0.3905953E+04  0.7818609E-02  0.8023792E-01
       -1   -1    0    0    0  501  0.00000000000E+00  0.00000000000E+00  0.18658906827E+04  0.18658906827E+04  0.50400001928E-02 0.  1.
        1   -1    0    0  501    0  0.00000000000E+00  0.00000000000E+00 -0.20441263877E+04  0.20441263877E+04  0.50400001928E-02 0. -1.
    10030    2    1    2    0    0  0.00000000000E+00  0.00000000000E+00 -0.17823570496E+03  0.39100170704E+04  0.39059525758E+04 0.  0.
        4    1    3    3  502    0 -0.24029573455E+03  0.18687520223E+04  0.42536112005E+03  0.19315563301E+04  0.12699999809E+01 0.  1.
       -4    1    3    3    0  502  0.24029573455E+03 -0.18687520223E+04 -0.60359682500E+03  0.19784607403E+04  0.12699999809E+01 0. -1.
</event>
<event>
 5   0  0.9277261E-09  0.3900520E+04  0.7818609E-02  0.8024921E-01
       -2   -1    0    0    0  501  0.00000000000E+00  0.00000000000E+00  0.16648799739E+04  0.16648799739E+04  0.25500000920E-02 0. -1.
        2   -1    0    0  501    0  0.00000000000E+00  0.00000000000E+00 -0.22845580252E+04  0.22845580252E+04  0.25500000920E-02 0.  1.
    10030    2    1    2    0    0  0.00000000000E+00  0.00000000000E+00 -0.61967805129E+03  0.39494379991E+04  0.39005204295E+04 0.  0.
        1    1    3    3  502    0  0.45137455500E+03  0.69445016170E+03 -0.20976311164E+04  0.22552286617E+04  0.50400001928E-02 0.  1.
       -1    1    3    3    0  502 -0.45137455500E+03 -0.69445016170E+03  0.14779530651E+04  0.16942093373E+04  0.50400001928E-02 0. -1.
</event>
<event>
 5   0  0.9368546E-09  0.3874828E+04  0.7818609E-02  0.8030285E-01
       -2   -1    0    0    0  501  0.00000000000E+00  0.00000000000E+00  0.12204679641E+04  0.12204679641E+04  0.25500000920E-02 0.  1.
        2   -1    0    0  501    0  0.00000000000E+00  0.00000000000E+00 -0.30755196645E+04  0.30755196645E+04  0.25500000920E-02 0. -1.
    10030    2    1    2    0    0  0.00000000000E+00  0.00000000000E+00 -0.18550517004E+04  0.42959876286E+04  0.38748281116E+04 0.  0.
        5    1    3    3  502    0 -0.17007183578E+04 -0.55689770216E+03 -0.10457140008E+03  0.17926336075E+04  0.46999998093E+01 0.  1.
       -5    1    3    3    0  502  0.17007183578E+04  0.55689770216E+03 -0.17504803003E+04  0.25033540211E+04  0.46999998093E+01 0. -1.
</event>
<event>
 5   0  0.2929054E-09  0.3903802E+04  0.7818609E-02  0.8024239E-01
       -1   -1    0    0    0  501  0.00000000000E+00  0.00000000000E+00  0.24456247012E+04  0.24456247012E+04  0.50400001928E-02 0.  1.
        1   -1    0    0  501    0  0.00000000000E+00  0.00000000000E+00 -0.15578502176E+04  0.15578502176E+04  0.50400001928E-02 0. -1.
    10030    2    1    2    0    0  0.00000000000E+00  0.00000000000E+00  0.88777448362E+03  0.40034749188E+04  0.39038017229E+04 0.  0.
        1    1    3    3  502    0 -0.16013943050E+04 -0.71021202310E+03  0.13267104509E+04  0.21975043705E+04  0.50400001928E-02 0.  1.
       -1    1    3    3    0  502  0.16013943050E+04  0.71021202310E+03 -0.43893596730E+03  0.18059705483E+04  0.50400001928E-02 0. -1.
</event>
<event>
 5   0  0.2904500E-09  0.3901989E+04  0.7818609E-02  0.8024616E-01
        3   -1    0    0  501    0  0.00000000000E+00  0.00000000000E+00  0.19075029526E+04  0.19075029553E+04  0.10100000352E+00 0.  1.
       -3   -1    0    0    0  501  0.00000000000E+00  0.00000000000E+00 -0.19954777510E+04  0.19954777535E+04  0.10100000352E+00 0. -1.
    10030    2    1    2    0    0  0.00000000000E+00  0.00000000000E+00 -0.87974798339E+02  0.39029807088E+04  0.39019890887E+04 0.  0.
        3    1    3    3  502    0  0.24873641374E+02 -0.63665842851E+03  0.18005059142E+04  0.19099147128E+04  0.10100000352E+00 0.  1.
       -3    1    3    3    0  502 -0.24873641374E+02  0.63665842851E+03 -0.18884807126E+04  0.19930659960E+04  0.10100000352E+00 0. -1.
</event>
<event>
 5   0  0.2904500E-09  0.3899811E+04  0.7818609E-02  0.8025069E-01
       -1   -1    0    0    0  501  0.00000000000E+00  0.00000000000E+00  0.17931340424E+04  0.17931340424E+04  0.50400001928E-02 0. -1.
        1   -1    0    0  501    0  0.00000000000E+00  0.00000000000E+00 -0.21203828305E+04  0.21203828305E+04  0.50400001928E-02 0.  1.
    10030    2    1    2    0    0  0.00000000000E+00  0.00000000000E+00 -0.32724878815E+03  0.39135168729E+04  0.38998105781E+04 0.  0.
        2    1    3    3  502    0  0.17030042159E+04 -0.75859039417E+03  0.40973988282E+03  0.19088136413E+04  0.25500000920E-02 0. -1.
       -2    1    3    3    0  502 -0.17030042159E+04  0.75859039417E+03 -0.73698867098E+03  0.20047032316E+04  0.25500000920E-02 0.  1.
</event>
<event>
 5   0  0.9434114E-09  0.3898864E+04  0.7818609E-02  0.8025266E-01
        2   -1    0    0  501    0  0.00000000000E+00  0.00000000000E+00  0.22715300867E+04  0.22715300867E+04  0.25500000920E-02 0. -1.
       -2   -1    0    0    0  501  0.00000000000E+00  0.00000000000E+00 -0.16730067658E+04  0.16730067658E+04  0.25500000920E-02 0.  1.
    10030    2    1    2    0    0  0.00000000000E+00  0.00000000000E+00  0.59852332087E+03  0.39445368525E+04  0.38988640417E+04 0.  0.
        4    1    3    3  502    0 -0.18835711491E+04 -0.50086571309E+03  0.33943646407E+03  0.19783643401E+04  0.12699999809E+01 0.  1.
       -4    1    3    3    0  502  0.18835711491E+04  0.50086571309E+03  0.25908685680E+03  0.19661725124E+04  0.12699999809E+01 0. -1.
</event>
<event>
 5   0  0.2904500E-09  0.3900133E+04  0.7818609E-02  0.8025002E-01
       -1   -1    0    0    0  501  0.00000000000E+00  0.00000000000E+00  0.18571529676E+04  0.18571529676E+04  0.50400001928E-02 0. -1.
        1   -1    0    0  501    0  0.00000000000E+00  0.00000000000E+00 -0.20476282856E+04  0.20476282856E+04  0.50400001928E-02 0.  1.
    10030    2    1    2    0    0  0.00000000000E+00  0.00000000000E+00 -0.19047531806E+03  0.39047812532E+04  0.39001327911E+04 0.  0.
        3    1    3    3  502    0 -0.25317347626E+03 -0.13117243747E+04  0.13270332914E+04  0.18830122174E+04  0.10100000352E+00 0. -1.
       -3    1    3    3    0  502  0.25317347626E+03  0.13117243747E+04 -0.15175086094E+04  0.20217690358E+04  0.10100000352E+00 0.  1.
</event>
<event>
 5   0  0.9368546E-09  0.3899892E+04  0.7818609E-02  0.8025052E-01
       -2   -1    0    0    0  501  0.00000000000E+00  0.00000000000E+00  0.20339240660E+04  0.20339240660E+04  0.25500000920E-02 0. -1.
        2   -1    0    0  501    0  0.00000000000E+00  0.00000000000E+00 -0.18694352113E+04  0.18694352113E+04  0.25500000920E-02 0.  1.
    10030    2    1    2    0    0  0.00000000000E+00  0.00000000000E+00  0.16448885476E+03  0.39033592773E+04  0.38998919298E+04 0.  0.
        5    1    3    3  502    0  0.99379969161E+03 -0.16523368087E+04 -0.20855204160E+03  0.19394253790E+04  0.46999998093E+01 0. -1.
       -5    1    3    3    0  502 -0.99379969161E+03  0.16523368087E+04  0.37304089637E+03  0.19639338983E+04  0.46999998093E+01 0.  1.
</event>
<event>
 5   0  0.6335942E-09  0.3899859E+04  0.7818609E-02  0.8025059E-01
       -2   -1    0    0    0  501  0.00000000000E+00  0.00000000000E+00  0.14600923216E+04  0.14600923216E+04  0.25500000920E-02 0. -1.
        2   -1    0    0  501    0  0.00000000000E+00  0.00000000000E+00 -0.26040988212E+04  0.26040988212E+04  0.25500000920E-02 0.  1.
    10030    2    1    2    0    0  0.00000000000E+00  0.00000000000E+00 -0.11440064996E+04  0.40641911427E+04  0.38998588146E+04 0.  0.
        2    1    3    3  502    0  0.18396326135E+04 -0.10167158923E+03 -0.12373734288E+04  0.22193869124E+04  0.25500000920E-02 0.  1.
       -2    1    3    3    0  502 -0.18396326135E+04  0.10167158923E+03  0.93366929246E+02  0.18448042303E+04  0.25500000920E-02 0. -1.
</event>
<event>
 5   0  0.9078515E-09  0.3898962E+04  0.7818609E-02  0.8025245E-01
       -2   -1    0    0    0  501  0.00000000000E+00  0.00000000000E+00  0.22871908725E+04  0.22871908725E+04  0.25500000920E-02 0. -1.
        2   -1    0    0  501    0  0.00000000000E+00  0.00000000000E+00 -0.16616344759E+04  0.16616344759E+04  0.25500000920E-02 0.  1.
    10030    2    1    2    0    0  0.00000000000E+00  0.00000000000E+00  0.62555639656E+03  0.39488253484E+04  0.38989615062E+04 0.  0.
        3    1    3    3  502    0  0.33886024735E+03  0.16194926463E+04 -0.73137362022E+03  0.18090025100E+04  0.10100000352E+00 0.  1.
       -3    1    3    3    0  502 -0.33886024735E+03 -0.16194926463E+04  0.13569300168E+04  0.21398228383E+04  0.10100000352E+00 0. -1.
</event>
<event>
 5   0  0.2904500E-09  0.3901240E+04  0.7818609E-02  0.8024771E-01
       -1   -1    0    0    0  501  0.00000000000E+00  0.00000000000E+00  0.19994445043E+04  0.19994445043E+04  0.50400001928E-02 0.  1.
        1   -1    0    0  501    0  0.00000000000E+00  0.00000000000E+00 -0.19029882137E+04  0.19029882137E+04  0.50400001928E-02 0. -1.
    10030    2    1    2    0    0  0.00000000000E+00  0.00000000000E+00  0.96456290578E+02  0.39024327181E+04  0.39012404826E+04 0.  0.
        3    1    3    3  502    0 -0.27691567352E+03 -0.58516631458E+03  0.18888495528E+04  0.19967109328E+04  0.10100000352E+00 0.  1.
       -3    1    3    3    0  502  0.27691567352E+03  0.58516631458E+03 -0.17923932622E+04  0.19057217852E+04  0.10100000352E+00 0. -1.
</event>
<event>
 5   0  0.2904500E-09  0.3895683E+04  0.7818609E-02  0.8025928E-01
       -1   -1    0    0    0  501  0.00000000000E+00  0.00000000000E+00  0.14620426627E+04  0.14620426627E+04  0.50400001928E-02 0. -1.
        1   -1    0    0  501    0  0.00000000000E+00  0.00000000000E+00 -0.25950588461E+04  0.25950588461E+04  0.50400001928E-02 0.  1.
    10030    2    1    2    0    0  0.00000000000E+00  0.00000000000E+00 -0.11330161835E+04  0.40571015088E+04  0.38956831212E+04 0.  0.
        2    1    3    3  502    0 -0.12519236390E+04  0.12395767348E+04 -0.14317292082E+04  0.22701788047E+04  0.25500000920E-02 0. -1.
       -2    1    3    3    0  502  0.12519236390E+04 -0.12395767348E+04  0.29871302475E+03  0.17869227041E+04  0.25500000920E-02 0.  1.
</event>
<event>
 5   0  0.9078515E-09  0.3913988E+04  0.7818609E-02  0.8022126E-01
       -2   -1    0    0    0  501  0.00000000000E+00  0.00000000000E+00  0.26054413012E+04  0.26054413012E+04  0.25500000920E-02 0. -1.
        2   -1    0    0  501    0  0.00000000000E+00  0.00000000000E+00 -0.14699333623E+04  0.14699333623E+04  0.25500000920E-02 0.  1.
    10030    2    1    2    0    0  0.00000000000E+00  0.00000000000E+00  0.11355079389E+04  0.40753746636E+04  0.39139877835E+04 0.  0.
        3    1    3    3  502    0 -0.19519000021E+04  0.14065222629E+03  0.55595466774E+03  0.20343997320E+04  0.10100000352E+00 0. -1.
       -3    1    3    3    0  502  0.19519000021E+04 -0.14065222629E+03  0.57955327115E+03  0.20409749315E+04  0.10100000352E+00 0.  1.
</event>
<event>
 5   0  0.9368546E-09  0.3908253E+04  0.7818609E-02  0.8023315E-01
       -2   -1    0    0    0  501  0.00000000000E+00  0.00000000000E+00  0.15479854990E+04  0.15479854990E+04  0.25500000920E-02 0.  1.
        2   -1    0    0  501    0  0.00000000000E+00  0.00000000000E+00 -0.24668253576E+04  0.24668253576E+04  0.25500000920E-02 0. -1.
    10030    2    1    2    0    0  0.00000000000E+00  0.00000000000E+00 -0.91883985856E+03  0.40148108566E+04  0.39082527462E+04 0.  0.
        5    1    3    3  502    0  0.20827498020E+03  0.52299612048E+03  0.14628791050E+04  0.15674631655E+04  0.46999998093E+01 0.  1.
       -5    1    3    3    0  502 -0.20827498020E+03 -0.52299612048E+03 -0.23817189636E+04  0.24473476911E+04  0.46999998093E+01 0. -1.
</event>
<event>
 5   0  0.9434114E-09  0.3896986E+04  0.7818609E-02  0.8025656E-01
        2   -1    0    0  501    0  0.00000000000E+00  0.00000000000E+00  0.24808049679E+04  0.24808049679E+04  0.25500000920E-02 0. -1.
       -2   -1    0    0    0  501  0.00000000000E+00  0.00000000000E+00 -0.15304005790E+04  0.15304005790E+04  0.25500000920E-02 0.  1.
    10030    2    1    2    0    0  0.00000000000E+00  0.00000000000E+00  0.95040438884E+03  0.40112055469E+04  0.38969861992E+04 0.  0.
        4    1    3    3  502    0  0.23093048452E+03  0.15976907403E+04 -0.64796245207E+03  0.17394831251E+04  0.12699999809E+01 0.  1.
       -4    1    3    3    0  502 -0.23093048452E+03 -0.15976907403E+04  0.15983668409E+04  0.22717224218E+04  0.12699999809E+01 0. -1.
</event>
<event>
 5   0  0.2904500E-09  0.3899992E+04  0.7818609E-02  0.8025031E-01
        1   -1    0    0  501    0  0.00000000000E+00  0.00000000000E+00  0.15867626190E+04  0.15867626190E+04  0.50400001928E-02 0. -1.
       -1   -1    0    0    0  501  0.00000000000E+00  0.00000000000E+00 -0.23963791713E+04  0.23963791713E+04  0.50400001928E-02 0.  1.
    10030    2    1    2    0    0  0.00000000000E+00  0.00000000000E+00 -0.80961655234E+03  0.39831417903E+04  0.38999922512E+04 0.  0.
        4    1    3    3  502    0  0.17688617691E+04 -0.42670648774E+03  0.31123342365E+03  0.18460276926E+04  0.12699999809E+01 0. -1.
       -4    1    3    3    0  502 -0.17688617691E+04  0.42670648774E+03 -0.11208499760E+04  0.21371140977E+04  0.12699999809E+01 0.  1.
</event>
<event>
 5   0  0.2929054E-09  0.3899796E+04  0.7818609E-02  0.8025072E-01
        1   -1    0    0  501    0  0.00000000000E+00  0.00000000000E+00  0.26607367273E+04  0.26607367273E+04  0.50400001928E-02 0. -1.
       -1   -1    0    0    0  501  0.00000000000E+00  0.00000000000E+00 -0.14289662447E+04  0.14289662447E+04  0.50400001928E-02 0.  1.
    10030    2    1    2    0    0  0.00000000000E+00  0.00000000000E+00  0.12317704826E+04  0.40897029720E+04  0.38997963892E+04 0.  0.
        1    1    3    3  502    0  0.11558630969E+04 -0.45532713153E+03  0.21919895025E+04  0.25195555708E+04  0.50400001928E-02 0. -1.
       -1    1    3    3    0  502 -0.11558630969E+04  0.45532713153E+03 -0.96021901988E+03  0.15701474012E+04  0.50400001928E-02 0.  1.
</event>
<event>
 5   0  0.2904500E-09  0.3899391E+04  0.7818609E-02  0.8025156E-01
        1   -1    0    0  501    0  0.00000000000E+00  0.00000000000E+00  0.17886492780E+04  0.17886492781E+04  0.50400001928E-02 0.  1.
       -1   -1    0    0    0  501  0.00000000000E+00  0.00000000000E+00 -0.21252418566E+04  0.21252418566E+04  0.50400001928E-02 0. -1.
    10030    2    1    2    0    0  0.00000000000E+00  0.00000000000E+00 -0.33659257851E+03  0.39138911346E+04  0.38993908819E+04 0.  0.
        5    1    3    3  502    0 -0.40311228530E+03  0.15713001418E+04  0.91730161986E+03  0.18635847183E+04  0.46999998093E+01 0.  1.
       -5    1    3    3    0  502  0.40311228530E+03 -0.15713001418E+04 -0.12538941984E+04  0.20503064164E+04  0.46999998093E+01 0. -1.
</event>
<event>
 5   0  0.2929054E-09  0.3895442E+04  0.7818609E-02  0.8025978E-01
       -1   -1    0    0    0  501  0.00000000000E+00  0.00000000000E+00  0.34545468682E+04  0.34545468682E+04  0.50400001928E-02 0.  1.
        1   -1    0    0  501    0  0.00000000000E+00  0.00000000000E+00 -0.10981520680E+04  0.10981520681E+04  0.50400001928E-02 0. -1.
    10030    2    1    2    0    0  0.00000000000E+00  0.00000000000E+00  0.23563948001E+04  0.45526989362E+04  0.38954423561E+04 0.  0.
        1    1    3    3  502    0  0.13149249766E+04  0.10421899577E+04  0.22146193992E+02  0.16779982288E+04  0.50400001928E-02 0. -1.
       -1    1    3    3    0  502 -0.13149249766E+04 -0.10421899577E+04  0.23342486061E+04  0.28747007074E+04  0.50400001928E-02 0.  1.
</event>
<event>
 5   0  0.6335942E-09  0.3900553E+04  0.7818609E-02  0.8024914E-01
       -2   -1    0    0    0  501  0.00000000000E+00  0.00000000000E+00  0.20916695887E+04  0.20916695888E+04  0.25500000920E-02 0. -1.
        2   -1    0    0  501    0  0.00000000000E+00  0.00000000000E+00 -0.18184417848E+04  0.18184417848E+04  0.25500000920E-02 0.  1.
    10030    2    1    2    0    0  0.00000000000E+00  0.00000000000E+00  0.27322780396E+03  0.39101113735E+04  0.39005534890E+04 0.  0.
        2    1    3    3  502    0  0.95993685643E+03  0.39987280325E+02  0.18379767793E+04  0.20739422346E+04  0.25500000920E-02 0. -1.
       -2    1    3    3    0  502 -0.95993685643E+03 -0.39987280325E+02 -0.15647489754E+04  0.18361691390E+04  0.25500000920E-02 0.  1.
</event>
<event>
 5   0  0.2904500E-09  0.3901801E+04  0.7818609E-02  0.8024655E-01
        1   -1    0    0  501    0  0.00000000000E+00  0.00000000000E+00  0.29436762178E+04  0.29436762178E+04  0.50400001928E-02 0.  1.
       -1   -1    0    0    0  501  0.00000000000E+00  0.00000000000E+00 -0.12929455467E+04  0.12929455467E+04  0.50400001928E-02 0. -1.
    10030    2    1    2    0    0  0.00000000000E+00  0.00000000000E+00  0.16507306711E+04  0.42366217645E+04  0.39018011516E+04 0.  0.
        4    1    3    3  502    0 -0.89173088607E+03 -0.17091826990E+04  0.11502426457E+04  0.22448940350E+04  0.12699999809E+01 0.  1.
       -4    1    3    3    0  502  0.89173088607E+03  0.17091826990E+04  0.50048802544E+03  0.19917277294E+04  0.12699999809E+01 0. -1.
</event>
<event>
 5   0  0.9078515E-09  0.3900581E+04  0.7818609E-02  0.8024908E-01
       -2   -1    0    0    0  501  0.00000000000E+00  0.00000000000E+00  0.27704139034E+04  0.27704139034E+04  0.25500000920E-02 0. -1.
        2   -1    0    0  501    0  0.00000000000E+00  0.00000000000E+00 -0.13729476333E+04  0.13729476333E+04  0.25500000920E-02 0.  1.
    10030    2    1    2    0    0  0.00000000000E+00  0.00000000000E+00  0.13974662701E+04  0.41433615367E+04  0.39005810910E+04 0.  0.
        3    1    3    3  502    0  0.21970446438E+03 -0.68117427131E+03  0.26258654178E+04  0.27216608242E+04  0.10100000352E+00 0. -1.
       -3    1    3    3    0  502 -0.21970446438E+03  0.68117427131E+03 -0.12283991477E+04  0.14217007125E+04  0.10100000352E+00 0.  1.
</event>
<event>
 5   0  0.2904500E-09  0.3899843E+04  0.7818609E-02  0.8025062E-01
       -3   -1    0    0    0  501  0.00000000000E+00  0.00000000000E+00  0.18191288629E+04  0.18191288657E+04  0.10100000352E+00 0.  1.
        3   -1    0    0  501    0  0.00000000000E+00  0.00000000000E+00 -0.20901178558E+04  0.20901178583E+04  0.10100000352E+00 0. -1.
    10030    2    1    2    0    0  0.00000000000E+00  0.00000000000E+00 -0.27098899296E+03  0.39092467240E+04  0.38998429346E+04 0.  0.
        3    1    3    3  502    0 -0.59000520490E+03  0.47775431495E+03 -0.19358872976E+04  0.20794265956E+04  0.10100000352E+00 0. -1.
       -3    1    3    3    0  502  0.59000520490E+03 -0.47775431495E+03  0.16648983046E+04  0.18298201284E+04  0.10100000352E+00 0.  1.
</event>
<event>
 5   0  0.6335942E-09  0.3899764E+04  0.7818609E-02  0.8025078E-01
       -2   -1    0    0    0  501  0.00000000000E+00  0.00000000000E+00  0.18596246543E+04  0.18596246543E+04  0.25500000920E-02 0.  1.
        2   -1    0    0  501    0  0.00000000000E+00  0.00000000000E+00 -0.20445203479E+04  0.20445203479E+04  0.25500000920E-02 0. -1.
    10030    2    1    2    0    0  0.00000000000E+00  0.00000000000E+00 -0.18489569364E+03  0.39041450022E+04  0.38997643238E+04 0.  0.
        2    1    3    3  502    0 -0.12798721403E+04 -0.74846178569E+03 -0.13602718980E+04  0.20121151499E+04  0.25500000920E-02 0. -1.
       -2    1    3    3    0  502  0.12798721403E+04  0.74846178569E+03  0.11753762044E+04  0.18920298523E+04  0.25500000920E-02 0.  1.
</event>
<event>
 5   0  0.2929054E-09  0.3902800E+04  0.7818609E-02  0.8024447E-01
       -1   -1    0    0    0  501  0.00000000000E+00  0.00000000000E+00  0.19634913025E+04  0.19634913025E+04  0.50400001928E-02 0. -1.
        1   -1    0    0  501    0  0.00000000000E+00  0.00000000000E+00 -0.19393830745E+04  0.19393830745E+04  0.50400001928E-02 0.  1.
    10030    2    1    2    0    0  0.00000000000E+00  0.00000000000E+00  0.24108227931E+02  0.39028743770E+04  0.39027999175E+04 0.  0.
        1    1    3    3  502    0 -0.14184891418E+04  0.11014195986E+04  0.77543308706E+03  0.19561526142E+04  0.50400001928E-02 0. -1.
       -1    1    3    3    0  502  0.14184891418E+04 -0.11014195986E+04 -0.75132485912E+03  0.19467217628E+04  0.50400001928E-02 0.  1.
</event>
<event>
 5   0  0.9078515E-09  0.3896452E+04  0.7818609E-02  0.8025768E-01
       -2   -1    0    0    0  501  0.00000000000E+00  0.00000000000E+00  0.13944159222E+04  0.13944159222E+04  0.25500000920E-02 0.  1.
        2   -1    0    0  501    0  0.00000000000E+00  0.00000000000E+00 -0.27219882621E+04  0.27219882621E+04  0.25500000920E-02 0. -1.
    10030    2    1    2    0    0  0.00000000000E+00  0.00000000000E+00 -0.13275723400E+04  0.41164041843E+04  0.38964516025E+04 0.  0.
        3    1    3    3  502    0  0.59830687135E+03  0.46055110262E+03  0.12335645079E+04  0.14462917533E+04  0.10100000352E+00 0.  1.
       -3    1    3    3    0  502 -0.59830687135E+03 -0.46055110262E+03 -0.25611368478E+04  0.26701124310E+04  0.10100000352E+00 0. -1.
</event>
<event>
 5   0  0.2904500E-09  0.3901334E+04  0.7818609E-02  0.8024752E-01
       -3   -1    0    0    0  501  0.00000000000E+00  0.00000000000E+00  0.20345236957E+04  0.20345236982E+04  0.10100000352E+00 0.  1.
        3   -1    0    0  501    0  0.00000000000E+00  0.00000000000E+00 -0.18702665857E+04  0.18702665885E+04  0.10100000352E+00 0. -1.
    10030    2    1    2    0    0  0.00000000000E+00  0.00000000000E+00  0.16425711000E+03  0.39047902867E+04  0.39013339751E+04 0.  0.
        4    1    3    3  502    0  0.68427149074E+03 -0.14756444183E+04  0.11598118442E+04  0.19977284723E+04  0.12699999809E+01 0.  1.
       -4    1    3    3    0  502 -0.68427149074E+03  0.14756444183E+04 -0.99555473419E+03  0.19070618144E+04  0.12699999809E+01 0. -1.
</event>
<event>
 5   0  0.9277261E-09  0.3903000E+04  0.7818609E-02  0.8024406E-01
       -2   -1    0    0    0  501  0.00000000000E+00  0.00000000000E+00  0.18456698443E+04  0.18456698443E+04  0.25500000920E-02 0.  1.
        2   -1    0    0  501    0  0.00000000000E+00  0.00000000000E+00 -0.20633981825E+04  0.20633981825E+04  0.25500000920E-02 0. -1.
    10030    2    1    2    0    0  0.00000000000E+00  0.00000000000E+00 -0.21772833813E+03  0.39090680268E+04  0.39029997705E+04 0.  0.
        1    1    3    3  502    0  0.26295370135E+03  0.16860559136E+04  0.83940384858E+03  0.19017171225E+04  0.50400001928E-02 0.  1.
       -1    1    3    3    0  502 -0.26295370135E+03 -0.16860559136E+04 -0.10571321867E+04  0.20073509043E+04  0.50400001928E-02 0. -1.
</event>
<event>
 5   0  0.9078515E-09  0.3898238E+04  0.7818609E-02  0.8025396E-01
        2   -1    0    0  501    0  0.00000000000E+00  0.00000000000E+00  0.26115233187E+04  0.26115233187E+04  0.25500000920E-02 0.  1.
       -2   -1    0    0    0  501  0.00000000000E+00  0.00000000000E+00 -0.14547313925E+04  0.14547313925E+04  0.25500000920E-02 0. -1.
    10030    2    1    2    0    0  0.00000000000E+00  0.00000000000E+00  0.11567919262E+04  0.40662547112E+04  0.38982380399E+04 0.  0.
        3    1    3    3  502    0 -0.11025472797E+04 -0.84875973101E+03 -0.84537392475E+03  0.16280849694E+04  0.10100000352E+00 0. -1.
       -3    1    3    3    0  502  0.11025472797E+04  0.84875973101E+03  0.20021658509E+04  0.24381697418E+04  0.10100000352E+00 0.  1.
</event>
<event>
 5   0  0.2904500E-09  0.3899845E+04  0.7818609E-02  0.8025061E-01
       -1   -1    0    0    0  501  0.00000000000E+00  0.00000000000E+00  0.14335203000E+04  0.14335203000E+04  0.50400001928E-02 0.  1.
        1   -1    0    0  501    0  0.00000000000E+00  0.00000000000E+00 -0.26523502676E+04  0.26523502676E+04  0.50400001928E-02 0. -1.
    10030    2    1    2    0    0  0.00000000000E+00  0.00000000000E+00 -0.12188299675E+04  0.40858705676E+04  0.38998451002E+04 0.  0.
        4    1    3    3  502    0 -0.19765943594E+03 -0.57506792190E+03  0.13316394321E+04  0.14639117314E+04  0.12699999809E+01 0.  1.
       -4    1    3    3    0  502  0.19765943594E+03  0.57506792190E+03 -0.25504693996E+04  0.26219588362E+04  0.12699999809E+01 0. -1.
</event>
<event>
 5   0  0.9368546E-09  0.3900885E+04  0.7818609E-02  0.8024845E-01
       -2   -1    0    0    0  501  0.00000000000E+00  0.00000000000E+00  0.20056490122E+04  0.20056490122E+04  0.25500000920E-02 0.  1.
        2   -1    0    0  501    0  0.00000000000E+00  0.00000000000E+00 -0.18967555820E+04  0.18967555820E+04  0.25500000920E-02 0. -1.
    10030    2    1    2    0    0  0.00000000000E+00  0.00000000000E+00  0.10889343021E+03  0.39024045943E+04  0.39008850070E+04 0.  0.
        5    1    3    3  502    0 -0.16032621872E+04 -0.94974910726E+03 -0.52173846635E+03  0.19351243177E+04  0.46999998093E+01 0.  1.
       -5    1    3    3    0  502  0.16032621872E+04  0.94974910726E+03  0.63063189657E+03  0.19672802766E+04  0.46999998093E+01 0. -1.
</event>
<event>
 5   0  0.9277261E-09  0.3898574E+04  0.7818609E-02  0.8025326E-01
        2   -1    0    0  501    0  0.00000000000E+00  0.00000000000E+00  0.24288344340E+04  0.24288344340E+04  0.25500000920E-02 0. -1.
       -2   -1    0    0    0  501  0.00000000000E+00  0.00000000000E+00 -0.15644214214E+04  0.15644214214E+04  0.25500000920E-02 0.  1.
    10030    2    1    2    0    0  0.00000000000E+00  0.00000000000E+00  0.86441301261E+03  0.39932558555E+04  0.38985744152E+04 0.  0.
        1    1    3    3  502    0  0.22747973191E+03 -0.11335537021E+04 -0.11753125272E+04  0.16486511336E+04  0.50400001928E-02 0.  1.
       -1    1    3    3    0  502 -0.22747973191E+03  0.11335537021E+04  0.20397255398E+04  0.23446047218E+04  0.50400001928E-02 0. -1.
</event>
<event>
 5   0  0.9277261E-09  0.3900865E+04  0.7818609E-02  0.8024849E-01
        2   -1    0    0  501    0  0.00000000000E+00  0.00000000000E+00  0.24696401218E+04  0.24696401218E+04  0.25500000920E-02 0.  1.
       -2   -1    0    0    0  501  0.00000000000E+00  0.00000000000E+00 -0.15403811928E+04  0.15403811928E+04  0.25500000920E-02 0. -1.
    10030    2    1    2    0    0  0.00000000000E+00  0.00000000000E+00  0.92925892891E+03  0.40100213146E+04  0.39008651331E+04 0.  0.
        1    1    3    3  502    0 -0.15739352229E+04  0.11516739217E+04  0.44025329484E+03  0.19993618661E+04  0.50400001928E-02 0. -1.
       -1    1    3    3    0  502  0.15739352229E+04 -0.11516739217E+04  0.48900563407E+03  0.20106594485E+04  0.50400001928E-02 0.  1.
</event>
<event>
 5   0  0.2904500E-09  0.3899168E+04  0.7818609E-02  0.8025202E-01
       -1   -1    0    0    0  501  0.00000000000E+00  0.00000000000E+00  0.26091825437E+04  0.26091825437E+04  0.50400001928E-02 0. -1.
        1   -1    0    0  501    0  0.00000000000E+00  0.00000000000E+00 -0.14567310248E+04  0.14567310248E+04  0.50400001928E-02 0.  1.
    10030    2    1    2    0    0  0.00000000000E+00  0.00000000000E+00  0.11524515189E+04  0.40659135685E+04  0.38991676860E+04 0.  0.
        5    1    3    3  502    0  0.96795016814E+03 -0.16433739704E+04  0.99754588761E+03  0.21523766916E+04  0.46999998093E+01 0. -1.
       -5    1    3    3    0  502 -0.96795016814E+03  0.16433739704E+04  0.15490563133E+03  0.19135368769E+04  0.46999998093E+01 0.  1.
</event>
<event>
 5   0  0.9078515E-09  0.3901458E+04  0.7818609E-02  0.8024726E-01
       -2   -1    0    0    0  501  0.00000000000E+00  0.00000000000E+00  0.20119547171E+04  0.20119547171E+04  0.25500000920E-02 0. -1.
        2   -1    0    0  501    0  0.00000000000E+00  0.00000000000E+00 -0.18913667649E+04  0.18913667649E+04  0.25500000920E-02 0.  1.
    10030    2    1    2    0    0  0.00000000000E+00  0.00000000000E+00  0.12058795215E+03  0.39033214820E+04  0.39014583348E+04 0.  0.
        3    1    3    3  502    0  0.93899180578E+03  0.10419312513E+03  0.17677965755E+04  0.20044117744E+04  0.10100000352E+00 0. -1.
       -3    1    3    3    0  502 -0.93899180578E+03 -0.10419312513E+03 -0.16472086234E+04  0.18989097076E+04  0.10100000352E+00 0.  1.
</event>
<event>
 5   0  0.2904500E-09  0.3895125E+04  0.7818609E-02  0.8026044E-01
       -1   -1    0    0    0  501  0.00000000000E+00  0.00000000000E+00  0.14514965916E+04  0.14514965917E+04  0.50400001928E-02 0.  1.
        1   -1    0    0  501    0  0.00000000000E+00  0.00000000000E+00 -0.26131650628E+04  0.26131650628E+04  0.50400001928E-02 0. -1.
    10030    2    1    2    0    0  0.00000000000E+00  0.00000000000E+00 -0.11616684712E+04  0.40646616545E+04  0.38951252520E+04 0.  0.
        2    1    3    3  502    0  0.95677248123E+03  0.40495395519E+03 -0.22998339316E+04  0.25236159374E+04  0.25500000920E-02 0. -1.
       -2    1    3    3    0  502 -0.95677248123E+03 -0.40495395519E+03  0.11381654604E+04  0.15410457170E+04  0.25500000920E-02 0.  1.
</event>
<event>
 5   0  0.2904500E-09  0.3902786E+04  0.7818609E-02  0.8024450E-01
       -1   -1    0    0    0  501  0.00000000000E+00  0.00000000000E+00  0.16974204210E+04  0.16974204211E+04  0.50400001928E-02 0.  1.
        1   -1    0    0  501    0  0.00000000000E+00  0.00000000000E+00 -0.22433654601E+04  0.22433654601E+04  0.50400001928E-02 0. -1.
    10030    2    1    2    0    0  0.00000000000E+00  0.00000000000E+00 -0.54594503905E+03  0.39407858812E+04  0.39027858480E+04 0.  0.
        4    1    3    3  502    0  0.17989907238E+04 -0.69433611501E+02 -0.10331265688E+04  0.20757024765E+04  0.12699999809E+01 0.  1.
       -4    1    3    3    0  502 -0.17989907238E+04  0.69433611501E+02  0.48718152979E+03  0.18650834047E+04  0.12699999809E+01 0. -1.
</event>
<event>
 5   0  0.9277261E-09  0.3899814E+04  0.7818609E-02  0.8025068E-01
        2   -1    0    0  501    0  0.00000000000E+00  0.00000000000E+00  0.21964762192E+04  0.21964762192E+04  0.25500000920E-02 0. -1.
       -2   -1    0    0    0  501  0.00000000000E+00  0.00000000000E+00 -0.17310170578E+04  0.17310170578E+04  0.25500000920E-02 0.  1.
    10030    2    1    2    0    0  0.00000000000E+00  0.00000000000E+00  0.46545916134E+03  0.39274932770E+04  0.38998142533E+04 0.  0.
        1    1    3    3  502    0 -0.58067958834E+03 -0.14180209182E+04  0.14471763263E+04  0.21076744122E+04  0.50400001928E-02 0. -1.
       -1    1    3    3    0  502  0.58067958834E+03  0.14180209182E+04 -0.98171716492E+03  0.18198188648E+04  0.50400001928E-02 0.  1.
</event>
<event>
 5   0  0.2904500E-09  0.3904341E+04  0.7818609E-02  0.8024127E-01
       -1   -1    0    0    0  501  0.00000000000E+00  0.00000000000E+00  0.20208679896E+04  0.20208679896E+04  0.50400001928E-02 0.  1.
        1   -1    0    0  501    0  0.00000000000E+00  0.00000000000E+00 -0.18858085770E+04  0.18858085770E+04  0.50400001928E-02 0. -1.
    10030    2    1    2    0    0  0.00000000000E+00  0.00000000000E+00  0.13505941267E+03  0.39066765666E+04  0.39043412698E+04 0.  0.
        3    1    3    3  502    0 -0.48916633563E+03 -0.15533192902E+04 -0.10096297041E+04  0.19160993374E+04  0.10100000352E+00 0. -1.
       -3    1    3    3    0  502  0.48916633563E+03  0.15533192902E+04  0.11446891168E+04  0.19905772292E+04  0.10100000352E+00 0.  1.
</event>
<event>
 5   0  0.2904500E-09  0.3899591E+04  0.7818609E-02  0.8025114E-01
       -1   -1    0    0    0  501  0.00000000000E+00  0.00000000000E+00  0.12610567074E+04  0.12610567074E+04  0.50400001928E-02 0. -1.
        1   -1    0    0  501    0  0.00000000000E+00  0.00000000000E+00 -0.30146953623E+04  0.30146953623E+04  0.50400001928E-02 0.  1.
    10030    2    1    2    0    0  0.00000000000E+00  0.00000000000E+00 -0.17536386549E+04  0.42757520697E+04  0.38995906489E+04 0.  0.
        4    1    3    3  502    0 -0.98624042793E+03 -0.16352327671E+04 -0.44508089477E+03  0.19608046818E+04  0.12699999809E+01 0. -1.
       -4    1    3    3    0  502  0.98624042793E+03  0.16352327671E+04 -0.13085577602E+04  0.23149473879E+04  0.12699999809E+01 0.  1.
</event>
<event>
 5   0  0.2904500E-09  0.3899533E+04  0.7818609E-02  0.8025126E-01
       -1   -1    0    0    0  501  0.00000000000E+00  0.00000000000E+00  0.25607732956E+04  0.25607732956E+04  0.50400001928E-02 0. -1.
        1   -1    0    0  501    0  0.00000000000E+00  0.00000000000E+00 -0.14845473877E+04  0.14845473877E+04  0.50400001928E-02 0.  1.
    10030    2    1    2    0    0  0.00000000000E+00  0.00000000000E+00  0.10762259079E+04  0.40453206834E+04  0.38995329498E+04 0.  0.
        2    1    3    3  502    0 -0.17678441262E+04  0.82215493081E+03  0.51795128890E+03  0.20172964885E+04  0.25500000920E-02 0.  1.
       -2    1    3    3    0  502  0.17678441262E+04 -0.82215493081E+03  0.55827461900E+03  0.20280241949E+04  0.25500000920E-02 0. -1.
</event>
<event>
 5   0  0.6335942E-09  0.3924846E+04  0.7818609E-02  0.8019882E-01
        2   -1    0    0  501    0  0.00000000000E+00  0.00000000000E+00  0.15739873515E+04  0.15739873515E+04  0.25500000920E-02 0.  1.
       -2   -1    0    0    0  501  0.00000000000E+00  0.00000000000E+00 -0.24467180763E+04  0.24467180763E+04  0.25500000920E-02 0. -1.
    10030    2    1    2    0    0  0.00000000000E+00  0.00000000000E+00 -0.87273072476E+03  0.40207054278E+04  0.39248456300E+04 0.  0.
        2    1    3    3  502    0  0.18818340160E+03  0.91055521903E+03  0.13340155417E+04  0.16260754180E+04  0.25500000920E-02 0.  1.
       -2    1    3    3    0  502 -0.18818340160E+03 -0.91055521903E+03 -0.22067462664E+04  0.23946300098E+04  0.25500000920E-02 0. -1.
</event>
<event>
 5   0  0.6335942E-09  0.3896788E+04  0.7818609E-02  0.8025698E-01
       -2   -1    0    0    0  501  0.00000000000E+00  0.00000000000E+00  0.19444503091E+04  0.19444503091E+04  0.25500000920E-02 0.  1.
        2   -1    0    0  501    0  0.00000000000E+00  0.00000000000E+00 -0.19523457870E+04  0.19523457870E+04  0.25500000920E-02 0. -1.
    10030    2    1    2    0    0  0.00000000000E+00  0.00000000000E+00 -0.78954779055E+01  0.38967960960E+04  0.38967880973E+04 0.  0.
        2    1    3    3  502    0  0.16213811929E+04 -0.10739198586E+04  0.11462119142E+03  0.19481578101E+04  0.25500000920E-02 0.  1.
       -2    1    3    3    0  502 -0.16213811929E+04  0.10739198586E+04 -0.12251666933E+03  0.19486382860E+04  0.25500000920E-02 0. -1.
</event>
<event>
 5   0  0.6335942E-09  0.3899443E+04  0.7818609E-02  0.8025145E-01
       -2   -1    0    0    0  501  0.00000000000E+00  0.00000000000E+00  0.19087194115E+04  0.19087194115E+04  0.25500000920E-02 0.  1.
        2   -1    0    0  501    0  0.00000000000E+00  0.00000000000E+00 -0.19916043843E+04  0.19916043843E+04  0.25500000920E-02 0. -1.
    10030    2    1    2    0    0  0.00000000000E+00  0.00000000000E+00 -0.82884972862E+02  0.39003237958E+04  0.38994430107E+04 0.  0.
        2    1    3    3  502    0 -0.36465054077E+02  0.30710059379E+03 -0.19669158679E+04  0.19910797338E+04  0.25500000920E-02 0. -1.
       -2    1    3    3    0  502  0.36465054077E+02 -0.30710059379E+03  0.18840308951E+04  0.19092440620E+04  0.25500000920E-02 0.  1.
</event>
<event>
 5   0  0.9368546E-09  0.3899721E+04  0.7818609E-02  0.8025087E-01
        2   -1    0    0  501    0  0.00000000000E+00  0.00000000000E+00  0.20506405814E+04  0.20506405814E+04  0.25500000920E-02 0. -1.
       -2   -1    0    0    0  501  0.00000000000E+00  0.00000000000E+00 -0.18540333315E+04  0.18540333315E+04  0.25500000920E-02 0.  1.
    10030    2    1    2    0    0  0.00000000000E+00  0.00000000000E+00  0.19660724989E+03  0.39046739129E+04  0.38997210100E+04 0.  0.
        5    1    3    3  502    0 -0.22862759053E+03 -0.11177944857E+04 -0.14849063040E+04  0.18726195314E+04  0.46999998093E+01 0.  1.
       -5    1    3    3    0  502  0.22862759053E+03  0.11177944857E+04  0.16815135539E+04  0.20320543815E+04  0.46999998093E+01 0. -1.
</event>
<event>
 5   0  0.2904500E-09  0.3902076E+04  0.7818609E-02  0.8024598E-01
        1   -1    0    0  501    0  0.00000000000E+00  0.00000000000E+00  0.14154892210E+04  0.14154892210E+04  0.50400001928E-02 0. -1.
       -1   -1    0    0    0  501  0.00000000000E+00  0.00000000000E+00 -0.26892109065E+04  0.26892109065E+04  0.50400001928E-02 0.  1.
    10030    2    1    2    0    0  0.00000000000E+00  0.00000000000E+00 -0.12737216854E+04  0.41047001275E+04  0.39020758841E+04 0.  0.
        4    1    3    3  502    0  0.14013184944E+04  0.70058935085E+03 -0.18600078117E+04  0.24319024721E+04  0.12699999809E+01 0.  1.
       -4    1    3    3    0  502 -0.14013184944E+04 -0.70058935085E+03  0.58628612625E+03  0.16727976554E+04  0.12699999809E+01 0. -1.
</event>
<event>
 5   0  0.2904500E-09  0.3899645E+04  0.7818609E-02  0.8025103E-01
        1   -1    0    0  501    0  0.00000000000E+00  0.00000000000E+00  0.23975172879E+04  0.23975172879E+04  0.50400001928E-02 0. -1.
       -1   -1    0    0    0  501  0.00000000000E+00  0.00000000000E+00 -0.15857268293E+04  0.15857268293E+04  0.50400001928E-02 0.  1.
    10030    2    1    2    0    0  0.00000000000E+00  0.00000000000E+00  0.81179045865E+03  0.39832441172E+04  0.38996448490E+04 0.  0.
        3    1    3    3  502    0 -0.16875191898E+04 -0.37840836646E+03  0.13256960549E+04  0.21790786925E+04  0.10100000352E+00 0. -1.
       -3    1    3    3    0  502  0.16875191898E+04  0.37840836646E+03 -0.51390559622E+03  0.18041654247E+04  0.10100000352E+00 0.  1.
</event>
<event>
 5   0  0.9078515E-09  0.3900438E+04  0.7818609E-02  0.8024938E-01
        2   -1    0    0  501    0  0.00000000000E+00  0.00000000000E+00  0.24579697960E+04  0.24579697960E+04  0.25500000920E-02 0. -1.
       -2   -1    0    0    0  501  0.00000000000E+00  0.00000000000E+00 -0.15473556705E+04  0.15473556705E+04  0.25500000920E-02 0.  1.
    10030    2    1    2    0    0  0.00000000000E+00  0.00000000000E+00  0.91061412548E+03  0.40053254664E+04  0.39004376686E+04 0.  0.
        3    1    3    3  502    0 -0.23218002757E+03 -0.15999127255E+04 -0.66476973172E+03  0.17480123286E+04  0.10100000352E+00 0.  1.
       -3    1    3    3    0  502  0.23218002757E+03  0.15999127255E+04  0.15753838572E+04  0.22573131378E+04  0.10100000352E+00 0. -1.
</event>
<event>
 5   0  0.2904500E-09  0.3908816E+04  0.7818609E-02  0.8023198E-01
       -1   -1    0    0    0  501  0.00000000000E+00  0.00000000000E+00  0.24987344443E+04  0.24987344443E+04  0.50400001928E-02 0.  1.
        1   -1    0    0  501    0  0.00000000000E+00  0.00000000000E+00 -0.15286580878E+04  0.15286580878E+04  0.50400001928E-02 0. -1.
    10030    2    1    2    0    0  0.00000000000E+00  0.00000000000E+00  0.97007635648E+03  0.40273925321E+04  0.39088159934E+04 0.  0.
        2    1    3    3  502    0 -0.24740321898E+03 -0.38183480848E+03  0.24434090930E+04  0.24854082500E+04  0.25500000920E-02 0.  1.
       -2    1    3    3    0  502  0.24740321898E+03  0.38183480848E+03 -0.14733327365E+04  0.15419842821E+04  0.25500000920E-02 0. -1.
</event>
<event>
 5   0  0.9078515E-09  0.3901515E+04  0.7818609E-02  0.8024714E-01
       -2   -1    0    0    0  501  0.00000000000E+00  0.00000000000E+00  0.21297129519E+04  0.21297129519E+04  0.25500000920E-02 0. -1.
        2   -1    0    0  501    0  0.00000000000E+00  0.00000000000E+00 -0.17868389416E+04  0.17868389416E+04  0.25500000920E-02 0.  1.
    10030    2    1    2    0    0  0.00000000000E+00  0.00000000000E+00  0.34287401031E+03  0.39165518935E+04  0.39015145966E+04 0.  0.
        3    1    3    3  502    0  0.44111839797E+03 -0.18255554925E+04 -0.35805753843E+03  0.19119214179E+04  0.10100000352E+00 0. -1.
       -3    1    3    3    0  502 -0.44111839797E+03  0.18255554925E+04  0.70093154874E+03  0.20046304756E+04  0.10100000352E+00 0.  1.
</event>
<event>
 5   0  0.2904500E-09  0.3900886E+04  0.7818609E-02  0.8024845E-01
        1   -1    0    0  501    0  0.00000000000E+00  0.00000000000E+00  0.18553670538E+04  0.18553670538E+04  0.50400001928E-02 0. -1.
       -1   -1    0    0    0  501  0.00000000000E+00  0.00000000000E+00 -0.20503905546E+04  0.20503905546E+04  0.50400001928E-02 0.  1.
    10030    2    1    2    0    0  0.00000000000E+00  0.00000000000E+00 -0.19502350080E+03  0.39057576084E+04  0.39008855827E+04 0.  0.
        4    1    3    3  502    0  0.13950217546E+03  0.65311314276E+03 -0.19323418696E+04  0.20444961110E+04  0.12699999809E+01 0.  1.
       -4    1    3    3    0  502 -0.13950217546E+03 -0.65311314276E+03  0.17373183688E+04  0.18612614974E+04  0.12699999809E+01 0. -1.
</event>
<event>
 5   0  0.2904500E-09  0.3899572E+04  0.7818609E-02  0.8025118E-01
       -1   -1    0    0    0  501  0.00000000000E+00  0.00000000000E+00  0.16578102054E+04  0.16578102054E+04  0.50400001928E-02 0.  1.
        1   -1    0    0  501    0  0.00000000000E+00  0.00000000000E+00 -0.22931850773E+04  0.22931850773E+04  0.50400001928E-02 0. -1.
    10030    2    1    2    0    0  0.00000000000E+00  0.00000000000E+00 -0.63537487190E+03  0.39509952827E+04  0.38995720914E+04 0.  0.
        5    1    3    3  502    0 -0.65297530400E+03  0.66145839101E+03  0.14188982026E+04  0.16962305710E+04  0.46999998093E+01 0.  1.
       -5    1    3    3    0  502  0.65297530400E+03 -0.66145839101E+03 -0.20542730745E+04  0.22547647117E+04  0.46999998093E+01 0. -1.
</event>
<event>
 5   0  0.2904500E-09  0.3895635E+04  0.7818609E-02  0.8025938E-01
       -1   -1    0    0    0  501  0.00000000000E+00  0.00000000000E+00  0.21483447687E+04  0.21483447687E+04  0.50400001928E-02 0.  1.
        1   -1    0    0  501    0  0.00000000000E+00  0.00000000000E+00 -0.17660078470E+04  0.17660078470E+04  0.50400001928E-02 0. -1.
    10030    2    1    2    0    0  0.00000000000E+00  0.00000000000E+00  0.38233692167E+03  0.39143526157E+04  0.38956353626E+04 0.  0.
        3    1    3    3  502    0  0.15374876762E+04 -0.29033134472E+03 -0.97450589699E+03  0.18433183116E+04  0.10100000352E+00 0. -1.
       -3    1    3    3    0  502 -0.15374876762E+04  0.29033134472E+03  0.13568428187E+04  0.20710343041E+04  0.10100000352E+00 0.  1.
</event>
<event>
 5   0  0.2929054E-09  0.3899813E+04  0.7818609E-02  0.8025068E-01
        1   -1    0    0  501    0  0.00000000000E+00  0.00000000000E+00  0.13796542538E+04  0.13796542538E+04  0.50400001928E-02 0. -1.
       -1   -1    0    0    0  501  0.00000000000E+00  0.00000000000E+00 -0.27558612309E+04  0.27558612309E+04  0.50400001928E-02 0.  1.
    10030    2    1    2    0    0  0.00000000000E+00  0.00000000000E+00 -0.13762069771E+04  0.41355154848E+04  0.38998131598E+04 0.  0.
        1    1    3    3  502    0 -0.41807629714E+03 -0.43705656700E+03  0.12776689746E+04  0.14135926718E+04  0.50400001928E-02 0. -1.
       -1    1    3    3    0  502  0.41807629714E+03  0.43705656700E+03 -0.26538759517E+04  0.27219228130E+04  0.50400001928E-02 0.  1.
</event>
<event>
 5   0  0.9434114E-09  0.3900316E+04  0.7818609E-02  0.8024963E-01
       -2   -1    0    0    0  501  0.00000000000E+00  0.00000000000E+00  0.17506462444E+04  0.17506462444E+04  0.25500000920E-02 0. -1.
        2   -1    0    0  501    0  0.00000000000E+00  0.00000000000E+00 -0.21724070503E+04  0.21724070503E+04  0.25500000920E-02 0.  1.
    10030    2    1    2    0    0  0.00000000000E+00  0.00000000000E+00 -0.42176080589E+03  0.39230532947E+04  0.39003160097E+04 0.  0.
        4    1    3    3  502    0  0.15812944542E+04 -0.24123040370E+03 -0.13329239528E+04  0.20821556463E+04  0.12699999809E+01 0.  1.
       -4    1    3    3    0  502 -0.15812944542E+04  0.24123040370E+03  0.91116314693E+03  0.18408976484E+04  0.12699999809E+01 0. -1.
</event>
<event>
 5   0  0.6335942E-09  0.3897809E+04  0.7818609E-02  0.8025485E-01
        2   -1    0    0  501    0  0.00000000000E+00  0.00000000000E+00  0.18519523055E+04  0.18519523055E+04  0.25500000920E-02 0. -1.
       -2   -1    0    0    0  501  0.00000000000E+00  0.00000000000E+00 -0.20509322789E+04  0.20509322789E+04  0.25500000920E-02 0.  1.
    10030    2    1    2    0    0  0.00000000000E+00  0.00000000000E+00 -0.19897997337E+03  0.39028845843E+04  0.38978090062E+04 0.  0.
        2    1    3    3  502    0 -0.27124089248E+03 -0.78364326789E+03 -0.18654646608E+04  0.20414766209E+04  0.25500000920E-02 0.  1.
       -2    1    3    3    0  502  0.27124089248E+03  0.78364326789E+03  0.16664846874E+04  0.18614079635E+04  0.25500000920E-02 0. -1.
</event>
<event>
 5   0  0.2904500E-09  0.3900870E+04  0.7818609E-02  0.8024848E-01
        1   -1    0    0  501    0  0.00000000000E+00  0.00000000000E+00  0.26651860849E+04  0.26651860850E+04  0.50400001928E-02 0. -1.
       -1   -1    0    0    0  501  0.00000000000E+00  0.00000000000E+00 -0.14273663468E+04  0.14273663469E+04  0.50400001928E-02 0.  1.
    10030    2    1    2    0    0  0.00000000000E+00  0.00000000000E+00  0.12378197381E+04  0.40925524318E+04  0.39008701213E+04 0.  0.
        3    1    3    3  502    0 -0.43354269504E+03  0.73043580431E+03 -0.12231276672E+04  0.14891396957E+04  0.10100000352E+00 0.  1.
       -3    1    3    3    0  502  0.43354269504E+03 -0.73043580431E+03  0.24609474053E+04  0.26034127361E+04  0.10100000352E+00 0. -1.
</event>
<event>
 5   0  0.9277261E-09  0.3900114E+04  0.7818609E-02  0.8025005E-01
        2   -1    0    0  501    0  0.00000000000E+00  0.00000000000E+00  0.22574717132E+04  0.22574717132E+04  0.25500000920E-02 0. -1.
       -2   -1    0    0    0  501  0.00000000000E+00  0.00000000000E+00 -0.16845052605E+04  0.16845052605E+04  0.25500000920E-02 0.  1.
    10030    2    1    2    0    0  0.00000000000E+00  0.00000000000E+00  0.57296645277E+03  0.39419769737E+04  0.39001143452E+04 0.  0.
        1    1    3    3  502    0  0.15503675714E+04  0.40477450319E+03  0.14098267536E+04  0.21342664969E+04  0.50400001928E-02 0. -1.
       -1    1    3    3    0  502 -0.15503675714E+04 -0.40477450319E+03 -0.83686030080E+03  0.18077104768E+04  0.50400001928E-02 0.  1.
</event>
<event>
 5   0  0.2929054E-09  0.3901129E+04  0.7818609E-02  0.8024795E-01
        1   -1    0    0  501    0  0.00000000000E+00  0.00000000000E+00  0.19232793504E+04  0.19232793504E+04  0.50400001928E-02 0.  1.
       -1   -1    0    0    0  501  0.00000000000E+00  0.00000000000E+00 -0.19782362436E+04  0.19782362436E+04  0.50400001928E-02 0. -1.
    10030    2    1    2    0    0  0.00000000000E+00  0.00000000000E+00 -0.54956893198E+02  0.39015155941E+04  0.39011285125E+04 0.  0.
        1    1    3    3  502    0  0.16774410986E+04 -0.98257359486E+03  0.13204101288E+03  0.19485108000E+04  0.50400001928E-02 0.  1.
       -1    1    3    3    0  502 -0.16774410986E+04  0.98257359486E+03 -0.18699790608E+03  0.19530047941E+04  0.50400001928E-02 0. -1.
</event>
<event>
 5   0  0.2904500E-09  0.3903265E+04  0.7818609E-02  0.8024351E-01
       -1   -1    0    0    0  501  0.00000000000E+00  0.00000000000E+00  0.20976158178E+04  0.20976158178E+04  0.50400001928E-02 0. -1.
        1   -1    0    0  501    0  0.00000000000E+00  0.00000000000E+00 -0.18158086742E+04  0.18158086743E+04  0.50400001928E-02 0.  1.
    10030    2    1    2    0    0  0.00000000000E+00  0.00000000000E+00  0.28180714359E+03  0.39134244921E+04  0.39032647859E+04 0.  0.
        4    1    3    3  502    0 -0.18252601578E+04 -0.25528708540E+03  0.78454123080E+03  0.20030608317E+04  0.12699999809E+01 0.  1.
       -4    1    3    3    0  502  0.18252601578E+04  0.25528708540E+03 -0.50273408721E+03  0.19103636604E+04  0.12699999809E+01 0. -1.
</event>
<event>
 5   0  0.2904500E-09  0.3894040E+04  0.7818609E-02  0.8026270E-01
       -1   -1    0    0    0  501  0.00000000000E+00  0.00000000000E+00  0.14995244947E+04  0.14995244948E+04  0.50400001928E-02 0.  1.
        1   -1    0    0  501    0  0.00000000000E+00  0.00000000000E+00 -0.25280588780E+04  0.25280588780E+04  0.50400001928E-02 0. -1.
    10030    2    1    2    0    0  0.00000000000E+00  0.00000000000E+00 -0.10285343833E+04  0.40275833728E+04  0.38940396566E+04 0.  0.
        5    1    3    3  502    0  0.91935191106E+03 -0.16636467767E+04 -0.95055751231E+03  0.21252082740E+04  0.46999998093E+01 0. -1.
       -5    1    3    3    0  502 -0.91935191106E+03  0.16636467767E+04 -0.77976870947E+02  0.19023750987E+04  0.46999998093E+01 0.  1.
</event>
<event>
 5   0  0.9078515E-09  0.3900470E+04  0.7818609E-02  0.8024931E-01
       -2   -1    0    0    0  501  0.00000000000E+00  0.00000000000E+00  0.24843635699E+04  0.24843635699E+04  0.25500000920E-02 0. -1.
        2   -1    0    0  501    0  0.00000000000E+00  0.00000000000E+00 -0.15309420423E+04  0.15309420423E+04  0.25500000920E-02 0.  1.
    10030    2    1    2    0    0  0.00000000000E+00  0.00000000000E+00  0.95342152757E+03  0.40153056122E+04  0.39004700422E+04 0.  0.
        3    1    3    3  502    0 -0.42513353379E+03 -0.14554444945E+04 -0.78592319462E+03  0.17078443946E+04  0.10100000352E+00 0.  1.
       -3    1    3    3    0  502  0.42513353379E+03  0.14554444945E+04  0.17393447222E+04  0.23074612176E+04  0.10100000352E+00 0. -1.
</event>
<event>
 5   0  0.2904500E-09  0.3898461E+04  0.7818609E-02  0.8025349E-01
       -1   -1    0    0    0  501  0.00000000000E+00  0.00000000000E+00  0.16186497384E+04  0.16186497384E+04  0.50400001928E-02 0. -1.
        1   -1    0    0  501    0  0.00000000000E+00  0.00000000000E+00 -0.23473264973E+04  0.23473264973E+04  0.50400001928E-02 0.  1.
    10030    2    1    2    0    0  0.00000000000E+00  0.00000000000E+00 -0.72867675891E+03  0.39659762358E+04  0.38984609378E+04 0.  0.
        4    1    3    3  502    0 -0.31534751162E+03 -0.11180038091E+04  0.12280562638E+04  0.16904142600E+04  0.12699999809E+01 0. -1.
       -4    1    3    3    0  502  0.31534751162E+03  0.11180038091E+04 -0.19567330227E+04  0.22755619758E+04  0.12699999809E+01 0.  1.
</event>
<event>
 5   0  0.9277261E-09  0.3898351E+04  0.7818609E-02  0.8025372E-01
        2   -1    0    0  501    0  0.00000000000E+00  0.00000000000E+00  0.24782924141E+04  0.24782924141E+04  0.25500000920E-02 0.  1.
       -2   -1    0    0    0  501  0.00000000000E+00  0.00000000000E+00 -0.15330250161E+04  0.15330250161E+04  0.25500000920E-02 0. -1.
    10030    2    1    2    0    0  0.00000000000E+00  0.00000000000E+00  0.94526739793E+03  0.40113174302E+04  0.38983505579E+04 0.  0.
        1    1    3    3  502    0  0.14347846962E+04 -0.50146651696E+03 -0.78306050611E+03  0.17097542362E+04  0.50400001928E-02 0. -1.
       -1    1    3    3    0  502 -0.14347846962E+04  0.50146651696E+03  0.17283279040E+04  0.23015631940E+04  0.50400001928E-02 0.  1.
</event>
<event>
 5   0  0.2904500E-09  0.3899098E+04  0.7818609E-02  0.8025217E-01
       -1   -1    0    0    0  501  0.00000000000E+00  0.00000000000E+00  0.24922763379E+04  0.24922763380E+04  0.50400001928E-02 0. -1.
        1   -1    0    0  501    0  0.00000000000E+00  0.00000000000E+00 -0.15250080327E+04  0.15250080327E+04  0.50400001928E-02 0.  1.
    10030    2    1    2    0    0  0.00000000000E+00  0.00000000000E+00  0.96726830528E+03  0.40172843706E+04  0.38990980675E+04 0.  0.
        4    1    3    3  502    0  0.17281389944E+04  0.35533561312E+03 -0.37097282806E+03  0.18028727725E+04  0.12699999809E+01 0.  1.
       -4    1    3    3    0  502 -0.17281389944E+04 -0.35533561312E+03  0.13382411333E+04  0.22144115981E+04  0.12699999809E+01 0. -1.
</event>
<event>
 5   0  0.2904500E-09  0.3899714E+04  0.7818609E-02  0.8025089E-01
        1   -1    0    0  501    0  0.00000000000E+00  0.00000000000E+00  0.12248476745E+04  0.12248476745E+04  0.50400001928E-02 0.  1.
       -1   -1    0    0    0  501  0.00000000000E+00  0.00000000000E+00 -0.31040127001E+04  0.31040127001E+04  0.50400001928E-02 0. -1.
    10030    2    1    2    0    0  0.00000000000E+00  0.00000000000E+00 -0.18791650256E+04  0.43288603746E+04  0.38997142138E+04 0.  0.
        5    1    3    3  502    0  0.33379165477E+03  0.25726653599E+02  0.11926996642E+04  0.12388031758E+04  0.46999998093E+01 0.  1.
       -5    1    3    3    0  502 -0.33379165477E+03 -0.25726653599E+02 -0.30718646897E+04  0.30900571987E+04  0.46999998093E+01 0. -1.
</event>
<event>
 5   0  0.9368546E-09  0.3899795E+04  0.7818609E-02  0.8025072E-01
       -2   -1    0    0    0  501  0.00000000000E+00  0.00000000000E+00  0.16749915010E+04  0.16749915010E+04  0.25500000920E-02 0.  1.
        2   -1    0    0  501    0  0.00000000000E+00  0.00000000000E+00 -0.22699217550E+04  0.22699217550E+04  0.25500000920E-02 0. -1.
    10030    2    1    2    0    0  0.00000000000E+00  0.00000000000E+00 -0.59493025408E+03  0.39449132560E+04  0.38997946857E+04 0.  0.
        5    1    3    3  502    0  0.86767221762E+03 -0.16862731882E+04 -0.75625979923E+03  0.20416472067E+04  0.46999998093E+01 0. -1.
       -5    1    3    3    0  502 -0.86767221762E+03  0.16862731882E+04  0.16132954515E+03  0.19032660494E+04  0.46999998093E+01 0.  1.
</event>
<event>
 5   0  0.2904500E-09  0.3903029E+04  0.7818609E-02  0.8024400E-01
       -1   -1    0    0    0  501  0.00000000000E+00  0.00000000000E+00  0.17968922021E+04  0.17968922021E+04  0.50400001928E-02 0. -1.
        1   -1    0    0  501    0  0.00000000000E+00  0.00000000000E+00 -0.21194418509E+04  0.21194418509E+04  0.50400001928E-02 0.  1.
    10030    2    1    2    0    0  0.00000000000E+00  0.00000000000E+00 -0.32254964877E+03  0.39163340530E+04  0.39030288417E+04 0.  0.
        2    1    3    3  502    0  0.18308250012E+04  0.34734154639E+03 -0.74276931109E+03  0.20060589683E+04  0.25500000920E-02 0.  1.
       -2    1    3    3    0  502 -0.18308250012E+04 -0.34734154639E+03  0.42021966232E+03  0.19102750847E+04  0.25500000920E-02 0. -1.
</event>
<event>
 5   0  0.2904500E-09  0.3906347E+04  0.7818609E-02  0.8023710E-01
        1   -1    0    0  501    0  0.00000000000E+00  0.00000000000E+00  0.22025568110E+04  0.22025568110E+04  0.50400001928E-02 0.  1.
       -1   -1    0    0    0  501  0.00000000000E+00  0.00000000000E+00 -0.17320267462E+04  0.17320267462E+04  0.50400001928E-02 0. -1.
    10030    2    1    2    0    0  0.00000000000E+00  0.00000000000E+00  0.47053006484E+03  0.39345835572E+04  0.39063472998E+04 0.  0.
        5    1    3    3  502    0  0.55533122882E+02 -0.11452127936E+03  0.21983698311E+04  0.22020560973E+04  0.46999998093E+01 0.  1.
       -5    1    3    3    0  502 -0.55533122882E+02  0.11452127936E+03 -0.17278397663E+04  0.17325274599E+04  0.46999998093E+01 0. -1.
</event>
<event>
 5   0  0.6335942E-09  0.3900562E+04  0.7818609E-02  0.8024912E-01
        2   -1    0    0  501    0  0.00000000000E+00  0.00000000000E+00  0.23768492919E+04  0.23768492919E+04  0.25500000920E-02 0. -1.
       -2   -1    0    0    0  501  0.00000000000E+00  0.00000000000E+00 -0.16002678744E+04  0.16002678744E+04  0.25500000920E-02 0.  1.
    10030    2    1    2    0    0  0.00000000000E+00  0.00000000000E+00  0.77658141753E+03  0.39771171664E+04  0.39005617873E+04 0.  0.
        2    1    3    3  502    0 -0.15372242102E+04 -0.10025531491E+04  0.10611087716E+04  0.21199346486E+04  0.25500000920E-02 0. -1.
       -2    1    3    3    0  502  0.15372242102E+04  0.10025531491E+04 -0.28452735406E+03  0.18571825178E+04  0.25500000920E-02 0.  1.
</event>
<event>
 5   0  0.2904500E-09  0.3900430E+04  0.7818609E-02  0.8024940E-01
       -1   -1    0    0    0  501  0.00000000000E+00  0.00000000000E+00  0.33403299590E+04  0.33403299590E+04  0.50400001928E-02 0. -1.
        1   -1    0    0  501    0  0.00000000000E+00  0.00000000000E+00 -0.11386117805E+04  0.11386117805E+04  0.50400001928E-02 0.  1.
    10030    2    1    2    0    0  0.00000000000E+00  0.00000000000E+00  0.22017181785E+04  0.44789417396E+04  0.39004302543E+04 0.  0.
        4    1    3    3  502    0  0.95232236051E+03 -0.15945356436E+04  0.17839652877E+04  0.25752661139E+04  0.12699999809E+01 0. -1.
       -4    1    3    3    0  502 -0.95232236051E+03  0.15945356436E+04  0.41775289082E+03  0.19036756256E+04  0.12699999809E+01 0.  1.
</event>
<event>
 5   0  0.2929054E-09  0.3900267E+04  0.7818609E-02  0.8024974E-01
       -1   -1    0    0    0  501  0.00000000000E+00  0.00000000000E+00  0.23665332537E+04  0.23665332537E+04  0.50400001928E-02 0. -1.
        1   -1    0    0  501    0  0.00000000000E+00  0.00000000000E+00 -0.16070008967E+04  0.16070008967E+04  0.50400001928E-02 0.  1.
    10030    2    1    2    0    0  0.00000000000E+00  0.00000000000E+00  0.75953235708E+03  0.39735341504E+04  0.39002672015E+04 0.  0.
        1    1    3    3  502    0  0.33760935117E+03 -0.19111416213E+04  0.57461449710E+03  0.20240119049E+04  0.50400001928E-02 0.  1.
       -1    1    3    3    0  502 -0.33760935117E+03  0.19111416213E+04  0.18491785999E+03  0.19495222455E+04  0.50400001928E-02 0. -1.
</event>
<event>
 5   0  0.2929054E-09  0.3900431E+04  0.7818609E-02  0.8024940E-01
       -1   -1    0    0    0  501  0.00000000000E+00  0.00000000000E+00  0.18227042681E+04  0.18227042681E+04  0.50400001928E-02 0. -1.
        1   -1    0    0  501    0  0.00000000000E+00  0.00000000000E+00 -0.20866471213E+04  0.20866471213E+04  0.50400001928E-02 0.  1.
    10030    2    1    2    0    0  0.00000000000E+00  0.00000000000E+00 -0.26394285322E+03  0.39093513894E+04  0.39004310603E+04 0.  0.
        1    1    3    3  502    0  0.80290770739E+03 -0.10589052900E+04  0.12986680042E+04  0.18580849778E+04  0.50400001928E-02 0. -1.
       -1    1    3    3    0  502 -0.80290770739E+03  0.10589052900E+04 -0.15626108574E+04  0.20512664116E+04  0.50400001928E-02 0.  1.
</event>
<event>
 5   0  0.2904500E-09  0.3899074E+04  0.7818609E-02  0.8025222E-01
        3   -1    0    0  501    0  0.00000000000E+00  0.00000000000E+00  0.17764673179E+04  0.17764673208E+04  0.10100000352E+00 0.  1.
       -3   -1    0    0    0  501  0.00000000000E+00  0.00000000000E+00 -0.21394675514E+04  0.21394675538E+04  0.10100000352E+00 0. -1.
    10030    2    1    2    0    0  0.00000000000E+00  0.00000000000E+00 -0.36300023353E+03  0.39159348746E+04  0.38990738352E+04 0.  0.
        5    1    3    3  502    0  0.16792027763E+04  0.33585368370E+03  0.75427608636E+03  0.18712226391E+04  0.46999998093E+01 0.  1.
       -5    1    3    3    0  502 -0.16792027763E+04 -0.33585368370E+03 -0.11172763199E+04  0.20447122354E+04  0.46999998093E+01 0. -1.
</event>
<event>
 5   0  0.6335942E-09  0.3900573E+04  0.7818609E-02  0.8024910E-01
        2   -1    0    0  501    0  0.00000000000E+00  0.00000000000E+00  0.19375433831E+04  0.19375433831E+04  0.25500000920E-02 0. -1.
       -2   -1    0    0    0  501  0.00000000000E+00  0.00000000000E+00 -0.19631138246E+04  0.19631138246E+04  0.25500000920E-02 0.  1.
    10030    2    1    2    0    0  0.00000000000E+00  0.00000000000E+00 -0.25570441557E+02  0.39006572077E+04  0.39005733943E+04 0.  0.
        2    1    3    3  502    0  0.46814462784E+03  0.78981841774E+03  0.17079044405E+04  0.19390487625E+04  0.25500000920E-02 0. -1.
       -2    1    3    3    0  502 -0.46814462784E+03 -0.78981841774E+03 -0.17334748820E+04  0.19616084452E+04  0.25500000920E-02 0.  1.
</event>
<event>
 5   0  0.2929054E-09  0.3900481E+04  0.7818609E-02  0.8024929E-01
        1   -1    0    0  501    0  0.00000000000E+00  0.00000000000E+00  0.20807660723E+04  0.20807660723E+04  0.50400001928E-02 0.  1.
       -1   -1    0    0    0  501  0.00000000000E+00  0.00000000000E+00 -0.18279026527E+04  0.18279026527E+04  0.50400001928E-02 0. -1.
    10030    2    1    2    0    0  0.00000000000E+00  0.00000000000E+00  0.25286341963E+03  0.39086687250E+04  0.39004809053E+04 0.  0.
        1    1    3    3  502    0 -0.70646400595E+03  0.81463965649E+03  0.17548686766E+04  0.20596827993E+04  0.50400001928E-02 0.  1.
       -1    1    3    3    0  502  0.70646400595E+03 -0.81463965649E+03 -0.15020052569E+04  0.18489859257E+04  0.50400001928E-02 0. -1.
</event>
<event>
 5   0  0.9434114E-09  0.3896617E+04  0.7818609E-02  0.8025733E-01
       -2   -1    0    0    0  501  0.00000000000E+00  0.00000000000E+00  0.17588274291E+04  0.17588274291E+04  0.25500000920E-02 0. -1.
        2   -1    0    0  501    0  0.00000000000E+00  0.00000000000E+00 -0.21582023851E+04  0.21582023851E+04  0.25500000920E-02 0.  1.
    10030    2    1    2    0    0  0.00000000000E+00  0.00000000000E+00 -0.39937495598E+03  0.39170298142E+04  0.38966167645E+04 0.  0.
        4    1    3    3  502    0  0.98918054423E+03 -0.12139469107E+04 -0.13649662237E+04  0.20773251204E+04  0.12699999809E+01 0.  1.
       -4    1    3    3    0  502 -0.98918054423E+03  0.12139469107E+04  0.96559126773E+03  0.18397046938E+04  0.12699999809E+01 0. -1.
</event>
<event>
 5   0  0.9277261E-09  0.3900623E+04  0.7818609E-02  0.8024900E-01
        2   -1    0    0  501    0  0.00000000000E+00  0.00000000000E+00  0.22203632006E+04  0.22203632006E+04  0.25500000920E-02 0. -1.
       -2   -1    0    0    0  501  0.00000000000E+00  0.00000000000E+00 -0.17131046247E+04  0.17131046247E+04  0.25500000920E-02 0.  1.
    10030    2    1    2    0    0  0.00000000000E+00  0.00000000000E+00  0.50725857590E+03  0.39334678252E+04  0.39006227540E+04 0.  0.
        1    1    3    3  502    0 -0.77347474841E+01  0.18408606196E+04  0.90317014130E+03  0.20504984641E+04  0.50400001928E-02 0.  1.
       -1    1    3    3    0  502  0.77347474841E+01 -0.18408606196E+04 -0.39591156540E+03  0.18829693611E+04  0.50400001928E-02 0. -1.
</event>
<event>
 5   0  0.9434114E-09  0.3898962E+04  0.7818609E-02  0.8025245E-01
        2   -1    0    0  501    0  0.00000000000E+00  0.00000000000E+00  0.26196931027E+04  0.26196931027E+04  0.25500000920E-02 0. -1.
       -2   -1    0    0    0  501  0.00000000000E+00  0.00000000000E+00 -0.14507334601E+04  0.14507334601E+04  0.25500000920E-02 0.  1.
    10030    2    1    2    0    0  0.00000000000E+00  0.00000000000E+00  0.11689596426E+04  0.40704265628E+04  0.38989621385E+04 0.  0.
        4    1    3    3  502    0 -0.18511964146E+04  0.41365416708E+03  0.11476340892E+03  0.19003184440E+04  0.12699999809E+01 0.  1.
       -4    1    3    3    0  502  0.18511964146E+04 -0.41365416708E+03  0.10541962337E+04  0.21701081189E+04  0.12699999809E+01 0. -1.
</event>
<event>
 5   0  0.9434114E-09  0.3900565E+04  0.7818609E-02  0.8024912E-01
        2   -1    0    0  501    0  0.00000000000E+00  0.00000000000E+00  0.30996802960E+04  0.30996802960E+04  0.25500000920E-02 0. -1.
       -2   -1    0    0    0  501  0.00000000000E+00  0.00000000000E+00 -0.12270950917E+04  0.12270950917E+04  0.25500000920E-02 0.  1.
    10030    2    1    2    0    0  0.00000000000E+00  0.00000000000E+00  0.18725852043E+04  0.43267753876E+04  0.39005653318E+04 0.  0.
        4    1    3    3  502    0 -0.11707002279E+04 -0.12259869501E+04 -0.13345773870E+03  0.17004104230E+04  0.12699999809E+01 0.  1.
       -4    1    3    3    0  502  0.11707002279E+04  0.12259869501E+04  0.20060429430E+04  0.26263649647E+04  0.12699999809E+01 0. -1.
</event>
<event>
 5   0  0.2929054E-09  0.3902275E+04  0.7818609E-02  0.8024556E-01
       -1   -1    0    0    0  501  0.00000000000E+00  0.00000000000E+00  0.15660093756E+04  0.15660093757E+04  0.50400001928E-02 0.  1.
        1   -1    0    0  501    0  0.00000000000E+00  0.00000000000E+00 -0.24309806658E+04  0.24309806658E+04  0.50400001928E-02 0. -1.
    10030    2    1    2    0    0  0.00000000000E+00  0.00000000000E+00 -0.86497129016E+03  0.39969900415E+04  0.39022754976E+04 0.  0.
        1    1    3    3  502    0  0.16080762211E+04  0.36998544863E+03 -0.14989782622E+04  0.22292900654E+04  0.50400001928E-02 0. -1.
       -1    1    3    3    0  502 -0.16080762211E+04 -0.36998544863E+03  0.63400697204E+03  0.17676999761E+04  0.50400001928E-02 0.  1.
</event>
<event>
 5   0  0.9277261E-09  0.3900036E+04  0.7818609E-02  0.8025022E-01
        2   -1    0    0  501    0  0.00000000000E+00  0.00000000000E+00  0.23356707011E+04  0.23356707011E+04  0.25500000920E-02 0.  1.
       -2   -1    0    0    0  501  0.00000000000E+00  0.00000000000E+00 -0.16280424327E+04  0.16280424327E+04  0.25500000920E-02 0. -1.
    10030    2    1    2    0    0  0.00000000000E+00  0.00000000000E+00  0.70762826839E+03  0.39637131338E+04  0.39000364153E+04 0.  0.
        1    1    3    3  502    0 -0.38966953398E+03  0.11315012318E+04 -0.12109448483E+04  0.17025054504E+04  0.50400001928E-02 0. -1.
       -1    1    3    3    0  502  0.38966953398E+03 -0.11315012318E+04  0.19185731167E+04  0.22612076833E+04  0.50400001928E-02 0.  1.
</event>
<event>
 5   0  0.2929054E-09  0.3897089E+04  0.7818609E-02  0.8025635E-01
       -1   -1    0    0    0  501  0.00000000000E+00  0.00000000000E+00  0.11920678828E+04  0.11920678828E+04  0.50400001928E-02 0.  1.
        1   -1    0    0  501    0  0.00000000000E+00  0.00000000000E+00 -0.31850756279E+04  0.31850756279E+04  0.50400001928E-02 0. -1.
    10030    2    1    2    0    0  0.00000000000E+00  0.00000000000E+00 -0.19930077452E+04  0.43771435107E+04  0.38970893550E+04 0.  0.
        1    1    3    3  502    0  0.12642376715E+04 -0.14302593033E+04 -0.55732965966E+03  0.19886062743E+04  0.50400001928E-02 0.  1.
       -1    1    3    3    0  502 -0.12642376715E+04  0.14302593033E+04 -0.14356780855E+04  0.23885372364E+04  0.50400001928E-02 0. -1.
</event>
<event>
 5   0  0.6335942E-09  0.3898158E+04  0.7818609E-02  0.8025412E-01
        2   -1    0    0  501    0  0.00000000000E+00  0.00000000000E+00  0.21869849940E+04  0.21869849940E+04  0.25500000920E-02 0.  1.
       -2   -1    0    0    0  501  0.00000000000E+00  0.00000000000E+00 -0.17370530858E+04  0.17370530858E+04  0.25500000920E-02 0. -1.
    10030    2    1    2    0    0  0.00000000000E+00  0.00000000000E+00  0.44993190825E+03  0.39240380798E+04  0.38981580432E+04 0.  0.
        2    1    3    3  502    0  0.84049838695E+03 -0.16726471158E+04 -0.32152235235E+03  0.18993584537E+04  0.25500000920E-02 0. -1.
       -2    1    3    3    0  502 -0.84049838695E+03  0.16726471158E+04  0.77145426060E+03  0.20246796262E+04  0.25500000920E-02 0.  1.
</event>
<event>
 5   0  0.6335942E-09  0.3901231E+04  0.7818609E-02  0.8024773E-01
        2   -1    0    0  501    0  0.00000000000E+00  0.00000000000E+00  0.27595583770E+04  0.27595583770E+04  0.25500000920E-02 0.  1.
       -2   -1    0    0    0  501  0.00000000000E+00  0.00000000000E+00 -0.13788078533E+04  0.13788078533E+04  0.25500000920E-02 0. -1.
    10030    2    1    2    0    0  0.00000000000E+00  0.00000000000E+00  0.13807505237E+04  0.41383662303E+04  0.39012309657E+04 0.  0.
        2    1    3    3  502    0  0.17402789132E+04 -0.76324618463E+03  0.22340663402E+03  0.19133807667E+04  0.25500000920E-02 0. -1.
       -2    1    3    3    0  502 -0.17402789132E+04  0.76324618463E+03  0.11573438897E+04  0.22249854636E+04  0.25500000920E-02 0.  1.
</event>
<event>
 5   0  0.9277261E-09  0.3899684E+04  0.7818609E-02  0.8025095E-01
       -2   -1    0    0    0  501  0.00000000000E+00  0.00000000000E+00  0.28872489899E+04  0.28872489899E+04  0.25500000920E-02 0. -1.
        2   -1    0    0  501    0  0.00000000000E+00  0.00000000000E+00 -0.13167842771E+04  0.13167842771E+04  0.25500000920E-02 0.  1.
    10030    2    1    2    0    0  0.00000000000E+00  0.00000000000E+00  0.15704647128E+04  0.42040332670E+04  0.38996841277E+04 0.  0.
        1    1    3    3  502    0  0.23600626592E+03  0.19137387786E+04  0.10972866956E+04  0.22185881012E+04  0.50400001928E-02 0. -1.
       -1    1    3    3    0  502 -0.23600626592E+03 -0.19137387786E+04  0.47317801723E+03  0.19854451658E+04  0.50400001928E-02 0.  1.
</event>
<event>
 5   0  0.9277261E-09  0.3881851E+04  0.7818609E-02  0.8028814E-01
       -2   -1    0    0    0  501  0.00000000000E+00  0.00000000000E+00  0.22752188671E+04  0.22752188671E+04  0.25500000920E-02 0.  1.
        2   -1    0    0  501    0  0.00000000000E+00  0.00000000000E+00 -0.16557493475E+04  0.16557493475E+04  0.25500000920E-02 0. -1.
    10030    2    1    2    0    0  0.00000000000E+00  0.00000000000E+00  0.61946951959E+03  0.39309682146E+04  0.38818511845E+04 0.  0.
        1    1    3    3  502    0 -0.83236388440E+03 -0.17530015703E+04  0.34691461645E+03  0.19713431697E+04  0.50400001928E-02 0. -1.
       -1    1    3    3    0  502  0.83236388440E+03  0.17530015703E+04  0.27255490313E+03  0.19596250449E+04  0.50400001928E-02 0.  1.
</event>
<event>
 5   0  0.6335942E-09  0.3900572E+04  0.7818609E-02  0.8024910E-01
        2   -1    0    0  501    0  0.00000000000E+00  0.00000000000E+00  0.13805011113E+04  0.13805011113E+04  0.25500000920E-02 0. -1.
       -2   -1    0    0    0  501  0.00000000000E+00  0.00000000000E+00 -0.27552423954E+04  0.27552423954E+04  0.25500000920E-02 0.  1.
    10030    2    1    2    0    0  0.00000000000E+00  0.00000000000E+00 -0.13747412841E+04  0.41357435068E+04  0.39005718498E+04 0.  0.
        2    1    3    3  502    0 -0.64958152715E+03  0.59004697172E+03  0.11593345564E+04  0.14540179514E+04  0.25500000920E-02 0. -1.
       -2    1    3    3    0  502  0.64958152715E+03 -0.59004697172E+03 -0.25340758405E+04  0.26817255554E+04  0.25500000920E-02 0.  1.
</event>
<event>
 5   0  0.2904500E-09  0.3900486E+04  0.7818609E-02  0.8024928E-01
        1   -1    0    0  501    0  0.00000000000E+00  0.00000000000E+00  0.27379261101E+04  0.27379261101E+04  0.50400001928E-02 0. -1.
       -1   -1    0    0    0  501  0.00000000000E+00  0.00000000000E+00 -0.13891712574E+04  0.13891712574E+04  0.50400001928E-02 0.  1.
    10030    2    1    2    0    0  0.00000000000E+00  0.00000000000E+00  0.13487548527E+04  0.41270973676E+04  0.39004862554E+04 0.  0.
        2    1    3    3  502    0  0.14588173415E+04  0.67826625380E+03 -0.49205528670E+03  0.16823529808E+04  0.25500000920E-02 0.  1.
       -2    1    3    3    0  502 -0.14588173415E+04 -0.67826625380E+03  0.18408101394E+04  0.24447443867E+04  0.25500000920E-02 0. -1.
</event>
<event>
 5   0  0.2904500E-09  0.3900952E+04  0.7818609E-02  0.8024831E-01
        1   -1    0    0  501    0  0.00000000000E+00  0.00000000000E+00  0.23259928285E+04  0.23259928286E+04  0.50400001928E-02 0. -1.
       -1   -1    0    0    0  501  0.00000000000E+00  0.00000000000E+00 -0.16355840626E+04  0.16355840626E+04  0.50400001928E-02 0.  1.
    10030    2    1    2    0    0  0.00000000000E+00  0.00000000000E+00  0.69040876591E+03  0.39615768912E+04  0.39009520890E+04 0.  0.
        2    1    3    3  502    0  0.83435804669E+03  0.72488986782E+03 -0.12868614026E+04  0.16963581402E+04  0.25500000920E-02 0.  1.
       -2    1    3    3    0  502 -0.83435804669E+03 -0.72488986782E+03  0.19772701685E+04  0.22652187510E+04  0.25500000920E-02 0. -1.
</event>
<event>
 5   0  0.2904500E-09  0.3898705E+04  0.7818609E-02  0.8025299E-01
       -1   -1    0    0    0  501  0.00000000000E+00  0.00000000000E+00  0.17308000785E+04  0.17308000785E+04  0.50400001928E-02 0. -1.
        1   -1    0    0  501    0  0.00000000000E+00  0.00000000000E+00 -0.21955018671E+04  0.21955018671E+04  0.50400001928E-02 0.  1.
    10030    2    1    2    0    0  0.00000000000E+00  0.00000000000E+00 -0.46470178854E+03  0.39263019456E+04  0.38987048126E+04 0.  0.
        4    1    3    3  502    0  0.33593892909E+03  0.16651534186E+03  0.16941434619E+04  0.17351386127E+04  0.12699999809E+01 0. -1.
       -4    1    3    3    0  502 -0.33593892909E+03 -0.16651534186E+03 -0.21588452504E+04  0.21911633329E+04  0.12699999809E+01 0.  1.
</event>
<event>
 5   0  0.2904500E-09  0.3901037E+04  0.7818609E-02  0.8024814E-01
       -1   -1    0    0    0  501  0.00000000000E+00  0.00000000000E+00  0.14199836066E+04  0.14199836066E+04  0.50400001928E-02 0.  1.
        1   -1    0    0  501    0  0.00000000000E+00  0.00000000000E+00 -0.26792717810E+04  0.26792717810E+04  0.50400001928E-02 0. -1.
    10030    2    1    2    0    0  0.00000000000E+00  0.00000000000E+00 -0.12592881744E+04  0.40992553876E+04  0.39010367886E+04 0.  0.
        5    1    3    3  502    0  0.18899624743E+04  0.27924029771E+03 -0.10427703299E+04  0.21765397651E+04  0.46999998093E+01 0.  1.
       -5    1    3    3    0  502 -0.18899624743E+04 -0.27924029771E+03 -0.21651784449E+03  0.19227156225E+04  0.46999998093E+01 0. -1.
</event>
<event>
 5   0  0.2904500E-09  0.3900507E+04  0.7818609E-02  0.8024924E-01
       -1   -1    0    0    0  501  0.00000000000E+00  0.00000000000E+00  0.18750532451E+04  0.18750532451E+04  0.50400001928E-02 0. -1.
        1   -1    0    0  501    0  0.00000000000E+00  0.00000000000E+00 -0.20284700278E+04  0.20284700278E+04  0.50400001928E-02 0.  1.
    10030    2    1    2    0    0  0.00000000000E+00  0.00000000000E+00 -0.15341678273E+03  0.39035232729E+04  0.39005073046E+04 0.  0.
        5    1    3    3  502    0  0.61181274731E+03  0.16706191617E+04 -0.87619028472E+03  0.19831829785E+04  0.46999998093E+01 0.  1.
       -5    1    3    3    0  502 -0.61181274731E+03 -0.16706191617E+04  0.72277350199E+03  0.19203402944E+04  0.46999998093E+01 0. -1.
</event>
<event>
 5   0  0.9078515E-09  0.3900281E+04  0.7818609E-02  0.8024971E-01
        2   -1    0    0  501    0  0.00000000000E+00  0.00000000000E+00  0.25063173475E+04  0.25063173475E+04  0.25500000920E-02 0. -1.
       -2   -1    0    0    0  501  0.00000000000E+00  0.00000000000E+00 -0.15173846196E+04  0.15173846196E+04  0.25500000920E-02 0.  1.
    10030    2    1    2    0    0  0.00000000000E+00  0.00000000000E+00  0.98893272791E+03  0.40237019672E+04  0.39002807053E+04 0.  0.
        3    1    3    3  502    0 -0.86250570461E+03 -0.11696011772E+03  0.22948115986E+04  0.24543341343E+04  0.10100000352E+00 0. -1.
       -3    1    3    3    0  502  0.86250570461E+03  0.11696011772E+03 -0.13058788707E+04  0.15693678328E+04  0.10100000352E+00 0.  1.
</event>
<event>
 5   0  0.9277261E-09  0.3902518E+04  0.7818609E-02  0.8024506E-01
        2   -1    0    0  501    0  0.00000000000E+00  0.00000000000E+00  0.19410951081E+04  0.19410951081E+04  0.25500000920E-02 0.  1.
       -2   -1    0    0    0  501  0.00000000000E+00  0.00000000000E+00 -0.19614760355E+04  0.19614760355E+04  0.25500000920E-02 0. -1.
    10030    2    1    2    0    0  0.00000000000E+00  0.00000000000E+00 -0.20380927397E+02  0.39025711436E+04  0.39025179242E+04 0.  0.
        1    1    3    3  502    0  0.17717139692E+03 -0.17079755318E+04 -0.93694007416E+03  0.19561254622E+04  0.50400001928E-02 0. -1.
       -1    1    3    3    0  502 -0.17717139692E+03  0.17079755318E+04  0.91655914677E+03  0.19464456814E+04  0.50400001928E-02 0.  1.
</event>
<event>
 5   0  0.2904500E-09  0.3899696E+04  0.7818609E-02  0.8025092E-01
        1   -1    0    0  501    0  0.00000000000E+00  0.00000000000E+00  0.29330920530E+04  0.29330920530E+04  0.50400001928E-02 0. -1.
       -1   -1    0    0    0  501  0.00000000000E+00  0.00000000000E+00 -0.12962114953E+04  0.12962114953E+04  0.50400001928E-02 0.  1.
    10030    2    1    2    0    0  0.00000000000E+00  0.00000000000E+00  0.16368805578E+04  0.42293035483E+04  0.38996962117E+04 0.  0.
        5    1    3    3  502    0 -0.86242700805E+03  0.11459961350E+04  0.22509931685E+04  0.26690971920E+04  0.46999998093E+01 0. -1.
       -5    1    3    3    0  502  0.86242700805E+03 -0.11459961350E+04 -0.61411261076E+03  0.15602063563E+04  0.46999998093E+01 0.  1.
</event>
<event>
 5   0  0.9277261E-09  0.3900032E+04  0.7818609E-02  0.8025022E-01
       -2   -1    0    0    0  501  0.00000000000E+00  0.00000000000E+00  0.11828548001E+04  0.11828548001E+04  0.25500000920E-02 0.  1.
        2   -1    0    0  501    0  0.00000000000E+00  0.00000000000E+00 -0.32147336740E+04  0.32147336740E+04  0.25500000920E-02 0. -1.
    10030    2    1    2    0    0  0.00000000000E+00  0.00000000000E+00 -0.20318788739E+04  0.43975884741E+04  0.39000323882E+04 0.  0.
        1    1    3    3  502    0  0.12440542018E+04 -0.60156510679E+03  0.53545783594E+03  0.14819806101E+04  0.50400001928E-02 0.  1.
       -1    1    3    3    0  502 -0.12440542018E+04  0.60156510679E+03 -0.25673367099E+04  0.29156078640E+04  0.50400001928E-02 0. -1.
</event>
<event>
 5   0  0.2904500E-09  0.3908741E+04  0.7818609E-02  0.8023214E-01
       -1   -1    0    0    0  501  0.00000000000E+00  0.00000000000E+00  0.21863316234E+04  0.21863316234E+04  0.50400001928E-02 0.  1.
        1   -1    0    0  501    0  0.00000000000E+00  0.00000000000E+00 -0.17470198303E+04  0.17470198303E+04  0.50400001928E-02 0. -1.
    10030    2    1    2    0    0  0.00000000000E+00  0.00000000000E+00  0.43931179310E+03  0.39333514536E+04  0.39087413327E+04 0.  0.
        2    1    3    3  502    0  0.16911680058E+04 -0.93894226577E+03 -0.61212343174E+02  0.19353058552E+04  0.25500000920E-02 0.  1.
       -2    1    3    3    0  502 -0.16911680058E+04  0.93894226577E+03  0.50052413628E+03  0.19980455984E+04  0.25500000920E-02 0. -1.
</event>
<event>
 5   0  0.9277261E-09  0.3899758E+04  0.7818609E-02  0.8025080E-01
        2   -1    0    0  501    0  0.00000000000E+00  0.00000000000E+00  0.15085989996E+04  0.15085989996E+04  0.25500000920E-02 0.  1.
       -2   -1    0    0    0  501  0.00000000000E+00  0.00000000000E+00 -0.25202375085E+04  0.25202375085E+04  0.25500000920E-02 0. -1.
    10030    2    1    2    0    0  0.00000000000E+00  0.00000000000E+00 -0.10116385089E+04  0.40288365080E+04  0.38997578304E+04 0.  0.
        1    1    3    3  502    0 -0.91055178176E+03  0.17240580764E+04 -0.52998109943E+03  0.20204852793E+04  0.50400001928E-02 0.  1.
       -1    1    3    3    0  502  0.91055178176E+03 -0.17240580764E+04 -0.48165740945E+03  0.20083512288E+04  0.50400001928E-02 0. -1.
</event>
<event>
 5   0  0.6335942E-09  0.3899650E+04  0.7818609E-02  0.8025102E-01
        2   -1    0    0  501    0  0.00000000000E+00  0.00000000000E+00  0.14204449122E+04  0.14204449122E+04  0.25500000920E-02 0. -1.
       -2   -1    0    0    0  501  0.00000000000E+00  0.00000000000E+00 -0.26764975978E+04  0.26764975978E+04  0.25500000920E-02 0.  1.
    10030    2    1    2    0    0  0.00000000000E+00  0.00000000000E+00 -0.12560526855E+04  0.40969425100E+04  0.38996499307E+04 0.  0.
        2    1    3    3  502    0  0.16878110061E+04  0.61045888194E+03 -0.14284449253E+04  0.22938659384E+04  0.25500000920E-02 0.  1.
       -2    1    3    3    0  502 -0.16878110061E+04 -0.61045888194E+03  0.17239223974E+03  0.18030765716E+04  0.25500000920E-02 0. -1.
</event>
<event>
 5   0  0.9368546E-09  0.3899193E+04  0.7818609E-02  0.8025197E-01
        2   -1    0    0  501    0  0.00000000000E+00  0.00000000000E+00  0.15647674834E+04  0.15647674834E+04  0.25500000920E-02 0.  1.
       -2   -1    0    0    0  501  0.00000000000E+00  0.00000000000E+00 -0.24290674706E+04  0.24290674706E+04  0.25500000920E-02 0. -1.
    10030    2    1    2    0    0  0.00000000000E+00  0.00000000000E+00 -0.86429998721E+03  0.39938349540E+04  0.38991926307E+04 0.  0.
        5    1    3    3  502    0  0.10596805284E+04  0.11504917985E+04  0.75986247659E+03  0.17389557999E+04  0.46999998093E+01 0. -1.
       -5    1    3    3    0  502 -0.10596805284E+04 -0.11504917985E+04 -0.16241624638E+04  0.22548791541E+04  0.46999998093E+01 0.  1.
</event>
<event>
 5   0  0.2929054E-09  0.3899429E+04  0.7818609E-02  0.8025148E-01
       -1   -1    0    0    0  501  0.00000000000E+00  0.00000000000E+00  0.21729277417E+04  0.21729277417E+04  0.50400001928E-02 0. -1.
        1   -1    0    0  501    0  0.00000000000E+00  0.00000000000E+00 -0.17494306532E+04  0.17494306532E+04  0.50400001928E-02 0.  1.
    10030    2    1    2    0    0  0.00000000000E+00  0.00000000000E+00  0.42349708852E+03  0.39223583949E+04  0.38994288805E+04 0.  0.
        1    1    3    3  502    0  0.11298021728E+04  0.72729249531E+03 -0.12093502199E+04  0.18077431448E+04  0.50400001928E-02 0.  1.
       -1    1    3    3    0  502 -0.11298021728E+04 -0.72729249531E+03  0.16328473084E+04  0.21146152501E+04  0.50400001928E-02 0. -1.
</event>
<event>
 5   0  0.2929054E-09  0.3898586E+04  0.7818609E-02  0.8025323E-01
       -1   -1    0    0    0  501  0.00000000000E+00  0.00000000000E+00  0.30629736342E+04  0.30629736342E+04  0.50400001928E-02 0.  1.
        1   -1    0    0  501    0  0.00000000000E+00  0.00000000000E+00 -0.12405404122E+04  0.12405404122E+04  0.50400001928E-02 0. -1.
    10030    2    1    2    0    0  0.00000000000E+00  0.00000000000E+00  0.18224332220E+04  0.43035140464E+04  0.38985856794E+04 0.  0.
        1    1    3    3  502    0  0.54398760931E+03  0.16812173411E+04  0.18196974145E+04  0.25364764827E+04  0.50400001928E-02 0.  1.
       -1    1    3    3    0  502 -0.54398760931E+03 -0.16812173411E+04  0.27358075436E+01  0.17670375637E+04  0.50400001928E-02 0. -1.
</event>
<event>
 5   0  0.2904500E-09  0.3899098E+04  0.7818609E-02  0.8025217E-01
       -1   -1    0    0    0  501  0.00000000000E+00  0.00000000000E+00  0.23540799929E+04  0.23540799929E+04  0.50400001928E-02 0.  1.
        1   -1    0    0  501    0  0.00000000000E+00  0.00000000000E+00 -0.16145333839E+04  0.16145333839E+04  0.50400001928E-02 0. -1.
    10030    2    1    2    0    0  0.00000000000E+00  0.00000000000E+00  0.73954660902E+03  0.39686133767E+04  0.38990977094E+04 0.  0.
        4    1    3    3  502    0  0.27605913491E+02  0.71395371921E+03 -0.14764699964E+04  0.16402613398E+04  0.12699999809E+01 0. -1.
       -4    1    3    3    0  502 -0.27605913491E+02 -0.71395371921E+03  0.22160166054E+04  0.23283520370E+04  0.12699999809E+01 0.  1.
</event>
<event>
 5   0  0.2904500E-09  0.3893967E+04  0.7818609E-02  0.8026285E-01
       -1   -1    0    0    0  501  0.00000000000E+00  0.00000000000E+00  0.27149385132E+04  0.27149385132E+04  0.50400001928E-02 0.  1.
        1   -1    0    0  501    0  0.00000000000E+00  0.00000000000E+00 -0.13962545748E+04  0.13962545748E+04  0.50400001928E-02 0. -1.
    10030    2    1    2    0    0  0.00000000000E+00  0.00000000000E+00  0.13186839384E+04  0.41111930879E+04  0.38939672927E+04 0.  0.
        5    1    3    3  502    0  0.16399067302E+04 -0.51486209738E+03 -0.30619434052E+03  0.17458963678E+04  0.46999998093E+01 0. -1.
       -5    1    3    3    0  502 -0.16399067302E+04  0.51486209738E+03  0.16248782789E+04  0.23652967201E+04  0.46999998093E+01 0.  1.
</event>
<event>
 5   0  0.9277261E-09  0.3901134E+04  0.7818609E-02  0.8024793E-01
       -2   -1    0    0    0  501  0.00000000000E+00  0.00000000000E+00  0.18412508793E+04  0.18412508793E+04  0.25500000920E-02 0. -1.
        2   -1    0    0  501    0  0.00000000000E+00  0.00000000000E+00 -0.20663736521E+04  0.20663736521E+04  0.25500000920E-02 0.  1.
    10030    2    1    2    0    0  0.00000000000E+00  0.00000000000E+00 -0.22512277282E+03  0.39076245314E+04  0.39011343499E+04 0.  0.
        1    1    3    3  502    0  0.76911896148E+02  0.95988708845E+03  0.15865547696E+04  0.18559242170E+04  0.50400001928E-02 0. -1.
       -1    1    3    3    0  502 -0.76911896148E+02 -0.95988708845E+03 -0.18116775424E+04  0.20517003144E+04  0.50400001928E-02 0.  1.
</event>
<event>
 5   0  0.2904500E-09  0.3896052E+04  0.7818609E-02  0.8025851E-01
        1   -1    0    0  501    0  0.00000000000E+00  0.00000000000E+00  0.25426851330E+04  0.25426851330E+04  0.50400001928E-02 0.  1.
       -1   -1    0    0    0  501  0.00000000000E+00  0.00000000000E+00 -0.14924402681E+04  0.14924402682E+04  0.50400001928E-02 0. -1.
    10030    2    1    2    0    0  0.00000000000E+00  0.00000000000E+00  0.10502448648E+04  0.40351254011E+04  0.38960521976E+04 0.  0.
        2    1    3    3  502    0  0.94645957944E+03  0.16343022692E+04  0.10197429188E+04  0.21463003665E+04  0.25500000920E-02 0.  1.
       -2    1    3    3    0  502 -0.94645957944E+03 -0.16343022692E+04  0.30501946005E+02  0.18888250346E+04  0.25500000920E-02 0. -1.
</event>
<event>
 5   0  0.2904500E-09  0.3902565E+04  0.7818609E-02  0.8024496E-01
        1   -1    0    0  501    0  0.00000000000E+00  0.00000000000E+00  0.18372983851E+04  0.18372983852E+04  0.50400001928E-02 0.  1.
       -1   -1    0    0    0  501  0.00000000000E+00  0.00000000000E+00 -0.20723384547E+04  0.20723384547E+04  0.50400001928E-02 0. -1.
    10030    2    1    2    0    0  0.00000000000E+00  0.00000000000E+00 -0.23504006953E+03  0.39096368398E+04  0.39025653595E+04 0.  0.
        2    1    3    3  502    0  0.32457298353E+03 -0.13062815053E+04  0.12977624156E+04  0.18697342806E+04  0.25500000920E-02 0.  1.
       -2    1    3    3    0  502 -0.32457298353E+03  0.13062815053E+04 -0.15328024852E+04  0.20399025592E+04  0.25500000920E-02 0. -1.
</event>
<event>
 5   0  0.2904500E-09  0.3901142E+04  0.7818609E-02  0.8024792E-01
       -1   -1    0    0    0  501  0.00000000000E+00  0.00000000000E+00  0.11956097089E+04  0.11956097089E+04  0.50400001928E-02 0.  1.
        1   -1    0    0  501    0  0.00000000000E+00  0.00000000000E+00 -0.31822484085E+04  0.31822484085E+04  0.50400001928E-02 0. -1.
    10030    2    1    2    0    0  0.00000000000E+00  0.00000000000E+00 -0.19866386996E+04  0.43778581174E+04  0.39011419319E+04 0.  0.
        3    1    3    3  502    0 -0.84902118326E+03  0.94987251923E+03 -0.26508467246E+04  0.29411023681E+04  0.10100000352E+00 0. -1.
       -3    1    3    3    0  502  0.84902118326E+03 -0.94987251923E+03  0.66420802495E+03  0.14367557493E+04  0.10100000352E+00 0.  1.
</event>
<event>
 5   0  0.2904500E-09  0.3899823E+04  0.7818609E-02  0.8025066E-01
       -1   -1    0    0    0  501  0.00000000000E+00  0.00000000000E+00  0.27263503193E+04  0.27263503193E+04  0.50400001928E-02 0. -1.
        1   -1    0    0  501    0  0.00000000000E+00  0.00000000000E+00 -0.13945952346E+04  0.13945952346E+04  0.50400001928E-02 0.  1.
    10030    2    1    2    0    0  0.00000000000E+00  0.00000000000E+00  0.13317550847E+04  0.41209455539E+04  0.38998231566E+04 0.  0.
        4    1    3    3  502    0  0.16907460690E+04 -0.82392228540E+03  0.12095223852E+04  0.22361610442E+04  0.12699999809E+01 0.  1.
       -4    1    3    3    0  502 -0.16907460690E+04  0.82392228540E+03  0.12223269954E+03  0.18847845097E+04  0.12699999809E+01 0. -1.
</event>
<event>
 5   0  0.6335942E-09  0.3901913E+04  0.7818609E-02  0.8024631E-01
        2   -1    0    0  501    0  0.00000000000E+00  0.00000000000E+00  0.23165224284E+04  0.23165224284E+04  0.25500000920E-02 0. -1.
       -2   -1    0    0    0  501  0.00000000000E+00  0.00000000000E+00 -0.16430797971E+04  0.16430797971E+04  0.25500000920E-02 0.  1.
    10030    2    1    2    0    0  0.00000000000E+00  0.00000000000E+00  0.67344263126E+03  0.39596022255E+04  0.39019129675E+04 0.  0.
        2    1    3    3  502    0 -0.17020676233E+04  0.94993282968E+03  0.25288862142E+03  0.19655429860E+04  0.25500000920E-02 0. -1.
       -2    1    3    3    0  502  0.17020676233E+04 -0.94993282968E+03  0.42055400985E+03  0.19940592394E+04  0.25500000920E-02 0.  1.
</event>
<event>
 5   0  0.9078515E-09  0.3900922E+04  0.7818609E-02  0.8024838E-01
       -2   -1    0    0    0  501  0.00000000000E+00  0.00000000000E+00  0.26055741814E+04  0.26055741814E+04  0.25500000920E-02 0. -1.
        2   -1    0    0  501    0  0.00000000000E+00  0.00000000000E+00 -0.14600611480E+04  0.14600611480E+04  0.25500000920E-02 0.  1.
    10030    2    1    2    0    0  0.00000000000E+00  0.00000000000E+00  0.11455130334E+04  0.40656353294E+04  0.39009217529E+04 0.  0.
        3    1    3    3  502    0 -0.11059472787E+04  0.88078356762E+03 -0.82762937428E+03  0.16382519548E+04  0.10100000352E+00 0.  1.
       -3    1    3    3    0  502  0.11059472787E+04 -0.88078356762E+03  0.19731424077E+04  0.24273833746E+04  0.10100000352E+00 0. -1.
</event>
<event>
 5   0  0.9277261E-09  0.3898688E+04  0.7818609E-02  0.8025302E-01
       -2   -1    0    0    0  501  0.00000000000E+00  0.00000000000E+00  0.16056680160E+04  0.16056680160E+04  0.25500000920E-02 0. -1.
        2   -1    0    0  501    0  0.00000000000E+00  0.00000000000E+00 -0.23665797086E+04  0.23665797086E+04  0.25500000920E-02 0.  1.
    10030    2    1    2    0    0  0.00000000000E+00  0.00000000000E+00 -0.76091169258E+03  0.39722477246E+04  0.38986876486E+04 0.  0.
        1    1    3    3  502    0 -0.13576787108E+04 -0.11746655778E+04 -0.11542661630E+04  0.21343526130E+04  0.50400001928E-02 0. -1.
       -1    1    3    3    0  502  0.13576787108E+04  0.11746655778E+04  0.39335447041E+03  0.18378951115E+04  0.50400001928E-02 0.  1.
</event>
<event>
 5   0  0.9368546E-09  0.3897475E+04  0.7818609E-02  0.8025555E-01
       -2   -1    0    0    0  501  0.00000000000E+00  0.00000000000E+00  0.20106424897E+04  0.20106424897E+04  0.25500000920E-02 0.  1.
        2   -1    0    0  501    0  0.00000000000E+00  0.00000000000E+00 -0.18887383178E+04  0.18887383178E+04  0.25500000920E-02 0. -1.
    10030    2    1    2    0    0  0.00000000000E+00  0.00000000000E+00  0.12190417195E+03  0.38993808075E+04  0.38974748305E+04 0.  0.
        5    1    3    3  502    0  0.56536637128E+03 -0.12977986966E+04  0.14008735536E+04  0.19915796228E+04  0.46999998093E+01 0.  1.
       -5    1    3    3    0  502 -0.56536637128E+03  0.12977986966E+04 -0.12789693817E+04  0.19078011846E+04  0.46999998093E+01 0. -1.
</event>
<event>
 5   0  0.2904500E-09  0.3900738E+04  0.7818609E-02  0.8024876E-01
        1   -1    0    0  501    0  0.00000000000E+00  0.00000000000E+00  0.20438197838E+04  0.20438197838E+04  0.50400001928E-02 0. -1.
       -1   -1    0    0    0  501  0.00000000000E+00  0.00000000000E+00 -0.18611913765E+04  0.18611913765E+04  0.50400001928E-02 0.  1.
    10030    2    1    2    0    0  0.00000000000E+00  0.00000000000E+00  0.18262840737E+03  0.39050111603E+04  0.39007382669E+04 0.  0.
        4    1    3    3  502    0  0.21893584442E+03  0.13718825455E+04 -0.12791058884E+04  0.18884141785E+04  0.12699999809E+01 0.  1.
       -4    1    3    3    0  502 -0.21893584442E+03 -0.13718825455E+04  0.14617342958E+04  0.20165969818E+04  0.12699999809E+01 0. -1.
</event>
<event>
 5   0  0.2904500E-09  0.3900508E+04  0.7818609E-02  0.8024924E-01
       -1   -1    0    0    0  501  0.00000000000E+00  0.00000000000E+00  0.18903083087E+04  0.18903083087E+04  0.50400001928E-02 0. -1.
        1   -1    0    0  501    0  0.00000000000E+00  0.00000000000E+00 -0.20121006574E+04  0.20121006574E+04  0.50400001928E-02 0.  1.
    10030    2    1    2    0    0  0.00000000000E+00  0.00000000000E+00 -0.12179234870E+03  0.39024089660E+04  0.39005079620E+04 0.  0.
        3    1    3    3  502    0 -0.11359025894E+04 -0.13684327163E+04 -0.86166603595E+03  0.19761961338E+04  0.10100000352E+00 0.  1.
       -3    1    3    3    0  502  0.11359025894E+04  0.13684327163E+04  0.73987368725E+03  0.19262128322E+04  0.10100000352E+00 0. -1.
</event>
<event>
 5   0  0.2904500E-09  0.3900544E+04  0.7818609E-02  0.8024916E-01
        1   -1    0    0  501    0  0.00000000000E+00  0.00000000000E+00  0.25913781489E+04  0.25913781489E+04  0.50400001928E-02 0. -1.
       -1   -1    0    0    0  501  0.00000000000E+00  0.00000000000E+00 -0.14677751272E+04  0.14677751273E+04  0.50400001928E-02 0.  1.
    10030    2    1    2    0    0  0.00000000000E+00  0.00000000000E+00  0.11236030216E+04  0.40591532761E+04  0.39005437530E+04 0.  0.
        3    1    3    3  502    0  0.14352570021E+04  0.12074494202E+04  0.11180101921E+04  0.21835392289E+04  0.10100000352E+00 0.  1.
       -3    1    3    3    0  502 -0.14352570021E+04 -0.12074494202E+04  0.55928295206E+01  0.18756140472E+04  0.10100000352E+00 0. -1.
</event>
<event>
 5   0  0.2904500E-09  0.3902189E+04  0.7818609E-02  0.8024574E-01
       -1   -1    0    0    0  501  0.00000000000E+00  0.00000000000E+00  0.15509938798E+04  0.15509938798E+04  0.50400001928E-02 0.  1.
        1   -1    0    0  501    0  0.00000000000E+00  0.00000000000E+00 -0.24544063476E+04  0.24544063476E+04  0.50400001928E-02 0. -1.
    10030    2    1    2    0    0  0.00000000000E+00  0.00000000000E+00 -0.90341246774E+03  0.40054002274E+04  0.39021887313E+04 0.  0.
        5    1    3    3  502    0 -0.45558620861E+03 -0.18971264545E+04 -0.44146455115E+03  0.20003901164E+04  0.46999998093E+01 0.  1.
       -5    1    3    3    0  502  0.45558620861E+03  0.18971264545E+04 -0.46194791659E+03  0.20050101110E+04  0.46999998093E+01 0. -1.
</event>
<event>
 5   0  0.6335942E-09  0.3899408E+04  0.7818609E-02  0.8025152E-01
        2   -1    0    0  501    0  0.00000000000E+00  0.00000000000E+00  0.23783643871E+04  0.23783643871E+04  0.25500000920E-02 0. -1.
       -2   -1    0    0    0  501  0.00000000000E+00  0.00000000000E+00 -0.15983027275E+04  0.15983027275E+04  0.25500000920E-02 0.  1.
    10030    2    1    2    0    0  0.00000000000E+00  0.00000000000E+00  0.78006165965E+03  0.39766671146E+04  0.38994083073E+04 0.  0.
        2    1    3    3  502    0 -0.10510083256E+04  0.16683114710E+03 -0.12760124606E+04  0.16615230759E+04  0.25500000920E-02 0.  1.
       -2    1    3    3    0  502  0.10510083256E+04 -0.16683114710E+03  0.20560741202E+04  0.23151440387E+04  0.25500000920E-02 0. -1.
</event>
<event>
 5   0  0.9078515E-09  0.3898052E+04  0.7818609E-02  0.8025434E-01
       -2   -1    0    0    0  501  0.00000000000E+00  0.00000000000E+00  0.27349940917E+04  0.27349940917E+04  0.25500000920E-02 0. -1.
        2   -1    0    0  501    0  0.00000000000E+00  0.00000000000E+00 -0.13889254502E+04  0.13889254502E+04  0.25500000920E-02 0.  1.
    10030    2    1    2    0    0  0.00000000000E+00  0.00000000000E+00  0.13460686415E+04  0.41239195419E+04  0.38980522829E+04 0.  0.
        3    1    3    3  502    0 -0.11577460404E+03 -0.20726491508E+03  0.27196399622E+04  0.27299824245E+04  0.10100000352E+00 0. -1.
       -3    1    3    3    0  502  0.11577460404E+03  0.20726491508E+03 -0.13735713207E+04  0.13939371174E+04  0.10100000352E+00 0.  1.
</event>
<event>
 5   0  0.9078515E-09  0.3900604E+04  0.7818609E-02  0.8024904E-01
        2   -1    0    0  501    0  0.00000000000E+00  0.00000000000E+00  0.16829702421E+04  0.16829702421E+04  0.25500000920E-02 0. -1.
       -2   -1    0    0    0  501  0.00000000000E+00  0.00000000000E+00 -0.22600985130E+04  0.22600985130E+04  0.25500000920E-02 0.  1.
    10030    2    1    2    0    0  0.00000000000E+00  0.00000000000E+00 -0.57712827092E+03  0.39430687551E+04  0.39006043335E+04 0.  0.
        3    1    3    3  502    0  0.17815338530E+04 -0.42555567067E+03  0.38859261575E+03  0.18724221558E+04  0.10100000352E+00 0. -1.
       -3    1    3    3    0  502 -0.17815338530E+04  0.42555567067E+03 -0.96572088667E+03  0.20706465993E+04  0.10100000352E+00 0.  1.
</event>
<event>
 5   0  0.2904500E-09  0.3898708E+04  0.7818609E-02  0.8025298E-01
        1   -1    0    0  501    0  0.00000000000E+00  0.00000000000E+00  0.17501701897E+04  0.17501701897E+04  0.50400001928E-02 0. -1.
       -1   -1    0    0    0  501  0.00000000000E+00  0.00000000000E+00 -0.21712060570E+04  0.21712060570E+04  0.50400001928E-02 0.  1.
    10030    2    1    2    0    0  0.00000000000E+00  0.00000000000E+00 -0.42103586738E+03  0.39213762467E+04  0.38987075380E+04 0.  0.
        2    1    3    3  502    0 -0.16501042811E+04  0.96813825125E+03  0.16561403576E+03  0.19203030544E+04  0.25500000920E-02 0. -1.
       -2    1    3    3    0  502  0.16501042811E+04 -0.96813825125E+03 -0.58664990314E+03  0.20010731923E+04  0.25500000920E-02 0.  1.
</event>
<event>
 5   0  0.9434114E-09  0.3899628E+04  0.7818609E-02  0.8025107E-01
       -2   -1    0    0    0  501  0.00000000000E+00  0.00000000000E+00  0.18897110324E+04  0.18897110324E+04  0.25500000920E-02 0. -1.
        2   -1    0    0  501    0  0.00000000000E+00  0.00000000000E+00 -0.20118285685E+04  0.20118285685E+04  0.25500000920E-02 0.  1.
    10030    2    1    2    0    0  0.00000000000E+00  0.00000000000E+00 -0.12211753607E+03  0.39015396009E+04  0.38996280034E+04 0.  0.
        4    1    3    3  502    0  0.74441709052E+03  0.45729709853E+03  0.16829238174E+04  0.18961834376E+04  0.12699999809E+01 0. -1.
       -4    1    3    3    0  502 -0.74441709052E+03 -0.45729709853E+03 -0.18050413535E+04  0.20053561633E+04  0.12699999809E+01 0.  1.
</event>
<event>
 5   0  0.9277261E-09  0.3896384E+04  0.7818609E-02  0.8025782E-01
       -2   -1    0    0    0  501  0.00000000000E+00  0.00000000000E+00  0.26960214451E+04  0.26960214451E+04  0.25500000920E-02 0.  1.
        2   -1    0    0  501    0  0.00000000000E+00  0.00000000000E+00 -0.14077976814E+04  0.14077976814E+04  0.25500000920E-02 0. -1.
    10030    2    1    2    0    0  0.00000000000E+00  0.00000000000E+00  0.12882237636E+04  0.41038191265E+04  0.38963843442E+04 0.  0.
        1    1    3    3  502    0  0.54250596500E+02 -0.13033653781E+04 -0.87990106983E+03  0.15735089223E+04  0.50400001928E-02 0. -1.
       -1    1    3    3    0  502 -0.54250596500E+02  0.13033653781E+04  0.21681248335E+04  0.25303102042E+04  0.50400001928E-02 0.  1.
</event>
<event>
 5   0  0.9078515E-09  0.3900225E+04  0.7818609E-02  0.8024982E-01
        2   -1    0    0  501    0  0.00000000000E+00  0.00000000000E+00  0.20949253434E+04  0.20949253434E+04  0.25500000920E-02 0.  1.
       -2   -1    0    0    0  501  0.00000000000E+00  0.00000000000E+00 -0.18153101928E+04  0.18153101928E+04  0.25500000920E-02 0. -1.
    10030    2    1    2    0    0  0.00000000000E+00  0.00000000000E+00  0.27961515056E+03  0.39102355363E+04  0.39002252905E+04 0.  0.
        3    1    3    3  502    0 -0.51614362711E+03  0.12477929050E+04  0.15503827499E+04  0.20559859092E+04  0.10100000352E+00 0.  1.
       -3    1    3    3    0  502  0.51614362711E+03 -0.12477929050E+04 -0.12707675994E+04  0.18542496270E+04  0.10100000352E+00 0. -1.
</event>
<event>
 5   0  0.9277261E-09  0.3898361E+04  0.7818609E-02  0.8025370E-01
       -2   -1    0    0    0  501  0.00000000000E+00  0.00000000000E+00  0.16285006040E+04  0.16285006040E+04  0.25500000920E-02 0.  1.
        2   -1    0    0  501    0  0.00000000000E+00  0.00000000000E+00 -0.23330072263E+04  0.23330072263E+04  0.25500000920E-02 0. -1.
    10030    2    1    2    0    0  0.00000000000E+00  0.00000000000E+00 -0.70450662231E+03  0.39615078303E+04  0.38983605155E+04 0.  0.
        1    1    3    3  502    0  0.65897128335E+03 -0.18120255270E+04 -0.64258035636E+03  0.20323850957E+04  0.50400001928E-02 0. -1.
       -1    1    3    3    0  502 -0.65897128335E+03  0.18120255270E+04 -0.61926265953E+02  0.19291227346E+04  0.50400001928E-02 0.  1.
</event>
<event>
 5   0  0.9368546E-09  0.3895828E+04  0.7818609E-02  0.8025897E-01
        2   -1    0    0  501    0  0.00000000000E+00  0.00000000000E+00  0.22167976015E+04  0.22167976015E+04  0.25500000920E-02 0. -1.
       -2   -1    0    0    0  501  0.00000000000E+00  0.00000000000E+00 -0.17116442779E+04  0.17116442779E+04  0.25500000920E-02 0.  1.
    10030    2    1    2    0    0  0.00000000000E+00  0.00000000000E+00  0.50515332361E+03  0.39284418794E+04  0.38958279889E+04 0.  0.
        5    1    3    3  502    0  0.39695839471E+03 -0.14994078299E+04  0.14408076003E+04  0.21170140384E+04  0.46999998093E+01 0. -1.
       -5    1    3    3    0  502 -0.39695839471E+03  0.14994078299E+04 -0.93565427671E+03  0.18114278410E+04  0.46999998093E+01 0.  1.
</event>
<event>
 5   0  0.2904500E-09  0.3903675E+04  0.7818609E-02  0.8024265E-01
        1   -1    0    0  501    0  0.00000000000E+00  0.00000000000E+00  0.31248124430E+04  0.31248124430E+04  0.50400001928E-02 0.  1.
       -1   -1    0    0    0  501  0.00000000000E+00  0.00000000000E+00 -0.12191673975E+04  0.12191673975E+04  0.50400001928E-02 0. -1.
    10030    2    1    2    0    0  0.00000000000E+00  0.00000000000E+00  0.19056450455E+04  0.43439798405E+04  0.39036749115E+04 0.  0.
        3    1    3    3  502    0  0.61085258278E+03 -0.12232467157E+04  0.25028413178E+04  0.28519621452E+04  0.10100000352E+00 0.  1.
       -3    1    3    3    0  502 -0.61085258278E+03  0.12232467157E+04 -0.59719627223E+03  0.14920176953E+04  0.10100000352E+00 0. -1.
</event>
<event>
 5   0  0.2904500E-09  0.3897238E+04  0.7818609E-02  0.8025604E-01
       -3   -1    0    0    0  501  0.00000000000E+00  0.00000000000E+00  0.21693035359E+04  0.21693035383E+04  0.10100000352E+00 0. -1.
        3   -1    0    0  501    0  0.00000000000E+00  0.00000000000E+00 -0.17503851037E+04  0.17503851066E+04  0.10100000352E+00 0.  1.
    10030    2    1    2    0    0  0.00000000000E+00  0.00000000000E+00  0.41891843225E+03  0.39196886448E+04  0.38972383068E+04 0.  0.
        5    1    3    3  502    0 -0.13406835633E+04  0.73766013163E+03  0.14228582403E+04  0.20895268720E+04  0.46999998093E+01 0. -1.
       -5    1    3    3    0  502  0.13406835633E+04 -0.73766013163E+03 -0.10039398080E+04  0.18301617729E+04  0.46999998093E+01 0.  1.
</event>
<event>
 5   0  0.2904500E-09  0.3902352E+04  0.7818609E-02  0.8024540E-01
       -1   -1    0    0    0  501  0.00000000000E+00  0.00000000000E+00  0.23156134978E+04  0.23156134978E+04  0.50400001928E-02 0.  1.
        1   -1    0    0  501    0  0.00000000000E+00  0.00000000000E+00 -0.16440946595E+04  0.16440946595E+04  0.50400001928E-02 0. -1.
    10030    2    1    2    0    0  0.00000000000E+00  0.00000000000E+00  0.67151883830E+03  0.39597081572E+04  0.39023520011E+04 0.  0.
        2    1    3    3  502    0  0.16174038071E+04  0.64048960103E+03 -0.56089466891E+03  0.18277923388E+04  0.25500000920E-02 0.  1.
       -2    1    3    3    0  502 -0.16174038071E+04 -0.64048960103E+03  0.12324135072E+04  0.21319158184E+04  0.25500000920E-02 0. -1.
</event>
<event>
 5   0  0.2904500E-09  0.3899634E+04  0.7818609E-02  0.8025105E-01
        1   -1    0    0  501    0  0.00000000000E+00  0.00000000000E+00  0.20253353190E+04  0.20253353190E+04  0.50400001928E-02 0.  1.
       -1   -1    0    0    0  501  0.00000000000E+00  0.00000000000E+00 -0.18771141562E+04  0.18771141562E+04  0.50400001928E-02 0. -1.
    10030    2    1    2    0    0  0.00000000000E+00  0.00000000000E+00  0.14822116279E+03  0.39024494752E+04  0.38996336229E+04 0.  0.
        4    1    3    3  502    0  0.33788645617E+03  0.11389780088E+04 -0.14730801365E+04  0.18924600031E+04  0.12699999809E+01 0. -1.
       -4    1    3    3    0  502 -0.33788645617E+03 -0.11389780088E+04  0.16213012993E+04  0.20099894721E+04  0.12699999809E+01 0.  1.
</event>
<event>
 5   0  0.9277261E-09  0.3874528E+04  0.7818609E-02  0.8030348E-01
        2   -1    0    0  501    0  0.00000000000E+00  0.00000000000E+00  0.16927561086E+04  0.16927561086E+04  0.25500000920E-02 0.  1.
       -2   -1    0    0    0  501  0.00000000000E+00  0.00000000000E+00 -0.22170897454E+04  0.22170897454E+04  0.25500000920E-02 0. -1.
    10030    2    1    2    0    0  0.00000000000E+00  0.00000000000E+00 -0.52433363678E+03  0.39098458540E+04  0.38745282086E+04 0.  0.
        1    1    3    3  502    0  0.29252693820E+03 -0.13339023266E+04  0.11244490147E+04  0.17689694778E+04  0.50400001928E-02 0.  1.
       -1    1    3    3    0  502 -0.29252693820E+03  0.13339023266E+04 -0.16487826515E+04  0.21408763763E+04  0.50400001928E-02 0. -1.
</event>
<event>
 5   0  0.9277261E-09  0.3901784E+04  0.7818609E-02  0.8024658E-01
       -2   -1    0    0    0  501  0.00000000000E+00  0.00000000000E+00  0.14866825722E+04  0.14866825722E+04  0.25500000920E-02 0.  1.
        2   -1    0    0  501    0  0.00000000000E+00  0.00000000000E+00 -0.25600483938E+04  0.25600483938E+04  0.25500000920E-02 0. -1.
    10030    2    1    2    0    0  0.00000000000E+00  0.00000000000E+00 -0.10733658216E+04  0.40467309660E+04  0.39017838643E+04 0.  0.
        1    1    3    3  502    0 -0.19490261005E+04 -0.85106445974E+02 -0.54268434942E+03  0.20249573207E+04  0.50400001928E-02 0.  1.
       -1    1    3    3    0  502  0.19490261005E+04  0.85106445974E+02 -0.53068147221E+03  0.20217736452E+04  0.50400001928E-02 0. -1.
</event>
<event>
 5   0  0.9434114E-09  0.3900230E+04  0.7818609E-02  0.8024981E-01
        2   -1    0    0  501    0  0.00000000000E+00  0.00000000000E+00  0.25016477384E+04  0.25016477384E+04  0.25500000920E-02 0.  1.
       -2   -1    0    0    0  501  0.00000000000E+00  0.00000000000E+00 -0.15201774195E+04  0.15201774195E+04  0.25500000920E-02 0. -1.
    10030    2    1    2    0    0  0.00000000000E+00  0.00000000000E+00  0.98147031893E+03  0.40218251579E+04  0.39002299437E+04 0.  0.
        4    1    3    3  502    0  0.20034652738E+03 -0.14160718498E+03  0.24856699341E+04  0.24977485782E+04  0.12699999809E+01 0.  1.
       -4    1    3    3    0  502 -0.20034652738E+03  0.14160718498E+03 -0.15041996151E+04  0.15240765797E+04  0.12699999809E+01 0. -1.
</event>
<event>
 5   0  0.2929054E-09  0.3909908E+04  0.7818609E-02  0.8022972E-01
       -1   -1    0    0    0  501  0.00000000000E+00  0.00000000000E+00  0.15458581789E+04  0.15458581789E+04  0.50400001928E-02 0. -1.
        1   -1    0    0  501    0  0.00000000000E+00  0.00000000000E+00 -0.24723134699E+04  0.24723134699E+04  0.50400001928E-02 0.  1.
    10030    2    1    2    0    0  0.00000000000E+00  0.00000000000E+00 -0.92645529098E+03  0.40181716488E+04  0.39099084379E+04 0.  0.
        1    1    3    3  502    0 -0.85655436429E+03 -0.10078711257E+04  0.10162013374E+04  0.16679792394E+04  0.50400001928E-02 0. -1.
       -1    1    3    3    0  502  0.85655436429E+03  0.10078711257E+04 -0.19426566284E+04  0.23501924093E+04  0.50400001928E-02 0.  1.
</event>
<event>
 5   0  0.6335942E-09  0.3900405E+04  0.7818609E-02  0.8024945E-01
       -2   -1    0    0    0  501  0.00000000000E+00  0.00000000000E+00  0.23689048231E+04  0.23689048231E+04  0.25500000920E-02 0. -1.
        2   -1    0    0  501    0  0.00000000000E+00  0.00000000000E+00 -0.16055055079E+04  0.16055055079E+04  0.25500000920E-02 0.  1.
    10030    2    1    2    0    0  0.00000000000E+00  0.00000000000E+00  0.76339931521E+03  0.39744103309E+04  0.39004049744E+04 0.  0.
        2    1    3    3  502    0 -0.14127855441E+04 -0.63201750531E+03 -0.82735495105E+03  0.17549716054E+04  0.25500000920E-02 0.  1.
       -2    1    3    3    0  502  0.14127855441E+04  0.63201750531E+03  0.15907542663E+04  0.22194387255E+04  0.25500000920E-02 0. -1.
</event>
<event>
 5   0  0.9078515E-09  0.3902417E+04  0.7818609E-02  0.8024527E-01
       -2   -1    0    0    0  501  0.00000000000E+00  0.00000000000E+00  0.25734127424E+04  0.25734127424E+04  0.25500000920E-02 0.  1.
        2   -1    0    0  501    0  0.00000000000E+00  0.00000000000E+00 -0.14794417475E+04  0.14794417475E+04  0.25500000920E-02 0. -1.
    10030    2    1    2    0    0  0.00000000000E+00  0.00000000000E+00  0.10939709949E+04  0.40528544899E+04  0.39024168125E+04 0.  0.
        3    1    3    3  502    0 -0.26493870914E+03  0.10490543313E+04  0.22333125191E+04  0.24816108333E+04  0.10100000352E+00 0.  1.
       -3    1    3    3    0  502  0.26493870914E+03 -0.10490543313E+04 -0.11393415242E+04  0.15712436567E+04  0.10100000352E+00 0. -1.
</event>
<event>
 5   0  0.2929054E-09  0.3900461E+04  0.7818609E-02  0.8024933E-01
        1   -1    0    0  501    0  0.00000000000E+00  0.00000000000E+00  0.14068442194E+04  0.14068442194E+04  0.50400001928E-02 0. -1.
       -1   -1    0    0    0  501  0.00000000000E+00  0.00000000000E+00 -0.27034971743E+04  0.27034971743E+04  0.50400001928E-02 0.  1.
    10030    2    1    2    0    0  0.00000000000E+00  0.00000000000E+00 -0.12966529549E+04  0.41103413937E+04  0.39004611891E+04 0.  0.
        1    1    3    3  502    0 -0.26391801019E+03  0.77136409716E+03 -0.25153074312E+04  0.26441306246E+04  0.50400001928E-02 0.  1.
       -1    1    3    3    0  502  0.26391801019E+03 -0.77136409716E+03  0.12186544764E+04  0.14662107691E+04  0.50400001928E-02 0. -1.
</event>
<event>
 5   0  0.9434114E-09  0.3902740E+04  0.7818609E-02  0.8024460E-01
        2   -1    0    0  501    0  0.00000000000E+00  0.00000000000E+00  0.25018603875E+04  0.25018603875E+04  0.25500000920E-02 0. -1.
       -2   -1    0    0    0  501  0.00000000000E+00  0.00000000000E+00 -0.15220054364E+04  0.15220054364E+04  0.25500000920E-02 0.  1.
    10030    2    1    2    0    0  0.00000000000E+00  0.00000000000E+00  0.97985495115E+03  0.40238658239E+04  0.39027401199E+04 0.  0.
        4    1    3    3  502    0  0.94073657646E+03  0.61935000767E+03  0.21328904070E+04  0.24120121972E+04  0.12699999809E+01 0. -1.
       -4    1    3    3    0  502 -0.94073657646E+03 -0.61935000767E+03 -0.11530354559E+04  0.16118536266E+04  0.12699999809E+01 0.  1.
</event>
<event>
 5   0  0.2904500E-09  0.3901376E+04  0.7818609E-02  0.8024743E-01
       -1   -1    0    0    0  501  0.00000000000E+00  0.00000000000E+00  0.30373362462E+04  0.30373362462E+04  0.50400001928E-02 0.  1.
        1   -1    0    0  501    0  0.00000000000E+00  0.00000000000E+00 -0.12528029644E+04  0.12528029644E+04  0.50400001928E-02 0. -1.
    10030    2    1    2    0    0  0.00000000000E+00  0.00000000000E+00  0.17845332819E+04  0.42901392106E+04  0.39013760921E+04 0.  0.
        5    1    3    3  502    0 -0.71488334839E+03  0.13317322991E+04 -0.46373435737E+03  0.15810252252E+04  0.46999998093E+01 0. -1.
       -5    1    3    3    0  502  0.71488334839E+03 -0.13317322991E+04  0.22482676392E+04  0.27091139854E+04  0.46999998093E+01 0.  1.
</event>
<event>
 5   0  0.9078515E-09  0.3898266E+04  0.7818609E-02  0.8025390E-01
       -2   -1    0    0    0  501  0.00000000000E+00  0.00000000000E+00  0.19629282940E+04  0.19629282940E+04  0.25500000920E-02 0. -1.
        2   -1    0    0  501    0  0.00000000000E+00  0.00000000000E+00 -0.19354342623E+04  0.19354342623E+04  0.25500000920E-02 0.  1.
    10030    2    1    2    0    0  0.00000000000E+00  0.00000000000E+00  0.27494031736E+02  0.38983625563E+04  0.38982656013E+04 0.  0.
        3    1    3    3  502    0  0.10476669885E+03 -0.13699018769E+04  0.13963556140E+04  0.19589324196E+04  0.10100000352E+00 0. -1.
       -3    1    3    3    0  502 -0.10476669885E+03  0.13699018769E+04 -0.13688615823E+04  0.19394301367E+04  0.10100000352E+00 0.  1.
</event>
<event>
 5   0  0.6335942E-09  0.3904057E+04  0.7818609E-02  0.8024186E-01
       -2   -1    0    0    0  501  0.00000000000E+00  0.00000000000E+00  0.12546829147E+04  0.12546829147E+04  0.25500000920E-02 0. -1.
        2   -1    0    0  501    0  0.00000000000E+00  0.00000000000E+00 -0.30369543654E+04  0.30369543654E+04  0.25500000920E-02 0.  1.
    10030    2    1    2    0    0  0.00000000000E+00  0.00000000000E+00 -0.17822714507E+04  0.42916372801E+04  0.39040567388E+04 0.  0.
        2    1    3    3  502    0 -0.61989902941E+03 -0.22765042337E+03  0.11281590179E+04  0.13072269473E+04  0.25500000920E-02 0. -1.
       -2    1    3    3    0  502  0.61989902941E+03  0.22765042337E+03 -0.29104304686E+04  0.29844103328E+04  0.25500000920E-02 0.  1.
</event>
<event>
 5   0  0.9078515E-09  0.3899990E+04  0.7818609E-02  0.8025031E-01
        2   -1    0    0  501    0  0.00000000000E+00  0.00000000000E+00  0.28663714376E+04  0.28663714376E+04  0.25500000920E-02 0.  1.
       -2   -1    0    0    0  501  0.00000000000E+00  0.00000000000E+00 -0.13265835016E+04  0.13265835016E+04  0.25500000920E-02 0. -1.
    10030    2    1    2    0    0  0.00000000000E+00  0.00000000000E+00  0.15397879361E+04  0.41929549392E+04  0.38999902864E+04 0.  0.
        3    1    3    3  502    0 -0.16545189938E+03 -0.13335754030E+04 -0.74929315068E+03  0.15385830892E+04  0.10100000352E+00 0. -1.
       -3    1    3    3    0  502  0.16545189938E+03  0.13335754030E+04  0.22890810867E+04  0.26543718501E+04  0.10100000352E+00 0.  1.
</event>
<event>
 5   0  0.9078515E-09  0.3900860E+04  0.7818609E-02  0.8024850E-01
        2   -1    0    0  501    0  0.00000000000E+00  0.00000000000E+00  0.20725717410E+04  0.20725717410E+04  0.25500000920E-02 0. -1.
       -2   -1    0    0    0  501  0.00000000000E+00  0.00000000000E+00 -0.18354862717E+04  0.18354862717E+04  0.25500000920E-02 0.  1.
    10030    2    1    2    0    0  0.00000000000E+00  0.00000000000E+00  0.23708546929E+03  0.39080580126E+04  0.39008598937E+04 0.  0.
        3    1    3    3  502    0 -0.18384133862E+04 -0.49776750214E+03  0.53960472751E+03  0.19795730693E+04  0.10100000352E+00 0. -1.
       -3    1    3    3    0  502  0.18384133862E+04  0.49776750214E+03 -0.30251925822E+03  0.19284849433E+04  0.10100000352E+00 0.  1.
</event>
<event>
 5   0  0.6335942E-09  0.3894800E+04  0.7818609E-02  0.8026112E-01
        2   -1    0    0  501    0  0.00000000000E+00  0.00000000000E+00  0.25052735749E+04  0.25052735749E+04  0.25500000920E-02 0. -1.
       -2   -1    0    0    0  501  0.00000000000E+00  0.00000000000E+00 -0.15137535682E+04  0.15137535682E+04  0.25500000920E-02 0.  1.
    10030    2    1    2    0    0  0.00000000000E+00  0.00000000000E+00  0.99152000676E+03  0.40190271431E+04  0.38948000274E+04 0.  0.
        2    1    3    3  502    0  0.16109394694E+02  0.10010923459E+04  0.22193412503E+04  0.24347322199E+04  0.25500000920E-02 0. -1.
       -2    1    3    3    0  502 -0.16109394694E+02 -0.10010923459E+04 -0.12278212435E+04  0.15842949232E+04  0.25500000920E-02 0.  1.
</event>
<event>
 5   0  0.9277261E-09  0.3901296E+04  0.7818609E-02  0.8024760E-01
       -2   -1    0    0    0  501  0.00000000000E+00  0.00000000000E+00  0.16519832025E+04  0.16519832025E+04  0.25500000920E-02 0. -1.
        2   -1    0    0  501    0  0.00000000000E+00  0.00000000000E+00 -0.23033088462E+04  0.23033088462E+04  0.25500000920E-02 0.  1.
    10030    2    1    2    0    0  0.00000000000E+00  0.00000000000E+00 -0.65132564363E+03  0.39552920487E+04  0.39012959509E+04 0.  0.
        1    1    3    3  502    0 -0.22608006808E+03  0.37465865102E+02 -0.22896139799E+04  0.23010536859E+04  0.50400001928E-02 0.  1.
       -1    1    3    3    0  502  0.22608006808E+03 -0.37465865102E+02  0.16382883363E+04  0.16542383628E+04  0.50400001928E-02 0. -1.
</event>
<event>
 5   0  0.2904500E-09  0.3890688E+04  0.7818609E-02  0.8026969E-01
       -3   -1    0    0    0  501  0.00000000000E+00  0.00000000000E+00  0.13118113042E+04  0.13118113081E+04  0.10100000352E+00 0.  1.
        3   -1    0    0  501    0  0.00000000000E+00  0.00000000000E+00 -0.28848382349E+04  0.28848382367E+04  0.10100000352E+00 0. -1.
    10030    2    1    2    0    0  0.00000000000E+00  0.00000000000E+00 -0.15730269307E+04  0.41966495448E+04  0.38906880724E+04 0.  0.
        5    1    3    3  502    0  0.91195065380E+03  0.16874932256E+04 -0.11361223640E+04  0.22293684078E+04  0.46999998093E+01 0. -1.
       -5    1    3    3    0  502 -0.91195065380E+03 -0.16874932256E+04 -0.43690456670E+03  0.19672811370E+04  0.46999998093E+01 0.  1.
</event>
<event>
 5   0  0.2904500E-09  0.3901625E+04  0.7818609E-02  0.8024691E-01
        1   -1    0    0  501    0  0.00000000000E+00  0.00000000000E+00  0.24227331924E+04  0.24227331924E+04  0.50400001928E-02 0.  1.
       -1   -1    0    0    0  501  0.00000000000E+00  0.00000000000E+00 -0.15708166980E+04  0.15708166980E+04  0.50400001928E-02 0. -1.
    10030    2    1    2    0    0  0.00000000000E+00  0.00000000000E+00  0.85191649439E+03  0.39935498904E+04  0.39016251760E+04 0.  0.
        5    1    3    3  502    0  0.60060041967E+03  0.16897593460E+04 -0.36001378782E+03  0.18291089440E+04  0.46999998093E+01 0. -1.
       -5    1    3    3    0  502 -0.60060041967E+03 -0.16897593460E+04  0.12119302822E+04  0.21644409464E+04  0.46999998093E+01 0.  1.
</event>
<event>
 5   0  0.9277261E-09  0.3899590E+04  0.7818609E-02  0.8025114E-01
        2   -1    0    0  501    0  0.00000000000E+00  0.00000000000E+00  0.19055995048E+04  0.19055995048E+04  0.25500000920E-02 0. -1.
       -2   -1    0    0    0  501  0.00000000000E+00  0.00000000000E+00 -0.19950157429E+04  0.19950157429E+04  0.25500000920E-02 0.  1.
    10030    2    1    2    0    0  0.00000000000E+00  0.00000000000E+00 -0.89416238157E+02  0.39006152477E+04  0.38995902409E+04 0.  0.
        1    1    3    3  502    0  0.10461589514E+04  0.16439316797E+04  0.24165571269E+02  0.19487287893E+04  0.50400001928E-02 0. -1.
       -1    1    3    3    0  502 -0.10461589514E+04 -0.16439316797E+04 -0.11358180943E+03  0.19518864585E+04  0.50400001928E-02 0.  1.
</event>
<event>
 5   0  0.2929054E-09  0.3900972E+04  0.7818609E-02  0.8024827E-01
       -1   -1    0    0    0  501  0.00000000000E+00  0.00000000000E+00  0.21676881689E+04  0.21676881689E+04  0.50400001928E-02 0. -1.
        1   -1    0    0  501    0  0.00000000000E+00  0.00000000000E+00 -0.17550479008E+04  0.17550479008E+04  0.50400001928E-02 0.  1.
    10030    2    1    2    0    0  0.00000000000E+00  0.00000000000E+00  0.41264026812E+03  0.39227360697E+04  0.39009724790E+04 0.  0.
        1    1    3    3  502    0  0.12017070871E+04  0.15360039390E+04  0.23793670518E+03  0.19646938437E+04  0.50400001928E-02 0. -1.
       -1    1    3    3    0  502 -0.12017070871E+04 -0.15360039390E+04  0.17470356294E+03  0.19580422260E+04  0.50400001928E-02 0.  1.
</event>
<event>
 5   0  0.9434114E-09  0.3898718E+04  0.7818609E-02  0.8025296E-01
       -2   -1    0    0    0  501  0.00000000000E+00  0.00000000000E+00  0.29720127981E+04  0.29720127981E+04  0.25500000920E-02 0.  1.
        2   -1    0    0  501    0  0.00000000000E+00  0.00000000000E+00 -0.12785951691E+04  0.12785951691E+04  0.25500000920E-02 0. -1.
    10030    2    1    2    0    0  0.00000000000E+00  0.00000000000E+00  0.16934176290E+04  0.42506079671E+04  0.38987183566E+04 0.  0.
        4    1    3    3  502    0  0.82281887843E+03  0.16913551071E+04  0.14050725845E+04  0.23477528800E+04  0.12699999809E+01 0.  1.
       -4    1    3    3    0  502 -0.82281887843E+03 -0.16913551071E+04  0.28834504451E+03  0.19028550871E+04  0.12699999809E+01 0. -1.
</event>
<event>
 5   0  0.9434114E-09  0.3899955E+04  0.7818609E-02  0.8025038E-01
       -2   -1    0    0    0  501  0.00000000000E+00  0.00000000000E+00  0.19927112993E+04  0.19927112993E+04  0.25500000920E-02 0. -1.
        2   -1    0    0  501    0  0.00000000000E+00  0.00000000000E+00 -0.19081606139E+04  0.19081606139E+04  0.25500000920E-02 0.  1.
    10030    2    1    2    0    0  0.00000000000E+00  0.00000000000E+00  0.84550685445E+02  0.39008719132E+04  0.38999554952E+04 0.  0.
        4    1    3    3  502    0  0.34077312162E+03 -0.19101558399E+04  0.23620217933E+03  0.19546392853E+04  0.12699999809E+01 0.  1.
       -4    1    3    3    0  502 -0.34077312162E+03  0.19101558399E+04 -0.15165149389E+03  0.19462326279E+04  0.12699999809E+01 0. -1.
</event>
<event>
 5   0  0.2904500E-09  0.3900497E+04  0.7818609E-02  0.8024926E-01
       -1   -1    0    0    0  501  0.00000000000E+00  0.00000000000E+00  0.19486528960E+04  0.19486528960E+04  0.50400001928E-02 0.  1.
        1   -1    0    0  501    0  0.00000000000E+00  0.00000000000E+00 -0.19518454480E+04  0.19518454480E+04  0.50400001928E-02 0. -1.
    10030    2    1    2    0    0  0.00000000000E+00  0.00000000000E+00 -0.31925519905E+01  0.39004983440E+04  0.39004970374E+04 0.  0.
        5    1    3    3  502    0 -0.42731756001E+03  0.64314922207E+03 -0.17924642567E+04  0.19517149947E+04  0.46999998093E+01 0. -1.
       -5    1    3    3    0  502  0.42731756001E+03 -0.64314922207E+03  0.17892717048E+04  0.19487833493E+04  0.46999998093E+01 0.  1.
</event>
<event>
 5   0  0.6335942E-09  0.3899468E+04  0.7818609E-02  0.8025140E-01
        2   -1    0    0  501    0  0.00000000000E+00  0.00000000000E+00  0.17507523452E+04  0.17507523452E+04  0.25500000920E-02 0.  1.
       -2   -1    0    0    0  501  0.00000000000E+00  0.00000000000E+00 -0.21713309371E+04  0.21713309371E+04  0.25500000920E-02 0. -1.
    10030    2    1    2    0    0  0.00000000000E+00  0.00000000000E+00 -0.42057859192E+03  0.39220832823E+04  0.38994680305E+04 0.  0.
        2    1    3    3  502    0 -0.13494575022E+04  0.10149552623E+04 -0.11907726191E+04  0.20661822681E+04  0.25500000920E-02 0. -1.
       -2    1    3    3    0  502  0.13494575022E+04 -0.10149552623E+04  0.77019402720E+03  0.18559010141E+04  0.25500000920E-02 0.  1.
</event>
<event>
 5   0  0.9277261E-09  0.3906928E+04  0.7818609E-02  0.8023590E-01
       -2   -1    0    0    0  501  0.00000000000E+00  0.00000000000E+00  0.29798183220E+04  0.29798183220E+04  0.25500000920E-02 0. -1.
        2   -1    0    0  501    0  0.00000000000E+00  0.00000000000E+00 -0.12806223808E+04  0.12806223808E+04  0.25500000920E-02 0.  1.
    10030    2    1    2    0    0  0.00000000000E+00  0.00000000000E+00  0.16991959412E+04  0.42604407028E+04  0.39069282225E+04 0.  0.
        1    1    3    3  502    0 -0.17453444237E+04 -0.75108953881E+03  0.35506715926E+03  0.19329861200E+04  0.50400001928E-02 0. -1.
       -1    1    3    3    0  502  0.17453444237E+04  0.75108953881E+03  0.13441287819E+04  0.23274545828E+04  0.50400001928E-02 0.  1.
</event>
<event>
 5   0  0.2904500E-09  0.3899232E+04  0.7818609E-02  0.8025189E-01
       -1   -1    0    0    0  501  0.00000000000E+00  0.00000000000E+00  0.12015337030E+04  0.12015337030E+04  0.50400001928E-02 0.  1.
        1   -1    0    0  501    0  0.00000000000E+00  0.00000000000E+00 -0.31634593208E+04  0.31634593208E+04  0.50400001928E-02 0. -1.
    10030    2    1    2    0    0  0.00000000000E+00  0.00000000000E+00 -0.19619256178E+04  0.43649930238E+04  0.38992322280E+04 0.  0.
        4    1    3    3  502    0  0.14865145227E+04  0.65827915463E+02 -0.23911769558E+04  0.28163429456E+04  0.12699999809E+01 0. -1.
       -4    1    3    3    0  502 -0.14865145227E+04 -0.65827915463E+02  0.42925133799E+03  0.15486500782E+04  0.12699999809E+01 0.  1.
</event>
<event>
 5   0  0.2904500E-09  0.3900511E+04  0.7818609E-02  0.8024923E-01
       -3   -1    0    0    0  501  0.00000000000E+00  0.00000000000E+00  0.25462848103E+04  0.25462848123E+04  0.10100000352E+00 0.  1.
        3   -1    0    0  501    0  0.00000000000E+00  0.00000000000E+00 -0.14937436797E+04  0.14937436831E+04  0.10100000352E+00 0. -1.
    10030    2    1    2    0    0  0.00000000000E+00  0.00000000000E+00  0.10525411306E+04  0.40400284954E+04  0.39005111731E+04 0.  0.
        2    1    3    3  502    0  0.98688809490E+02  0.18557823852E+04  0.11388901476E+04  0.21796188912E+04  0.25500000920E-02 0.  1.
       -2    1    3    3    0  502 -0.98688809490E+02 -0.18557823852E+04 -0.86349017006E+02  0.18604096042E+04  0.25500000920E-02 0. -1.
</event>
<event>
 5   0  0.2904500E-09  0.3901317E+04  0.7818609E-02  0.8024755E-01
       -1   -1    0    0    0  501  0.00000000000E+00  0.00000000000E+00  0.15146480512E+04  0.15146480512E+04  0.50400001928E-02 0. -1.
        1   -1    0    0  501    0  0.00000000000E+00  0.00000000000E+00 -0.25121799921E+04  0.25121799921E+04  0.50400001928E-02 0.  1.
    10030    2    1    2    0    0  0.00000000000E+00  0.00000000000E+00 -0.99753194094E+03  0.40268280433E+04  0.39013169721E+04 0.  0.
        3    1    3    3  502    0 -0.31260298841E+03  0.79849958071E+03  0.13096698070E+04  0.15654255722E+04  0.10100000352E+00 0. -1.
       -3    1    3    3    0  502  0.31260298841E+03 -0.79849958071E+03 -0.23072017479E+04  0.24614024710E+04  0.10100000352E+00 0.  1.
</event>
<event>
 5   0  0.9434114E-09  0.3898971E+04  0.7818609E-02  0.8025243E-01
        2   -1    0    0  501    0  0.00000000000E+00  0.00000000000E+00  0.12281390701E+04  0.12281390701E+04  0.25500000920E-02 0. -1.
       -2   -1    0    0    0  501  0.00000000000E+00  0.00000000000E+00 -0.30945135972E+04  0.30945135972E+04  0.25500000920E-02 0.  1.
    10030    2    1    2    0    0  0.00000000000E+00  0.00000000000E+00 -0.18663745271E+04  0.43226526673E+04  0.38989706599E+04 0.  0.
        4    1    3    3  502    0 -0.37460775472E+03 -0.45694152113E+03  0.11264740583E+04  0.12720345673E+04  0.12699999809E+01 0. -1.
       -4    1    3    3    0  502  0.37460775472E+03  0.45694152113E+03 -0.29928485854E+04  0.30506180999E+04  0.12699999809E+01 0.  1.
</event>
<event>
 5   0  0.9277261E-09  0.3898997E+04  0.7818609E-02  0.8025238E-01
       -2   -1    0    0    0  501  0.00000000000E+00  0.00000000000E+00  0.16802819810E+04  0.16802819810E+04  0.25500000920E-02 0. -1.
        2   -1    0    0  501    0  0.00000000000E+00  0.00000000000E+00 -0.22618494271E+04  0.22618494271E+04  0.25500000920E-02 0.  1.
    10030    2    1    2    0    0  0.00000000000E+00  0.00000000000E+00 -0.58156744602E+03  0.39421314081E+04  0.38989972230E+04 0.  0.
        1    1    3    3  502    0 -0.17680962600E+04 -0.65252737978E+03 -0.79488600340E+03  0.20454339697E+04  0.50400001928E-02 0.  1.
       -1    1    3    3    0  502  0.17680962600E+04  0.65252737978E+03  0.21331855738E+03  0.18966974384E+04  0.50400001928E-02 0. -1.
</event>
<event>
 5   0  0.6335942E-09  0.3899199E+04  0.7818609E-02  0.8025196E-01
        2   -1    0    0  501    0  0.00000000000E+00  0.00000000000E+00  0.17769273873E+04  0.17769273873E+04  0.25500000920E-02 0.  1.
       -2   -1    0    0    0  501  0.00000000000E+00  0.00000000000E+00 -0.21390512832E+04  0.21390512832E+04  0.25500000920E-02 0. -1.
    10030    2    1    2    0    0  0.00000000000E+00  0.00000000000E+00 -0.36212389585E+03  0.39159786705E+04  0.38991993065E+04 0.  0.
        2    1    3    3  502    0  0.82539774754E+03  0.17623478373E+04 -0.29898728343E+03  0.19688942930E+04  0.25500000920E-02 0.  1.
       -2    1    3    3    0  502 -0.82539774754E+03 -0.17623478373E+04 -0.63136612417E+02  0.19470843775E+04  0.25500000920E-02 0. -1.
</event>
<event>
 5   0  0.9078515E-09  0.3897384E+04  0.7818609E-02  0.8025574E-01
        2   -1    0    0  501    0  0.00000000000E+00  0.00000000000E+00  0.12935324269E+04  0.12935324269E+04  0.25500000920E-02 0. -1.
       -2   -1    0    0    0  501  0.00000000000E+00  0.00000000000E+00 -0.29356820186E+04  0.29356820186E+04  0.25500000920E-02 0.  1.
    10030    2    1    2    0    0  0.00000000000E+00  0.00000000000E+00 -0.16421495916E+04  0.42292144455E+04  0.38973836794E+04 0.  0.
        3    1    3    3  502    0 -0.11867791068E+04  0.14654539402E+04 -0.13542318465E+04  0.23216252504E+04  0.10100000352E+00 0. -1.
       -3    1    3    3    0  502  0.11867791068E+04 -0.14654539402E+04 -0.28791774513E+03  0.19075891951E+04  0.10100000352E+00 0.  1.
</event>
<event>
 5   0  0.6335942E-09  0.3898690E+04  0.7818609E-02  0.8025302E-01
        2   -1    0    0  501    0  0.00000000000E+00  0.00000000000E+00  0.20710025339E+04  0.20710025339E+04  0.25500000920E-02 0. -1.
       -2   -1    0    0    0  501  0.00000000000E+00  0.00000000000E+00 -0.18348340206E+04  0.18348340206E+04  0.25500000920E-02 0.  1.
    10030    2    1    2    0    0  0.00000000000E+00  0.00000000000E+00  0.23616851331E+03  0.39058365546E+04  0.38986899882E+04 0.  0.
        2    1    3    3  502    0  0.49597756394E+03 -0.37932163673E+02 -0.17701819458E+04  0.18387432432E+04  0.25500000920E-02 0.  1.
       -2    1    3    3    0  502 -0.49597756394E+03  0.37932163673E+02  0.20063504592E+04  0.20670933114E+04  0.25500000920E-02 0. -1.
</event>
<event>
 5   0  0.2904500E-09  0.3899986E+04  0.7818609E-02  0.8025032E-01
        1   -1    0    0  501    0  0.00000000000E+00  0.00000000000E+00  0.18547873532E+04  0.18547873532E+04  0.50400001928E-02 0.  1.
       -1   -1    0    0    0  501  0.00000000000E+00  0.00000000000E+00 -0.20500850224E+04  0.20500850224E+04  0.50400001928E-02 0. -1.
    10030    2    1    2    0    0  0.00000000000E+00  0.00000000000E+00 -0.19529766920E+03  0.39048723756E+04  0.38999855244E+04 0.  0.
        3    1    3    3  502    0  0.33702885364E+00  0.18289355808E+04 -0.77485888946E+03  0.19863060643E+04  0.10100000352E+00 0.  1.
       -3    1    3    3    0  502 -0.33702885364E+00 -0.18289355808E+04  0.57956122026E+03  0.19185663113E+04  0.10100000352E+00 0. -1.
</event>
<event>
 5   0  0.9434114E-09  0.3901671E+04  0.7818609E-02  0.8024682E-01
       -2   -1    0    0    0  501  0.00000000000E+00  0.00000000000E+00  0.19628514630E+04  0.19628514630E+04  0.25500000920E-02 0.  1.
        2   -1    0    0  501    0  0.00000000000E+00  0.00000000000E+00 -0.19388930306E+04  0.19388930306E+04  0.25500000920E-02 0. -1.
    10030    2    1    2    0    0  0.00000000000E+00  0.00000000000E+00  0.23958432420E+02  0.39017444936E+04  0.39016709352E+04 0.  0.
        4    1    3    3  502    0 -0.13555973841E+03 -0.69725588646E+02  0.19568858807E+04  0.19628148317E+04  0.12699999809E+01 0.  1.
       -4    1    3    3    0  502  0.13555973841E+03  0.69725588646E+02 -0.19329274483E+04  0.19389296619E+04  0.12699999809E+01 0. -1.
</event>
<event>
 5   0  0.2904500E-09  0.3899048E+04  0.7818609E-02  0.8025227E-01
       -1   -1    0    0    0  501  0.00000000000E+00  0.00000000000E+00  0.18305316299E+04  0.18305316299E+04  0.50400001928E-02 0.  1.
        1   -1    0    0  501    0  0.00000000000E+00  0.00000000000E+00 -0.20762514626E+04  0.20762514626E+04  0.50400001928E-02 0. -1.
    10030    2    1    2    0    0  0.00000000000E+00  0.00000000000E+00 -0.24571983269E+03  0.39067830925E+04  0.38990480755E+04 0.  0.
        2    1    3    3  502    0 -0.26439850418E+03 -0.17572055862E+04 -0.92630221222E+03  0.20039246068E+04  0.25500000920E-02 0. -1.
       -2    1    3    3    0  502  0.26439850418E+03  0.17572055862E+04  0.68058237953E+03  0.19028584857E+04  0.25500000920E-02 0.  1.
</event>
<event>
 5   0  0.2904500E-09  0.3899372E+04  0.7818609E-02  0.8025160E-01
       -1   -1    0    0    0  501  0.00000000000E+00  0.00000000000E+00  0.27904481671E+04  0.27904481671E+04  0.50400001928E-02 0.  1.
        1   -1    0    0  501    0  0.00000000000E+00  0.00000000000E+00 -0.13622456554E+04  0.13622456554E+04  0.50400001928E-02 0. -1.
    10030    2    1    2    0    0  0.00000000000E+00  0.00000000000E+00  0.14282025117E+04  0.41526938226E+04  0.38993722020E+04 0.  0.
        2    1    3    3  502    0 -0.56916652799E+03 -0.10626063864E+04 -0.91783096492E+03  0.15150896175E+04  0.25500000920E-02 0. -1.
       -2    1    3    3    0  502  0.56916652799E+03  0.10626063864E+04  0.23460334766E+04  0.26376042050E+04  0.25500000920E-02 0.  1.
</event>
<event>
 5   0  0.9078515E-09  0.3902002E+04  0.7818609E-02  0.8024613E-01
       -2   -1    0    0    0  501  0.00000000000E+00  0.00000000000E+00  0.16991230012E+04  0.16991230012E+04  0.25500000920E-02 0.  1.
        2   -1    0    0  501    0  0.00000000000E+00  0.00000000000E+00 -0.22402174567E+04  0.22402174567E+04  0.25500000920E-02 0. -1.
    10030    2    1    2    0    0  0.00000000000E+00  0.00000000000E+00 -0.54109445548E+03  0.39393404578E+04  0.39020020544E+04 0.  0.
        3    1    3    3  502    0 -0.17766957761E+03  0.66490736094E+03 -0.21135947181E+04  0.22228249864E+04  0.10100000352E+00 0. -1.
       -3    1    3    3    0  502  0.17766957761E+03 -0.66490736094E+03  0.15725002626E+04  0.17165154714E+04  0.10100000352E+00 0.  1.
</event>
<event>
 5   0  0.9078515E-09  0.3900418E+04  0.7818609E-02  0.8024942E-01
        2   -1    0    0  501    0  0.00000000000E+00  0.00000000000E+00  0.24602608839E+04  0.24602608839E+04  0.25500000920E-02 0.  1.
       -2   -1    0    0    0  501  0.00000000000E+00  0.00000000000E+00 -0.15458994090E+04  0.15458994090E+04  0.25500000920E-02 0. -1.
    10030    2    1    2    0    0  0.00000000000E+00  0.00000000000E+00  0.91436147486E+03  0.40061602929E+04  0.39004183603E+04 0.  0.
        3    1    3    3  502    0 -0.14418085642E+04  0.25709637535E+03 -0.86552268003E+03  0.17011878208E+04  0.10100000352E+00 0. -1.
       -3    1    3    3    0  502  0.14418085642E+04 -0.25709637535E+03  0.17798841549E+04  0.23049724721E+04  0.10100000352E+00 0.  1.
</event>
<event>
 5   0  0.2904500E-09  0.3900748E+04  0.7818609E-02  0.8024874E-01
        3   -1    0    0  501    0  0.00000000000E+00  0.00000000000E+00  0.19699836009E+04  0.19699836035E+04  0.10100000352E+00 0.  1.
       -3   -1    0    0    0  501  0.00000000000E+00  0.00000000000E+00 -0.19309594326E+04  0.19309594352E+04  0.10100000352E+00 0. -1.
    10030    2    1    2    0    0  0.00000000000E+00  0.00000000000E+00  0.39024168311E+02  0.39009430387E+04  0.39007478392E+04 0.  0.
        2    1    3    3  502    0 -0.15459241912E+04 -0.11130823132E+04 -0.39898775213E+03  0.19462849399E+04  0.25500000920E-02 0.  1.
       -2    1    3    3    0  502  0.15459241912E+04  0.11130823132E+04  0.43801192044E+03  0.19546580988E+04  0.25500000920E-02 0. -1.
</event>
<event>
 5   0  0.9078515E-09  0.3909303E+04  0.7818609E-02  0.8023097E-01
       -2   -1    0    0    0  501  0.00000000000E+00  0.00000000000E+00  0.14278857208E+04  0.14278857208E+04  0.25500000920E-02 0.  1.
        2   -1    0    0  501    0  0.00000000000E+00  0.00000000000E+00 -0.26757485715E+04  0.26757485715E+04  0.25500000920E-02 0. -1.
    10030    2    1    2    0    0  0.00000000000E+00  0.00000000000E+00 -0.12478628507E+04  0.41036342924E+04  0.39093033537E+04 0.  0.
        3    1    3    3  502    0  0.12258877349E+04 -0.36646780626E+02  0.97373921005E+03  0.15659858826E+04  0.10100000352E+00 0.  1.
       -3    1    3    3    0  502 -0.12258877349E+04  0.36646780626E+02 -0.22216020607E+04  0.25376484098E+04  0.10100000352E+00 0. -1.
</event>
<event>
 5   0  0.9277261E-09  0.3897468E+04  0.7818609E-02  0.8025556E-01
       -2   -1    0    0    0  501  0.00000000000E+00  0.00000000000E+00  0.24672546220E+04  0.24672546220E+04  0.25500000920E-02 0. -1.
        2   -1    0    0  501    0  0.00000000000E+00  0.00000000000E+00 -0.15391864451E+04  0.15391864451E+04  0.25500000920E-02 0.  1.
    10030    2    1    2    0    0  0.00000000000E+00  0.00000000000E+00  0.92806817697E+03  0.40064410671E+04  0.38974683428E+04 0.  0.
        1    1    3    3  502    0 -0.31920723070E+03 -0.18007316299E+04  0.11559337217E+04  0.21634949568E+04  0.50400001928E-02 0. -1.
       -1    1    3    3    0  502  0.31920723070E+03  0.18007316299E+04 -0.22786554476E+03  0.18429461103E+04  0.50400001928E-02 0.  1.
</event>
<event>
 5   0  0.2904500E-09  0.3899650E+04  0.7818609E-02  0.8025102E-01
       -1   -1    0    0    0  501  0.00000000000E+00  0.00000000000E+00  0.13938741185E+04  0.13938741185E+04  0.50400001928E-02 0. -1.
        1   -1    0    0  501    0  0.00000000000E+00  0.00000000000E+00 -0.27275183671E+04  0.27275183671E+04  0.50400001928E-02 0.  1.
    10030    2    1    2    0    0  0.00000000000E+00  0.00000000000E+00 -0.13336442485E+04  0.41213924856E+04  0.38996498610E+04 0.  0.
        4    1    3    3  502    0 -0.66557662444E+03  0.87142964716E+03  0.10371313758E+04  0.15093127497E+04  0.12699999809E+01 0. -1.
       -4    1    3    3    0  502  0.66557662444E+03 -0.87142964716E+03 -0.23707756243E+04  0.26120797359E+04  0.12699999809E+01 0.  1.
</event>
<event>
 5   0  0.2904500E-09  0.3905421E+04  0.7818609E-02  0.8023903E-01
        1   -1    0    0  501    0  0.00000000000E+00  0.00000000000E+00  0.27446615398E+04  0.27446615398E+04  0.50400001928E-02 0.  1.
       -1   -1    0    0    0  501  0.00000000000E+00  0.00000000000E+00 -0.13892711267E+04  0.13892711267E+04  0.50400001928E-02 0. -1.
    10030    2    1    2    0    0  0.00000000000E+00  0.00000000000E+00  0.13553904131E+04  0.41339326665E+04  0.39054213754E+04 0.  0.
        5    1    3    3  502    0 -0.42023679853E+03 -0.18761700374E+04  0.31649001007E+03  0.19485381681E+04  0.46999998093E+01 0. -1.
       -5    1    3    3    0  502  0.42023679853E+03  0.18761700374E+04  0.10389004031E+04  0.21853944984E+04  0.46999998093E+01 0.  1.
</event>
<event>
 5   0  0.9368546E-09  0.3901754E+04  0.7818609E-02  0.8024664E-01
       -2   -1    0    0    0  501  0.00000000000E+00  0.00000000000E+00  0.17487043378E+04  0.17487043378E+04  0.25500000920E-02 0. -1.
        2   -1    0    0  501    0  0.00000000000E+00  0.00000000000E+00 -0.21764239188E+04  0.21764239188E+04  0.25500000920E-02 0.  1.
    10030    2    1    2    0    0  0.00000000000E+00  0.00000000000E+00 -0.42771958098E+03  0.39251282566E+04  0.39017544503E+04 0.  0.
        5    1    3    3  502    0 -0.10363850535E+04  0.54764358335E+03  0.13549348398E+04  0.17916132350E+04  0.46999998093E+01 0. -1.
       -5    1    3    3    0  502  0.10363850535E+04 -0.54764358335E+03 -0.17826544208E+04  0.21335150216E+04  0.46999998093E+01 0.  1.
</event>
<event>
 5   0  0.6335942E-09  0.3892399E+04  0.7818609E-02  0.8026612E-01
        2   -1    0    0  501    0  0.00000000000E+00  0.00000000000E+00  0.22690300226E+04  0.22690300226E+04  0.25500000920E-02 0.  1.
       -2   -1    0    0    0  501  0.00000000000E+00  0.00000000000E+00 -0.16693006553E+04  0.16693006553E+04  0.25500000920E-02 0. -1.
    10030    2    1    2    0    0  0.00000000000E+00  0.00000000000E+00  0.59972936730E+03  0.39383306779E+04  0.38923994161E+04 0.  0.
        2    1    3    3  502    0  0.13377087937E+04  0.13540946942E+04 -0.11070192054E+03  0.19066442177E+04  0.25500000920E-02 0. -1.
       -2    1    3    3    0  502 -0.13377087937E+04 -0.13540946942E+04  0.71043128784E+03  0.20316864602E+04  0.25500000920E-02 0.  1.
</event>
<event>
 5   0  0.9277261E-09  0.3900143E+04  0.7818609E-02  0.8024999E-01
       -2   -1    0    0    0  501  0.00000000000E+00  0.00000000000E+00  0.19664153293E+04  0.19664153293E+04  0.25500000920E-02 0. -1.
        2   -1    0    0  501    0  0.00000000000E+00  0.00000000000E+00 -0.19338633527E+04  0.19338633527E+04  0.25500000920E-02 0.  1.
    10030    2    1    2    0    0  0.00000000000E+00  0.00000000000E+00  0.32551976577E+02  0.39002786820E+04  0.39001428391E+04 0.  0.
        1    1    3    3  502    0  0.17521271566E+04 -0.32837614466E+03  0.80687172225E+03  0.19567377038E+04  0.50400001928E-02 0. -1.
       -1    1    3    3    0  502 -0.17521271566E+04  0.32837614466E+03 -0.77431974567E+03  0.19435409782E+04  0.50400001928E-02 0.  1.
</event>
<event>
 5   0  0.2929054E-09  0.3899611E+04  0.7818609E-02  0.8025110E-01
       -1   -1    0    0    0  501  0.00000000000E+00  0.00000000000E+00  0.16207215548E+04  0.16207215548E+04  0.50400001928E-02 0. -1.
        1   -1    0    0  501    0  0.00000000000E+00  0.00000000000E+00 -0.23457096216E+04  0.23457096216E+04  0.50400001928E-02 0.  1.
    10030    2    1    2    0    0  0.00000000000E+00  0.00000000000E+00 -0.72498806685E+03  0.39664311764E+04  0.38996113370E+04 0.  0.
        1    1    3    3  502    0 -0.12426311276E+04 -0.60141788736E+02 -0.18895497366E+04  0.22623322835E+04  0.50400001928E-02 0.  1.
       -1    1    3    3    0  502  0.12426311276E+04  0.60141788736E+02  0.11645616697E+04  0.17040988929E+04  0.50400001928E-02 0. -1.
</event>
<event>
 5   0  0.9078515E-09  0.3917437E+04  0.7818609E-02  0.8021412E-01
        2   -1    0    0  501    0  0.00000000000E+00  0.00000000000E+00  0.31808345384E+04  0.31808345384E+04  0.25500000920E-02 0. -1.
       -2   -1    0    0    0  501  0.00000000000E+00  0.00000000000E+00 -0.12061545198E+04  0.12061545198E+04  0.25500000920E-02 0.  1.
    10030    2    1    2    0    0  0.00000000000E+00  0.00000000000E+00  0.19746800186E+04  0.43869890582E+04  0.39174368943E+04 0.  0.
        3    1    3    3  502    0  0.60382450499E+03  0.15667897577E+04  0.21167606311E+04  0.27018715287E+04  0.10100000352E+00 0. -1.
       -3    1    3    3    0  502 -0.60382450499E+03 -0.15667897577E+04 -0.14208061254E+03  0.16851175295E+04  0.10100000352E+00 0.  1.
</event>
<event>
 5   0  0.9368546E-09  0.3899869E+04  0.7818609E-02  0.8025056E-01
        2   -1    0    0  501    0  0.00000000000E+00  0.00000000000E+00  0.19012404949E+04  0.19012404949E+04  0.25500000920E-02 0. -1.
       -2   -1    0    0    0  501  0.00000000000E+00  0.00000000000E+00 -0.19998754081E+04  0.19998754081E+04  0.25500000920E-02 0.  1.
    10030    2    1    2    0    0  0.00000000000E+00  0.00000000000E+00 -0.98634913183E+02  0.39011159030E+04  0.38998687724E+04 0.  0.
        5    1    3    3  502    0 -0.36595359640E+03 -0.54547045439E+02  0.18657985276E+04  0.19021366014E+04  0.46999998093E+01 0. -1.
       -5    1    3    3    0  502  0.36595359640E+03  0.54547045439E+02 -0.19644334408E+04  0.19989793016E+04  0.46999998093E+01 0.  1.
</event>
<event>
 5   0  0.2904500E-09  0.3901001E+04  0.7818609E-02  0.8024821E-01
       -1   -1    0    0    0  501  0.00000000000E+00  0.00000000000E+00  0.17027943598E+04  0.17027943598E+04  0.50400001928E-02 0.  1.
        1   -1    0    0  501    0  0.00000000000E+00  0.00000000000E+00 -0.22342402797E+04  0.22342402797E+04  0.50400001928E-02 0. -1.
    10030    2    1    2    0    0  0.00000000000E+00  0.00000000000E+00 -0.53144591991E+03  0.39370346394E+04  0.39010007673E+04 0.  0.
        4    1    3    3  502    0  0.17735723797E+04 -0.71700053423E+03 -0.64976569416E+03  0.20203578451E+04  0.12699999809E+01 0.  1.
       -4    1    3    3    0  502 -0.17735723797E+04  0.71700053423E+03  0.11831977425E+03  0.19166767943E+04  0.12699999809E+01 0. -1.
</event>
<event>
 5   0  0.9368546E-09  0.3904097E+04  0.7818609E-02  0.8024178E-01
        2   -1    0    0  501    0  0.00000000000E+00  0.00000000000E+00  0.18046193705E+04  0.18046193705E+04  0.25500000920E-02 0. -1.
       -2   -1    0    0    0  501  0.00000000000E+00  0.00000000000E+00 -0.21115219928E+04  0.21115219928E+04  0.25500000920E-02 0.  1.
    10030    2    1    2    0    0  0.00000000000E+00  0.00000000000E+00 -0.30690262232E+03  0.39161413633E+04  0.39040970733E+04 0.  0.
        5    1    3    3  502    0  0.15461493305E+04 -0.53536598077E+03 -0.12212902999E+04  0.20417557572E+04  0.46999998093E+01 0.  1.
       -5    1    3    3    0  502 -0.15461493305E+04  0.53536598077E+03  0.91438767753E+03  0.18743856061E+04  0.46999998093E+01 0. -1.
</event>
<event>
 5   0  0.9434114E-09  0.3900029E+04  0.7818609E-02  0.8025023E-01
       -2   -1    0    0    0  501  0.00000000000E+00  0.00000000000E+00  0.22425535157E+04  0.22425535157E+04  0.25500000920E-02 0.  1.
        2   -1    0    0  501    0  0.00000000000E+00  0.00000000000E+00 -0.16956372492E+04  0.16956372492E+04  0.25500000920E-02 0. -1.
    10030    2    1    2    0    0  0.00000000000E+00  0.00000000000E+00  0.54691626653E+03  0.39381907649E+04  0.39000293715E+04 0.  0.
        4    1    3    3  502    0  0.13824277865E+04  0.11952128958E+04 -0.41357802959E+03  0.18736832311E+04  0.12699999809E+01 0. -1.
       -4    1    3    3    0  502 -0.13824277865E+04 -0.11952128958E+04  0.96049429613E+03  0.20645075338E+04  0.12699999809E+01 0.  1.
</event>
<event>
 5   0  0.9434114E-09  0.3893109E+04  0.7818609E-02  0.8026464E-01
        2   -1    0    0  501    0  0.00000000000E+00  0.00000000000E+00  0.14420952620E+04  0.14420952620E+04  0.25500000920E-02 0.  1.
       -2   -1    0    0    0  501  0.00000000000E+00  0.00000000000E+00 -0.26274788586E+04  0.26274788586E+04  0.25500000920E-02 0. -1.
    10030    2    1    2    0    0  0.00000000000E+00  0.00000000000E+00 -0.11853835966E+04  0.40695741206E+04  0.38931092012E+04 0.  0.
        4    1    3    3  502    0 -0.53494780863E+03 -0.13365348702E+04 -0.19622617590E+04  0.24337147411E+04  0.12699999809E+01 0. -1.
       -4    1    3    3    0  502  0.53494780863E+03  0.13365348702E+04  0.77687816241E+03  0.16358593795E+04  0.12699999809E+01 0.  1.
</event>
<event>
 5   0  0.6335942E-09  0.3904507E+04  0.7818609E-02  0.8024092E-01
        2   -1    0    0  501    0  0.00000000000E+00  0.00000000000E+00  0.24151071446E+04  0.24151071446E+04  0.25500000920E-02 0. -1.
       -2   -1    0    0    0  501  0.00000000000E+00  0.00000000000E+00 -0.15781056429E+04  0.15781056429E+04  0.25500000920E-02 0.  1.
    10030    2    1    2    0    0  0.00000000000E+00  0.00000000000E+00  0.83700150172E+03  0.39932127875E+04  0.39045072483E+04 0.  0.
        2    1    3    3  502    0  0.12041399342E+04  0.58619229347E+03  0.18712365894E+04  0.23011085936E+04  0.25500000920E-02 0. -1.
       -2    1    3    3    0  502 -0.12041399342E+04 -0.58619229347E+03 -0.10342350877E+04  0.16921041938E+04  0.25500000920E-02 0.  1.
</event>
<event>
 5   0  0.9277261E-09  0.3901017E+04  0.7818609E-02  0.8024818E-01
        2   -1    0    0  501    0  0.00000000000E+00  0.00000000000E+00  0.26905241485E+04  0.26905241485E+04  0.25500000920E-02 0. -1.
       -2   -1    0    0    0  501  0.00000000000E+00  0.00000000000E+00 -0.14140303854E+04  0.14140303854E+04  0.25500000920E-02 0.  1.
    10030    2    1    2    0    0  0.00000000000E+00  0.00000000000E+00  0.12764937631E+04  0.41045545340E+04  0.39010167386E+04 0.  0.
        1    1    3    3  502    0  0.82142973309E+03  0.48917662429E+02 -0.12224515230E+04  0.14736103522E+04  0.50400001928E-02 0.  1.
       -1    1    3    3    0  502 -0.82142973309E+03 -0.48917662429E+02  0.24989452861E+04  0.26309441817E+04  0.50400001928E-02 0. -1.
</event>
<event>
 5   0  0.9434114E-09  0.3904888E+04  0.7818609E-02  0.8024013E-01
        2   -1    0    0  501    0  0.00000000000E+00  0.00000000000E+00  0.22545169181E+04  0.22545169181E+04  0.25500000920E-02 0.  1.
       -2   -1    0    0    0  501  0.00000000000E+00  0.00000000000E+00 -0.16908444725E+04  0.16908444725E+04  0.25500000920E-02 0. -1.
    10030    2    1    2    0    0  0.00000000000E+00  0.00000000000E+00  0.56367244552E+03  0.39453613906E+04  0.39048879467E+04 0.  0.
        4    1    3    3  502    0 -0.16713210691E+04 -0.20079877027E+03  0.12812303431E+04  0.21154637947E+04  0.12699999809E+01 0.  1.
       -4    1    3    3    0  502  0.16713210691E+04  0.20079877027E+03 -0.71755789754E+03  0.18298975958E+04  0.12699999809E+01 0. -1.
</event>
<event>
 5   0  0.9078515E-09  0.3898708E+04  0.7818609E-02  0.8025298E-01
        2   -1    0    0  501    0  0.00000000000E+00  0.00000000000E+00  0.15103071872E+04  0.15103071872E+04  0.25500000920E-02 0.  1.
       -2   -1    0    0    0  501  0.00000000000E+00  0.00000000000E+00 -0.25160318503E+04  0.25160318503E+04  0.25500000920E-02 0. -1.
    10030    2    1    2    0    0  0.00000000000E+00  0.00000000000E+00 -0.10057246631E+04  0.40263390375E+04  0.38987079843E+04 0.  0.
        3    1    3    3  502    0 -0.12028703426E+04 -0.59075440776E+03 -0.19648664150E+04  0.23783582300E+04  0.10100000352E+00 0. -1.
       -3    1    3    3    0  502  0.12028703426E+04  0.59075440776E+03  0.95914175193E+03  0.16479808075E+04  0.10100000352E+00 0.  1.
</event>
<event>
 5   0  0.2929054E-09  0.3900450E+04  0.7818609E-02  0.8024936E-01
        1   -1    0    0  501    0  0.00000000000E+00  0.00000000000E+00  0.26569917418E+04  0.26569917418E+04  0.50400001928E-02 0.  1.
       -1   -1    0    0    0  501  0.00000000000E+00  0.00000000000E+00 -0.14314597357E+04  0.14314597357E+04  0.50400001928E-02 0. -1.
    10030    2    1    2    0    0  0.00000000000E+00  0.00000000000E+00  0.12255320062E+04  0.40884514775E+04  0.39004495620E+04 0.  0.
        1    1    3    3  502    0 -0.43066453818E+03 -0.68859147557E+03 -0.12457570104E+04  0.14871249758E+04  0.50400001928E-02 0. -1.
       -1    1    3    3    0  502  0.43066453818E+03  0.68859147557E+03  0.24712890166E+04  0.26013265017E+04  0.50400001928E-02 0.  1.
</event>
<event>
 5   0  0.2929054E-09  0.3899478E+04  0.7818609E-02  0.8025138E-01
        1   -1    0    0  501    0  0.00000000000E+00  0.00000000000E+00  0.17961078501E+04  0.17961078501E+04  0.50400001928E-02 0. -1.
       -1   -1    0    0    0  501  0.00000000000E+00  0.00000000000E+00 -0.21165107182E+04  0.21165107182E+04  0.50400001928E-02 0.  1.
    10030    2    1    2    0    0  0.00000000000E+00  0.00000000000E+00 -0.32040286809E+03  0.39126185683E+04  0.38994776654E+04 0.  0.
        1    1    3    3  502    0  0.10088910093E+04  0.13483760133E+04 -0.11461126162E+04  0.20370451813E+04  0.50400001928E-02 0.  1.
       -1    1    3    3    0  502 -0.10088910093E+04 -0.13483760133E+04  0.82570974813E+03  0.18755733870E+04  0.50400001928E-02 0. -1.
</event>
<event>
 5   0  0.2904500E-09  0.3900401E+04  0.7818609E-02  0.8024946E-01
        1   -1    0    0  501    0  0.00000000000E+00  0.00000000000E+00  0.22527008058E+04  0.22527008058E+04  0.50400001928E-02 0.  1.
       -1   -1    0    0    0  501  0.00000000000E+00  0.00000000000E+00 -0.16883210664E+04  0.16883210664E+04  0.50400001928E-02 0. -1.
    10030    2    1    2    0    0  0.00000000000E+00  0.00000000000E+00  0.56437973943E+03  0.39410218722E+04  0.39004011213E+04 0.  0.
        4    1    3    3  502    0 -0.56335682145E+03  0.11762008877E+04  0.17472773768E+04  0.21803209124E+04  0.12699999809E+01 0.  1.
       -4    1    3    3    0  502  0.56335682145E+03 -0.11762008877E+04 -0.11828976374E+04  0.17607009598E+04  0.12699999809E+01 0. -1.
</event>
<event>
 5   0  0.2929054E-09  0.3892602E+04  0.7818609E-02  0.8026570E-01
        1   -1    0    0  501    0  0.00000000000E+00  0.00000000000E+00  0.29679746663E+04  0.29679746663E+04  0.50400001928E-02 0. -1.
       -1   -1    0    0    0  501  0.00000000000E+00  0.00000000000E+00 -0.12763205864E+04  0.12763205864E+04  0.50400001928E-02 0.  1.
    10030    2    1    2    0    0  0.00000000000E+00  0.00000000000E+00  0.16916540798E+04  0.42442952527E+04  0.38926017863E+04 0.  0.
        1    1    3    3  502    0  0.41092077666E+03  0.17318238923E+04  0.17043808299E+04  0.24643424868E+04  0.50400001928E-02 0. -1.
       -1    1    3    3    0  502 -0.41092077666E+03 -0.17318238923E+04 -0.12726750058E+02  0.17799527659E+04  0.50400001928E-02 0.  1.
</event>
<event>
 5   0  0.9434114E-09  0.3903270E+04  0.7818609E-02  0.8024349E-01
       -2   -1    0    0    0  501  0.00000000000E+00  0.00000000000E+00  0.24339884356E+04  0.24339884356E+04  0.25500000920E-02 0. -1.
        2   -1    0    0  501    0  0.00000000000E+00  0.00000000000E+00 -0.15648718194E+04  0.15648718194E+04  0.25500000920E-02 0.  1.
    10030    2    1    2    0    0  0.00000000000E+00  0.00000000000E+00  0.86911661623E+03  0.39988602550E+04  0.39032703783E+04 0.  0.
        4    1    3    3  502    0 -0.11384411163E+04  0.15795737963E+04  0.57115296693E+03  0.20291177585E+04  0.12699999809E+01 0.  1.
       -4    1    3    3    0  502  0.11384411163E+04 -0.15795737963E+04  0.29796364930E+03  0.19697424965E+04  0.12699999809E+01 0. -1.
</event>
<event>
 5   0  0.6335942E-09  0.3898839E+04  0.7818609E-02  0.8025271E-01
        2   -1    0    0  501    0  0.00000000000E+00  0.00000000000E+00  0.18283081872E+04  0.18283081872E+04  0.25500000920E-02 0. -1.
       -2   -1    0    0    0  501  0.00000000000E+00  0.00000000000E+00 -0.20785535942E+04  0.20785535942E+04  0.25500000920E-02 0.  1.
    10030    2    1    2    0    0  0.00000000000E+00  0.00000000000E+00 -0.25024540698E+03  0.39068617813E+04  0.38988390855E+04 0.  0.
        2    1    3    3  502    0  0.32650179662E+03  0.19144539361E+04  0.44041904316E+02  0.19425954252E+04  0.25500000920E-02 0. -1.
       -2    1    3    3    0  502 -0.32650179662E+03 -0.19144539361E+04 -0.29428731130E+03  0.19642663562E+04  0.25500000920E-02 0.  1.
</event>
<event>
 5   0  0.6335942E-09  0.3885532E+04  0.7818609E-02  0.8028045E-01
       -2   -1    0    0    0  501  0.00000000000E+00  0.00000000000E+00  0.26769469202E+04  0.26769469202E+04  0.25500000920E-02 0. -1.
        2   -1    0    0  501    0  0.00000000000E+00  0.00000000000E+00 -0.14099416942E+04  0.14099416942E+04  0.25500000920E-02 0.  1.
    10030    2    1    2    0    0  0.00000000000E+00  0.00000000000E+00  0.12670052260E+04  0.40868886144E+04  0.38855316629E+04 0.  0.
        2    1    3    3  502    0 -0.10703014642E+03  0.59377951211E+03  0.25759051984E+04  0.26456222618E+04  0.25500000920E-02 0. -1.
       -2    1    3    3    0  502  0.10703014642E+03 -0.59377951211E+03 -0.13088999724E+04  0.14412663525E+04  0.25500000920E-02 0.  1.
</event>
<event>
 5   0  0.2904500E-09  0.3900926E+04  0.7818609E-02  0.8024837E-01
        1   -1    0    0  501    0  0.00000000000E+00  0.00000000000E+00  0.15757262499E+04  0.15757262499E+04  0.50400001928E-02 0.  1.
       -1   -1    0    0    0  501  0.00000000000E+00  0.00000000000E+00 -0.24143187432E+04  0.24143187432E+04  0.50400001928E-02 0. -1.
    10030    2    1    2    0    0  0.00000000000E+00  0.00000000000E+00 -0.83859249333E+03  0.39900449932E+04  0.39009257462E+04 0.  0.
        5    1    3    3  502    0 -0.16734322333E+03  0.12918616626E+03 -0.24025595752E+04  0.24118473049E+04  0.46999998093E+01 0. -1.
       -5    1    3    3    0  502  0.16734322333E+03 -0.12918616626E+03  0.15639670819E+04  0.15781976882E+04  0.46999998093E+01 0.  1.
</event>
<event>
 5   0  0.2904500E-09  0.3899888E+04  0.7818609E-02  0.8025053E-01
       -1   -1    0    0    0  501  0.00000000000E+00  0.00000000000E+00  0.30195277204E+04  0.30195277204E+04  0.50400001928E-02 0.  1.
        1   -1    0    0  501    0  0.00000000000E+00  0.00000000000E+00 -0.12592304921E+04  0.12592304921E+04  0.50400001928E-02 0. -1.
    10030    2    1    2    0    0  0.00000000000E+00  0.00000000000E+00  0.17602972282E+04  0.42787582125E+04  0.38998878842E+04 0.  0.
        3    1    3    3  502    0  0.15685288498E+04 -0.10608629114E+03 -0.38549937455E+03  0.16186867615E+04  0.10100000352E+00 0.  1.
       -3    1    3    3    0  502 -0.15685288498E+04  0.10608629114E+03  0.21457966028E+04  0.26600714510E+04  0.10100000352E+00 0. -1.
</event>
<event>
 5   0  0.9277261E-09  0.3898638E+04  0.7818609E-02  0.8025312E-01
       -2   -1    0    0    0  501  0.00000000000E+00  0.00000000000E+00  0.25745108056E+04  0.25745108056E+04  0.25500000920E-02 0. -1.
        2   -1    0    0  501    0  0.00000000000E+00  0.00000000000E+00 -0.14759483518E+04  0.14759483518E+04  0.25500000920E-02 0.  1.
    10030    2    1    2    0    0  0.00000000000E+00  0.00000000000E+00  0.10985624538E+04  0.40504591574E+04  0.38986382136E+04 0.  0.
        1    1    3    3  502    0 -0.75683005082E+03  0.17962734300E+04  0.52711937349E+03  0.20192188577E+04  0.50400001928E-02 0.  1.
       -1    1    3    3    0  502  0.75683005082E+03 -0.17962734300E+04  0.57144308027E+03  0.20312402997E+04  0.50400001928E-02 0. -1.
</event>
<event>
 5   0  0.2904500E-09  0.3900679E+04  0.7818609E-02  0.8024888E-01
        1   -1    0    0  501    0  0.00000000000E+00  0.00000000000E+00  0.26027511988E+04  0.26027511988E+04  0.50400001928E-02 0.  1.
       -1   -1    0    0    0  501  0.00000000000E+00  0.00000000000E+00 -0.14614626883E+04  0.14614626883E+04  0.50400001928E-02 0. -1.
    10030    2    1    2    0    0  0.00000000000E+00  0.00000000000E+00  0.11412885105E+04  0.40642138871E+04  0.39006787942E+04 0.  0.
        4    1    3    3  502    0  0.16177646441E+04 -0.51718217896E+02  0.17043737730E+04  0.23504741625E+04  0.12699999809E+01 0.  1.
       -4    1    3    3    0  502 -0.16177646441E+04  0.51718217896E+02 -0.56308526244E+03  0.17137397245E+04  0.12699999809E+01 0. -1.
</event>
<event>
 5   0  0.2929054E-09  0.3899551E+04  0.7818609E-02  0.8025123E-01
       -1   -1    0    0    0  501  0.00000000000E+00  0.00000000000E+00  0.17857577456E+04  0.17857577456E+04  0.50400001928E-02 0.  1.
        1   -1    0    0  501    0  0.00000000000E+00  0.00000000000E+00 -0.21288580177E+04  0.21288580177E+04  0.50400001928E-02 0. -1.
    10030    2    1    2    0    0  0.00000000000E+00  0.00000000000E+00 -0.34310027212E+03  0.39146157633E+04  0.38995510995E+04 0.  0.
        1    1    3    3  502    0  0.14672724433E+04  0.10554070196E+04 -0.90571138326E+03  0.20216541519E+04  0.50400001928E-02 0. -1.
       -1    1    3    3    0  502 -0.14672724433E+04 -0.10554070196E+04  0.56261111114E+03  0.18929616114E+04  0.50400001928E-02 0.  1.
</event>
<event>
 5   0  0.2929054E-09  0.3900009E+04  0.7818609E-02  0.8025027E-01
       -1   -1    0    0    0  501  0.00000000000E+00  0.00000000000E+00  0.20639365722E+04  0.20639365723E+04  0.50400001928E-02 0.  1.
        1   -1    0    0  501    0  0.00000000000E+00  0.00000000000E+00 -0.18423612397E+04  0.18423612397E+04  0.50400001928E-02 0. -1.
    10030    2    1    2    0    0  0.00000000000E+00  0.00000000000E+00  0.22157533256E+03  0.39062978119E+04  0.39000085856E+04 0.  0.
        1    1    3    3  502    0 -0.69753015668E+03 -0.21988280308E+03 -0.16997833272E+04  0.18504486283E+04  0.50400001928E-02 0. -1.
       -1    1    3    3    0  502  0.69753015668E+03  0.21988280308E+03  0.19213586597E+04  0.20558491837E+04  0.50400001928E-02 0.  1.
</event>
<event>
 5   0  0.2904500E-09  0.3900872E+04  0.7818609E-02  0.8024848E-01
       -1   -1    0    0    0  501  0.00000000000E+00  0.00000000000E+00  0.13412897556E+04  0.13412897556E+04  0.50400001928E-02 0. -1.
        1   -1    0    0  501    0  0.00000000000E+00  0.00000000000E+00 -0.28362252955E+04  0.28362252955E+04  0.50400001928E-02 0.  1.
    10030    2    1    2    0    0  0.00000000000E+00  0.00000000000E+00 -0.14949355399E+04  0.41775150511E+04  0.39008716633E+04 0.  0.
        5    1    3    3  502    0  0.67904742553E+03 -0.11338064411E+03  0.12068385880E+04  0.13894034850E+04  0.46999998093E+01 0. -1.
       -5    1    3    3    0  502 -0.67904742553E+03  0.11338064411E+03 -0.27017741279E+04  0.27881115661E+04  0.46999998093E+01 0.  1.
</event>
<event>
 5   0  0.2904500E-09  0.3902393E+04  0.7818609E-02  0.8024532E-01
       -1   -1    0    0    0  501  0.00000000000E+00  0.00000000000E+00  0.17943539116E+04  0.17943539116E+04  0.50400001928E-02 0.  1.
        1   -1    0    0  501    0  0.00000000000E+00  0.00000000000E+00 -0.21217482889E+04  0.21217482889E+04  0.50400001928E-02 0. -1.
    10030    2    1    2    0    0  0.00000000000E+00  0.00000000000E+00 -0.32739437726E+03  0.39161022005E+04  0.39023927745E+04 0.  0.
        3    1    3    3  502    0  0.12185836743E+04  0.12855995287E+04 -0.98477390560E+03  0.20266948400E+04  0.10100000352E+00 0. -1.
       -3    1    3    3    0  502 -0.12185836743E+04 -0.12855995287E+04  0.65737952834E+03  0.18894073605E+04  0.10100000352E+00 0.  1.
</event>
<event>
 5   0  0.9434114E-09  0.3901416E+04  0.7818609E-02  0.8024735E-01
        2   -1    0    0  501    0  0.00000000000E+00  0.00000000000E+00  0.29116484248E+04  0.29116484248E+04  0.25500000920E-02 0. -1.
       -2   -1    0    0    0  501  0.00000000000E+00  0.00000000000E+00 -0.13069097780E+04  0.13069097780E+04  0.25500000920E-02 0.  1.
    10030    2    1    2    0    0  0.00000000000E+00  0.00000000000E+00  0.16047386467E+04  0.42185582028E+04  0.39014160488E+04 0.  0.
        4    1    3    3  502    0 -0.10338094986E+04  0.34722397626E+03  0.25512297012E+04  0.27745452187E+04  0.12699999809E+01 0. -1.
       -4    1    3    3    0  502  0.10338094986E+04 -0.34722397626E+03 -0.94649105448E+03  0.14440129841E+04  0.12699999809E+01 0.  1.
</event>
<event>
 5   0  0.9434114E-09  0.3900731E+04  0.7818609E-02  0.8024877E-01
       -2   -1    0    0    0  501  0.00000000000E+00  0.00000000000E+00  0.28305466617E+04  0.28305466617E+04  0.25500000920E-02 0.  1.
        2   -1    0    0  501    0  0.00000000000E+00  0.00000000000E+00 -0.13438834491E+04  0.13438834491E+04  0.25500000920E-02 0. -1.
    10030    2    1    2    0    0  0.00000000000E+00  0.00000000000E+00  0.14866632126E+04  0.41744301108E+04  0.39007306036E+04 0.  0.
        4    1    3    3  502    0 -0.80595943660E+03 -0.17556885166E+04  0.45635457412E+03  0.19850123151E+04  0.12699999809E+01 0.  1.
       -4    1    3    3    0  502  0.80595943660E+03  0.17556885166E+04  0.10303086385E+04  0.21894177957E+04  0.12699999809E+01 0. -1.
</event>
<event>
 5   0  0.2904500E-09  0.3898753E+04  0.7818609E-02  0.8025289E-01
        1   -1    0    0  501    0  0.00000000000E+00  0.00000000000E+00  0.16040682859E+04  0.16040682859E+04  0.50400001928E-02 0. -1.
       -1   -1    0    0    0  501  0.00000000000E+00  0.00000000000E+00 -0.23690188646E+04  0.23690188646E+04  0.50400001928E-02 0.  1.
    10030    2    1    2    0    0  0.00000000000E+00  0.00000000000E+00 -0.76495057863E+03  0.39730871505E+04  0.38987526361E+04 0.  0.
        4    1    3    3  502    0  0.26172616318E+03  0.15195785508E+04  0.83292807889E+03  0.17525382603E+04  0.12699999809E+01 0. -1.
       -4    1    3    3    0  502 -0.26172616318E+03 -0.15195785508E+04 -0.15978786575E+04  0.22205488901E+04  0.12699999809E+01 0.  1.
</event>
<event>
 5   0  0.9368546E-09  0.3898607E+04  0.7818609E-02  0.8025319E-01
        2   -1    0    0  501    0  0.00000000000E+00  0.00000000000E+00  0.15940992873E+04  0.15940992873E+04  0.25500000920E-02 0.  1.
       -2   -1    0    0    0  501  0.00000000000E+00  0.00000000000E+00 -0.23836556731E+04  0.23836556731E+04  0.25500000920E-02 0. -1.
    10030    2    1    2    0    0  0.00000000000E+00  0.00000000000E+00 -0.78955638584E+03  0.39777549604E+04  0.38986068331E+04 0.  0.
        5    1    3    3  502    0 -0.17158360280E+04 -0.90650418761E+03 -0.58268718470E+03  0.20261760936E+04  0.46999998093E+01 0.  1.
       -5    1    3    3    0  502  0.17158360280E+04  0.90650418761E+03 -0.20686920114E+03  0.19515788668E+04  0.46999998093E+01 0. -1.
</event>
<event>
 5   0  0.2904500E-09  0.3898382E+04  0.7818609E-02  0.8025366E-01
        1   -1    0    0  501    0  0.00000000000E+00  0.00000000000E+00  0.14849305355E+04  0.14849305355E+04  0.50400001928E-02 0.  1.
       -1   -1    0    0    0  501  0.00000000000E+00  0.00000000000E+00 -0.25586010967E+04  0.25586010967E+04  0.50400001928E-02 0. -1.
    10030    2    1    2    0    0  0.00000000000E+00  0.00000000000E+00 -0.10736705612E+04  0.40435316322E+04  0.38983816625E+04 0.  0.
        2    1    3    3  502    0  0.96519253575E+03  0.13046494982E+04 -0.16566813476E+04  0.23191162178E+04  0.25500000920E-02 0.  1.
       -2    1    3    3    0  502 -0.96519253575E+03 -0.13046494982E+04  0.58301078645E+03  0.17244154144E+04  0.25500000920E-02 0. -1.
</event>
<event>
 5   0  0.2929054E-09  0.3899700E+04  0.7818609E-02  0.8025092E-01
       -1   -1    0    0    0  501  0.00000000000E+00  0.00000000000E+00  0.15524710612E+04  0.15524710612E+04  0.50400001928E-02 0.  1.
        1   -1    0    0  501    0  0.00000000000E+00  0.00000000000E+00 -0.24489445022E+04  0.24489445022E+04  0.50400001928E-02 0. -1.
    10030    2    1    2    0    0  0.00000000000E+00  0.00000000000E+00 -0.89647344096E+03  0.40014155634E+04  0.38997002296E+04 0.  0.
        1    1    3    3  502    0  0.67978620302E+02 -0.16802018387E+03 -0.24402818157E+04  0.24470037219E+04  0.50400001928E-02 0. -1.
       -1    1    3    3    0  502 -0.67978620302E+02  0.16802018387E+03  0.15438083748E+04  0.15544118415E+04  0.50400001928E-02 0.  1.
</event>
<event>
 5   0  0.2929054E-09  0.3925510E+04  0.7818609E-02  0.8019744E-01
       -1   -1    0    0    0  501  0.00000000000E+00  0.00000000000E+00  0.17893995318E+04  0.17893995318E+04  0.50400001928E-02 0.  1.
        1   -1    0    0  501    0  0.00000000000E+00  0.00000000000E+00 -0.21529049412E+04  0.21529049412E+04  0.50400001928E-02 0. -1.
    10030    2    1    2    0    0  0.00000000000E+00  0.00000000000E+00 -0.36350540940E+03  0.39423044731E+04  0.39255099510E+04 0.  0.
        1    1    3    3  502    0  0.10696561198E+04 -0.15909113194E+04 -0.60455751187E+03  0.20101375142E+04  0.50400001928E-02 0. -1.
       -1    1    3    3    0  502 -0.10696561198E+04  0.15909113194E+04  0.24105210247E+03  0.19321669589E+04  0.50400001928E-02 0.  1.
</event>
<event>
 5   0  0.2904500E-09  0.3889951E+04  0.7818609E-02  0.8027123E-01
       -1   -1    0    0    0  501  0.00000000000E+00  0.00000000000E+00  0.22948409389E+04  0.22948409389E+04  0.50400001928E-02 0.  1.
        1   -1    0    0  501    0  0.00000000000E+00  0.00000000000E+00 -0.16484494247E+04  0.16484494247E+04  0.50400001928E-02 0. -1.
    10030    2    1    2    0    0  0.00000000000E+00  0.00000000000E+00  0.64639151426E+03  0.39432903636E+04  0.38899507583E+04 0.  0.
        3    1    3    3  502    0  0.58400017105E+03 -0.16851964236E+04  0.11097122969E+04  0.21005724406E+04  0.10100000352E+00 0. -1.
       -3    1    3    3    0  502 -0.58400017105E+03  0.16851964236E+04 -0.46332078268E+03  0.18427179230E+04  0.10100000352E+00 0.  1.
</event>
<event>
 5   0  0.9078515E-09  0.3900726E+04  0.7818609E-02  0.8024878E-01
        2   -1    0    0  501    0  0.00000000000E+00  0.00000000000E+00  0.19703728458E+04  0.19703728458E+04  0.25500000920E-02 0.  1.
       -2   -1    0    0    0  501  0.00000000000E+00  0.00000000000E+00 -0.19305562717E+04  0.19305562717E+04  0.25500000920E-02 0. -1.
    10030    2    1    2    0    0  0.00000000000E+00  0.00000000000E+00  0.39816574070E+02  0.39009291175E+04  0.39007259094E+04 0.  0.
        3    1    3    3  502    0  0.34848326164E+02 -0.17043349826E+04 -0.92773988877E+03  0.19407919647E+04  0.10100000352E+00 0. -1.
       -3    1    3    3    0  502 -0.34848326164E+02  0.17043349826E+04  0.96755646284E+03  0.19601371528E+04  0.10100000352E+00 0.  1.
</event>
<event>
 5   0  0.9277261E-09  0.3900185E+04  0.7818609E-02  0.8024991E-01
        2   -1    0    0  501    0  0.00000000000E+00  0.00000000000E+00  0.19076301080E+04  0.19076301080E+04  0.25500000920E-02 0.  1.
       -2   -1    0    0    0  501  0.00000000000E+00  0.00000000000E+00 -0.19935004049E+04  0.19935004049E+04  0.25500000920E-02 0. -1.
    10030    2    1    2    0    0  0.00000000000E+00  0.00000000000E+00 -0.85870296867E+02  0.39011305129E+04  0.39001853252E+04 0.  0.
        1    1    3    3  502    0 -0.55027394347E+03  0.18706926068E+04 -0.19072489073E+02  0.19500400001E+04  0.50400001928E-02 0. -1.
       -1    1    3    3    0  502  0.55027394347E+03 -0.18706926068E+04 -0.66797807794E+02  0.19510905128E+04  0.50400001928E-02 0.  1.
</event>
<event>
 5   0  0.2904500E-09  0.3890885E+04  0.7818609E-02  0.8026928E-01
       -1   -1    0    0    0  501  0.00000000000E+00  0.00000000000E+00  0.21210752003E+04  0.21210752003E+04  0.50400001928E-02 0.  1.
        1   -1    0    0  501    0  0.00000000000E+00  0.00000000000E+00 -0.17843525969E+04  0.17843525969E+04  0.50400001928E-02 0. -1.
    10030    2    1    2    0    0  0.00000000000E+00  0.00000000000E+00  0.33672260341E+03  0.39054277972E+04  0.38908847538E+04 0.  0.
        4    1    3    3  502    0 -0.49477258341E+03 -0.83240837675E+03 -0.15252630603E+04  0.18066910724E+04  0.12699999809E+01 0. -1.
       -4    1    3    3    0  502  0.49477258341E+03  0.83240837675E+03  0.18619856637E+04  0.20987367248E+04  0.12699999809E+01 0.  1.
</event>
<event>
 5   0  0.2904500E-09  0.3899965E+04  0.7818609E-02  0.8025036E-01
       -1   -1    0    0    0  501  0.00000000000E+00  0.00000000000E+00  0.16671683307E+04  0.16671683307E+04  0.50400001928E-02 0. -1.
        1   -1    0    0  501    0  0.00000000000E+00  0.00000000000E+00 -0.22807727260E+04  0.22807727260E+04  0.50400001928E-02 0.  1.
    10030    2    1    2    0    0  0.00000000000E+00  0.00000000000E+00 -0.61360439533E+03  0.39479410567E+04  0.38999651580E+04 0.  0.
        3    1    3    3  502    0 -0.69333045726E+03  0.11297087872E+04  0.11409954548E+04  0.17489481710E+04  0.10100000352E+00 0. -1.
       -3    1    3    3    0  502  0.69333045726E+03 -0.11297087872E+04 -0.17545998502E+04  0.21989928857E+04  0.10100000352E+00 0.  1.
</event>
<event>
 5   0  0.9078515E-09  0.3901621E+04  0.7818609E-02  0.8024692E-01
        2   -1    0    0  501    0  0.00000000000E+00  0.00000000000E+00  0.23995765560E+04  0.23995765560E+04  0.25500000920E-02 0. -1.
       -2   -1    0    0    0  501  0.00000000000E+00  0.00000000000E+00 -0.15859724933E+04  0.15859724933E+04  0.25500000920E-02 0.  1.
    10030    2    1    2    0    0  0.00000000000E+00  0.00000000000E+00  0.81360406266E+03  0.39855490493E+04  0.39016214134E+04 0.  0.
        3    1    3    3  502    0 -0.16084554149E+04  0.10787689924E+03  0.15290219791E+04  0.22218628378E+04  0.10100000352E+00 0. -1.
       -3    1    3    3    0  502  0.16084554149E+04 -0.10787689924E+03 -0.71541791641E+03  0.17636862115E+04  0.10100000352E+00 0.  1.
</event>
<event>
 5   0  0.2904500E-09  0.3900082E+04  0.7818609E-02  0.8025012E-01
       -1   -1    0    0    0  501  0.00000000000E+00  0.00000000000E+00  0.25259904831E+04  0.25259904831E+04  0.50400001928E-02 0.  1.
        1   -1    0    0  501    0  0.00000000000E+00  0.00000000000E+00 -0.15054136588E+04  0.15054136588E+04  0.50400001928E-02 0. -1.
    10030    2    1    2    0    0  0.00000000000E+00  0.00000000000E+00  0.10205768243E+04  0.40314041419E+04  0.39000823454E+04 0.  0.
        3    1    3    3  502    0  0.47437868732E+02  0.12549056757E+04  0.20523732239E+04  0.24060911177E+04  0.10100000352E+00 0.  1.
       -3    1    3    3    0  502 -0.47437868732E+02 -0.12549056757E+04 -0.10317963996E+04  0.16253130242E+04  0.10100000352E+00 0. -1.
</event>
<event>
 5   0  0.2929054E-09  0.3899421E+04  0.7818609E-02  0.8025150E-01
       -1   -1    0    0    0  501  0.00000000000E+00  0.00000000000E+00  0.14054972916E+04  0.14054972916E+04  0.50400001928E-02 0.  1.
        1   -1    0    0  501    0  0.00000000000E+00  0.00000000000E+00 -0.27046453485E+04  0.27046453485E+04  0.50400001928E-02 0. -1.
    10030    2    1    2    0    0  0.00000000000E+00  0.00000000000E+00 -0.12991480570E+04  0.41101426401E+04  0.38994213479E+04 0.  0.
        1    1    3    3  502    0 -0.14944931519E+04  0.24725100740E+03 -0.19433952911E+04  0.24640268057E+04  0.50400001928E-02 0. -1.
       -1    1    3    3    0  502  0.14944931519E+04 -0.24725100740E+03  0.64424723411E+03  0.16461158344E+04  0.50400001928E-02 0.  1.
</event>
<event>
 5   0  0.9434114E-09  0.3899356E+04  0.7818609E-02  0.8025163E-01
       -2   -1    0    0    0  501  0.00000000000E+00  0.00000000000E+00  0.13701585370E+04  0.13701585370E+04  0.25500000920E-02 0.  1.
        2   -1    0    0  501    0  0.00000000000E+00  0.00000000000E+00 -0.27743095242E+04  0.27743095242E+04  0.25500000920E-02 0. -1.
    10030    2    1    2    0    0  0.00000000000E+00  0.00000000000E+00 -0.14041509872E+04  0.41444680612E+04  0.38993557821E+04 0.  0.
        4    1    3    3  502    0  0.76249451317E+01 -0.13075126671E+03 -0.27696280676E+04  0.27727234408E+04  0.12699999809E+01 0. -1.
       -4    1    3    3    0  502 -0.76249451317E+01  0.13075126671E+03  0.13654770804E+04  0.13717446204E+04  0.12699999809E+01 0.  1.
</event>
<event>
 5   0  0.6335942E-09  0.3899997E+04  0.7818609E-02  0.8025030E-01
        2   -1    0    0  501    0  0.00000000000E+00  0.00000000000E+00  0.12250057966E+04  0.12250057966E+04  0.25500000920E-02 0. -1.
       -2   -1    0    0    0  501  0.00000000000E+00  0.00000000000E+00 -0.31040621961E+04  0.31040621961E+04  0.25500000920E-02 0.  1.
    10030    2    1    2    0    0  0.00000000000E+00  0.00000000000E+00 -0.18790563995E+04  0.43290679926E+04  0.38999970170E+04 0.  0.
        2    1    3    3  502    0  0.60872555165E+03 -0.23294831366E+03  0.11005158355E+04  0.12790413669E+04  0.25500000920E-02 0. -1.
       -2    1    3    3    0  502 -0.60872555165E+03  0.23294831366E+03 -0.29795722350E+04  0.30500266257E+04  0.25500000920E-02 0.  1.
</event>
<event>
 5   0  0.9368546E-09  0.3900719E+04  0.7818609E-02  0.8024880E-01
       -2   -1    0    0    0  501  0.00000000000E+00  0.00000000000E+00  0.21887350903E+04  0.21887350903E+04  0.25500000920E-02 0.  1.
        2   -1    0    0  501    0  0.00000000000E+00  0.00000000000E+00 -0.17379458322E+04  0.17379458322E+04  0.25500000920E-02 0. -1.
    10030    2    1    2    0    0  0.00000000000E+00  0.00000000000E+00  0.45078925811E+03  0.39266809225E+04  0.39007194351E+04 0.  0.
        5    1    3    3  502    0  0.34488094976E+03 -0.19160676382E+04  0.34288851551E+03  0.19768289476E+04  0.46999998093E+01 0.  1.
       -5    1    3    3    0  502 -0.34488094976E+03  0.19160676382E+04  0.10790074260E+03  0.19498519749E+04  0.46999998093E+01 0. -1.
</event>
<event>
 5   0  0.6335942E-09  0.3897753E+04  0.7818609E-02  0.8025497E-01
       -2   -1    0    0    0  501  0.00000000000E+00  0.00000000000E+00  0.15454282112E+04  0.15454282112E+04  0.25500000920E-02 0.  1.
        2   -1    0    0  501    0  0.00000000000E+00  0.00000000000E+00 -0.24576488358E+04  0.24576488358E+04  0.25500000920E-02 0. -1.
    10030    2    1    2    0    0  0.00000000000E+00  0.00000000000E+00 -0.91222062455E+03  0.40030770470E+04  0.38977531189E+04 0.  0.
        2    1    3    3  502    0 -0.20238890582E+03 -0.75806103338E+03  0.13760520908E+04  0.15840256173E+04  0.25500000920E-02 0.  1.
       -2    1    3    3    0  502  0.20238890582E+03  0.75806103338E+03 -0.22882727154E+04  0.24190514297E+04  0.25500000920E-02 0. -1.
</event>
<event>
 5   0  0.2904500E-09  0.3899405E+04  0.7818609E-02  0.8025153E-01
        1   -1    0    0  501    0  0.00000000000E+00  0.00000000000E+00  0.21793159063E+04  0.21793159063E+04  0.50400001928E-02 0.  1.
       -1   -1    0    0    0  501  0.00000000000E+00  0.00000000000E+00 -0.17442812917E+04  0.17442812917E+04  0.50400001928E-02 0. -1.
    10030    2    1    2    0    0  0.00000000000E+00  0.00000000000E+00  0.43503461460E+03  0.39235971980E+04  0.38994050644E+04 0.  0.
        2    1    3    3  502    0  0.33965245264E+03 -0.61529777064E+03 -0.16123872102E+04  0.17589052421E+04  0.25500000920E-02 0. -1.
       -2    1    3    3    0  502 -0.33965245264E+03  0.61529777064E+03  0.20474218248E+04  0.21646919559E+04  0.25500000920E-02 0.  1.
</event>
<event>
 5   0  0.2904500E-09  0.3923949E+04  0.7818609E-02  0.8020067E-01
        1   -1    0    0  501    0  0.00000000000E+00  0.00000000000E+00  0.18472884901E+04  0.18472884901E+04  0.50400001928E-02 0. -1.
       -1   -1    0    0    0  501  0.00000000000E+00  0.00000000000E+00 -0.20837807264E+04  0.20837807264E+04  0.50400001928E-02 0.  1.
    10030    2    1    2    0    0  0.00000000000E+00  0.00000000000E+00 -0.23649223636E+03  0.39310692165E+04  0.39239491086E+04 0.  0.
        5    1    3    3  502    0 -0.11567910824E+04 -0.93581086358E+03 -0.13993998443E+04  0.20426085271E+04  0.46999998093E+01 0.  1.
       -5    1    3    3    0  502  0.11567910824E+04  0.93581086358E+03  0.11629076080E+04  0.18884606894E+04  0.46999998093E+01 0. -1.
</event>
<event>
 5   0  0.2929054E-09  0.3901586E+04  0.7818609E-02  0.8024699E-01
       -1   -1    0    0    0  501  0.00000000000E+00  0.00000000000E+00  0.21782997684E+04  0.21782997684E+04  0.50400001928E-02 0. -1.
        1   -1    0    0  501    0  0.00000000000E+00  0.00000000000E+00 -0.17470475006E+04  0.17470475006E+04  0.50400001928E-02 0.  1.
    10030    2    1    2    0    0  0.00000000000E+00  0.00000000000E+00  0.43125226775E+03  0.39253472690E+04  0.39015859165E+04 0.  0.
        1    1    3    3  502    0  0.10043974182E+04 -0.79722327795E+03  0.16946861575E+04  0.21251682995E+04  0.50400001928E-02 0. -1.
       -1    1    3    3    0  502 -0.10043974182E+04  0.79722327795E+03 -0.12634338898E+04  0.18001789696E+04  0.50400001928E-02 0.  1.
</event>
<event>
 5   0  0.6335942E-09  0.3899863E+04  0.7818609E-02  0.8025058E-01
        2   -1    0    0  501    0  0.00000000000E+00  0.00000000000E+00  0.17244017401E+04  0.17244017401E+04  0.25500000920E-02 0. -1.
       -2   -1    0    0    0  501  0.00000000000E+00  0.00000000000E+00 -0.22049578526E+04  0.22049578526E+04  0.25500000920E-02 0.  1.
    10030    2    1    2    0    0  0.00000000000E+00  0.00000000000E+00 -0.48055611252E+03  0.39293595926E+04  0.38998631554E+04 0.  0.
        2    1    3    3  502    0 -0.48929782600E+02  0.26249315301E+03 -0.21864505421E+04  0.22026944300E+04  0.25500000920E-02 0.  1.
       -2    1    3    3    0  502  0.48929782600E+02 -0.26249315301E+03  0.17058944296E+04  0.17266651626E+04  0.25500000920E-02 0. -1.
</event>
<event>
 5   0  0.9434114E-09  0.3901070E+04  0.7818609E-02  0.8024807E-01
       -2   -1    0    0    0  501  0.00000000000E+00  0.00000000000E+00  0.20971879260E+04  0.20971879260E+04  0.25500000920E-02 0.  1.
        2   -1    0    0  501    0  0.00000000000E+00  0.00000000000E+00 -0.18141372475E+04  0.18141372475E+04  0.25500000920E-02 0. -1.
    10030    2    1    2    0    0  0.00000000000E+00  0.00000000000E+00  0.28305067849E+03  0.39113251735E+04  0.39010699719E+04 0.  0.
        4    1    3    3  502    0  0.81633691768E+02  0.80588055733E+03 -0.16375342132E+04  0.18269174707E+04  0.12699999809E+01 0. -1.
       -4    1    3    3    0  502 -0.81633691768E+02 -0.80588055733E+03  0.19205848917E+04  0.20844077028E+04  0.12699999809E+01 0.  1.
</event>
<event>
 5   0  0.9434114E-09  0.3901385E+04  0.7818609E-02  0.8024741E-01
       -2   -1    0    0    0  501  0.00000000000E+00  0.00000000000E+00  0.24630238387E+04  0.24630238387E+04  0.25500000920E-02 0.  1.
        2   -1    0    0  501    0  0.00000000000E+00  0.00000000000E+00 -0.15449304424E+04  0.15449304424E+04  0.25500000920E-02 0. -1.
    10030    2    1    2    0    0  0.00000000000E+00  0.00000000000E+00  0.91809339633E+03  0.40079542811E+04  0.39013846305E+04 0.  0.
        4    1    3    3  502    0  0.34774733805E+03 -0.63775013532E+03 -0.14008051538E+04  0.15779449097E+04  0.12699999809E+01 0. -1.
       -4    1    3    3    0  502 -0.34774733805E+03  0.63775013532E+03  0.23188985501E+04  0.24300093714E+04  0.12699999809E+01 0.  1.
</event>
<event>
 5   0  0.9434114E-09  0.3900038E+04  0.7818609E-02  0.8025021E-01
       -2   -1    0    0    0  501  0.00000000000E+00  0.00000000000E+00  0.26559955177E+04  0.26559955177E+04  0.25500000920E-02 0. -1.
        2   -1    0    0  501    0  0.00000000000E+00  0.00000000000E+00 -0.14316944842E+04  0.14316944842E+04  0.25500000920E-02 0.  1.
    10030    2    1    2    0    0  0.00000000000E+00  0.00000000000E+00  0.12243010335E+04  0.40876900018E+04  0.39000380165E+04 0.  0.
        4    1    3    3  502    0  0.10816662311E+04  0.77166105275E+03  0.21080979828E+04  0.24918951290E+04  0.12699999809E+01 0. -1.
       -4    1    3    3    0  502 -0.10816662311E+04 -0.77166105275E+03 -0.88379694930E+03  0.15957948729E+04  0.12699999809E+01 0.  1.
</event>
<event>
 5   0  0.9368546E-09  0.3898111E+04  0.7818609E-02  0.8025422E-01
        2   -1    0    0  501    0  0.00000000000E+00  0.00000000000E+00  0.18312734005E+04  0.18312734005E+04  0.25500000920E-02 0. -1.
       -2   -1    0    0    0  501  0.00000000000E+00  0.00000000000E+00 -0.20744133075E+04  0.20744133075E+04  0.25500000920E-02 0.  1.
    10030    2    1    2    0    0  0.00000000000E+00  0.00000000000E+00 -0.24313990699E+03  0.39056867080E+04  0.38981112922E+04 0.  0.
        5    1    3    3  502    0 -0.11091173010E+04  0.72615965247E+03 -0.15531036162E+04  0.20419603231E+04  0.46999998093E+01 0.  1.
       -5    1    3    3    0  502  0.11091173010E+04 -0.72615965247E+03  0.13099637092E+04  0.18637263849E+04  0.46999998093E+01 0. -1.
</event>
<event>
 5   0  0.9368546E-09  0.3899746E+04  0.7818609E-02  0.8025082E-01
        2   -1    0    0  501    0  0.00000000000E+00  0.00000000000E+00  0.22694598086E+04  0.22694598086E+04  0.25500000920E-02 0.  1.
       -2   -1    0    0    0  501  0.00000000000E+00  0.00000000000E+00 -0.16752905594E+04  0.16752905594E+04  0.25500000920E-02 0. -1.
    10030    2    1    2    0    0  0.00000000000E+00  0.00000000000E+00  0.59416924922E+03  0.39447503681E+04  0.38997459366E+04 0.  0.
        5    1    3    3  502    0 -0.14631962582E+04 -0.79634153046E+02 -0.10041108119E+04  0.17763855159E+04  0.46999998093E+01 0. -1.
       -5    1    3    3    0  502  0.14631962582E+04  0.79634153046E+02  0.15982800612E+04  0.21683648522E+04  0.46999998093E+01 0.  1.
</event>
<event>
 5   0  0.9434114E-09  0.3898319E+04  0.7818609E-02  0.8025379E-01
        2   -1    0    0  501    0  0.00000000000E+00  0.00000000000E+00  0.16518405259E+04  0.16518405259E+04  0.25500000920E-02 0. -1.
       -2   -1    0    0    0  501  0.00000000000E+00  0.00000000000E+00 -0.22999941666E+04  0.22999941666E+04  0.25500000920E-02 0.  1.
    10030    2    1    2    0    0  0.00000000000E+00  0.00000000000E+00 -0.64815364069E+03  0.39518346925E+04  0.38983194193E+04 0.  0.
        4    1    3    3  502    0  0.63197195686E+03  0.10878080787E+04  0.11851548181E+04  0.17283832116E+04  0.12699999809E+01 0. -1.
       -4    1    3    3    0  502 -0.63197195686E+03 -0.10878080787E+04 -0.18333084588E+04  0.22234514810E+04  0.12699999809E+01 0.  1.
</event>
<event>
 5   0  0.9368546E-09  0.3895732E+04  0.7818609E-02  0.8025917E-01
        2   -1    0    0  501    0  0.00000000000E+00  0.00000000000E+00  0.15431368805E+04  0.15431368805E+04  0.25500000920E-02 0.  1.
       -2   -1    0    0    0  501  0.00000000000E+00  0.00000000000E+00 -0.24587464762E+04  0.24587464762E+04  0.25500000920E-02 0. -1.
    10030    2    1    2    0    0  0.00000000000E+00  0.00000000000E+00 -0.91560959568E+03  0.40018833567E+04  0.38957322122E+04 0.  0.
        5    1    3    3  502    0 -0.10878183307E+04  0.64275257491E+03  0.10650469470E+04  0.16525213107E+04  0.46999998093E+01 0.  1.
       -5    1    3    3    0  502  0.10878183307E+04 -0.64275257491E+03 -0.19806565427E+04  0.23493620460E+04  0.46999998093E+01 0. -1.
</event>
<event>
 5   0  0.9434114E-09  0.3899034E+04  0.7818609E-02  0.8025230E-01
       -2   -1    0    0    0  501  0.00000000000E+00  0.00000000000E+00  0.15901179982E+04  0.15901179982E+04  0.25500000920E-02 0.  1.
        2   -1    0    0  501    0  0.00000000000E+00  0.00000000000E+00 -0.23901471190E+04  0.23901471190E+04  0.25500000920E-02 0. -1.
    10030    2    1    2    0    0  0.00000000000E+00  0.00000000000E+00 -0.80002912076E+03  0.39802651172E+04  0.38990337019E+04 0.  0.
        4    1    3    3  502    0 -0.90024568858E+03  0.16981209948E+04 -0.66782896559E+02  0.19231533431E+04  0.12699999809E+01 0.  1.
       -4    1    3    3    0  502  0.90024568858E+03 -0.16981209948E+04 -0.73324622420E+03  0.20571117741E+04  0.12699999809E+01 0. -1.
</event>
<event>
 5   0  0.2929054E-09  0.3899111E+04  0.7818609E-02  0.8025214E-01
       -1   -1    0    0    0  501  0.00000000000E+00  0.00000000000E+00  0.13810246300E+04  0.13810246300E+04  0.50400001928E-02 0.  1.
        1   -1    0    0  501    0  0.00000000000E+00  0.00000000000E+00 -0.27521359601E+04  0.27521359601E+04  0.50400001928E-02 0. -1.
    10030    2    1    2    0    0  0.00000000000E+00  0.00000000000E+00 -0.13711113301E+04  0.41331605901E+04  0.38991114608E+04 0.  0.
        1    1    3    3  502    0 -0.27017217211E+03  0.10042365427E+04 -0.24335655090E+04  0.26464551995E+04  0.50400001928E-02 0. -1.
       -1    1    3    3    0  502  0.27017217211E+03 -0.10042365427E+04  0.10624541789E+04  0.14867053906E+04  0.50400001928E-02 0.  1.
</event>
<event>
 5   0  0.9078515E-09  0.3900078E+04  0.7818609E-02  0.8025013E-01
       -2   -1    0    0    0  501  0.00000000000E+00  0.00000000000E+00  0.16929569280E+04  0.16929569280E+04  0.25500000920E-02 0.  1.
        2   -1    0    0  501    0  0.00000000000E+00  0.00000000000E+00 -0.22461598650E+04  0.22461598650E+04  0.25500000920E-02 0. -1.
    10030    2    1    2    0    0  0.00000000000E+00  0.00000000000E+00 -0.55320293700E+03  0.39391167930E+04  0.39000778991E+04 0.  0.
        3    1    3    3  502    0 -0.15189255545E+04 -0.16784747292E+03 -0.15000665753E+04  0.21413797783E+04  0.10100000352E+00 0. -1.
       -3    1    3    3    0  502  0.15189255545E+04  0.16784747292E+03  0.94686363833E+03  0.17977370147E+04  0.10100000352E+00 0.  1.
</event>
<event>
 5   0  0.9277261E-09  0.3900490E+04  0.7818609E-02  0.8024927E-01
       -2   -1    0    0    0  501  0.00000000000E+00  0.00000000000E+00  0.14682517343E+04  0.14682517343E+04  0.25500000920E-02 0.  1.
        2   -1    0    0  501    0  0.00000000000E+00  0.00000000000E+00 -0.25904653867E+04  0.25904653867E+04  0.25500000920E-02 0. -1.
    10030    2    1    2    0    0  0.00000000000E+00  0.00000000000E+00 -0.11222136524E+04  0.40587171209E+04  0.39004898649E+04 0.  0.
        1    1    3    3  502    0  0.67154271868E+03  0.15060431000E+04 -0.16446552749E+04  0.23289539316E+04  0.50400001928E-02 0. -1.
       -1    1    3    3    0  502 -0.67154271868E+03 -0.15060431000E+04  0.52244162250E+03  0.17297631893E+04  0.50400001928E-02 0.  1.
</event>
<event>
 5   0  0.2904500E-09  0.3899896E+04  0.7818609E-02  0.8025051E-01
       -1   -1    0    0    0  501  0.00000000000E+00  0.00000000000E+00  0.20830168566E+04  0.20830168566E+04  0.50400001928E-02 0. -1.
        1   -1    0    0  501    0  0.00000000000E+00  0.00000000000E+00 -0.18253795756E+04  0.18253795756E+04  0.50400001928E-02 0.  1.
    10030    2    1    2    0    0  0.00000000000E+00  0.00000000000E+00  0.25763728098E+03  0.39083964322E+04  0.38998956015E+04 0.  0.
        2    1    3    3  502    0 -0.11505117477E+04  0.15444146655E+04 -0.17746573474E+03  0.19340082801E+04  0.25500000920E-02 0.  1.
       -2    1    3    3    0  502  0.11505117477E+04 -0.15444146655E+04  0.43510301573E+03  0.19743881520E+04  0.25500000920E-02 0. -1.
</event>
<event>
 5   0  0.9078515E-09  0.3900128E+04  0.7818609E-02  0.8025003E-01
       -2   -1    0    0    0  501  0.00000000000E+00  0.00000000000E+00  0.11194316313E+04  0.11194316313E+04  0.25500000920E-02 0.  1.
        2   -1    0    0  501    0  0.00000000000E+00  0.00000000000E+00 -0.33970354056E+04  0.33970354056E+04  0.25500000920E-02 0. -1.
    10030    2    1    2    0    0  0.00000000000E+00  0.00000000000E+00 -0.22776037744E+04  0.45164670369E+04  0.39001276315E+04 0.  0.
        3    1    3    3  502    0 -0.51348408534E+02  0.12911490159E+04  0.55249628809E+03  0.14053307792E+04  0.10100000352E+00 0.  1.
       -3    1    3    3    0  502  0.51348408534E+02 -0.12911490159E+04 -0.28301000625E+04  0.31111362577E+04  0.10100000352E+00 0. -1.
</event>
<event>
 5   0  0.9277261E-09  0.3905571E+04  0.7818609E-02  0.8023872E-01
        2   -1    0    0  501    0  0.00000000000E+00  0.00000000000E+00  0.23968252230E+04  0.23968252230E+04  0.25500000920E-02 0.  1.
       -2   -1    0    0    0  501  0.00000000000E+00  0.00000000000E+00 -0.15910094137E+04  0.15910094137E+04  0.25500000920E-02 0. -1.
    10030    2    1    2    0    0  0.00000000000E+00  0.00000000000E+00  0.80581580929E+03  0.39878346367E+04  0.39055711454E+04 0.  0.
        1    1    3    3  502    0 -0.83910643500E+03 -0.16837764353E+04 -0.13173228599E+03  0.18858833708E+04  0.50400001928E-02 0. -1.
       -1    1    3    3    0  502  0.83910643500E+03  0.16837764353E+04  0.93754809529E+03  0.21019512659E+04  0.50400001928E-02 0.  1.
</event>
<event>
 5   0  0.2904500E-09  0.3900231E+04  0.7818609E-02  0.8024981E-01
        1   -1    0    0  501    0  0.00000000000E+00  0.00000000000E+00  0.20117688647E+04  0.20117688647E+04  0.50400001928E-02 0. -1.
       -1   -1    0    0    0  501  0.00000000000E+00  0.00000000000E+00 -0.18903520274E+04  0.18903520274E+04  0.50400001928E-02 0.  1.
    10030    2    1    2    0    0  0.00000000000E+00  0.00000000000E+00  0.12141683731E+03  0.39021208921E+04  0.39002314557E+04 0.  0.
        2    1    3    3  502    0  0.16389050147E+04  0.56090564292E+03  0.95686918229E+03  0.19789450269E+04  0.25500000920E-02 0. -1.
       -2    1    3    3    0  502 -0.16389050147E+04 -0.56090564292E+03 -0.83545234498E+03  0.19231758652E+04  0.25500000920E-02 0.  1.
</event>
<event>
 5   0  0.9078515E-09  0.3901719E+04  0.7818609E-02  0.8024672E-01
       -2   -1    0    0    0  501  0.00000000000E+00  0.00000000000E+00  0.12196106884E+04  0.12196106884E+04  0.25500000920E-02 0. -1.
        2   -1    0    0  501    0  0.00000000000E+00  0.00000000000E+00 -0.31205466359E+04  0.31205466359E+04  0.25500000920E-02 0.  1.
    10030    2    1    2    0    0  0.00000000000E+00  0.00000000000E+00 -0.19009359475E+04  0.43401573243E+04  0.39017186115E+04 0.  0.
        3    1    3    3  502    0  0.15077661580E+04  0.59706711173E+03  0.25582818418E+03  0.16417356648E+04  0.10100000352E+00 0. -1.
       -3    1    3    3    0  502 -0.15077661580E+04 -0.59706711173E+03 -0.21567641317E+04  0.26984216596E+04  0.10100000352E+00 0.  1.
</event>
<event>
 5   0  0.2929054E-09  0.3895180E+04  0.7818609E-02  0.8026032E-01
        1   -1    0    0  501    0  0.00000000000E+00  0.00000000000E+00  0.19114267286E+04  0.19114267287E+04  0.50400001928E-02 0. -1.
       -1   -1    0    0    0  501  0.00000000000E+00  0.00000000000E+00 -0.19844379686E+04  0.19844379686E+04  0.50400001928E-02 0.  1.
    10030    2    1    2    0    0  0.00000000000E+00  0.00000000000E+00 -0.73011239912E+02  0.38958646972E+04  0.38951804962E+04 0.  0.
        1    1    3    3  502    0 -0.12430906992E+04  0.11835765328E+04  0.88397113401E+03  0.19306819679E+04  0.50400001928E-02 0. -1.
       -1    1    3    3    0  502  0.12430906992E+04 -0.11835765328E+04 -0.95698237393E+03  0.19651827293E+04  0.50400001928E-02 0.  1.
</event>
<event>
 5   0  0.9277261E-09  0.3886213E+04  0.7818609E-02  0.8027903E-01
       -2   -1    0    0    0  501  0.00000000000E+00  0.00000000000E+00  0.13845242172E+04  0.13845242172E+04  0.25500000920E-02 0. -1.
        2   -1    0    0  501    0  0.00000000000E+00  0.00000000000E+00 -0.27270474087E+04  0.27270474088E+04  0.25500000920E-02 0.  1.
    10030    2    1    2    0    0  0.00000000000E+00  0.00000000000E+00 -0.13425231916E+04  0.41115716259E+04  0.38862131588E+04 0.  0.
        1    1    3    3  502    0 -0.63186006967E+03  0.17651723297E+04 -0.13118667124E+03  0.18794388641E+04  0.50400001928E-02 0. -1.
       -1    1    3    3    0  502  0.63186006967E+03 -0.17651723297E+04 -0.12113365203E+04  0.22321327619E+04  0.50400001928E-02 0.  1.
</event>
<event>
 5   0  0.6335942E-09  0.3891379E+04  0.7818609E-02  0.8026825E-01
       -2   -1    0    0    0  501  0.00000000000E+00  0.00000000000E+00  0.19161098667E+04  0.19161098667E+04  0.25500000920E-02 0.  1.
        2   -1    0    0  501    0  0.00000000000E+00  0.00000000000E+00 -0.19757258425E+04  0.19757258425E+04  0.25500000920E-02 0. -1.
    10030    2    1    2    0    0  0.00000000000E+00  0.00000000000E+00 -0.59615975759E+02  0.38918357092E+04  0.38913790772E+04 0.  0.
        2    1    3    3  502    0 -0.48159955847E+03  0.12133362609E+04 -0.14727471126E+04  0.19680211062E+04  0.25500000920E-02 0. -1.
       -2    1    3    3    0  502  0.48159955847E+03 -0.12133362609E+04  0.14131311369E+04  0.19238146030E+04  0.25500000920E-02 0.  1.
</event>
<event>
 5   0  0.2904500E-09  0.3899106E+04  0.7818609E-02  0.8025215E-01
        1   -1    0    0  501    0  0.00000000000E+00  0.00000000000E+00  0.25426303962E+04  0.25426303962E+04  0.50400001928E-02 0.  1.
       -1   -1    0    0    0  501  0.00000000000E+00  0.00000000000E+00 -0.14948125948E+04  0.14948125948E+04  0.50400001928E-02 0. -1.
    10030    2    1    2    0    0  0.00000000000E+00  0.00000000000E+00  0.10478178013E+04  0.40374429910E+04  0.38991055078E+04 0.  0.
        5    1    3    3  502    0 -0.93930061595E+03 -0.12996082505E+04 -0.62424414770E+03  0.17207469593E+04  0.46999998093E+01 0. -1.
       -5    1    3    3    0  502  0.93930061595E+03  0.12996082505E+04  0.16720619490E+04  0.23166960317E+04  0.46999998093E+01 0.  1.
</event>
<event>
 5   0  0.2904500E-09  0.3901375E+04  0.7818609E-02  0.8024743E-01
       -1   -1    0    0    0  501  0.00000000000E+00  0.00000000000E+00  0.16375782837E+04  0.16375782837E+04  0.50400001928E-02 0. -1.
        1   -1    0    0  501    0  0.00000000000E+00  0.00000000000E+00 -0.23236643896E+04  0.23236643896E+04  0.50400001928E-02 0.  1.
    10030    2    1    2    0    0  0.00000000000E+00  0.00000000000E+00 -0.68608610586E+03  0.39612426733E+04  0.39013753180E+04 0.  0.
        3    1    3    3  502    0 -0.10570153910E+04 -0.92639989746E+03  0.10303718800E+04  0.17427462604E+04  0.10100000352E+00 0. -1.
       -3    1    3    3    0  502  0.10570153910E+04  0.92639989746E+03 -0.17164579858E+04  0.22184964129E+04  0.10100000352E+00 0.  1.
</event>
<event>
 5   0  0.9277261E-09  0.3899473E+04  0.7818609E-02  0.8025139E-01
        2   -1    0    0  501    0  0.00000000000E+00  0.00000000000E+00  0.31021204533E+04  0.31021204533E+04  0.25500000920E-02 0. -1.
       -2   -1    0    0    0  501  0.00000000000E+00  0.00000000000E+00 -0.12254429739E+04  0.12254429739E+04  0.25500000920E-02 0.  1.
    10030    2    1    2    0    0  0.00000000000E+00  0.00000000000E+00  0.18766774794E+04  0.43275634271E+04  0.38994726379E+04 0.  0.
        1    1    3    3  502    0 -0.84781277341E+03 -0.81526232561E+03  0.26640520007E+04  0.29121490726E+04  0.50400001928E-02 0. -1.
       -1    1    3    3    0  502  0.84781277341E+03  0.81526232561E+03 -0.78737452129E+03  0.14154143546E+04  0.50400001928E-02 0.  1.
</event>
<event>
 5   0  0.9368546E-09  0.3900678E+04  0.7818609E-02  0.8024888E-01
       -2   -1    0    0    0  501  0.00000000000E+00  0.00000000000E+00  0.15175676572E+04  0.15175676572E+04  0.25500000920E-02 0. -1.
        2   -1    0    0  501    0  0.00000000000E+00  0.00000000000E+00 -0.25065252718E+04  0.25065252718E+04  0.25500000920E-02 0.  1.
    10030    2    1    2    0    0  0.00000000000E+00  0.00000000000E+00 -0.98895761462E+03  0.40240929291E+04  0.39006777281E+04 0.  0.
        5    1    3    3  502    0 -0.96949783067E+03 -0.14722078957E+04  0.36647819902E+03  0.18004584117E+04  0.46999998093E+01 0. -1.
       -5    1    3    3    0  502  0.96949783067E+03  0.14722078957E+04 -0.13554358136E+04  0.22236345174E+04  0.46999998093E+01 0.  1.
</event>
<event>
 5   0  0.2904500E-09  0.3898614E+04  0.7818609E-02  0.8025318E-01
        1   -1    0    0  501    0  0.00000000000E+00  0.00000000000E+00  0.22079154841E+04  0.22079154841E+04  0.50400001928E-02 0. -1.
       -1   -1    0    0    0  501  0.00000000000E+00  0.00000000000E+00 -0.17209888588E+04  0.17209888588E+04  0.50400001928E-02 0.  1.
    10030    2    1    2    0    0  0.00000000000E+00  0.00000000000E+00  0.48692662532E+03  0.39289043429E+04  0.38986140867E+04 0.  0.
        5    1    3    3  502    0 -0.25512419505E+03  0.16750194914E+04 -0.72787028705E+03  0.18440704694E+04  0.46999998093E+01 0. -1.
       -5    1    3    3    0  502  0.25512419505E+03 -0.16750194914E+04  0.12147969124E+04  0.20848338734E+04  0.46999998093E+01 0.  1.
</event>
<event>
 5   0  0.9434114E-09  0.3902466E+04  0.7818609E-02  0.8024517E-01
       -2   -1    0    0    0  501  0.00000000000E+00  0.00000000000E+00  0.17665097330E+04  0.17665097330E+04  0.25500000920E-02 0. -1.
        2   -1    0    0  501    0  0.00000000000E+00  0.00000000000E+00 -0.21552724461E+04  0.21552724461E+04  0.25500000920E-02 0.  1.
    10030    2    1    2    0    0  0.00000000000E+00  0.00000000000E+00 -0.38876271312E+03  0.39217821791E+04  0.39024657607E+04 0.  0.
        4    1    3    3  502    0 -0.13363441013E+04 -0.62374393831E+03 -0.14783737775E+04  0.20881720946E+04  0.12699999809E+01 0. -1.
       -4    1    3    3    0  502  0.13363441013E+04  0.62374393831E+03  0.10896110644E+04  0.18336100845E+04  0.12699999809E+01 0.  1.
</event>
<event>
 5   0  0.2904500E-09  0.3897256E+04  0.7818609E-02  0.8025600E-01
       -1   -1    0    0    0  501  0.00000000000E+00  0.00000000000E+00  0.16654418697E+04  0.16654418697E+04  0.50400001928E-02 0.  1.
        1   -1    0    0  501    0  0.00000000000E+00  0.00000000000E+00 -0.22799658822E+04  0.22799658822E+04  0.50400001928E-02 0. -1.
    10030    2    1    2    0    0  0.00000000000E+00  0.00000000000E+00 -0.61452401257E+03  0.39454077519E+04  0.38972557738E+04 0.  0.
        4    1    3    3  502    0 -0.72756700065E+03 -0.14150278384E+04 -0.14461017147E+04  0.21500858834E+04  0.12699999809E+01 0. -1.
       -4    1    3    3    0  502  0.72756700065E+03  0.14150278384E+04  0.83157770217E+03  0.17953218685E+04  0.12699999809E+01 0.  1.
</event>
<event>
 5   0  0.9277261E-09  0.3899561E+04  0.7818609E-02  0.8025121E-01
        2   -1    0    0  501    0  0.00000000000E+00  0.00000000000E+00  0.17326846945E+04  0.17326846945E+04  0.25500000920E-02 0.  1.
       -2   -1    0    0    0  501  0.00000000000E+00  0.00000000000E+00 -0.21940769495E+04  0.21940769495E+04  0.25500000920E-02 0. -1.
    10030    2    1    2    0    0  0.00000000000E+00  0.00000000000E+00 -0.46139225504E+03  0.39267616440E+04  0.38995607696E+04 0.  0.
        1    1    3    3  502    0  0.13471412780E+04 -0.54232366547E+03 -0.15408244748E+04  0.21173201561E+04  0.50400001928E-02 0. -1.
       -1    1    3    3    0  502 -0.13471412780E+04  0.54232366547E+03  0.10794322198E+04  0.18094414879E+04  0.50400001928E-02 0.  1.
</event>
<event>
 5   0  0.6335942E-09  0.3901304E+04  0.7818609E-02  0.8024758E-01
       -2   -1    0    0    0  501  0.00000000000E+00  0.00000000000E+00  0.13985504570E+04  0.13985504570E+04  0.25500000920E-02 0.  1.
        2   -1    0    0  501    0  0.00000000000E+00  0.00000000000E+00 -0.27207050213E+04  0.27207050213E+04  0.25500000920E-02 0. -1.
    10030    2    1    2    0    0  0.00000000000E+00  0.00000000000E+00 -0.13221545643E+04  0.41192554783E+04  0.39013040132E+04 0.  0.
        2    1    3    3  502    0 -0.22622277296E+03  0.31697755557E+03  0.13570895042E+04  0.14118581502E+04  0.25500000920E-02 0.  1.
       -2    1    3    3    0  502  0.22622277296E+03 -0.31697755557E+03 -0.26792440685E+04  0.27073973281E+04  0.25500000920E-02 0. -1.
</event>
<event>
 5   0  0.6335942E-09  0.3905256E+04  0.7818609E-02  0.8023937E-01
        2   -1    0    0  501    0  0.00000000000E+00  0.00000000000E+00  0.30693025489E+04  0.30693025489E+04  0.25500000920E-02 0. -1.
       -2   -1    0    0    0  501  0.00000000000E+00  0.00000000000E+00 -0.12422222289E+04  0.12422222289E+04  0.25500000920E-02 0.  1.
    10030    2    1    2    0    0  0.00000000000E+00  0.00000000000E+00  0.18270803200E+04  0.43115247779E+04  0.39052558706E+04 0.  0.
        2    1    3    3  502    0 -0.34078998441E+03 -0.93420797283E+03  0.27687968725E+04  0.29419582715E+04  0.25500000920E-02 0. -1.
       -2    1    3    3    0  502  0.34078998441E+03  0.93420797283E+03 -0.94171655255E+03  0.13695665064E+04  0.25500000920E-02 0.  1.
</event>
<event>
 5   0  0.6335942E-09  0.3900356E+04  0.7818609E-02  0.8024955E-01
       -2   -1    0    0    0  501  0.00000000000E+00  0.00000000000E+00  0.15262156283E+04  0.15262156283E+04  0.25500000920E-02 0. -1.
        2   -1    0    0  501    0  0.00000000000E+00  0.00000000000E+00 -0.24919111272E+04  0.24919111272E+04  0.25500000920E-02 0.  1.
    10030    2    1    2    0    0  0.00000000000E+00  0.00000000000E+00 -0.96569549894E+03  0.40181267555E+04  0.39003557308E+04 0.  0.
        2    1    3    3  502    0 -0.74433523080E+03  0.17405916890E+04 -0.19361943399E+00  0.18930648169E+04  0.25500000920E-02 0. -1.
       -2    1    3    3    0  502  0.74433523080E+03 -0.17405916890E+04 -0.96550187950E+03  0.21250619386E+04  0.25500000920E-02 0.  1.
</event>
<event>
 5   0  0.9277261E-09  0.3901868E+04  0.7818609E-02  0.8024641E-01
        2   -1    0    0  501    0  0.00000000000E+00  0.00000000000E+00  0.25251335613E+04  0.25251335613E+04  0.25500000920E-02 0.  1.
       -2   -1    0    0    0  501  0.00000000000E+00  0.00000000000E+00 -0.15073040202E+04  0.15073040202E+04  0.25500000920E-02 0. -1.
    10030    2    1    2    0    0  0.00000000000E+00  0.00000000000E+00  0.10178295411E+04  0.40324375815E+04  0.39018682543E+04 0.  0.
        1    1    3    3  502    0  0.11671419853E+04 -0.12411541800E+04  0.14912268446E+04  0.22641646615E+04  0.50400001928E-02 0.  1.
       -1    1    3    3    0  502 -0.11671419853E+04  0.12411541800E+04 -0.47339730345E+03  0.17682729199E+04  0.50400001928E-02 0. -1.
</event>
<event>
 5   0  0.2904500E-09  0.3894471E+04  0.7818609E-02  0.8026180E-01
        1   -1    0    0  501    0  0.00000000000E+00  0.00000000000E+00  0.27516892152E+04  0.27516892152E+04  0.50400001928E-02 0. -1.
       -1   -1    0    0    0  501  0.00000000000E+00  0.00000000000E+00 -0.13779632895E+04  0.13779632895E+04  0.50400001928E-02 0.  1.
    10030    2    1    2    0    0  0.00000000000E+00  0.00000000000E+00  0.13737259257E+04  0.41296525047E+04  0.38944713237E+04 0.  0.
        5    1    3    3  502    0  0.29843274915E+03  0.47410500671E+02  0.27266697283E+04  0.27433665010E+04  0.46999998093E+01 0. -1.
       -5    1    3    3    0  502 -0.29843274915E+03 -0.47410500671E+02 -0.13529438026E+04  0.13862860038E+04  0.46999998093E+01 0.  1.
</event>
<event>
 5   0  0.2929054E-09  0.3901380E+04  0.7818609E-02  0.8024742E-01
       -1   -1    0    0    0  501  0.00000000000E+00  0.00000000000E+00  0.14870318078E+04  0.14870318078E+04  0.50400001928E-02 0. -1.
        1   -1    0    0  501    0  0.00000000000E+00  0.00000000000E+00 -0.25589168961E+04  0.25589168961E+04  0.50400001928E-02 0.  1.
    10030    2    1    2    0    0  0.00000000000E+00  0.00000000000E+00 -0.10718850883E+04  0.40459487039E+04  0.39013796626E+04 0.  0.
        1    1    3    3  502    0  0.18949463218E+04 -0.17006104859E+03 -0.98253749976E+03  0.21412898593E+04  0.50400001928E-02 0.  1.
       -1    1    3    3    0  502 -0.18949463218E+04  0.17006104859E+03 -0.89347588570E+02  0.19046588446E+04  0.50400001928E-02 0. -1.
</event>
<event>
 5   0  0.9277261E-09  0.3899631E+04  0.7818609E-02  0.8025106E-01
       -2   -1    0    0    0  501  0.00000000000E+00  0.00000000000E+00  0.14404165129E+04  0.14404165129E+04  0.25500000920E-02 0. -1.
        2   -1    0    0  501    0  0.00000000000E+00  0.00000000000E+00 -0.26393622372E+04  0.26393622372E+04  0.25500000920E-02 0.  1.
    10030    2    1    2    0    0  0.00000000000E+00  0.00000000000E+00 -0.11989457243E+04  0.40797787500E+04  0.38996312389E+04 0.  0.
        1    1    3    3  502    0 -0.46279656757E+03  0.12968804051E+04  0.84477092814E+03  0.16154619677E+04  0.50400001928E-02 0. -1.
       -1    1    3    3    0  502  0.46279656757E+03 -0.12968804051E+04 -0.20437166524E+04  0.24643167823E+04  0.50400001928E-02 0.  1.
</event>
<event>
 5   0  0.2904500E-09  0.3900084E+04  0.7818609E-02  0.8025012E-01
       -1   -1    0    0    0  501  0.00000000000E+00  0.00000000000E+00  0.17668291948E+04  0.17668291948E+04  0.50400001928E-02 0.  1.
        1   -1    0    0  501    0  0.00000000000E+00  0.00000000000E+00 -0.21522531260E+04  0.21522531260E+04  0.50400001928E-02 0. -1.
    10030    2    1    2    0    0  0.00000000000E+00  0.00000000000E+00 -0.38542393118E+03  0.39190823208E+04  0.39000839261E+04 0.  0.
        2    1    3    3  502    0  0.52319696727E+03 -0.13305083539E+04  0.11398989475E+04  0.18284849348E+04  0.25500000920E-02 0.  1.
       -2    1    3    3    0  502 -0.52319696727E+03  0.13305083539E+04 -0.15253228787E+04  0.20905973860E+04  0.25500000920E-02 0. -1.
</event>
<event>
 5   0  0.2904500E-09  0.3899838E+04  0.7818609E-02  0.8025063E-01
        1   -1    0    0  501    0  0.00000000000E+00  0.00000000000E+00  0.27208293894E+04  0.27208293894E+04  0.50400001928E-02 0. -1.
       -1   -1    0    0    0  501  0.00000000000E+00  0.00000000000E+00 -0.13974357370E+04  0.13974357370E+04  0.50400001928E-02 0.  1.
    10030    2    1    2    0    0  0.00000000000E+00  0.00000000000E+00  0.13233936524E+04  0.41182651264E+04  0.38998380597E+04 0.  0.
        3    1    3    3  502    0 -0.16577148586E+04  0.35812859898E+03 -0.35443958716E+03  0.17325998029E+04  0.10100000352E+00 0.  1.
       -3    1    3    3    0  502  0.16577148586E+04 -0.35812859898E+03  0.16778332395E+04  0.23856653235E+04  0.10100000352E+00 0. -1.
</event>
<event>
 5   0  0.2904500E-09  0.3901765E+04  0.7818609E-02  0.8024662E-01
       -1   -1    0    0    0  501  0.00000000000E+00  0.00000000000E+00  0.16460661577E+04  0.16460661577E+04  0.50400001928E-02 0. -1.
        1   -1    0    0  501    0  0.00000000000E+00  0.00000000000E+00 -0.23121442280E+04  0.23121442280E+04  0.50400001928E-02 0.  1.
    10030    2    1    2    0    0  0.00000000000E+00  0.00000000000E+00 -0.66607807033E+03  0.39582103857E+04  0.39017649162E+04 0.  0.
        4    1    3    3  502    0  0.17737804076E+04  0.56156077440E+03 -0.92829268854E+03  0.20792730379E+04  0.12699999809E+01 0.  1.
       -4    1    3    3    0  502 -0.17737804076E+04 -0.56156077440E+03  0.26221461821E+03  0.18789373477E+04  0.12699999809E+01 0. -1.
</event>
<event>
 5   0  0.9434114E-09  0.3898608E+04  0.7818609E-02  0.8025319E-01
       -2   -1    0    0    0  501  0.00000000000E+00  0.00000000000E+00  0.13932874858E+04  0.13932874858E+04  0.25500000920E-02 0.  1.
        2   -1    0    0  501    0  0.00000000000E+00  0.00000000000E+00 -0.27272090260E+04  0.27272090260E+04  0.25500000920E-02 0. -1.
    10030    2    1    2    0    0  0.00000000000E+00  0.00000000000E+00 -0.13339215402E+04  0.41204965119E+04  0.38986080630E+04 0.  0.
        4    1    3    3  502    0 -0.11668940636E+04  0.15592352321E+04 -0.75493475119E+03  0.20887279277E+04  0.12699999809E+01 0. -1.
       -4    1    3    3    0  502  0.11668940636E+04 -0.15592352321E+04 -0.57898678899E+03  0.20317685841E+04  0.12699999809E+01 0.  1.
</event>
<event>
 5   0  0.2904500E-09  0.3898765E+04  0.7818609E-02  0.8025286E-01
        1   -1    0    0  501    0  0.00000000000E+00  0.00000000000E+00  0.12169427867E+04  0.12169427867E+04  0.50400001928E-02 0.  1.
       -1   -1    0    0    0  501  0.00000000000E+00  0.00000000000E+00 -0.31226542299E+04  0.31226542299E+04  0.50400001928E-02 0. -1.
    10030    2    1    2    0    0  0.00000000000E+00  0.00000000000E+00 -0.19057114432E+04  0.43395970167E+04  0.38987646970E+04 0.  0.
        2    1    3    3  502    0  0.55861477630E+03  0.25133158873E+03  0.11070371986E+04  0.12652072537E+04  0.25500000920E-02 0.  1.
       -2    1    3    3    0  502 -0.55861477630E+03 -0.25133158873E+03 -0.30127486418E+04  0.30743897629E+04  0.25500000920E-02 0. -1.
</event>
<event>
 5   0  0.2904500E-09  0.3899595E+04  0.7818609E-02  0.8025113E-01
        1   -1    0    0  501    0  0.00000000000E+00  0.00000000000E+00  0.23778153429E+04  0.23778153429E+04  0.50400001928E-02 0. -1.
       -1   -1    0    0    0  501  0.00000000000E+00  0.00000000000E+00 -0.15988246716E+04  0.15988246716E+04  0.50400001928E-02 0.  1.
    10030    2    1    2    0    0  0.00000000000E+00  0.00000000000E+00  0.77899067130E+03  0.39766400145E+04  0.38995947660E+04 0.  0.
        3    1    3    3  502    0  0.49161506078E+03  0.17660459778E+04 -0.28778475926E+03  0.18556464754E+04  0.10100000352E+00 0.  1.
       -3    1    3    3    0  502 -0.49161506078E+03 -0.17660459778E+04  0.10667754306E+04  0.21209935391E+04  0.10100000352E+00 0. -1.
</event>
<event>
 5   0  0.2904500E-09  0.3900336E+04  0.7818609E-02  0.8024959E-01
        1   -1    0    0  501    0  0.00000000000E+00  0.00000000000E+00  0.26155542698E+04  0.26155542698E+04  0.50400001928E-02 0.  1.
       -1   -1    0    0    0  501  0.00000000000E+00  0.00000000000E+00 -0.14540535136E+04  0.14540535136E+04  0.50400001928E-02 0. -1.
    10030    2    1    2    0    0  0.00000000000E+00  0.00000000000E+00  0.11615007562E+04  0.40696077834E+04  0.39003363322E+04 0.  0.
        5    1    3    3  502    0  0.10056522723E+04 -0.15977171515E+04  0.70553567868E+02  0.18891893725E+04  0.46999998093E+01 0. -1.
       -5    1    3    3    0  502 -0.10056522723E+04  0.15977171515E+04  0.10909471883E+04  0.21804184109E+04  0.46999998093E+01 0.  1.
</event>
<event>
 5   0  0.9277261E-09  0.3901052E+04  0.7818609E-02  0.8024811E-01
       -2   -1    0    0    0  501  0.00000000000E+00  0.00000000000E+00  0.20610681696E+04  0.20610681696E+04  0.25500000920E-02 0. -1.
        2   -1    0    0  501    0  0.00000000000E+00  0.00000000000E+00 -0.18459123051E+04  0.18459123051E+04  0.25500000920E-02 0.  1.
    10030    2    1    2    0    0  0.00000000000E+00  0.00000000000E+00  0.21515586451E+03  0.39069804747E+04  0.39010517022E+04 0.  0.
        1    1    3    3  502    0  0.19222849663E+04 -0.29781872560E+03 -0.36430760931E+02  0.19455597358E+04  0.50400001928E-02 0. -1.
       -1    1    3    3    0  502 -0.19222849663E+04  0.29781872560E+03  0.25158662545E+03  0.19614207389E+04  0.50400001928E-02 0.  1.
</event>
<event>
 5   0  0.2904500E-09  0.3899799E+04  0.7818609E-02  0.8025071E-01
        3   -1    0    0  501    0  0.00000000000E+00  0.00000000000E+00  0.21808285127E+04  0.21808285150E+04  0.10100000352E+00 0. -1.
       -3   -1    0    0    0  501  0.00000000000E+00  0.00000000000E+00 -0.17434235979E+04  0.17434236008E+04  0.10100000352E+00 0.  1.
    10030    2    1    2    0    0  0.00000000000E+00  0.00000000000E+00  0.43740491481E+03  0.39242521159E+04  0.38997989191E+04 0.  0.
        1    1    3    3  502    0 -0.44535784481E+03 -0.94664497695E+03  0.18745073104E+04  0.21466853470E+04  0.50400001928E-02 0. -1.
       -1    1    3    3    0  502  0.44535784481E+03  0.94664497695E+03 -0.14371023956E+04  0.17775667688E+04  0.50400001928E-02 0.  1.
</event>
<event>
 5   0  0.2904500E-09  0.3902649E+04  0.7818609E-02  0.8024478E-01
       -1   -1    0    0    0  501  0.00000000000E+00  0.00000000000E+00  0.16898762548E+04  0.16898762548E+04  0.50400001928E-02 0.  1.
        1   -1    0    0  501    0  0.00000000000E+00  0.00000000000E+00 -0.22532227597E+04  0.22532227597E+04  0.50400001928E-02 0. -1.
    10030    2    1    2    0    0  0.00000000000E+00  0.00000000000E+00 -0.56334650486E+03  0.39430990145E+04  0.39026491712E+04 0.  0.
        5    1    3    3  502    0 -0.12553032747E+04  0.34825960116E+03  0.11861660519E+04  0.17618408140E+04  0.46999998093E+01 0. -1.
       -5    1    3    3    0  502  0.12553032747E+04 -0.34825960116E+03 -0.17495125567E+04  0.21812582005E+04  0.46999998093E+01 0.  1.
</event>
<event>
 5   0  0.6335942E-09  0.3899458E+04  0.7818609E-02  0.8025142E-01
        2   -1    0    0  501    0  0.00000000000E+00  0.00000000000E+00  0.21065111282E+04  0.21065111282E+04  0.25500000920E-02 0.  1.
       -2   -1    0    0    0  501  0.00000000000E+00  0.00000000000E+00 -0.18046158337E+04  0.18046158337E+04  0.25500000920E-02 0. -1.
    10030    2    1    2    0    0  0.00000000000E+00  0.00000000000E+00  0.30189529449E+03  0.39111269619E+04  0.38994580832E+04 0.  0.
        2    1    3    3  502    0  0.10401517417E+04 -0.99045021309E+03 -0.11715335621E+04  0.18534827103E+04  0.25500000920E-02 0. -1.
       -2    1    3    3    0  502 -0.10401517417E+04  0.99045021309E+03  0.14734288566E+04  0.20576442515E+04  0.25500000920E-02 0.  1.
</event>
<event>
 5   0  0.2904500E-09  0.3899838E+04  0.7818609E-02  0.8025063E-01
        1   -1    0    0  501    0  0.00000000000E+00  0.00000000000E+00  0.17986584714E+04  0.17986584714E+04  0.50400001928E-02 0.  1.
       -1   -1    0    0    0  501  0.00000000000E+00  0.00000000000E+00 -0.21139002724E+04  0.21139002724E+04  0.50400001928E-02 0. -1.
    10030    2    1    2    0    0  0.00000000000E+00  0.00000000000E+00 -0.31524180103E+03  0.39125587438E+04  0.38998382698E+04 0.  0.
        2    1    3    3  502    0  0.76324119418E+03 -0.17943308666E+04 -0.15268006387E+03  0.19558812799E+04  0.25500000920E-02 0. -1.
       -2    1    3    3    0  502 -0.76324119418E+03  0.17943308666E+04 -0.16256173716E+03  0.19566774639E+04  0.25500000920E-02 0.  1.
</event>
<event>
 5   0  0.9368546E-09  0.3900388E+04  0.7818609E-02  0.8024948E-01
        2   -1    0    0  501    0  0.00000000000E+00  0.00000000000E+00  0.23387834871E+04  0.23387834871E+04  0.25500000920E-02 0. -1.
       -2   -1    0    0    0  501  0.00000000000E+00  0.00000000000E+00 -0.16261691033E+04  0.16261691033E+04  0.25500000920E-02 0.  1.
    10030    2    1    2    0    0  0.00000000000E+00  0.00000000000E+00  0.71261438375E+03  0.39649525904E+04  0.39003884145E+04 0.  0.
        5    1    3    3  502    0 -0.10162731717E+03  0.26162704960E+03 -0.16055243492E+04  0.16298795509E+04  0.46999998093E+01 0.  1.
       -5    1    3    3    0  502  0.10162731717E+03 -0.26162704960E+03  0.23181387329E+04  0.23350730395E+04  0.46999998093E+01 0. -1.
</event>
<event>
 5   0  0.9434114E-09  0.3900105E+04  0.7818609E-02  0.8025007E-01
        2   -1    0    0  501    0  0.00000000000E+00  0.00000000000E+00  0.19115204683E+04  0.19115204683E+04  0.25500000920E-02 0. -1.
       -2   -1    0    0    0  501  0.00000000000E+00  0.00000000000E+00 -0.19893614618E+04  0.19893614618E+04  0.25500000920E-02 0.  1.
    10030    2    1    2    0    0  0.00000000000E+00  0.00000000000E+00 -0.77840993471E+02  0.39008819301E+04  0.39001052053E+04 0.  0.
        4    1    3    3  502    0 -0.10998229096E+04 -0.82062971121E+03 -0.14247143775E+04  0.19780940892E+04  0.12699999809E+01 0.  1.
       -4    1    3    3    0  502  0.10998229096E+04  0.82062971121E+03  0.13468733841E+04  0.19227878409E+04  0.12699999809E+01 0. -1.
</event>
<event>
 5   0  0.9434114E-09  0.3903760E+04  0.7818609E-02  0.8024248E-01
       -2   -1    0    0    0  501  0.00000000000E+00  0.00000000000E+00  0.16752211880E+04  0.16752211880E+04  0.25500000920E-02 0. -1.
        2   -1    0    0  501    0  0.00000000000E+00  0.00000000000E+00 -0.22742282241E+04  0.22742282241E+04  0.25500000920E-02 0.  1.
    10030    2    1    2    0    0  0.00000000000E+00  0.00000000000E+00 -0.59900703609E+03  0.39494494122E+04  0.39037598837E+04 0.  0.
        4    1    3    3  502    0  0.11530168549E+04 -0.32940344833E+03 -0.18576193536E+04  0.22110417850E+04  0.12699999809E+01 0.  1.
       -4    1    3    3    0  502 -0.11530168549E+04  0.32940344833E+03  0.12586123175E+04  0.17384076271E+04  0.12699999809E+01 0. -1.
</event>
<event>
 5   0  0.2904500E-09  0.3900292E+04  0.7818609E-02  0.8024969E-01
       -1   -1    0    0    0  501  0.00000000000E+00  0.00000000000E+00  0.25305306964E+04  0.25305306964E+04  0.50400001928E-02 0. -1.
        1   -1    0    0  501    0  0.00000000000E+00  0.00000000000E+00 -0.15028738662E+04  0.15028738662E+04  0.50400001928E-02 0.  1.
    10030    2    1    2    0    0  0.00000000000E+00  0.00000000000E+00  0.10276568303E+04  0.40334045626E+04  0.39002915026E+04 0.  0.
        5    1    3    3  502    0 -0.16641354282E+04  0.29871732325E+03 -0.49117664901E+03  0.17606406087E+04  0.46999998093E+01 0.  1.
       -5    1    3    3    0  502  0.16641354282E+04 -0.29871732325E+03  0.15188334793E+04  0.22727639539E+04  0.46999998093E+01 0. -1.
</event>
<event>
 5   0  0.2904500E-09  0.3900295E+04  0.7818609E-02  0.8024968E-01
       -1   -1    0    0    0  501  0.00000000000E+00  0.00000000000E+00  0.20586318251E+04  0.20586318252E+04  0.50400001928E-02 0.  1.
        1   -1    0    0  501    0  0.00000000000E+00  0.00000000000E+00 -0.18473796425E+04  0.18473796425E+04  0.50400001928E-02 0. -1.
    10030    2    1    2    0    0  0.00000000000E+00  0.00000000000E+00  0.21125218265E+03  0.39060114677E+04  0.39002946172E+04 0.  0.
        5    1    3    3  502    0 -0.64822833102E+03  0.11177199886E+04  0.15684362584E+04  0.20321201561E+04  0.46999998093E+01 0.  1.
       -5    1    3    3    0  502  0.64822833102E+03 -0.11177199886E+04 -0.13571840758E+04  0.18738913116E+04  0.46999998093E+01 0. -1.
</event>
<event>
 5   0  0.2904500E-09  0.3899770E+04  0.7818609E-02  0.8025077E-01
        1   -1    0    0  501    0  0.00000000000E+00  0.00000000000E+00  0.17716446581E+04  0.17716446581E+04  0.50400001928E-02 0.  1.
       -1   -1    0    0    0  501  0.00000000000E+00  0.00000000000E+00 -0.21460577557E+04  0.21460577557E+04  0.50400001928E-02 0. -1.
    10030    2    1    2    0    0  0.00000000000E+00  0.00000000000E+00 -0.37441309761E+03  0.39177024139E+04  0.38997701260E+04 0.  0.
        5    1    3    3  502    0  0.10348603185E+04  0.15991694374E+04  0.23154455831E+03  0.19188313477E+04  0.46999998093E+01 0.  1.
       -5    1    3    3    0  502 -0.10348603185E+04 -0.15991694374E+04 -0.60595765592E+03  0.19988710662E+04  0.46999998093E+01 0. -1.
</event>
<event>
 5   0  0.9434114E-09  0.3891182E+04  0.7818609E-02  0.8026866E-01
        2   -1    0    0  501    0  0.00000000000E+00  0.00000000000E+00  0.25433268492E+04  0.25433268492E+04  0.25500000920E-02 0. -1.
       -2   -1    0    0    0  501  0.00000000000E+00  0.00000000000E+00 -0.14883359180E+04  0.14883359180E+04  0.25500000920E-02 0.  1.
    10030    2    1    2    0    0  0.00000000000E+00  0.00000000000E+00  0.10549909313E+04  0.40316627672E+04  0.38911821858E+04 0.  0.
        4    1    3    3  502    0 -0.15791530144E+04 -0.73837330770E+03 -0.36764156925E+03  0.17815951618E+04  0.12699999809E+01 0.  1.
       -4    1    3    3    0  502  0.15791530144E+04  0.73837330770E+03  0.14226325005E+04  0.22500676054E+04  0.12699999809E+01 0. -1.
</event>
<event>
 5   0  0.9078515E-09  0.3898542E+04  0.7818609E-02  0.8025333E-01
       -2   -1    0    0    0  501  0.00000000000E+00  0.00000000000E+00  0.12462003324E+04  0.12462003324E+04  0.25500000920E-02 0.  1.
        2   -1    0    0  501    0  0.00000000000E+00  0.00000000000E+00 -0.30489938346E+04  0.30489938346E+04  0.25500000920E-02 0. -1.
    10030    2    1    2    0    0  0.00000000000E+00  0.00000000000E+00 -0.18027935022E+04  0.42951941670E+04  0.38985418454E+04 0.  0.
        3    1    3    3  502    0  0.91994726060E+03  0.93262119736E+03  0.68892442799E+03  0.14801020700E+04  0.10100000352E+00 0.  1.
       -3    1    3    3    0  502 -0.91994726060E+03 -0.93262119736E+03 -0.24917179302E+04  0.28150920969E+04  0.10100000352E+00 0. -1.
</event>
<event>
 5   0  0.2904500E-09  0.3899032E+04  0.7818609E-02  0.8025231E-01
       -1   -1    0    0    0  501  0.00000000000E+00  0.00000000000E+00  0.14438476913E+04  0.14438476913E+04  0.50400001928E-02 0. -1.
        1   -1    0    0  501    0  0.00000000000E+00  0.00000000000E+00 -0.26322803772E+04  0.26322803772E+04  0.50400001928E-02 0.  1.
    10030    2    1    2    0    0  0.00000000000E+00  0.00000000000E+00 -0.11884326858E+04  0.40761280685E+04  0.38990316467E+04 0.  0.
        3    1    3    3  502    0 -0.50604279371E+03  0.19559913662E+03 -0.25517712920E+04  0.26088072118E+04  0.10100000352E+00 0.  1.
       -3    1    3    3    0  502  0.50604279371E+03 -0.19559913662E+03  0.13633386062E+04  0.14673208567E+04  0.10100000352E+00 0. -1.
</event>
<event>
 5   0  0.6335942E-09  0.3899209E+04  0.7818609E-02  0.8025194E-01
        2   -1    0    0  501    0  0.00000000000E+00  0.00000000000E+00  0.25081818790E+04  0.25081818790E+04  0.25500000920E-02 0.  1.
       -2   -1    0    0    0  501  0.00000000000E+00  0.00000000000E+00 -0.15154236049E+04  0.15154236049E+04  0.25500000920E-02 0. -1.
    10030    2    1    2    0    0  0.00000000000E+00  0.00000000000E+00  0.99275827414E+03  0.40236054838E+04  0.38992091632E+04 0.  0.
        2    1    3    3  502    0  0.84072814827E+02  0.15814841234E+04 -0.67690757830E+03  0.17223136011E+04  0.25500000920E-02 0. -1.
       -2    1    3    3    0  502 -0.84072814827E+02 -0.15814841234E+04  0.16696658524E+04  0.23012918828E+04  0.25500000920E-02 0.  1.
</event>
<event>
 5   0  0.9277261E-09  0.3899785E+04  0.7818609E-02  0.8025074E-01
       -2   -1    0    0    0  501  0.00000000000E+00  0.00000000000E+00  0.16571742084E+04  0.16571742084E+04  0.25500000920E-02 0. -1.
        2   -1    0    0  501    0  0.00000000000E+00  0.00000000000E+00 -0.22943159188E+04  0.22943159188E+04  0.25500000920E-02 0.  1.
    10030    2    1    2    0    0  0.00000000000E+00  0.00000000000E+00 -0.63714171040E+03  0.39514901272E+04  0.38997852077E+04 0.  0.
        1    1    3    3  502    0  0.92212157182E+03  0.13878150812E+04 -0.13447881766E+04  0.21412132385E+04  0.50400001928E-02 0.  1.
       -1    1    3    3    0  502 -0.92212157182E+03 -0.13878150812E+04  0.70764646622E+03  0.18102768887E+04  0.50400001928E-02 0. -1.
</event>
<event>
 5   0  0.2929054E-09  0.3900288E+04  0.7818609E-02  0.8024969E-01
       -1   -1    0    0    0  501  0.00000000000E+00  0.00000000000E+00  0.21504587106E+04  0.21504587107E+04  0.50400001928E-02 0. -1.
        1   -1    0    0  501    0  0.00000000000E+00  0.00000000000E+00 -0.17684882449E+04  0.17684882449E+04  0.50400001928E-02 0.  1.
    10030    2    1    2    0    0  0.00000000000E+00  0.00000000000E+00  0.38197046571E+03  0.39189469556E+04  0.39002876566E+04 0.  0.
        1    1    3    3  502    0  0.12756462444E+04  0.13444879826E+04  0.80063310007E+03  0.20188944096E+04  0.50400001928E-02 0. -1.
       -1    1    3    3    0  502 -0.12756462444E+04 -0.13444879826E+04 -0.41866263436E+03  0.19000525460E+04  0.50400001928E-02 0.  1.
</event>
<event>
 5   0  0.9078515E-09  0.3899654E+04  0.7818609E-02  0.8025101E-01
       -2   -1    0    0    0  501  0.00000000000E+00  0.00000000000E+00  0.13382402568E+04  0.13382402568E+04  0.25500000920E-02 0. -1.
        2   -1    0    0  501    0  0.00000000000E+00  0.00000000000E+00 -0.28409145375E+04  0.28409145375E+04  0.25500000920E-02 0.  1.
    10030    2    1    2    0    0  0.00000000000E+00  0.00000000000E+00 -0.15026742808E+04  0.41791547943E+04  0.38996544463E+04 0.  0.
        3    1    3    3  502    0 -0.23693172263E+03 -0.14519934133E+04  0.61998770783E+03  0.15964981308E+04  0.10100000352E+00 0. -1.
       -3    1    3    3    0  502  0.23693172263E+03  0.14519934133E+04 -0.21226619886E+04  0.25826566635E+04  0.10100000352E+00 0.  1.
</event>
<event>
 5   0  0.2904500E-09  0.3896927E+04  0.7818609E-02  0.8025669E-01
       -1   -1    0    0    0  501  0.00000000000E+00  0.00000000000E+00  0.20870149441E+04  0.20870149441E+04  0.50400001928E-02 0. -1.
        1   -1    0    0  501    0  0.00000000000E+00  0.00000000000E+00 -0.18191101834E+04  0.18191101834E+04  0.50400001928E-02 0.  1.
    10030    2    1    2    0    0  0.00000000000E+00  0.00000000000E+00  0.26790476064E+03  0.39061251275E+04  0.38969270652E+04 0.  0.
        3    1    3    3  502    0  0.24993103994E+03  0.16831056035E+03  0.20635197628E+04  0.20854035080E+04  0.10100000352E+00 0. -1.
       -3    1    3    3    0  502 -0.24993103994E+03 -0.16831056035E+03 -0.17956150022E+04  0.18207216195E+04  0.10100000352E+00 0.  1.
</event>
<event>
 5   0  0.2904500E-09  0.3901041E+04  0.7818609E-02  0.8024813E-01
       -1   -1    0    0    0  501  0.00000000000E+00  0.00000000000E+00  0.13088194002E+04  0.13088194002E+04  0.50400001928E-02 0. -1.
        1   -1    0    0  501    0  0.00000000000E+00  0.00000000000E+00 -0.29068415581E+04  0.29068415581E+04  0.50400001928E-02 0.  1.
    10030    2    1    2    0    0  0.00000000000E+00  0.00000000000E+00 -0.15980221579E+04  0.42156609583E+04  0.39010412069E+04 0.  0.
        5    1    3    3  502    0  0.39274161249E+03 -0.11656160274E+04 -0.24349034188E+04  0.27279449126E+04  0.46999998093E+01 0.  1.
       -5    1    3    3    0  502 -0.39274161249E+03  0.11656160274E+04  0.83688126092E+03  0.14877160456E+04  0.46999998093E+01 0. -1.
</event>
<event>
 5   0  0.2929054E-09  0.3892388E+04  0.7818609E-02  0.8026614E-01
        1   -1    0    0  501    0  0.00000000000E+00  0.00000000000E+00  0.26952961169E+04  0.26952961169E+04  0.50400001928E-02 0.  1.
       -1   -1    0    0    0  501  0.00000000000E+00  0.00000000000E+00 -0.14052894764E+04  0.14052894764E+04  0.50400001928E-02 0. -1.
    10030    2    1    2    0    0  0.00000000000E+00  0.00000000000E+00  0.12900066405E+04  0.41005855934E+04  0.38923880942E+04 0.  0.
        1    1    3    3  502    0  0.63647861157E+03  0.12907249190E+04  0.20252722817E+04  0.24845127600E+04  0.50400001928E-02 0.  1.
       -1    1    3    3    0  502 -0.63647861157E+03 -0.12907249190E+04 -0.73526564120E+03  0.16160728333E+04  0.50400001928E-02 0. -1.
</event>
<event>
 5   0  0.2929054E-09  0.3879207E+04  0.7818609E-02  0.8029368E-01
        1   -1    0    0  501    0  0.00000000000E+00  0.00000000000E+00  0.14582082524E+04  0.14582082524E+04  0.50400001928E-02 0.  1.
       -1   -1    0    0    0  501  0.00000000000E+00  0.00000000000E+00 -0.25799212974E+04  0.25799212974E+04  0.50400001928E-02 0. -1.
    10030    2    1    2    0    0  0.00000000000E+00  0.00000000000E+00 -0.11217130450E+04  0.40381295498E+04  0.38792074069E+04 0.  0.
        1    1    3    3  502    0  0.14308341138E+04  0.33348202382E+03  0.75734153628E+03  0.16528952550E+04  0.50400001928E-02 0.  1.
       -1    1    3    3    0  502 -0.14308341138E+04 -0.33348202382E+03 -0.18790545812E+04  0.23852342947E+04  0.50400001928E-02 0. -1.
</event>
<event>
 5   0  0.9078515E-09  0.3900903E+04  0.7818609E-02  0.8024842E-01
        2   -1    0    0  501    0  0.00000000000E+00  0.00000000000E+00  0.16922756157E+04  0.16922756157E+04  0.25500000920E-02 0. -1.
       -2   -1    0    0    0  501  0.00000000000E+00  0.00000000000E+00 -0.22480144935E+04  0.22480144935E+04  0.25500000920E-02 0.  1.
    10030    2    1    2    0    0  0.00000000000E+00  0.00000000000E+00 -0.55573887783E+03  0.39402901092E+04  0.39009025166E+04 0.  0.
        3    1    3    3  502    0 -0.37694167881E+03  0.21124150652E+03 -0.21990602386E+04  0.22411099809E+04  0.10100000352E+00 0.  1.
       -3    1    3    3    0  502  0.37694167881E+03 -0.21124150652E+03  0.16433213608E+04  0.16991801283E+04  0.10100000352E+00 0. -1.
</event>
<event>
 5   0  0.2929054E-09  0.3898841E+04  0.7818609E-02  0.8025270E-01
        1   -1    0    0  501    0  0.00000000000E+00  0.00000000000E+00  0.21181225847E+04  0.21181225847E+04  0.50400001928E-02 0. -1.
       -1   -1    0    0    0  501  0.00000000000E+00  0.00000000000E+00 -0.17941551464E+04  0.17941551464E+04  0.50400001928E-02 0.  1.
    10030    2    1    2    0    0  0.00000000000E+00  0.00000000000E+00  0.32396743833E+03  0.39122777311E+04  0.38988411283E+04 0.  0.
        1    1    3    3  502    0  0.84735406590E+03  0.39112265492E+03  0.18793886520E+04  0.20983535330E+04  0.50400001928E-02 0. -1.
       -1    1    3    3    0  502 -0.84735406590E+03 -0.39112265492E+03 -0.15554212137E+04  0.18139241980E+04  0.50400001928E-02 0.  1.
</event>
<event>
 5   0  0.2904500E-09  0.3900598E+04  0.7818609E-02  0.8024905E-01
        1   -1    0    0  501    0  0.00000000000E+00  0.00000000000E+00  0.30629311583E+04  0.30629311583E+04  0.50400001928E-02 0.  1.
       -1   -1    0    0    0  501  0.00000000000E+00  0.00000000000E+00 -0.12418388841E+04  0.12418388841E+04  0.50400001928E-02 0. -1.
    10030    2    1    2    0    0  0.00000000000E+00  0.00000000000E+00  0.18210922742E+04  0.43047700424E+04  0.39005984217E+04 0.  0.
        2    1    3    3  502    0  0.17762923155E+04  0.12286263417E+03  0.17888466549E+04  0.25239417529E+04  0.25500000920E-02 0.  1.
       -2    1    3    3    0  502 -0.17762923155E+04 -0.12286263417E+03  0.32245619275E+02  0.17808282896E+04  0.25500000920E-02 0. -1.
</event>
<event>
 5   0  0.2904500E-09  0.3899728E+04  0.7818609E-02  0.8025086E-01
        1   -1    0    0  501    0  0.00000000000E+00  0.00000000000E+00  0.20837015693E+04  0.20837015693E+04  0.50400001928E-02 0.  1.
       -1   -1    0    0    0  501  0.00000000000E+00  0.00000000000E+00 -0.18246228957E+04  0.18246228957E+04  0.50400001928E-02 0. -1.
    10030    2    1    2    0    0  0.00000000000E+00  0.00000000000E+00  0.25907867363E+03  0.39083244650E+04  0.38997279860E+04 0.  0.
        3    1    3    3  502    0  0.59319769717E+03 -0.54180381517E+03  0.19101197017E+04  0.20721950119E+04  0.10100000352E+00 0.  1.
       -3    1    3    3    0  502 -0.59319769717E+03  0.54180381517E+03 -0.16510410281E+04  0.18361294531E+04  0.10100000352E+00 0. -1.
</event>
<event>
 5   0  0.9434114E-09  0.3894953E+04  0.7818609E-02  0.8026080E-01
       -2   -1    0    0    0  501  0.00000000000E+00  0.00000000000E+00  0.26427544413E+04  0.26427544413E+04  0.25500000920E-02 0.  1.
        2   -1    0    0  501    0  0.00000000000E+00  0.00000000000E+00 -0.14351182455E+04  0.14351182455E+04  0.25500000920E-02 0. -1.
    10030    2    1    2    0    0  0.00000000000E+00  0.00000000000E+00  0.12076361958E+04  0.40778726868E+04  0.38949532049E+04 0.  0.
        4    1    3    3  502    0 -0.10710798491E+04  0.58170175069E+03 -0.98642028334E+03  0.15679973081E+04  0.12699999809E+01 0. -1.
       -4    1    3    3    0  502  0.10710798491E+04 -0.58170175069E+03  0.21940564792E+04  0.25098753787E+04  0.12699999809E+01 0.  1.
</event>
<event>
 5   0  0.9078515E-09  0.3877864E+04  0.7818609E-02  0.8029649E-01
       -2   -1    0    0    0  501  0.00000000000E+00  0.00000000000E+00  0.14661197115E+04  0.14661197115E+04  0.25500000920E-02 0. -1.
        2   -1    0    0  501    0  0.00000000000E+00  0.00000000000E+00 -0.25642225231E+04  0.25642225231E+04  0.25500000920E-02 0.  1.
    10030    2    1    2    0    0  0.00000000000E+00  0.00000000000E+00 -0.10981028116E+04  0.40303422346E+04  0.38778639408E+04 0.  0.
        3    1    3    3  502    0  0.16313306063E+04  0.10465681816E+04 -0.49296017317E+03  0.19998885590E+04  0.10100000352E+00 0.  1.
       -3    1    3    3    0  502 -0.16313306063E+04 -0.10465681816E+04 -0.60514263847E+03  0.20304536756E+04  0.10100000352E+00 0. -1.
</event>
<event>
 5   0  0.2904500E-09  0.3927054E+04  0.7818609E-02  0.8019426E-01
       -1   -1    0    0    0  501  0.00000000000E+00  0.00000000000E+00  0.11655232463E+04  0.11655232463E+04  0.50400001928E-02 0.  1.
        1   -1    0    0  501    0  0.00000000000E+00  0.00000000000E+00 -0.33079033510E+04  0.33079033510E+04  0.50400001928E-02 0. -1.
    10030    2    1    2    0    0  0.00000000000E+00  0.00000000000E+00 -0.21423801046E+04  0.44734265973E+04  0.39270539859E+04 0.  0.
        4    1    3    3  502    0  0.16532038903E+04 -0.10348791463E+04 -0.13293952334E+04  0.23603709983E+04  0.12699999809E+01 0.  1.
       -4    1    3    3    0  502 -0.16532038903E+04  0.10348791463E+04 -0.81298487126E+03  0.21130555989E+04  0.12699999809E+01 0. -1.
</event>
<event>
 5   0  0.9368546E-09  0.3895492E+04  0.7818609E-02  0.8025967E-01
        2   -1    0    0  501    0  0.00000000000E+00  0.00000000000E+00  0.25518696968E+04  0.25518696968E+04  0.25500000920E-02 0. -1.
       -2   -1    0    0    0  501  0.00000000000E+00  0.00000000000E+00 -0.14866413187E+04  0.14866413187E+04  0.25500000920E-02 0.  1.
    10030    2    1    2    0    0  0.00000000000E+00  0.00000000000E+00  0.10652283781E+04  0.40385110155E+04  0.38954922314E+04 0.  0.
        5    1    3    3  502    0  0.15051852019E+04  0.12230946073E+04  0.34672721848E+03  0.19702245467E+04  0.46999998093E+01 0.  1.
       -5    1    3    3    0  502 -0.15051852019E+04 -0.12230946073E+04  0.71850115957E+03  0.20682864687E+04  0.46999998093E+01 0. -1.
</event>
<event>
 5   0  0.2904500E-09  0.3908682E+04  0.7818609E-02  0.8023226E-01
       -1   -1    0    0    0  501  0.00000000000E+00  0.00000000000E+00  0.27268939651E+04  0.27268939651E+04  0.50400001928E-02 0. -1.
        1   -1    0    0  501    0  0.00000000000E+00  0.00000000000E+00 -0.14006590235E+04  0.14006590235E+04  0.50400001928E-02 0.  1.
    10030    2    1    2    0    0  0.00000000000E+00  0.00000000000E+00  0.13262349416E+04  0.41275529885E+04  0.39086819457E+04 0.  0.
        2    1    3    3  502    0  0.25520617501E+03  0.18412679191E+04  0.25964992001E+02  0.18590513501E+04  0.25500000920E-02 0.  1.
       -2    1    3    3    0  502 -0.25520617501E+03 -0.18412679191E+04  0.13002699496E+04  0.22685016384E+04  0.25500000920E-02 0. -1.
</event>
<event>
 5   0  0.2929054E-09  0.3899289E+04  0.7818609E-02  0.8025177E-01
        1   -1    0    0  501    0  0.00000000000E+00  0.00000000000E+00  0.28708218487E+04  0.28708218487E+04  0.50400001928E-02 0. -1.
       -1   -1    0    0    0  501  0.00000000000E+00  0.00000000000E+00 -0.13240504845E+04  0.13240504845E+04  0.50400001928E-02 0.  1.
    10030    2    1    2    0    0  0.00000000000E+00  0.00000000000E+00  0.15467713642E+04  0.41948723331E+04  0.38992886836E+04 0.  0.
        1    1    3    3  502    0 -0.11668599204E+04  0.30435074676E+03  0.24214822330E+04  0.27051372711E+04  0.50400001928E-02 0. -1.
       -1    1    3    3    0  502  0.11668599204E+04 -0.30435074676E+03 -0.87471086885E+03  0.14897350620E+04  0.50400001928E-02 0.  1.
</event>
<event>
 5   0  0.2904500E-09  0.3930470E+04  0.7818609E-02  0.8018722E-01
       -1   -1    0    0    0  501  0.00000000000E+00  0.00000000000E+00  0.29317427203E+04  0.29317427203E+04  0.50400001928E-02 0.  1.
        1   -1    0    0  501    0  0.00000000000E+00  0.00000000000E+00 -0.13173560066E+04  0.13173560066E+04  0.50400001928E-02 0. -1.
    10030    2    1    2    0    0  0.00000000000E+00  0.00000000000E+00  0.16143867137E+04  0.42490987269E+04  0.39304701410E+04 0.  0.
        5    1    3    3  502    0 -0.14985328658E+04  0.65688599365E+03  0.19840306241E+04  0.25716725231E+04  0.46999998093E+01 0.  1.
       -5    1    3    3    0  502  0.14985328658E+04 -0.65688599365E+03 -0.36964391041E+03  0.16774262038E+04  0.46999998093E+01 0. -1.
</event>
<event>
 5   0  0.2904500E-09  0.3899430E+04  0.7818609E-02  0.8025148E-01
        1   -1    0    0  501    0  0.00000000000E+00  0.00000000000E+00  0.10910436153E+04  0.10910436153E+04  0.50400001928E-02 0.  1.
       -1   -1    0    0    0  501  0.00000000000E+00  0.00000000000E+00 -0.34841773443E+04  0.34841773443E+04  0.50400001928E-02 0. -1.
    10030    2    1    2    0    0  0.00000000000E+00  0.00000000000E+00 -0.23931337290E+04  0.45752209597E+04  0.38994304436E+04 0.  0.
        4    1    3    3  502    0  0.10629354558E+03  0.16701183192E+04 -0.22796041049E+02  0.16736531273E+04  0.12699999809E+01 0.  1.
       -4    1    3    3    0  502 -0.10629354558E+03 -0.16701183192E+04 -0.23703376880E+04  0.29015678324E+04  0.12699999809E+01 0. -1.
</event>
<event>
 5   0  0.9434114E-09  0.3899441E+04  0.7818609E-02  0.8025145E-01
       -2   -1    0    0    0  501  0.00000000000E+00  0.00000000000E+00  0.14238718174E+04  0.14238718174E+04  0.25500000920E-02 0. -1.
        2   -1    0    0  501    0  0.00000000000E+00  0.00000000000E+00 -0.26697699513E+04  0.26697699513E+04  0.25500000920E-02 0.  1.
    10030    2    1    2    0    0  0.00000000000E+00  0.00000000000E+00 -0.12458981340E+04  0.40936417687E+04  0.38994410843E+04 0.  0.
        4    1    3    3  502    0 -0.63779652358E+03  0.70757003695E+02  0.13098327287E+04  0.14585795656E+04  0.12699999809E+01 0. -1.
       -4    1    3    3    0  502  0.63779652358E+03 -0.70757003695E+02 -0.25557308626E+04  0.26350622031E+04  0.12699999809E+01 0.  1.
</event>
<event>
 5   0  0.2904500E-09  0.3897457E+04  0.7818609E-02  0.8025558E-01
       -3   -1    0    0    0  501  0.00000000000E+00  0.00000000000E+00  0.12388528008E+04  0.12388528049E+04  0.10100000352E+00 0. -1.
        3   -1    0    0  501    0  0.00000000000E+00  0.00000000000E+00 -0.30653704703E+04  0.30653704719E+04  0.10100000352E+00 0.  1.
    10030    2    1    2    0    0  0.00000000000E+00  0.00000000000E+00 -0.18265176695E+04  0.43042232768E+04  0.38974570196E+04 0.  0.
        5    1    3    3  502    0  0.86379804943E+03 -0.11900386636E+04  0.49894197497E+03  0.15528374916E+04  0.46999998093E+01 0. -1.
       -5    1    3    3    0  502 -0.86379804943E+03  0.11900386636E+04 -0.23254596444E+04  0.27513857852E+04  0.46999998093E+01 0.  1.
</event>
<event>
 5   0  0.6335942E-09  0.3898646E+04  0.7818609E-02  0.8025311E-01
       -2   -1    0    0    0  501  0.00000000000E+00  0.00000000000E+00  0.13438986458E+04  0.13438986458E+04  0.25500000920E-02 0.  1.
        2   -1    0    0  501    0  0.00000000000E+00  0.00000000000E+00 -0.28274905301E+04  0.28274905301E+04  0.25500000920E-02 0. -1.
    10030    2    1    2    0    0  0.00000000000E+00  0.00000000000E+00 -0.14835918843E+04  0.41713891759E+04  0.38986462750E+04 0.  0.
        2    1    3    3  502    0 -0.11621209282E+04 -0.14932952115E+04 -0.12429718552E+04  0.22639422857E+04  0.25500000920E-02 0. -1.
       -2    1    3    3    0  502  0.11621209282E+04  0.14932952115E+04 -0.24062002906E+03  0.19074468902E+04  0.25500000920E-02 0.  1.
</event>
<event>
 5   0  0.2929054E-09  0.3900090E+04  0.7818609E-02  0.8025010E-01
        1   -1    0    0  501    0  0.00000000000E+00  0.00000000000E+00  0.15891278055E+04  0.15891278055E+04  0.50400001928E-02 0.  1.
       -1   -1    0    0    0  501  0.00000000000E+00  0.00000000000E+00 -0.23929330686E+04  0.23929330686E+04  0.50400001928E-02 0. -1.
    10030    2    1    2    0    0  0.00000000000E+00  0.00000000000E+00 -0.80380526318E+03  0.39820608741E+04  0.39000904995E+04 0.  0.
        1    1    3    3  502    0  0.29743608377E+02 -0.10641695096E+04  0.12662460422E+04  0.16543036199E+04  0.50400001928E-02 0.  1.
       -1    1    3    3    0  502 -0.29743608377E+02  0.10641695096E+04 -0.20700513054E+04  0.23277572542E+04  0.50400001928E-02 0. -1.
</event>
<event>
 5   0  0.2904500E-09  0.3899230E+04  0.7818609E-02  0.8025189E-01
        1   -1    0    0  501    0  0.00000000000E+00  0.00000000000E+00  0.24134877264E+04  0.24134877264E+04  0.50400001928E-02 0. -1.
       -1   -1    0    0    0  501  0.00000000000E+00  0.00000000000E+00 -0.15748989286E+04  0.15748989286E+04  0.50400001928E-02 0.  1.
    10030    2    1    2    0    0  0.00000000000E+00  0.00000000000E+00  0.83858879775E+03  0.39883866550E+04  0.38992303007E+04 0.  0.
        2    1    3    3  502    0  0.11611643092E+04  0.78249232824E+03 -0.96833907459E+03  0.17024327770E+04  0.25500000920E-02 0.  1.
       -2    1    3    3    0  502 -0.11611643092E+04 -0.78249232824E+03  0.18069278723E+04  0.22859538780E+04  0.25500000920E-02 0. -1.
</event>
<event>
 5   0  0.9434114E-09  0.3904545E+04  0.7818609E-02  0.8024085E-01
        2   -1    0    0  501    0  0.00000000000E+00  0.00000000000E+00  0.20499199496E+04  0.20499199496E+04  0.25500000920E-02 0.  1.
       -2   -1    0    0    0  501  0.00000000000E+00  0.00000000000E+00 -0.18592765851E+04  0.18592765852E+04  0.25500000920E-02 0. -1.
    10030    2    1    2    0    0  0.00000000000E+00  0.00000000000E+00  0.19064336440E+03  0.39091965347E+04  0.39045451277E+04 0.  0.
        4    1    3    3  502    0 -0.51546412148E+03 -0.16212949523E+03  0.19735568751E+04  0.20461958816E+04  0.12699999809E+01 0.  1.
       -4    1    3    3    0  502  0.51546412148E+03  0.16212949523E+03 -0.17829135107E+04  0.18630006531E+04  0.12699999809E+01 0. -1.
</event>
<event>
 5   0  0.9434114E-09  0.3900672E+04  0.7818609E-02  0.8024889E-01
        2   -1    0    0  501    0  0.00000000000E+00  0.00000000000E+00  0.24897184473E+04  0.24897184473E+04  0.25500000920E-02 0. -1.
       -2   -1    0    0    0  501  0.00000000000E+00  0.00000000000E+00 -0.15278074208E+04  0.15278074208E+04  0.25500000920E-02 0.  1.
    10030    2    1    2    0    0  0.00000000000E+00  0.00000000000E+00  0.96191102659E+03  0.40175258681E+04  0.39006719008E+04 0.  0.
        4    1    3    3  502    0  0.68586198132E+03 -0.80050848088E+02  0.23596028579E+04  0.24585650399E+04  0.12699999809E+01 0. -1.
       -4    1    3    3    0  502 -0.68586198132E+03  0.80050848088E+02 -0.13976918313E+04  0.15589608282E+04  0.12699999809E+01 0.  1.
</event>
<event>
 5   0  0.9368546E-09  0.3898849E+04  0.7818609E-02  0.8025269E-01
        2   -1    0    0  501    0  0.00000000000E+00  0.00000000000E+00  0.16539933511E+04  0.16539933511E+04  0.25500000920E-02 0.  1.
       -2   -1    0    0    0  501  0.00000000000E+00  0.00000000000E+00 -0.22976242415E+04  0.22976242415E+04  0.25500000920E-02 0. -1.
    10030    2    1    2    0    0  0.00000000000E+00  0.00000000000E+00 -0.64363089043E+03  0.39516175925E+04  0.38988486601E+04 0.  0.
        5    1    3    3  502    0  0.65990721872E+03 -0.55329389326E+02  0.15364923052E+04  0.16731316662E+04  0.46999998093E+01 0.  1.
       -5    1    3    3    0  502 -0.65990721872E+03  0.55329389326E+02 -0.21801231956E+04  0.22784859263E+04  0.46999998093E+01 0. -1.
</event>
<event>
 5   0  0.9277261E-09  0.3900021E+04  0.7818609E-02  0.8025025E-01
        2   -1    0    0  501    0  0.00000000000E+00  0.00000000000E+00  0.29002512293E+04  0.29002512293E+04  0.25500000920E-02 0. -1.
       -2   -1    0    0    0  501  0.00000000000E+00  0.00000000000E+00 -0.13111077303E+04  0.13111077303E+04  0.25500000920E-02 0.  1.
    10030    2    1    2    0    0  0.00000000000E+00  0.00000000000E+00  0.15891434990E+04  0.42113589597E+04  0.39000214393E+04 0.  0.
        1    1    3    3  502    0 -0.53183327065E+03  0.18178038736E+04  0.29354443689E+03  0.19166183468E+04  0.50400001928E-02 0.  1.
       -1    1    3    3    0  502  0.53183327065E+03 -0.18178038736E+04  0.12955990621E+04  0.22947406129E+04  0.50400001928E-02 0. -1.
</event>
<event>
 5   0  0.2904500E-09  0.3902336E+04  0.7818609E-02  0.8024544E-01
        1   -1    0    0  501    0  0.00000000000E+00  0.00000000000E+00  0.18957910769E+04  0.18957910769E+04  0.50400001928E-02 0. -1.
       -1   -1    0    0    0  501  0.00000000000E+00  0.00000000000E+00 -0.20081622112E+04  0.20081622112E+04  0.50400001928E-02 0.  1.
    10030    2    1    2    0    0  0.00000000000E+00  0.00000000000E+00 -0.11237113427E+03  0.39039532882E+04  0.39023357114E+04 0.  0.
        5    1    3    3  502    0 -0.43343816317E+03  0.57910485291E+03  0.17566921934E+04  0.18997948900E+04  0.46999998093E+01 0. -1.
       -5    1    3    3    0  502  0.43343816317E+03 -0.57910485291E+03 -0.18690633276E+04  0.20041583981E+04  0.46999998093E+01 0.  1.
</event>
<event>
 5   0  0.9078515E-09  0.3896833E+04  0.7818609E-02  0.8025688E-01
       -2   -1    0    0    0  501  0.00000000000E+00  0.00000000000E+00  0.26765555866E+04  0.26765555866E+04  0.25500000920E-02 0. -1.
        2   -1    0    0  501    0  0.00000000000E+00  0.00000000000E+00 -0.14183626435E+04  0.14183626435E+04  0.25500000920E-02 0.  1.
    10030    2    1    2    0    0  0.00000000000E+00  0.00000000000E+00  0.12581929431E+04  0.40949182301E+04  0.38968327947E+04 0.  0.
        3    1    3    3  502    0  0.98390986690E+03 -0.10565522701E+04 -0.74582654375E+03  0.16250041751E+04  0.10100000352E+00 0.  1.
       -3    1    3    3    0  502 -0.98390986690E+03  0.10565522701E+04  0.20040194868E+04  0.24699140550E+04  0.10100000352E+00 0. -1.
</event>
<event>
 5   0  0.9368546E-09  0.3901316E+04  0.7818609E-02  0.8024755E-01
       -2   -1    0    0    0  501  0.00000000000E+00  0.00000000000E+00  0.22555551917E+04  0.22555551917E+04  0.25500000920E-02 0. -1.
        2   -1    0    0  501    0  0.00000000000E+00  0.00000000000E+00 -0.16869760534E+04  0.16869760535E+04  0.25500000920E-02 0.  1.
    10030    2    1    2    0    0  0.00000000000E+00  0.00000000000E+00  0.56857913824E+03  0.39425312451E+04  0.39013164935E+04 0.  0.
        5    1    3    3  502    0  0.10456916494E+04  0.16446770513E+04  0.20211709999E+03  0.19594149741E+04  0.46999998093E+01 0. -1.
       -5    1    3    3    0  502 -0.10456916494E+04 -0.16446770513E+04  0.36646203826E+03  0.19831162710E+04  0.46999998093E+01 0.  1.
</event>
<event>
 5   0  0.9078515E-09  0.3907747E+04  0.7818609E-02  0.8023420E-01
        2   -1    0    0  501    0  0.00000000000E+00  0.00000000000E+00  0.25180145420E+04  0.25180145420E+04  0.25500000920E-02 0. -1.
       -2   -1    0    0    0  501  0.00000000000E+00  0.00000000000E+00 -0.15161234928E+04  0.15161234928E+04  0.25500000920E-02 0.  1.
    10030    2    1    2    0    0  0.00000000000E+00  0.00000000000E+00  0.10018910492E+04  0.40341380348E+04  0.39077466665E+04 0.  0.
        3    1    3    3  502    0  0.67893320246E+03 -0.23388738192E+03 -0.13749590522E+04  0.15511821319E+04  0.10100000352E+00 0.  1.
       -3    1    3    3    0  502 -0.67893320246E+03  0.23388738192E+03  0.23768501014E+04  0.24829559029E+04  0.10100000352E+00 0. -1.
</event>
<event>
 5   0  0.2904500E-09  0.3894566E+04  0.7818609E-02  0.8026160E-01
       -1   -1    0    0    0  501  0.00000000000E+00  0.00000000000E+00  0.13728570478E+04  0.13728570478E+04  0.50400001928E-02 0. -1.
        1   -1    0    0  501    0  0.00000000000E+00  0.00000000000E+00 -0.27620582464E+04  0.27620582464E+04  0.50400001928E-02 0.  1.
    10030    2    1    2    0    0  0.00000000000E+00  0.00000000000E+00 -0.13892011987E+04  0.41349152942E+04  0.38945660246E+04 0.  0.
        3    1    3    3  502    0  0.61984013704E+03 -0.60788711873E+02  0.12642585924E+04  0.14093427056E+04  0.10100000352E+00 0. -1.
       -3    1    3    3    0  502 -0.61984013704E+03  0.60788711873E+02 -0.26534597911E+04  0.27255725887E+04  0.10100000352E+00 0.  1.
</event>
<event>
 5   0  0.2904500E-09  0.3900016E+04  0.7818609E-02  0.8025026E-01
       -1   -1    0    0    0  501  0.00000000000E+00  0.00000000000E+00  0.13457874775E+04  0.13457874775E+04  0.50400001928E-02 0. -1.
        1   -1    0    0  501    0  0.00000000000E+00  0.00000000000E+00 -0.28255060207E+04  0.28255060207E+04  0.50400001928E-02 0.  1.
    10030    2    1    2    0    0  0.00000000000E+00  0.00000000000E+00 -0.14797185433E+04  0.41712934982E+04  0.39000157026E+04 0.  0.
        2    1    3    3  502    0 -0.64939510008E+03  0.38148187520E+02 -0.27060321839E+04  0.27831240469E+04  0.25500000920E-02 0.  1.
       -2    1    3    3    0  502  0.64939510008E+03 -0.38148187520E+02  0.12263136406E+04  0.13881694513E+04  0.25500000920E-02 0. -1.
</event>
<event>
 5   0  0.2904500E-09  0.3898817E+04  0.7818609E-02  0.8025275E-01
       -1   -1    0    0    0  501  0.00000000000E+00  0.00000000000E+00  0.23592392382E+04  0.23592392382E+04  0.50400001928E-02 0.  1.
        1   -1    0    0  501    0  0.00000000000E+00  0.00000000000E+00 -0.16107707109E+04  0.16107707109E+04  0.50400001928E-02 0. -1.
    10030    2    1    2    0    0  0.00000000000E+00  0.00000000000E+00  0.74846852731E+03  0.39700099490E+04  0.38988169820E+04 0.  0.
        3    1    3    3  502    0  0.99514031645E+03  0.73365271172E+03 -0.11604844096E+04  0.16956634766E+04  0.10100000352E+00 0. -1.
       -3    1    3    3    0  502 -0.99514031645E+03 -0.73365271172E+03  0.19089529369E+04  0.22743464724E+04  0.10100000352E+00 0.  1.
</event>
<event>
 5   0  0.2904500E-09  0.3899831E+04  0.7818609E-02  0.8025064E-01
       -1   -1    0    0    0  501  0.00000000000E+00  0.00000000000E+00  0.21432398539E+04  0.21432398539E+04  0.50400001928E-02 0. -1.
        1   -1    0    0  501    0  0.00000000000E+00  0.00000000000E+00 -0.17740290768E+04  0.17740290768E+04  0.50400001928E-02 0.  1.
    10030    2    1    2    0    0  0.00000000000E+00  0.00000000000E+00  0.36921077711E+03  0.39172689307E+04  0.38998306729E+04 0.  0.
        3    1    3    3  502    0  0.13332273950E+03  0.17470275422E+04  0.10441710889E+04  0.20396503276E+04  0.10100000352E+00 0. -1.
       -3    1    3    3    0  502 -0.13332273950E+03 -0.17470275422E+04 -0.67496031178E+03  0.18776186031E+04  0.10100000352E+00 0.  1.
</event>
<event>
 5   0  0.6335942E-09  0.3895464E+04  0.7818609E-02  0.8025973E-01
        2   -1    0    0  501    0  0.00000000000E+00  0.00000000000E+00  0.20734182306E+04  0.20734182306E+04  0.25500000920E-02 0. -1.
       -2   -1    0    0    0  501  0.00000000000E+00  0.00000000000E+00 -0.18296649392E+04  0.18296649392E+04  0.25500000920E-02 0.  1.
    10030    2    1    2    0    0  0.00000000000E+00  0.00000000000E+00  0.24375329136E+03  0.39030831698E+04  0.38954643579E+04 0.  0.
        2    1    3    3  502    0 -0.14061202015E+04  0.89400972982E+03  0.11324290472E+04  0.20146520705E+04  0.25500000920E-02 0. -1.
       -2    1    3    3    0  502  0.14061202015E+04 -0.89400972982E+03 -0.88867575580E+03  0.18884310994E+04  0.25500000920E-02 0.  1.
</event>
<event>
 5   0  0.2904500E-09  0.3901549E+04  0.7818609E-02  0.8024707E-01
        1   -1    0    0  501    0  0.00000000000E+00  0.00000000000E+00  0.16960487109E+04  0.16960487109E+04  0.50400001928E-02 0.  1.
       -1   -1    0    0    0  501  0.00000000000E+00  0.00000000000E+00 -0.22437570832E+04  0.22437570832E+04  0.50400001928E-02 0. -1.
    10030    2    1    2    0    0  0.00000000000E+00  0.00000000000E+00 -0.54770837230E+03  0.39398057940E+04  0.39015490813E+04 0.  0.
        3    1    3    3  502    0 -0.17478292225E+04  0.49417327572E+03 -0.99245486748E+03  0.20698021383E+04  0.10100000352E+00 0. -1.
       -3    1    3    3    0  502  0.17478292225E+04 -0.49417327572E+03  0.44474649518E+03  0.18700036558E+04  0.10100000352E+00 0.  1.
</event>
<event>
 5   0  0.9368546E-09  0.3901954E+04  0.7818609E-02  0.8024623E-01
       -2   -1    0    0    0  501  0.00000000000E+00  0.00000000000E+00  0.18869110717E+04  0.18869110717E+04  0.25500000920E-02 0. -1.
        2   -1    0    0  501    0  0.00000000000E+00  0.00000000000E+00 -0.20172180085E+04  0.20172180085E+04  0.25500000920E-02 0.  1.
    10030    2    1    2    0    0  0.00000000000E+00  0.00000000000E+00 -0.13030693682E+03  0.39041290802E+04  0.39019538666E+04 0.  0.
        5    1    3    3  502    0  0.62301720326E+03 -0.18187970557E+04 -0.39717537293E+03  0.19631463349E+04  0.46999998093E+01 0.  1.
       -5    1    3    3    0  502 -0.62301720326E+03  0.18187970557E+04  0.26686843610E+03  0.19409827453E+04  0.46999998093E+01 0. -1.
</event>
<event>
 5   0  0.2929054E-09  0.3901264E+04  0.7818609E-02  0.8024766E-01
       -1   -1    0    0    0  501  0.00000000000E+00  0.00000000000E+00  0.16374795616E+04  0.16374795617E+04  0.50400001928E-02 0. -1.
        1   -1    0    0  501    0  0.00000000000E+00  0.00000000000E+00 -0.23236719379E+04  0.23236719379E+04  0.50400001928E-02 0.  1.
    10030    2    1    2    0    0  0.00000000000E+00  0.00000000000E+00 -0.68619237627E+03  0.39611514996E+04  0.39012640548E+04 0.  0.
        1    1    3    3  502    0  0.40800309171E+03 -0.13322196719E+04 -0.17292227608E+04  0.22206951915E+04  0.50400001928E-02 0.  1.
       -1    1    3    3    0  502 -0.40800309171E+03  0.13322196719E+04  0.10430303846E+04  0.17404563080E+04  0.50400001928E-02 0. -1.
</event>
<event>
 5   0  0.9434114E-09  0.3900725E+04  0.7818609E-02  0.8024878E-01
       -2   -1    0    0    0  501  0.00000000000E+00  0.00000000000E+00  0.16531962938E+04  0.16531962939E+04  0.25500000920E-02 0. -1.
        2   -1    0    0  501    0  0.00000000000E+00  0.00000000000E+00 -0.23009450909E+04  0.23009450909E+04  0.25500000920E-02 0.  1.
    10030    2    1    2    0    0  0.00000000000E+00  0.00000000000E+00 -0.64774879703E+03  0.39541413847E+04  0.39007250078E+04 0.  0.
        4    1    3    3  502    0  0.93490469854E+03 -0.12918136306E+04 -0.14622319700E+04  0.21635510621E+04  0.12699999809E+01 0.  1.
       -4    1    3    3    0  502 -0.93490469854E+03  0.12918136306E+04  0.81448317292E+03  0.17905903226E+04  0.12699999809E+01 0. -1.
</event>
<event>
 5   0  0.6335942E-09  0.3901536E+04  0.7818609E-02  0.8024710E-01
       -2   -1    0    0    0  501  0.00000000000E+00  0.00000000000E+00  0.12949111109E+04  0.12949111109E+04  0.25500000920E-02 0.  1.
        2   -1    0    0  501    0  0.00000000000E+00  0.00000000000E+00 -0.29388080745E+04  0.29388080745E+04  0.25500000920E-02 0. -1.
    10030    2    1    2    0    0  0.00000000000E+00  0.00000000000E+00 -0.16438969636E+04  0.42337191854E+04  0.39015357122E+04 0.  0.
        2    1    3    3  502    0  0.29068421163E+03  0.40600714849E+03  0.12243871721E+04  0.13222946202E+04  0.25500000920E-02 0.  1.
       -2    1    3    3    0  502 -0.29068421163E+03 -0.40600714849E+03 -0.28682841357E+04  0.29114245651E+04  0.25500000920E-02 0. -1.
</event>
<event>
 5   0  0.2904500E-09  0.3899389E+04  0.7818609E-02  0.8025156E-01
       -1   -1    0    0    0  501  0.00000000000E+00  0.00000000000E+00  0.18298658000E+04  0.18298658000E+04  0.50400001928E-02 0.  1.
        1   -1    0    0  501    0  0.00000000000E+00  0.00000000000E+00 -0.20773701317E+04  0.20773701317E+04  0.50400001928E-02 0. -1.
    10030    2    1    2    0    0  0.00000000000E+00  0.00000000000E+00 -0.24750433170E+03  0.39072359317E+04  0.38993889562E+04 0.  0.
        3    1    3    3  502    0  0.12646908345E+04 -0.31703477343E+03  0.13287699400E+04  0.18616077777E+04  0.10100000352E+00 0.  1.
       -3    1    3    3    0  502 -0.12646908345E+04  0.31703477343E+03 -0.15762742717E+04  0.20456281540E+04  0.10100000352E+00 0. -1.
</event>
<event>
 5   0  0.9277261E-09  0.3903631E+04  0.7818609E-02  0.8024275E-01
        2   -1    0    0  501    0  0.00000000000E+00  0.00000000000E+00  0.24086696175E+04  0.24086696175E+04  0.25500000920E-02 0. -1.
       -2   -1    0    0    0  501  0.00000000000E+00  0.00000000000E+00 -0.15816129312E+04  0.15816129312E+04  0.25500000920E-02 0.  1.
    10030    2    1    2    0    0  0.00000000000E+00  0.00000000000E+00  0.82705668633E+03  0.39902825487E+04  0.39036306249E+04 0.  0.
        1    1    3    3  502    0  0.42339195566E+03  0.18049842802E+04  0.10372817811E+04  0.21244252148E+04  0.50400001928E-02 0.  1.
       -1    1    3    3    0  502 -0.42339195566E+03 -0.18049842802E+04 -0.21022509480E+03  0.18658573339E+04  0.50400001928E-02 0. -1.
</event>
<event>
 5   0  0.2929054E-09  0.3900072E+04  0.7818609E-02  0.8025014E-01
       -1   -1    0    0    0  501  0.00000000000E+00  0.00000000000E+00  0.15828445328E+04  0.15828445328E+04  0.50400001928E-02 0. -1.
        1   -1    0    0  501    0  0.00000000000E+00  0.00000000000E+00 -0.24024090385E+04  0.24024090385E+04  0.50400001928E-02 0.  1.
    10030    2    1    2    0    0  0.00000000000E+00  0.00000000000E+00 -0.81956450566E+03  0.39852535713E+04  0.39000718005E+04 0.  0.
        1    1    3    3  502    0  0.53759721065E+03  0.26997239489E+03  0.14856555924E+04  0.16028313679E+04  0.50400001928E-02 0. -1.
       -1    1    3    3    0  502 -0.53759721065E+03 -0.26997239489E+03 -0.23052200980E+04  0.23824222034E+04  0.50400001928E-02 0.  1.
</event>
<event>
 5   0  0.2904500E-09  0.3899887E+04  0.7818609E-02  0.8025053E-01
        1   -1    0    0  501    0  0.00000000000E+00  0.00000000000E+00  0.15694840174E+04  0.15694840174E+04  0.50400001928E-02 0. -1.
       -1   -1    0    0    0  501  0.00000000000E+00  0.00000000000E+00 -0.24226306218E+04  0.24226306218E+04  0.50400001928E-02 0.  1.
    10030    2    1    2    0    0  0.00000000000E+00  0.00000000000E+00 -0.85314660438E+03  0.39921146392E+04  0.38998871988E+04 0.  0.
        3    1    3    3  502    0 -0.45595945672E+03 -0.72329731243E+03  0.13673611223E+04  0.16126792854E+04  0.10100000352E+00 0. -1.
       -3    1    3    3    0  502  0.45595945672E+03  0.72329731243E+03 -0.22205077267E+04  0.23794353538E+04  0.10100000352E+00 0.  1.
</event>
<event>
 5   0  0.9434114E-09  0.3900564E+04  0.7818609E-02  0.8024912E-01
        2   -1    0    0  501    0  0.00000000000E+00  0.00000000000E+00  0.24154175140E+04  0.24154175140E+04  0.25500000920E-02 0. -1.
       -2   -1    0    0    0  501  0.00000000000E+00  0.00000000000E+00 -0.15747171869E+04  0.15747171869E+04  0.25500000920E-02 0.  1.
    10030    2    1    2    0    0  0.00000000000E+00  0.00000000000E+00  0.84070032709E+03  0.39901347010E+04  0.39005637915E+04 0.  0.
        4    1    3    3  502    0 -0.17165546979E+04  0.58153970245E+03 -0.31650279743E+03  0.18398163197E+04  0.12699999809E+01 0.  1.
       -4    1    3    3    0  502  0.17165546979E+04 -0.58153970245E+03  0.11572031245E+04  0.21503183813E+04  0.12699999809E+01 0. -1.
</event>
<event>
 5   0  0.9368546E-09  0.3902731E+04  0.7818609E-02  0.8024461E-01
        2   -1    0    0  501    0  0.00000000000E+00  0.00000000000E+00  0.17645267618E+04  0.17645267618E+04  0.25500000920E-02 0. -1.
       -2   -1    0    0    0  501  0.00000000000E+00  0.00000000000E+00 -0.21579883412E+04  0.21579883412E+04  0.25500000920E-02 0.  1.
    10030    2    1    2    0    0  0.00000000000E+00  0.00000000000E+00 -0.39346157934E+03  0.39225151030E+04  0.39027314433E+04 0.  0.
        5    1    3    3  502    0  0.10477727328E+04 -0.11907427684E+04  0.94574158936E+03  0.18466578687E+04  0.46999998093E+01 0. -1.
       -5    1    3    3    0  502 -0.10477727328E+04  0.11907427684E+04 -0.13392031687E+04  0.20758572343E+04  0.46999998093E+01 0.  1.
</event>
<event>
 5   0  0.2904500E-09  0.3904971E+04  0.7818609E-02  0.8023996E-01
       -3   -1    0    0    0  501  0.00000000000E+00  0.00000000000E+00  0.18859408648E+04  0.18859408675E+04  0.10100000352E+00 0.  1.
        3   -1    0    0  501    0  0.00000000000E+00  0.00000000000E+00 -0.20213780055E+04  0.20213780080E+04  0.10100000352E+00 0. -1.
    10030    2    1    2    0    0  0.00000000000E+00  0.00000000000E+00 -0.13543714070E+03  0.39073188754E+04  0.39049708802E+04 0.  0.
        4    1    3    3  502    0 -0.30893512036E+03  0.11402563633E+04  0.14877489680E+04  0.18997431635E+04  0.12699999809E+01 0.  1.
       -4    1    3    3    0  502  0.30893512036E+03 -0.11402563633E+04 -0.16231861087E+04  0.20075757119E+04  0.12699999809E+01 0. -1.
</event>
<event>
 5   0  0.9277261E-09  0.3899157E+04  0.7818609E-02  0.8025205E-01
        2   -1    0    0  501    0  0.00000000000E+00  0.00000000000E+00  0.24057332607E+04  0.24057332607E+04  0.25500000920E-02 0. -1.
       -2   -1    0    0    0  501  0.00000000000E+00  0.00000000000E+00 -0.15799161194E+04  0.15799161194E+04  0.25500000920E-02 0.  1.
    10030    2    1    2    0    0  0.00000000000E+00  0.00000000000E+00  0.82581714132E+03  0.39856493801E+04  0.38991572205E+04 0.  0.
        1    1    3    3  502    0  0.87907046603E+03 -0.16778979216E+04 -0.58571755672E+02  0.18951350796E+04  0.50400001928E-02 0. -1.
       -1    1    3    3    0  502 -0.87907046603E+03  0.16778979216E+04  0.88438889699E+03  0.20905143005E+04  0.50400001928E-02 0.  1.
</event>
<event>
 5   0  0.9078515E-09  0.3899378E+04  0.7818609E-02  0.8025159E-01
       -2   -1    0    0    0  501  0.00000000000E+00  0.00000000000E+00  0.21325057178E+04  0.21325057178E+04  0.25500000920E-02 0. -1.
        2   -1    0    0  501    0  0.00000000000E+00  0.00000000000E+00 -0.17825450817E+04  0.17825450817E+04  0.25500000920E-02 0.  1.
    10030    2    1    2    0    0  0.00000000000E+00  0.00000000000E+00  0.34996063613E+03  0.39150507995E+04  0.38993781960E+04 0.  0.
        3    1    3    3  502    0  0.15955000949E+04  0.42329951215E+03 -0.86672754171E+03  0.18644086654E+04  0.10100000352E+00 0.  1.
       -3    1    3    3    0  502 -0.15955000949E+04 -0.42329951215E+03  0.12166881778E+04  0.20506421341E+04  0.10100000352E+00 0. -1.
</event>
<event>
 5   0  0.6335942E-09  0.3902624E+04  0.7818609E-02  0.8024484E-01
        2   -1    0    0  501    0  0.00000000000E+00  0.00000000000E+00  0.17917250030E+04  0.17917250030E+04  0.25500000920E-02 0. -1.
       -2   -1    0    0    0  501  0.00000000000E+00  0.00000000000E+00 -0.21251129776E+04  0.21251129776E+04  0.25500000920E-02 0.  1.
    10030    2    1    2    0    0  0.00000000000E+00  0.00000000000E+00 -0.33338797459E+03  0.39168379806E+04  0.39026237616E+04 0.  0.
        2    1    3    3  502    0  0.38963213377E+02  0.17859944850E+04  0.62122820030E+03  0.18913537240E+04  0.25500000920E-02 0. -1.
       -2    1    3    3    0  502 -0.38963213377E+02 -0.17859944850E+04 -0.95461617489E+03  0.20254842566E+04  0.25500000920E-02 0.  1.
</event>
<event>
 5   0  0.2904500E-09  0.3898212E+04  0.7818609E-02  0.8025401E-01
        1   -1    0    0  501    0  0.00000000000E+00  0.00000000000E+00  0.13718601762E+04  0.13718601762E+04  0.50400001928E-02 0.  1.
       -1   -1    0    0    0  501  0.00000000000E+00  0.00000000000E+00 -0.27692435165E+04  0.27692435166E+04  0.50400001928E-02 0. -1.
    10030    2    1    2    0    0  0.00000000000E+00  0.00000000000E+00 -0.13973833404E+04  0.41411036927E+04  0.38982123588E+04 0.  0.
        3    1    3    3  502    0  0.89255920554E+03 -0.16815115705E+04 -0.11429243363E+04  0.22204547160E+04  0.10100000352E+00 0. -1.
       -3    1    3    3    0  502 -0.89255920554E+03  0.16815115705E+04 -0.25445900411E+03  0.19206489768E+04  0.10100000352E+00 0.  1.
</event>
<event>
 5   0  0.2904500E-09  0.3899146E+04  0.7818609E-02  0.8025207E-01
       -1   -1    0    0    0  501  0.00000000000E+00  0.00000000000E+00  0.18003327473E+04  0.18003327473E+04  0.50400001928E-02 0.  1.
        1   -1    0    0  501    0  0.00000000000E+00  0.00000000000E+00 -0.21111850276E+04  0.21111850277E+04  0.50400001928E-02 0. -1.
    10030    2    1    2    0    0  0.00000000000E+00  0.00000000000E+00 -0.31085228038E+03  0.39115177749E+04  0.38991463378E+04 0.  0.
        3    1    3    3  502    0  0.90887845291E+03 -0.15550559283E+04  0.59298152134E+03  0.18962821724E+04  0.10100000352E+00 0.  1.
       -3    1    3    3    0  502 -0.90887845291E+03  0.15550559283E+04 -0.90383380172E+03  0.20152356025E+04  0.10100000352E+00 0. -1.
</event>
<event>
 5   0  0.9277261E-09  0.3899538E+04  0.7818609E-02  0.8025125E-01
       -2   -1    0    0    0  501  0.00000000000E+00  0.00000000000E+00  0.29825893259E+04  0.29825893259E+04  0.25500000920E-02 0. -1.
        2   -1    0    0  501    0  0.00000000000E+00  0.00000000000E+00 -0.12745971662E+04  0.12745971662E+04  0.25500000920E-02 0.  1.
    10030    2    1    2    0    0  0.00000000000E+00  0.00000000000E+00  0.17079921596E+04  0.42571864921E+04  0.38995383843E+04 0.  0.
        1    1    3    3  502    0 -0.76836157341E+02 -0.10190288103E+04  0.26667949716E+04  0.28558919679E+04  0.50400001928E-02 0. -1.
       -1    1    3    3    0  502  0.76836157341E+02  0.10190288103E+04 -0.95880281200E+03  0.14012945242E+04  0.50400001928E-02 0.  1.
</event>
<event>
 5   0  0.9434114E-09  0.3900165E+04  0.7818609E-02  0.8024995E-01
       -2   -1    0    0    0  501  0.00000000000E+00  0.00000000000E+00  0.23065364764E+04  0.23065364764E+04  0.25500000920E-02 0.  1.
        2   -1    0    0  501    0  0.00000000000E+00  0.00000000000E+00 -0.16487150646E+04  0.16487150646E+04  0.25500000920E-02 0. -1.
    10030    2    1    2    0    0  0.00000000000E+00  0.00000000000E+00  0.65782141175E+03  0.39552515410E+04  0.39001648353E+04 0.  0.
        4    1    3    3  502    0  0.14533293365E+04 -0.11874260793E+04 -0.20835787016E+03  0.18882694376E+04  0.12699999809E+01 0. -1.
       -4    1    3    3    0  502 -0.14533293365E+04  0.11874260793E+04  0.86617928191E+03  0.20669821033E+04  0.12699999809E+01 0.  1.
</event>
<event>
 5   0  0.2904500E-09  0.3898733E+04  0.7818609E-02  0.8025293E-01
       -1   -1    0    0    0  501  0.00000000000E+00  0.00000000000E+00  0.26217731080E+04  0.26217731080E+04  0.50400001928E-02 0. -1.
        1   -1    0    0  501    0  0.00000000000E+00  0.00000000000E+00 -0.14494124506E+04  0.14494124506E+04  0.50400001928E-02 0.  1.
    10030    2    1    2    0    0  0.00000000000E+00  0.00000000000E+00  0.11723606574E+04  0.40711855586E+04  0.38987334279E+04 0.  0.
        2    1    3    3  502    0 -0.68052047088E+03  0.53614616238E+03  0.24096960907E+04  0.25607022608E+04  0.25500000920E-02 0. -1.
       -2    1    3    3    0  502  0.68052047088E+03 -0.53614616238E+03 -0.12373354333E+04  0.15104832979E+04  0.25500000920E-02 0.  1.
</event>
<event>
 5   0  0.2929054E-09  0.3899023E+04  0.7818609E-02  0.8025232E-01
       -1   -1    0    0    0  501  0.00000000000E+00  0.00000000000E+00  0.13658342208E+04  0.13658342208E+04  0.50400001928E-02 0.  1.
        1   -1    0    0  501    0  0.00000000000E+00  0.00000000000E+00 -0.27826179046E+04  0.27826179046E+04  0.50400001928E-02 0. -1.
    10030    2    1    2    0    0  0.00000000000E+00  0.00000000000E+00 -0.14167836838E+04  0.41484521254E+04  0.38990228301E+04 0.  0.
        1    1    3    3  502    0 -0.26288965418E+03  0.32503943975E+03 -0.27343674486E+04  0.27661393587E+04  0.50400001928E-02 0. -1.
       -1    1    3    3    0  502  0.26288965418E+03 -0.32503943975E+03  0.13175837648E+04  0.13823127667E+04  0.50400001928E-02 0.  1.
</event>
<event>
 5   0  0.9368546E-09  0.3896769E+04  0.7818609E-02  0.8025702E-01
        2   -1    0    0  501    0  0.00000000000E+00  0.00000000000E+00  0.25759945740E+04  0.25759945740E+04  0.25500000920E-02 0.  1.
       -2   -1    0    0    0  501  0.00000000000E+00  0.00000000000E+00 -0.14736839974E+04  0.14736839974E+04  0.25500000920E-02 0. -1.
    10030    2    1    2    0    0  0.00000000000E+00  0.00000000000E+00  0.11023105766E+04  0.40496785714E+04  0.38967689083E+04 0.  0.
        5    1    3    3  502    0 -0.11111212844E+04  0.15947993457E+04  0.69137350535E+03  0.20630062713E+04  0.46999998093E+01 0.  1.
       -5    1    3    3    0  502  0.11111212844E+04 -0.15947993457E+04  0.41093707121E+03  0.19866723001E+04  0.46999998093E+01 0. -1.
</event>
<event>
 5   0  0.2904500E-09  0.3901195E+04  0.7818609E-02  0.8024781E-01
       -3   -1    0    0    0  501  0.00000000000E+00  0.00000000000E+00  0.13653414813E+04  0.13653414850E+04  0.10100000352E+00 0. -1.
        3   -1    0    0  501    0  0.00000000000E+00  0.00000000000E+00 -0.27867240190E+04  0.27867240208E+04  0.10100000352E+00 0.  1.
    10030    2    1    2    0    0  0.00000000000E+00  0.00000000000E+00 -0.14213825377E+04  0.41520655058E+04  0.39011946434E+04 0.  0.
        5    1    3    3  502    0  0.52426020220E+03 -0.18360729114E+04 -0.28657450910E+03  0.19308442544E+04  0.46999998093E+01 0. -1.
       -5    1    3    3    0  502 -0.52426020220E+03  0.18360729114E+04 -0.11348080286E+04  0.22212212514E+04  0.46999998093E+01 0.  1.
</event>
<event>
 5   0  0.6335942E-09  0.3900013E+04  0.7818609E-02  0.8025026E-01
        2   -1    0    0  501    0  0.00000000000E+00  0.00000000000E+00  0.20085395533E+04  0.20085395533E+04  0.25500000920E-02 0. -1.
       -2   -1    0    0    0  501  0.00000000000E+00  0.00000000000E+00 -0.18931792343E+04  0.18931792343E+04  0.25500000920E-02 0.  1.
    10030    2    1    2    0    0  0.00000000000E+00  0.00000000000E+00  0.11536031908E+03  0.39017187876E+04  0.39000130121E+04 0.  0.
        2    1    3    3  502    0 -0.10757697246E+03  0.12503936370E+04  0.15508034744E+04  0.19950058819E+04  0.25500000920E-02 0. -1.
       -2    1    3    3    0  502  0.10757697246E+03 -0.12503936370E+04 -0.14354431553E+04  0.19067129057E+04  0.25500000920E-02 0.  1.
</event>
<event>
 5   0  0.9434114E-09  0.3900384E+04  0.7818609E-02  0.8024949E-01
        2   -1    0    0  501    0  0.00000000000E+00  0.00000000000E+00  0.14963005178E+04  0.14963005178E+04  0.25500000920E-02 0.  1.
       -2   -1    0    0    0  501  0.00000000000E+00  0.00000000000E+00 -0.25417682150E+04  0.25417682150E+04  0.25500000920E-02 0. -1.
    10030    2    1    2    0    0  0.00000000000E+00  0.00000000000E+00 -0.10454676972E+04  0.40380687328E+04  0.39003841330E+04 0.  0.
        4    1    3    3  502    0  0.15443572069E+04  0.20264034298E+03  0.69220995662E+03  0.17044818944E+04  0.12699999809E+01 0.  1.
       -4    1    3    3    0  502 -0.15443572069E+04 -0.20264034298E+03 -0.17376776538E+04  0.23335868385E+04  0.12699999809E+01 0. -1.
</event>
<event>
 5   0  0.9368546E-09  0.3894298E+04  0.7818609E-02  0.8026216E-01
       -2   -1    0    0    0  501  0.00000000000E+00  0.00000000000E+00  0.15004744341E+04  0.15004744341E+04  0.25500000920E-02 0.  1.
        2   -1    0    0  501    0  0.00000000000E+00  0.00000000000E+00 -0.25267938500E+04  0.25267938500E+04  0.25500000920E-02 0. -1.
    10030    2    1    2    0    0  0.00000000000E+00  0.00000000000E+00 -0.10263194159E+04  0.40272682842E+04  0.38942981767E+04 0.  0.
        5    1    3    3  502    0 -0.18649015789E+03 -0.19368614866E+04 -0.58742027195E+03  0.20325588954E+04  0.46999998093E+01 0. -1.
       -5    1    3    3    0  502  0.18649015789E+03  0.19368614866E+04 -0.43889914394E+03  0.19947093888E+04  0.46999998093E+01 0.  1.
</event>
<event>
 5   0  0.2904500E-09  0.3896098E+04  0.7818609E-02  0.8025841E-01
       -1   -1    0    0    0  501  0.00000000000E+00  0.00000000000E+00  0.16226481463E+04  0.16226481463E+04  0.50400001928E-02 0.  1.
        1   -1    0    0  501    0  0.00000000000E+00  0.00000000000E+00 -0.23387043320E+04  0.23387043320E+04  0.50400001928E-02 0. -1.
    10030    2    1    2    0    0  0.00000000000E+00  0.00000000000E+00 -0.71605618567E+03  0.39613524783E+04  0.38960976626E+04 0.  0.
        3    1    3    3  502    0 -0.13155075772E+04 -0.91810598879E+03 -0.14817150931E+04  0.21837945003E+04  0.10100000352E+00 0. -1.
       -3    1    3    3    0  502  0.13155075772E+04  0.91810598879E+03  0.76565890747E+03  0.17775579780E+04  0.10100000352E+00 0.  1.
</event>
<event>
 5   0  0.2904500E-09  0.3900025E+04  0.7818609E-02  0.8025024E-01
        1   -1    0    0  501    0  0.00000000000E+00  0.00000000000E+00  0.27714903143E+04  0.27714903143E+04  0.50400001928E-02 0.  1.
       -1   -1    0    0    0  501  0.00000000000E+00  0.00000000000E+00 -0.13720230679E+04  0.13720230679E+04  0.50400001928E-02 0. -1.
    10030    2    1    2    0    0  0.00000000000E+00  0.00000000000E+00  0.13994672465E+04  0.41435133822E+04  0.39000249454E+04 0.  0.
        2    1    3    3  502    0 -0.17406492744E+04  0.39557207966E+03 -0.13426676408E+03  0.17900739456E+04  0.25500000920E-02 0. -1.
       -2    1    3    3    0  502  0.17406492744E+04 -0.39557207966E+03  0.15337340105E+04  0.23534394366E+04  0.25500000920E-02 0.  1.
</event>
<event>
 5   0  0.9277261E-09  0.3896517E+04  0.7818609E-02  0.8025754E-01
       -2   -1    0    0    0  501  0.00000000000E+00  0.00000000000E+00  0.17749048025E+04  0.17749048025E+04  0.25500000920E-02 0. -1.
        2   -1    0    0  501    0  0.00000000000E+00  0.00000000000E+00 -0.21385433800E+04  0.21385433800E+04  0.25500000920E-02 0.  1.
    10030    2    1    2    0    0  0.00000000000E+00  0.00000000000E+00 -0.36363857744E+03  0.39134481825E+04  0.38965168628E+04 0.  0.
        1    1    3    3  502    0 -0.15155229505E+04 -0.36435093276E+03  0.99208351922E+03  0.18476447507E+04  0.50400001928E-02 0. -1.
       -1    1    3    3    0  502  0.15155229505E+04  0.36435093276E+03 -0.13557220967E+04  0.20658034318E+04  0.50400001928E-02 0.  1.
</event>
<event>
 5   0  0.2904500E-09  0.3900698E+04  0.7818609E-02  0.8024884E-01
       -1   -1    0    0    0  501  0.00000000000E+00  0.00000000000E+00  0.18198322018E+04  0.18198322018E+04  0.50400001928E-02 0.  1.
        1   -1    0    0  501    0  0.00000000000E+00  0.00000000000E+00 -0.20902263306E+04  0.20902263306E+04  0.50400001928E-02 0. -1.
    10030    2    1    2    0    0  0.00000000000E+00  0.00000000000E+00 -0.27039412880E+03  0.39100585324E+04  0.39006979814E+04 0.  0.
        2    1    3    3  502    0  0.29897599069E+03 -0.75178064590E+03  0.16436883634E+04  0.18320131601E+04  0.25500000920E-02 0.  1.
       -2    1    3    3    0  502 -0.29897599069E+03  0.75178064590E+03 -0.19140824922E+04  0.20780453724E+04  0.25500000920E-02 0. -1.
</event>
<event>
 5   0  0.9434114E-09  0.3897194E+04  0.7818609E-02  0.8025613E-01
       -2   -1    0    0    0  501  0.00000000000E+00  0.00000000000E+00  0.27015957769E+04  0.27015957769E+04  0.25500000920E-02 0.  1.
        2   -1    0    0  501    0  0.00000000000E+00  0.00000000000E+00 -0.14054766856E+04  0.14054766856E+04  0.25500000920E-02 0. -1.
    10030    2    1    2    0    0  0.00000000000E+00  0.00000000000E+00  0.12961190913E+04  0.41070724624E+04  0.38971937997E+04 0.  0.
        4    1    3    3  502    0  0.80231666707E+03  0.16532058948E+04  0.13312189964E+04  0.22691292149E+04  0.12699999809E+01 0.  1.
       -4    1    3    3    0  502 -0.80231666707E+03 -0.16532058948E+04 -0.35099905114E+02  0.18379432475E+04  0.12699999809E+01 0. -1.
</event>
<event>
 5   0  0.2904500E-09  0.3903737E+04  0.7818609E-02  0.8024252E-01
        3   -1    0    0  501    0  0.00000000000E+00  0.00000000000E+00  0.22829972071E+04  0.22829972093E+04  0.10100000352E+00 0. -1.
       -3   -1    0    0    0  501  0.00000000000E+00  0.00000000000E+00 -0.16687673584E+04  0.16687673615E+04  0.10100000352E+00 0.  1.
    10030    2    1    2    0    0  0.00000000000E+00  0.00000000000E+00  0.61422984861E+03  0.39517645708E+04  0.39037373011E+04 0.  0.
        2    1    3    3  502    0 -0.18096564123E+04  0.21861162583E+02  0.10471748004E+04  0.20909111181E+04  0.25500000920E-02 0. -1.
       -2    1    3    3    0  502  0.18096564123E+04 -0.21861162583E+02 -0.43294495180E+03  0.18608534527E+04  0.25500000920E-02 0.  1.
</event>
<event>
 5   0  0.6335942E-09  0.3894160E+04  0.7818609E-02  0.8026245E-01
       -2   -1    0    0    0  501  0.00000000000E+00  0.00000000000E+00  0.17039624336E+04  0.17039624336E+04  0.25500000920E-02 0.  1.
        2   -1    0    0  501    0  0.00000000000E+00  0.00000000000E+00 -0.22248848698E+04  0.22248848698E+04  0.25500000920E-02 0. -1.
    10030    2    1    2    0    0  0.00000000000E+00  0.00000000000E+00 -0.52092243616E+03  0.39288473034E+04  0.38941598514E+04 0.  0.
        2    1    3    3  502    0  0.98979161307E+03  0.26532044473E+03  0.14098942086E+04  0.17429526830E+04  0.25500000920E-02 0.  1.
       -2    1    3    3    0  502 -0.98979161307E+03 -0.26532044473E+03 -0.19308166448E+04  0.21858946204E+04  0.25500000920E-02 0. -1.
</event>
<event>
 5   0  0.2904500E-09  0.3899092E+04  0.7818609E-02  0.8025218E-01
       -1   -1    0    0    0  501  0.00000000000E+00  0.00000000000E+00  0.17614009464E+04  0.17614009464E+04  0.50400001928E-02 0. -1.
        1   -1    0    0  501    0  0.00000000000E+00  0.00000000000E+00 -0.21577884035E+04  0.21577884035E+04  0.50400001928E-02 0.  1.
    10030    2    1    2    0    0  0.00000000000E+00  0.00000000000E+00 -0.39638745714E+03  0.39191893499E+04  0.38990924770E+04 0.  0.
        4    1    3    3  502    0  0.86285596466E+03 -0.39316662215E+03 -0.19103902713E+04  0.21327665156E+04  0.12699999809E+01 0.  1.
       -4    1    3    3    0  502 -0.86285596466E+03  0.39316662215E+03  0.15140028142E+04  0.17864228343E+04  0.12699999809E+01 0. -1.
</event>
<event>
 5   0  0.6335942E-09  0.3902258E+04  0.7818609E-02  0.8024560E-01
       -2   -1    0    0    0  501  0.00000000000E+00  0.00000000000E+00  0.12176133753E+04  0.12176133753E+04  0.25500000920E-02 0. -1.
        2   -1    0    0  501    0  0.00000000000E+00  0.00000000000E+00 -0.31265302989E+04  0.31265302989E+04  0.25500000920E-02 0.  1.
    10030    2    1    2    0    0  0.00000000000E+00  0.00000000000E+00 -0.19089169236E+04  0.43441436741E+04  0.39022583769E+04 0.  0.
        2    1    3    3  502    0 -0.10390500211E+04  0.98877767732E+02 -0.27896153697E+04  0.29784821084E+04  0.25500000920E-02 0.  1.
       -2    1    3    3    0  502  0.10390500211E+04 -0.98877767732E+02  0.88069844606E+03  0.13656615658E+04  0.25500000920E-02 0. -1.
</event>
<event>
 5   0  0.2904500E-09  0.3905155E+04  0.7818609E-02  0.8023958E-01
        1   -1    0    0  501    0  0.00000000000E+00  0.00000000000E+00  0.26855052141E+04  0.26855052141E+04  0.50400001928E-02 0.  1.
       -1   -1    0    0    0  501  0.00000000000E+00  0.00000000000E+00 -0.14196804392E+04  0.14196804392E+04  0.50400001928E-02 0. -1.
    10030    2    1    2    0    0  0.00000000000E+00  0.00000000000E+00  0.12658247750E+04  0.41051856533E+04  0.39051551682E+04 0.  0.
        3    1    3    3  502    0  0.94818692587E+03 -0.31009806395E+03 -0.11315570279E+04  0.15085226459E+04  0.10100000352E+00 0. -1.
       -3    1    3    3    0  502 -0.94818692587E+03  0.31009806395E+03  0.23973818028E+04  0.25966630075E+04  0.10100000352E+00 0.  1.
</event>
<event>
 5   0  0.9078515E-09  0.3898552E+04  0.7818609E-02  0.8025330E-01
       -2   -1    0    0    0  501  0.00000000000E+00  0.00000000000E+00  0.16115581640E+04  0.16115581640E+04  0.25500000920E-02 0.  1.
        2   -1    0    0  501    0  0.00000000000E+00  0.00000000000E+00 -0.23577656856E+04  0.23577656856E+04  0.25500000920E-02 0. -1.
    10030    2    1    2    0    0  0.00000000000E+00  0.00000000000E+00 -0.74620752159E+03  0.39693238497E+04  0.38985518027E+04 0.  0.
        3    1    3    3  502    0  0.68973022523E+03 -0.69068287227E+03 -0.20910112844E+04  0.23076175626E+04  0.10100000352E+00 0. -1.
       -3    1    3    3    0  502 -0.68973022523E+03  0.69068287227E+03  0.13448037628E+04  0.16617062870E+04  0.10100000352E+00 0.  1.
</event>
<event>
 5   0  0.9368546E-09  0.3899896E+04  0.7818609E-02  0.8025051E-01
       -2   -1    0    0    0  501  0.00000000000E+00  0.00000000000E+00  0.15683877109E+04  0.15683877109E+04  0.25500000920E-02 0. -1.
        2   -1    0    0  501    0  0.00000000000E+00  0.00000000000E+00 -0.24243350469E+04  0.24243350469E+04  0.25500000920E-02 0.  1.
    10030    2    1    2    0    0  0.00000000000E+00  0.00000000000E+00 -0.85594733599E+03  0.39927227578E+04  0.38998960471E+04 0.  0.
        5    1    3    3  502    0 -0.91088642299E+02 -0.21870242528E+03 -0.24095397048E+04  0.24211632680E+04  0.46999998093E+01 0.  1.
       -5    1    3    3    0  502  0.91088642299E+02  0.21870242528E+03  0.15535923688E+04  0.15715594898E+04  0.46999998093E+01 0. -1.
</event>
<event>
 5   0  0.9277261E-09  0.3900076E+04  0.7818609E-02  0.8025013E-01
       -2   -1    0    0    0  501  0.00000000000E+00  0.00000000000E+00  0.14705040988E+04  0.14705040988E+04  0.25500000920E-02 0. -1.
        2   -1    0    0  501    0  0.00000000000E+00  0.00000000000E+00 -0.25859491449E+04  0.25859491449E+04  0.25500000920E-02 0.  1.
    10030    2    1    2    0    0  0.00000000000E+00  0.00000000000E+00 -0.11154450461E+04  0.40564532437E+04  0.39000763156E+04 0.  0.
        1    1    3    3  502    0 -0.26717186284E+03  0.13034341191E+04  0.92503527647E+03  0.16204973218E+04  0.50400001928E-02 0. -1.
       -1    1    3    3    0  502  0.26717186284E+03 -0.13034341191E+04 -0.20404803225E+04  0.24359559220E+04  0.50400001928E-02 0.  1.
</event>
<event>
 5   0  0.2904500E-09  0.3900495E+04  0.7818609E-02  0.8024926E-01
        1   -1    0    0  501    0  0.00000000000E+00  0.00000000000E+00  0.18626235492E+04  0.18626235492E+04  0.50400001928E-02 0.  1.
       -1   -1    0    0    0  501  0.00000000000E+00  0.00000000000E+00 -0.20419931919E+04  0.20419931919E+04  0.50400001928E-02 0. -1.
    10030    2    1    2    0    0  0.00000000000E+00  0.00000000000E+00 -0.17936964271E+03  0.39046167410E+04  0.39004946386E+04 0.  0.
        2    1    3    3  502    0  0.39288608437E+03 -0.11336051049E+04  0.14494850701E+04  0.18816022368E+04  0.25500000920E-02 0.  1.
       -2    1    3    3    0  502 -0.39288608437E+03  0.11336051049E+04 -0.16288547128E+04  0.20230145043E+04  0.25500000920E-02 0. -1.
</event>
<event>
 5   0  0.2904500E-09  0.3900569E+04  0.7818609E-02  0.8024911E-01
        1   -1    0    0  501    0  0.00000000000E+00  0.00000000000E+00  0.27740024659E+04  0.27740024659E+04  0.50400001928E-02 0. -1.
       -1   -1    0    0    0  501  0.00000000000E+00  0.00000000000E+00 -0.13711632004E+04  0.13711632004E+04  0.50400001928E-02 0.  1.
    10030    2    1    2    0    0  0.00000000000E+00  0.00000000000E+00  0.14028392655E+04  0.41451656663E+04  0.39005692401E+04 0.  0.
        3    1    3    3  502    0 -0.60957271065E+03  0.13501943949E+04  0.20494285726E+04  0.25287865228E+04  0.10100000352E+00 0. -1.
       -3    1    3    3    0  502  0.60957271065E+03 -0.13501943949E+04 -0.64658930708E+03  0.16163791436E+04  0.10100000352E+00 0.  1.
</event>
<event>
 5   0  0.2929054E-09  0.3899542E+04  0.7818609E-02  0.8025124E-01
       -1   -1    0    0    0  501  0.00000000000E+00  0.00000000000E+00  0.13806254623E+04  0.13806254623E+04  0.50400001928E-02 0.  1.
        1   -1    0    0  501    0  0.00000000000E+00  0.00000000000E+00 -0.27535399333E+04  0.27535399333E+04  0.50400001928E-02 0. -1.
    10030    2    1    2    0    0  0.00000000000E+00  0.00000000000E+00 -0.13729144710E+04  0.41341653955E+04  0.38995422004E+04 0.  0.
        1    1    3    3  502    0  0.41360482502E+03 -0.17877234307E+04 -0.13853503362E+04  0.22991780205E+04  0.50400001928E-02 0. -1.
       -1    1    3    3    0  502 -0.41360482502E+03  0.17877234307E+04  0.12435865171E+02  0.18349873751E+04  0.50400001928E-02 0.  1.
</event>
<event>
 5   0  0.9434114E-09  0.3898755E+04  0.7818609E-02  0.8025288E-01
        2   -1    0    0  501    0  0.00000000000E+00  0.00000000000E+00  0.27083062407E+04  0.27083062407E+04  0.25500000920E-02 0. -1.
       -2   -1    0    0    0  501  0.00000000000E+00  0.00000000000E+00 -0.14031179921E+04  0.14031179921E+04  0.25500000920E-02 0.  1.
    10030    2    1    2    0    0  0.00000000000E+00  0.00000000000E+00  0.13051882486E+04  0.41114242328E+04  0.38987552960E+04 0.  0.
        4    1    3    3  502    0 -0.18525248147E+04 -0.40346534035E+03  0.11305721145E+04  0.22074481623E+04  0.12699999809E+01 0. -1.
       -4    1    3    3    0  502  0.18525248147E+04  0.40346534035E+03  0.17461613401E+03  0.19039760705E+04  0.12699999809E+01 0.  1.
</event>
<event>
 5   0  0.2904500E-09  0.3904468E+04  0.7818609E-02  0.8024101E-01
       -1   -1    0    0    0  501  0.00000000000E+00  0.00000000000E+00  0.18481681384E+04  0.18481681384E+04  0.50400001928E-02 0. -1.
        1   -1    0    0  501    0  0.00000000000E+00  0.00000000000E+00 -0.20621593838E+04  0.20621593838E+04  0.50400001928E-02 0.  1.
    10030    2    1    2    0    0  0.00000000000E+00  0.00000000000E+00 -0.21399124535E+03  0.39103275222E+04  0.39044678354E+04 0.  0.
        5    1    3    3  502    0  0.14715661749E+04 -0.70001569579E+03  0.96963688964E+03  0.18962454401E+04  0.46999998093E+01 0. -1.
       -5    1    3    3    0  502 -0.14715661749E+04  0.70001569579E+03 -0.11836281350E+04  0.20140820821E+04  0.46999998093E+01 0.  1.
</event>
<event>
 5   0  0.2904500E-09  0.3898900E+04  0.7818609E-02  0.8025258E-01
        1   -1    0    0  501    0  0.00000000000E+00  0.00000000000E+00  0.21074396083E+04  0.21074396083E+04  0.50400001928E-02 0. -1.
       -1   -1    0    0    0  501  0.00000000000E+00  0.00000000000E+00 -0.18033041444E+04  0.18033041444E+04  0.50400001928E-02 0.  1.
    10030    2    1    2    0    0  0.00000000000E+00  0.00000000000E+00  0.30413546394E+03  0.39107437527E+04  0.38988996293E+04 0.  0.
        4    1    3    3  502    0 -0.18356130745E+03  0.17476260268E+04 -0.69457074258E+03  0.18895294685E+04  0.12699999809E+01 0.  1.
       -4    1    3    3    0  502  0.18356130745E+03 -0.17476260268E+04  0.99870620652E+03  0.20212142842E+04  0.12699999809E+01 0. -1.
</event>
<event>
 5   0  0.2904500E-09  0.3903485E+04  0.7818609E-02  0.8024305E-01
       -1   -1    0    0    0  501  0.00000000000E+00  0.00000000000E+00  0.12905821530E+04  0.12905821530E+04  0.50400001928E-02 0. -1.
        1   -1    0    0  501    0  0.00000000000E+00  0.00000000000E+00 -0.29516132762E+04  0.29516132762E+04  0.50400001928E-02 0.  1.
    10030    2    1    2    0    0  0.00000000000E+00  0.00000000000E+00 -0.16610311232E+04  0.42421954292E+04  0.39034853230E+04 0.  0.
        2    1    3    3  502    0 -0.11177667950E+04 -0.15618818096E+04 -0.45338556458E+03  0.19734325085E+04  0.25500000920E-02 0. -1.
       -2    1    3    3    0  502  0.11177667950E+04  0.15618818096E+04 -0.12076455586E+04  0.22687629207E+04  0.25500000920E-02 0.  1.
</event>
<event>
 5   0  0.9277261E-09  0.3898780E+04  0.7818609E-02  0.8025283E-01
       -2   -1    0    0    0  501  0.00000000000E+00  0.00000000000E+00  0.22959469048E+04  0.22959469048E+04  0.25500000920E-02 0.  1.
        2   -1    0    0  501    0  0.00000000000E+00  0.00000000000E+00 -0.16551430022E+04  0.16551430022E+04  0.25500000920E-02 0. -1.
    10030    2    1    2    0    0  0.00000000000E+00  0.00000000000E+00  0.64080390254E+03  0.39510899070E+04  0.38987795285E+04 0.  0.
        1    1    3    3  502    0  0.22077227130E+03 -0.18551083683E+04 -0.24380204316E+03  0.18840400447E+04  0.50400001928E-02 0. -1.
       -1    1    3    3    0  502 -0.22077227130E+03  0.18551083683E+04  0.88460594569E+03  0.20670498623E+04  0.50400001928E-02 0.  1.
</event>
<event>
 5   0  0.6335942E-09  0.3899570E+04  0.7818609E-02  0.8025119E-01
       -2   -1    0    0    0  501  0.00000000000E+00  0.00000000000E+00  0.15723199831E+04  0.15723199831E+04  0.25500000920E-02 0.  1.
        2   -1    0    0  501    0  0.00000000000E+00  0.00000000000E+00 -0.24178673050E+04  0.24178673050E+04  0.25500000920E-02 0. -1.
    10030    2    1    2    0    0  0.00000000000E+00  0.00000000000E+00 -0.84554732186E+03  0.39901872881E+04  0.38995697610E+04 0.  0.
        2    1    3    3  502    0 -0.94604782293E+03  0.32016568676E+03  0.12906986607E+04  0.16319974212E+04  0.25500000920E-02 0.  1.
       -2    1    3    3    0  502  0.94604782293E+03 -0.32016568676E+03 -0.21362459826E+04  0.23581898669E+04  0.25500000920E-02 0. -1.
</event>
<event>
 5   0  0.9277261E-09  0.3898681E+04  0.7818609E-02  0.8025303E-01
       -2   -1    0    0    0  501  0.00000000000E+00  0.00000000000E+00  0.15047684062E+04  0.15047684062E+04  0.25500000920E-02 0.  1.
        2   -1    0    0  501    0  0.00000000000E+00  0.00000000000E+00 -0.25252585655E+04  0.25252585655E+04  0.25500000920E-02 0. -1.
    10030    2    1    2    0    0  0.00000000000E+00  0.00000000000E+00 -0.10204901593E+04  0.40300269717E+04  0.38986814730E+04 0.  0.
        1    1    3    3  502    0  0.14063484419E+04  0.23469299555E+03 -0.18843265245E+04  0.23629606838E+04  0.50400001928E-02 0. -1.
       -1    1    3    3    0  502 -0.14063484419E+04 -0.23469299555E+03  0.86383636524E+03  0.16670662879E+04  0.50400001928E-02 0.  1.
</event>
<event>
 5   0  0.9277261E-09  0.3901948E+04  0.7818609E-02  0.8024624E-01
        2   -1    0    0  501    0  0.00000000000E+00  0.00000000000E+00  0.24945516113E+04  0.24945516113E+04  0.25500000920E-02 0.  1.
       -2   -1    0    0    0  501  0.00000000000E+00  0.00000000000E+00 -0.15258450088E+04  0.15258450088E+04  0.25500000920E-02 0. -1.
    10030    2    1    2    0    0  0.00000000000E+00  0.00000000000E+00  0.96870660246E+03  0.40203966201E+04  0.39019477830E+04 0.  0.
        1    1    3    3  502    0  0.90752349242E+03  0.59969214631E+03  0.21531074185E+04  0.24122813093E+04  0.50400001928E-02 0.  1.
       -1    1    3    3    0  502 -0.90752349242E+03 -0.59969214631E+03 -0.11844008161E+04  0.16081153108E+04  0.50400001928E-02 0. -1.
</event>
<event>
 5   0  0.2904500E-09  0.3898124E+04  0.7818609E-02  0.8025419E-01
        1   -1    0    0  501    0  0.00000000000E+00  0.00000000000E+00  0.24424804345E+04  0.24424804345E+04  0.50400001928E-02 0.  1.
       -1   -1    0    0    0  501  0.00000000000E+00  0.00000000000E+00 -0.15553220255E+04  0.15553220255E+04  0.50400001928E-02 0. -1.
    10030    2    1    2    0    0  0.00000000000E+00  0.00000000000E+00  0.88715840898E+03  0.39978024600E+04  0.38981244807E+04 0.  0.
        5    1    3    3  502    0 -0.15853715808E+04  0.49611377791E+03 -0.60194458107E+03  0.17668874606E+04  0.46999998093E+01 0. -1.
       -5    1    3    3    0  502  0.15853715808E+04 -0.49611377791E+03  0.14891029900E+04  0.22309149994E+04  0.46999998093E+01 0.  1.
</event>
<event>
 5   0  0.2904500E-09  0.3907292E+04  0.7818609E-02  0.8023514E-01
       -1   -1    0    0    0  501  0.00000000000E+00  0.00000000000E+00  0.20312557397E+04  0.20312557397E+04  0.50400001928E-02 0. -1.
        1   -1    0    0  501    0  0.00000000000E+00  0.00000000000E+00 -0.18790015396E+04  0.18790015396E+04  0.50400001928E-02 0.  1.
    10030    2    1    2    0    0  0.00000000000E+00  0.00000000000E+00  0.15225420010E+03  0.39102572793E+04  0.39072919841E+04 0.  0.
        2    1    3    3  502    0 -0.89381615906E+03  0.88513815984E+03  0.15720376672E+04  0.20133751054E+04  0.25500000920E-02 0. -1.
       -2    1    3    3    0  502  0.89381615906E+03 -0.88513815984E+03 -0.14197834671E+04  0.18968821739E+04  0.25500000920E-02 0.  1.
</event>
<event>
 5   0  0.2904500E-09  0.3899129E+04  0.7818609E-02  0.8025210E-01
       -1   -1    0    0    0  501  0.00000000000E+00  0.00000000000E+00  0.25024291212E+04  0.25024291212E+04  0.50400001928E-02 0. -1.
        1   -1    0    0  501    0  0.00000000000E+00  0.00000000000E+00 -0.15188445765E+04  0.15188445765E+04  0.50400001928E-02 0.  1.
    10030    2    1    2    0    0  0.00000000000E+00  0.00000000000E+00  0.98358454469E+03  0.40212736978E+04  0.38991285688E+04 0.  0.
        3    1    3    3  502    0 -0.47592818047E+02  0.15394640641E+04 -0.74088475964E+03  0.17091298716E+04  0.10100000352E+00 0.  1.
       -3    1    3    3    0  502  0.47592818047E+02 -0.15394640641E+04  0.17244693043E+04  0.23121438261E+04  0.10100000352E+00 0. -1.
</event>
<event>
 5   0  0.2929054E-09  0.3899079E+04  0.7818609E-02  0.8025221E-01
       -1   -1    0    0    0  501  0.00000000000E+00  0.00000000000E+00  0.17775936887E+04  0.17775936887E+04  0.50400001928E-02 0. -1.
        1   -1    0    0  501    0  0.00000000000E+00  0.00000000000E+00 -0.21381176411E+04  0.21381176411E+04  0.50400001928E-02 0.  1.
    10030    2    1    2    0    0  0.00000000000E+00  0.00000000000E+00 -0.36052395241E+03  0.39157113297E+04  0.38990790833E+04 0.  0.
        1    1    3    3  502    0 -0.11973623305E+04  0.82718657064E+03  0.11224956300E+04  0.18379093048E+04  0.50400001928E-02 0. -1.
       -1    1    3    3    0  502  0.11973623305E+04 -0.82718657064E+03 -0.14830195824E+04  0.20778020250E+04  0.50400001928E-02 0.  1.
</event>
<event>
 5   0  0.6335942E-09  0.3900234E+04  0.7818609E-02  0.8024981E-01
       -2   -1    0    0    0  501  0.00000000000E+00  0.00000000000E+00  0.14206911589E+04  0.14206911589E+04  0.25500000920E-02 0.  1.
        2   -1    0    0  501    0  0.00000000000E+00  0.00000000000E+00 -0.26768352806E+04  0.26768352806E+04  0.25500000920E-02 0. -1.
    10030    2    1    2    0    0  0.00000000000E+00  0.00000000000E+00 -0.12561441217E+04  0.40975264396E+04  0.39002339505E+04 0.  0.
        2    1    3    3  502    0 -0.86899287217E+03  0.30699802943E+03 -0.24335990781E+04  0.26022684095E+04  0.25500000920E-02 0. -1.
       -2    1    3    3    0  502  0.86899287217E+03 -0.30699802943E+03  0.11774549565E+04  0.14952580301E+04  0.25500000920E-02 0.  1.
</event>
<event>
 5   0  0.9434114E-09  0.3908355E+04  0.7818609E-02  0.8023294E-01
        2   -1    0    0  501    0  0.00000000000E+00  0.00000000000E+00  0.26871318350E+04  0.26871318350E+04  0.25500000920E-02 0. -1.
       -2   -1    0    0    0  501  0.00000000000E+00  0.00000000000E+00 -0.14211473974E+04  0.14211473974E+04  0.25500000920E-02 0.  1.
    10030    2    1    2    0    0  0.00000000000E+00  0.00000000000E+00  0.12659844377E+04  0.41082792324E+04  0.39083553645E+04 0.  0.
        4    1    3    3  502    0  0.11469859991E+04  0.10539517711E+04 -0.60737608200E+03  0.16719146317E+04  0.12699999809E+01 0.  1.
       -4    1    3    3    0  502 -0.11469859991E+04 -0.10539517711E+04  0.18733605197E+04  0.24363646007E+04  0.12699999809E+01 0. -1.
</event>
<event>
 5   0  0.6335942E-09  0.3906312E+04  0.7818609E-02  0.8023718E-01
       -2   -1    0    0    0  501  0.00000000000E+00  0.00000000000E+00  0.19557916459E+04  0.19557916459E+04  0.25500000920E-02 0. -1.
        2   -1    0    0  501    0  0.00000000000E+00  0.00000000000E+00 -0.19505239340E+04  0.19505239340E+04  0.25500000920E-02 0.  1.
    10030    2    1    2    0    0  0.00000000000E+00  0.00000000000E+00  0.52677118803E+01  0.39063155799E+04  0.39063120281E+04 0.  0.
        2    1    3    3  502    0 -0.24701836228E+03  0.87889955832E+03  0.17292899687E+04  0.19554862058E+04  0.25500000920E-02 0. -1.
       -2    1    3    3    0  502  0.24701836228E+03 -0.87889955832E+03 -0.17240222569E+04  0.19508293742E+04  0.25500000920E-02 0.  1.
</event>
<event>
 5   0  0.2929054E-09  0.3894595E+04  0.7818609E-02  0.8026154E-01
       -1   -1    0    0    0  501  0.00000000000E+00  0.00000000000E+00  0.28601364378E+04  0.28601364378E+04  0.50400001928E-02 0. -1.
        1   -1    0    0  501    0  0.00000000000E+00  0.00000000000E+00 -0.13257991987E+04  0.13257991987E+04  0.50400001928E-02 0.  1.
    10030    2    1    2    0    0  0.00000000000E+00  0.00000000000E+00  0.15343372391E+04  0.41859356365E+04  0.38945945090E+04 0.  0.
        1    1    3    3  502    0 -0.39380674465E+03 -0.15375722896E+04 -0.44538955975E+03  0.16485096778E+04  0.50400001928E-02 0.  1.
       -1    1    3    3    0  502  0.39380674465E+03  0.15375722896E+04  0.19797267988E+04  0.25374259587E+04  0.50400001928E-02 0. -1.
</event>
<event>
 5   0  0.9277261E-09  0.3899128E+04  0.7818609E-02  0.8025211E-01
        2   -1    0    0  501    0  0.00000000000E+00  0.00000000000E+00  0.22429558955E+04  0.22429558955E+04  0.25500000920E-02 0.  1.
       -2   -1    0    0    0  501  0.00000000000E+00  0.00000000000E+00 -0.16945496483E+04  0.16945496483E+04  0.25500000920E-02 0. -1.
    10030    2    1    2    0    0  0.00000000000E+00  0.00000000000E+00  0.54840624715E+03  0.39375055438E+04  0.38991281712E+04 0.  0.
        1    1    3    3  502    0 -0.14607420828E+04 -0.11295523991E+04  0.90577392176E+03  0.20567164249E+04  0.50400001928E-02 0.  1.
       -1    1    3    3    0  502  0.14607420828E+04  0.11295523991E+04 -0.35736767462E+03  0.18807891189E+04  0.50400001928E-02 0. -1.
</event>
<event>
 5   0  0.9368546E-09  0.3899352E+04  0.7818609E-02  0.8025164E-01
       -2   -1    0    0    0  501  0.00000000000E+00  0.00000000000E+00  0.16275593909E+04  0.16275593909E+04  0.25500000920E-02 0.  1.
        2   -1    0    0  501    0  0.00000000000E+00  0.00000000000E+00 -0.23355440644E+04  0.23355440644E+04  0.25500000920E-02 0. -1.
    10030    2    1    2    0    0  0.00000000000E+00  0.00000000000E+00 -0.70798467353E+03  0.39631034553E+04  0.38993520872E+04 0.  0.
        5    1    3    3  502    0  0.10854124695E+04  0.90094930363E+03 -0.17218733049E+04  0.22259154622E+04  0.46999998093E+01 0. -1.
       -5    1    3    3    0  502 -0.10854124695E+04 -0.90094930363E+03  0.10138886314E+04  0.17371879931E+04  0.46999998093E+01 0.  1.
</event>
<event>
 5   0  0.9434114E-09  0.3906782E+04  0.7818609E-02  0.8023620E-01
       -2   -1    0    0    0  501  0.00000000000E+00  0.00000000000E+00  0.14987116142E+04  0.14987116142E+04  0.25500000920E-02 0. -1.
        2   -1    0    0  501    0  0.00000000000E+00  0.00000000000E+00 -0.25460115689E+04  0.25460115690E+04  0.25500000920E-02 0.  1.
    10030    2    1    2    0    0  0.00000000000E+00  0.00000000000E+00 -0.10472999547E+04  0.40447231832E+04  0.39067823632E+04 0.  0.
        4    1    3    3  502    0 -0.13782899712E+04 -0.30193250601E+02  0.90909838092E+03  0.16513801368E+04  0.12699999809E+01 0. -1.
       -4    1    3    3    0  502  0.13782899712E+04  0.30193250601E+02 -0.19563983356E+04  0.23933430464E+04  0.12699999809E+01 0.  1.
</event>
<event>
 5   0  0.2929054E-09  0.3895518E+04  0.7818609E-02  0.8025962E-01
       -1   -1    0    0    0  501  0.00000000000E+00  0.00000000000E+00  0.21432109924E+04  0.21432109925E+04  0.50400001928E-02 0.  1.
        1   -1    0    0  501    0  0.00000000000E+00  0.00000000000E+00 -0.17701311792E+04  0.17701311792E+04  0.50400001928E-02 0. -1.
    10030    2    1    2    0    0  0.00000000000E+00  0.00000000000E+00  0.37307981323E+03  0.39133421717E+04  0.38955177327E+04 0.  0.
        1    1    3    3  502    0 -0.19136200650E+04  0.18488660029E+02 -0.17772234324E+03  0.19219440198E+04  0.50400001928E-02 0.  1.
       -1    1    3    3    0  502  0.19136200650E+04 -0.18488660029E+02  0.55080215647E+03  0.19913981519E+04  0.50400001928E-02 0. -1.
</event>
<event>
 5   0  0.2904500E-09  0.3898453E+04  0.7818609E-02  0.8025351E-01
        1   -1    0    0  501    0  0.00000000000E+00  0.00000000000E+00  0.27721611966E+04  0.27721611966E+04  0.50400001928E-02 0. -1.
       -1   -1    0    0    0  501  0.00000000000E+00  0.00000000000E+00 -0.13705856851E+04  0.13705856851E+04  0.50400001928E-02 0.  1.
    10030    2    1    2    0    0  0.00000000000E+00  0.00000000000E+00  0.14015755115E+04  0.41427468817E+04  0.38984532588E+04 0.  0.
        4    1    3    3  502    0 -0.75071103958E+03 -0.20752273948E+03 -0.11980389512E+04  0.14289617538E+04  0.12699999809E+01 0.  1.
       -4    1    3    3    0  502  0.75071103958E+03  0.20752273948E+03  0.25996144628E+04  0.27137851279E+04  0.12699999809E+01 0. -1.
</event>
<event>
 5   0  0.2904500E-09  0.3902613E+04  0.7818609E-02  0.8024486E-01
        1   -1    0    0  501    0  0.00000000000E+00  0.00000000000E+00  0.26177153038E+04  0.26177153038E+04  0.50400001928E-02 0.  1.
       -1   -1    0    0    0  501  0.00000000000E+00  0.00000000000E+00 -0.14545499366E+04  0.14545499366E+04  0.50400001928E-02 0. -1.
    10030    2    1    2    0    0  0.00000000000E+00  0.00000000000E+00  0.11631653672E+04  0.40722652403E+04  0.39026132932E+04 0.  0.
        3    1    3    3  502    0 -0.10741237836E+04 -0.90755642938E+03  0.19932405825E+04  0.24393459379E+04  0.10100000352E+00 0.  1.
       -3    1    3    3    0  502  0.10741237836E+04  0.90755642938E+03 -0.83007521524E+03  0.16329193024E+04  0.10100000352E+00 0. -1.
</event>
<event>
 5   0  0.9434114E-09  0.3899586E+04  0.7818609E-02  0.8025115E-01
       -2   -1    0    0    0  501  0.00000000000E+00  0.00000000000E+00  0.15611855687E+04  0.15611855687E+04  0.25500000920E-02 0. -1.
        2   -1    0    0  501    0  0.00000000000E+00  0.00000000000E+00 -0.24351322043E+04  0.24351322043E+04  0.25500000920E-02 0.  1.
    10030    2    1    2    0    0  0.00000000000E+00  0.00000000000E+00 -0.87394663563E+03  0.39963177730E+04  0.38995862627E+04 0.  0.
        4    1    3    3  502    0 -0.58323438211E+03  0.18582067305E+04 -0.53199354612E+03  0.20189386677E+04  0.12699999809E+01 0.  1.
       -4    1    3    3    0  502  0.58323438211E+03 -0.18582067305E+04 -0.34195308951E+03  0.19773791053E+04  0.12699999809E+01 0. -1.
</event>
<event>
 5   0  0.9368546E-09  0.3900153E+04  0.7818609E-02  0.8024997E-01
       -2   -1    0    0    0  501  0.00000000000E+00  0.00000000000E+00  0.15050596725E+04  0.15050596725E+04  0.25500000920E-02 0.  1.
        2   -1    0    0  501    0  0.00000000000E+00  0.00000000000E+00 -0.25266758888E+04  0.25266758888E+04  0.25500000920E-02 0. -1.
    10030    2    1    2    0    0  0.00000000000E+00  0.00000000000E+00 -0.10216162163E+04  0.40317355612E+04  0.39001528101E+04 0.  0.
        5    1    3    3  502    0  0.86332648849E+03 -0.24011017736E+03  0.12796158042E+04  0.15621857186E+04  0.46999998093E+01 0.  1.
       -5    1    3    3    0  502 -0.86332648849E+03  0.24011017736E+03 -0.23012320205E+04  0.24695498426E+04  0.46999998093E+01 0. -1.
</event>
<event>
 5   0  0.6335942E-09  0.3900720E+04  0.7818609E-02  0.8024880E-01
        2   -1    0    0  501    0  0.00000000000E+00  0.00000000000E+00  0.15261870373E+04  0.15261870373E+04  0.25500000920E-02 0. -1.
       -2   -1    0    0    0  501  0.00000000000E+00  0.00000000000E+00 -0.24924227494E+04  0.24924227494E+04  0.25500000920E-02 0.  1.
    10030    2    1    2    0    0  0.00000000000E+00  0.00000000000E+00 -0.96623571210E+03  0.40186097867E+04  0.39007195703E+04 0.  0.
        2    1    3    3  502    0 -0.17085045337E+03 -0.90370916600E+03 -0.22549880115E+04  0.24353338716E+04  0.25500000920E-02 0.  1.
       -2    1    3    3    0  502  0.17085045337E+03  0.90370916600E+03  0.12887522994E+04  0.15832759151E+04  0.25500000920E-02 0. -1.
</event>
<event>
 5   0  0.9277261E-09  0.3904959E+04  0.7818609E-02  0.8023999E-01
        2   -1    0    0  501    0  0.00000000000E+00  0.00000000000E+00  0.23039074872E+04  0.23039074872E+04  0.25500000920E-02 0.  1.
       -2   -1    0    0    0  501  0.00000000000E+00  0.00000000000E+00 -0.16546568006E+04  0.16546568006E+04  0.25500000920E-02 0. -1.
    10030    2    1    2    0    0  0.00000000000E+00  0.00000000000E+00  0.64925068662E+03  0.39585642879E+04  0.39049589969E+04 0.  0.
        1    1    3    3  502    0 -0.12796018594E+04  0.14497796999E+04  0.59839576431E+03  0.20241836842E+04  0.50400001928E-02 0. -1.
       -1    1    3    3    0  502  0.12796018594E+04 -0.14497796999E+04  0.50854922311E+02  0.19343806037E+04  0.50400001928E-02 0.  1.
</event>
<event>
 5   0  0.6335942E-09  0.3901412E+04  0.7818609E-02  0.8024736E-01
       -2   -1    0    0    0  501  0.00000000000E+00  0.00000000000E+00  0.19016061206E+04  0.19016061206E+04  0.25500000920E-02 0. -1.
        2   -1    0    0  501    0  0.00000000000E+00  0.00000000000E+00 -0.20010732246E+04  0.20010732246E+04  0.25500000920E-02 0.  1.
    10030    2    1    2    0    0  0.00000000000E+00  0.00000000000E+00 -0.99467104002E+02  0.39026793452E+04  0.39014115864E+04 0.  0.
        2    1    3    3  502    0  0.81566170632E+03 -0.48071962737E+03  0.16563580278E+04  0.19078567283E+04  0.25500000920E-02 0. -1.
       -2    1    3    3    0  502 -0.81566170632E+03  0.48071962737E+03 -0.17558251318E+04  0.19948226169E+04  0.25500000920E-02 0.  1.
</event>
<event>
 5   0  0.9078515E-09  0.3907015E+04  0.7818609E-02  0.8023572E-01
        2   -1    0    0  501    0  0.00000000000E+00  0.00000000000E+00  0.14008527214E+04  0.14008527214E+04  0.25500000920E-02 0.  1.
       -2   -1    0    0    0  501  0.00000000000E+00  0.00000000000E+00 -0.27241911749E+04  0.27241911749E+04  0.25500000920E-02 0. -1.
    10030    2    1    2    0    0  0.00000000000E+00  0.00000000000E+00 -0.13233384535E+04  0.41250438963E+04  0.39070145231E+04 0.  0.
        3    1    3    3  502    0 -0.17877235221E+04 -0.78168494245E+03 -0.56037871080E+03  0.20300273522E+04  0.10100000352E+00 0.  1.
       -3    1    3    3    0  502  0.17877235221E+04  0.78168494245E+03 -0.76295974271E+03  0.20950165441E+04  0.10100000352E+00 0. -1.
</event>
<event>
 5   0  0.9078515E-09  0.3871710E+04  0.7818609E-02  0.8030939E-01
       -2   -1    0    0    0  501  0.00000000000E+00  0.00000000000E+00  0.14374924300E+04  0.14374924300E+04  0.25500000920E-02 0.  1.
        2   -1    0    0  501    0  0.00000000000E+00  0.00000000000E+00 -0.26069944068E+04  0.26069944068E+04  0.25500000920E-02 0. -1.
    10030    2    1    2    0    0  0.00000000000E+00  0.00000000000E+00 -0.11695019768E+04  0.40444868368E+04  0.38717100743E+04 0.  0.
        3    1    3    3  502    0 -0.12180438225E+04  0.27328840037E+03  0.96087725320E+03  0.15753102581E+04  0.10100000352E+00 0.  1.
       -3    1    3    3    0  502  0.12180438225E+04 -0.27328840037E+03 -0.21303792300E+04  0.24691765787E+04  0.10100000352E+00 0. -1.
</event>
<event>
 5   0  0.6335942E-09  0.3898093E+04  0.7818609E-02  0.8025426E-01
        2   -1    0    0  501    0  0.00000000000E+00  0.00000000000E+00  0.12636789631E+04  0.12636789631E+04  0.25500000920E-02 0. -1.
       -2   -1    0    0    0  501  0.00000000000E+00  0.00000000000E+00 -0.30061293069E+04  0.30061293069E+04  0.25500000920E-02 0.  1.
    10030    2    1    2    0    0  0.00000000000E+00  0.00000000000E+00 -0.17424503438E+04  0.42698082700E+04  0.38980930546E+04 0.  0.
        2    1    3    3  502    0  0.14551534985E+04 -0.10169999274E+04 -0.17523057570E+04  0.24944610686E+04  0.25500000920E-02 0.  1.
       -2    1    3    3    0  502 -0.14551534985E+04  0.10169999274E+04  0.98554132437E+01  0.17753472014E+04  0.25500000920E-02 0. -1.
</event>
<event>
 5   0  0.2904500E-09  0.3901340E+04  0.7818609E-02  0.8024751E-01
       -1   -1    0    0    0  501  0.00000000000E+00  0.00000000000E+00  0.34803487135E+04  0.34803487135E+04  0.50400001928E-02 0.  1.
        1   -1    0    0  501    0  0.00000000000E+00  0.00000000000E+00 -0.10933136365E+04  0.10933136365E+04  0.50400001928E-02 0. -1.
    10030    2    1    2    0    0  0.00000000000E+00  0.00000000000E+00  0.23870350770E+04  0.45736623500E+04  0.39013396203E+04 0.  0.
        3    1    3    3  502    0  0.86844189802E+03 -0.16249934185E+03  0.32323344938E+04  0.33509078854E+04  0.10100000352E+00 0.  1.
       -3    1    3    3    0  502 -0.86844189802E+03  0.16249934185E+03 -0.84529941686E+03  0.12227544646E+04  0.10100000352E+00 0. -1.
</event>
<event>
 5   0  0.2904500E-09  0.3890445E+04  0.7818609E-02  0.8027019E-01
       -1   -1    0    0    0  501  0.00000000000E+00  0.00000000000E+00  0.13907994266E+04  0.13907994266E+04  0.50400001928E-02 0. -1.
        1   -1    0    0  501    0  0.00000000000E+00  0.00000000000E+00 -0.27206583327E+04  0.27206583327E+04  0.50400001928E-02 0.  1.
    10030    2    1    2    0    0  0.00000000000E+00  0.00000000000E+00 -0.13298589061E+04  0.41114577593E+04  0.38904447299E+04 0.  0.
        2    1    3    3  502    0  0.13717143940E+04 -0.37057212082E+03  0.73906292932E+03  0.16016048480E+04  0.25500000920E-02 0. -1.
       -2    1    3    3    0  502 -0.13717143940E+04  0.37057212082E+03 -0.20689218354E+04  0.25098529113E+04  0.25500000920E-02 0.  1.
</event>
<event>
 5   0  0.2904500E-09  0.3899219E+04  0.7818609E-02  0.8025192E-01
       -1   -1    0    0    0  501  0.00000000000E+00  0.00000000000E+00  0.15635465165E+04  0.15635465165E+04  0.50400001928E-02 0.  1.
        1   -1    0    0  501    0  0.00000000000E+00  0.00000000000E+00 -0.24309977967E+04  0.24309977967E+04  0.50400001928E-02 0. -1.
    10030    2    1    2    0    0  0.00000000000E+00  0.00000000000E+00 -0.86745128021E+03  0.39945443132E+04  0.38992194791E+04 0.  0.
        2    1    3    3  502    0  0.10120965324E+04  0.12302821976E+04  0.71760186761E+03  0.17472510172E+04  0.25500000920E-02 0.  1.
       -2    1    3    3    0  502 -0.10120965324E+04 -0.12302821976E+04 -0.15850531478E+04  0.22472932960E+04  0.25500000920E-02 0. -1.
</event>
<event>
 5   0  0.2904500E-09  0.3894230E+04  0.7818609E-02  0.8026230E-01
        1   -1    0    0  501    0  0.00000000000E+00  0.00000000000E+00  0.30172300437E+04  0.30172300437E+04  0.50400001928E-02 0. -1.
       -1   -1    0    0    0  501  0.00000000000E+00  0.00000000000E+00 -0.12565357032E+04  0.12565357032E+04  0.50400001928E-02 0.  1.
    10030    2    1    2    0    0  0.00000000000E+00  0.00000000000E+00  0.17606943405E+04  0.42737657469E+04  0.38942302319E+04 0.  0.
        3    1    3    3  502    0  0.15930335754E+04  0.59708218656E+03  0.19197500039E+04  0.25650932142E+04  0.10100000352E+00 0. -1.
       -3    1    3    3    0  502 -0.15930335754E+04 -0.59708218656E+03 -0.15905566343E+03  0.17086725327E+04  0.10100000352E+00 0.  1.
</event>
<event>
 5   0  0.9277261E-09  0.3900370E+04  0.7818609E-02  0.8024952E-01
        2   -1    0    0  501    0  0.00000000000E+00  0.00000000000E+00  0.28709690292E+04  0.28709690292E+04  0.25500000920E-02 0.  1.
       -2   -1    0    0    0  501  0.00000000000E+00  0.00000000000E+00 -0.13247171224E+04  0.13247171224E+04  0.25500000920E-02 0. -1.
    10030    2    1    2    0    0  0.00000000000E+00  0.00000000000E+00  0.15462519068E+04  0.41956861516E+04  0.39003701521E+04 0.  0.
        1    1    3    3  502    0  0.83684970925E+03  0.11289100031E+04  0.22277162491E+04  0.26339086768E+04  0.50400001928E-02 0.  1.
       -1    1    3    3    0  502 -0.83684970925E+03 -0.11289100031E+04 -0.68146434233E+03  0.15617774748E+04  0.50400001928E-02 0. -1.
</event>
<event>
 5   0  0.2904500E-09  0.3900397E+04  0.7818609E-02  0.8024947E-01
       -1   -1    0    0    0  501  0.00000000000E+00  0.00000000000E+00  0.14409023199E+04  0.14409023199E+04  0.50400001928E-02 0. -1.
        1   -1    0    0  501    0  0.00000000000E+00  0.00000000000E+00 -0.26395088317E+04  0.26395088317E+04  0.50400001928E-02 0.  1.
    10030    2    1    2    0    0  0.00000000000E+00  0.00000000000E+00 -0.11986065118E+04  0.40804111516E+04  0.39003971075E+04 0.  0.
        3    1    3    3  502    0  0.37147893316E+02 -0.10093084718E+04  0.11459826947E+04  0.15275339289E+04  0.10100000352E+00 0. -1.
       -3    1    3    3    0  502 -0.37147893316E+02  0.10093084718E+04 -0.23445892065E+04  0.25528772228E+04  0.10100000352E+00 0.  1.
</event>
<event>
 5   0  0.9078515E-09  0.3899584E+04  0.7818609E-02  0.8025116E-01
        2   -1    0    0  501    0  0.00000000000E+00  0.00000000000E+00  0.25303745521E+04  0.25303745521E+04  0.25500000920E-02 0.  1.
       -2   -1    0    0    0  501  0.00000000000E+00  0.00000000000E+00 -0.15024215134E+04  0.15024215134E+04  0.25500000920E-02 0. -1.
    10030    2    1    2    0    0  0.00000000000E+00  0.00000000000E+00  0.10279530387E+04  0.40327960655E+04  0.38995841645E+04 0.  0.
        3    1    3    3  502    0  0.77574603361E+03  0.12022181340E+04 -0.85587785793E+03  0.16672244205E+04  0.10100000352E+00 0. -1.
       -3    1    3    3    0  502 -0.77574603361E+03 -0.12022181340E+04  0.18838308966E+04  0.23655716450E+04  0.10100000352E+00 0.  1.
</event>
<event>
 5   0  0.2929054E-09  0.3900865E+04  0.7818609E-02  0.8024849E-01
        1   -1    0    0  501    0  0.00000000000E+00  0.00000000000E+00  0.19367192892E+04  0.19367192892E+04  0.50400001928E-02 0. -1.
       -1   -1    0    0    0  501  0.00000000000E+00  0.00000000000E+00 -0.19642431456E+04  0.19642431456E+04  0.50400001928E-02 0.  1.
    10030    2    1    2    0    0  0.00000000000E+00  0.00000000000E+00 -0.27523856339E+02  0.39009624348E+04  0.39008653342E+04 0.  0.
        1    1    3    3  502    0 -0.17865120941E+03  0.16183415175E+04  0.10601558903E+04  0.19429040207E+04  0.50400001928E-02 0. -1.
       -1    1    3    3    0  502  0.17865120941E+03 -0.16183415175E+04 -0.10876797467E+04  0.19580584141E+04  0.50400001928E-02 0.  1.
</event>
<event>
 5   0  0.6335942E-09  0.3899525E+04  0.7818609E-02  0.8025128E-01
       -2   -1    0    0    0  501  0.00000000000E+00  0.00000000000E+00  0.17551989042E+04  0.17551989042E+04  0.25500000920E-02 0.  1.
        2   -1    0    0  501    0  0.00000000000E+00  0.00000000000E+00 -0.21658928949E+04  0.21658928949E+04  0.25500000920E-02 0. -1.
    10030    2    1    2    0    0  0.00000000000E+00  0.00000000000E+00 -0.41069399072E+03  0.39210917992E+04  0.38995245022E+04 0.  0.
        2    1    3    3  502    0  0.14599811648E+03  0.17634008218E+04 -0.10288238403E+04  0.20467966198E+04  0.25500000920E-02 0. -1.
       -2    1    3    3    0  502 -0.14599811648E+03 -0.17634008218E+04  0.61812984954E+03  0.18742951794E+04  0.25500000920E-02 0.  1.
</event>
<event>
 5   0  0.6335942E-09  0.3887621E+04  0.7818609E-02  0.8027609E-01
        2   -1    0    0  501    0  0.00000000000E+00  0.00000000000E+00  0.19897801452E+04  0.19897801452E+04  0.25500000920E-02 0. -1.
       -2   -1    0    0    0  501  0.00000000000E+00  0.00000000000E+00 -0.18989031705E+04  0.18989031705E+04  0.25500000920E-02 0.  1.
    10030    2    1    2    0    0  0.00000000000E+00  0.00000000000E+00  0.90876974654E+02  0.38886833157E+04  0.38876212913E+04 0.  0.
        2    1    3    3  502    0  0.25157796111E+02 -0.11025548904E+04  0.16465442527E+04  0.19817588596E+04  0.25500000920E-02 0. -1.
       -2    1    3    3    0  502 -0.25157796111E+02  0.11025548904E+04 -0.15556672781E+04  0.19069244561E+04  0.25500000920E-02 0.  1.
</event>
<event>
 5   0  0.2904500E-09  0.3899108E+04  0.7818609E-02  0.8025215E-01
       -1   -1    0    0    0  501  0.00000000000E+00  0.00000000000E+00  0.13334281636E+04  0.13334281636E+04  0.50400001928E-02 0.  1.
        1   -1    0    0  501    0  0.00000000000E+00  0.00000000000E+00 -0.28503675787E+04  0.28503675787E+04  0.50400001928E-02 0. -1.
    10030    2    1    2    0    0  0.00000000000E+00  0.00000000000E+00 -0.15169394151E+04  0.41837957423E+04  0.38991077985E+04 0.  0.
        5    1    3    3  502    0  0.27467500741E+03  0.65998427934E+03 -0.27046551404E+04  0.27975359028E+04  0.46999998093E+01 0. -1.
       -5    1    3    3    0  502 -0.27467500741E+03 -0.65998427934E+03  0.11877157253E+04  0.13862598395E+04  0.46999998093E+01 0.  1.
</event>
<event>
 5   0  0.2904500E-09  0.3900769E+04  0.7818609E-02  0.8024869E-01
       -1   -1    0    0    0  501  0.00000000000E+00  0.00000000000E+00  0.13452206524E+04  0.13452206524E+04  0.50400001928E-02 0.  1.
        1   -1    0    0  501    0  0.00000000000E+00  0.00000000000E+00 -0.28277888669E+04  0.28277888669E+04  0.50400001928E-02 0. -1.
    10030    2    1    2    0    0  0.00000000000E+00  0.00000000000E+00 -0.14825682145E+04  0.41730095193E+04  0.39007691469E+04 0.  0.
        3    1    3    3  502    0  0.32212245379E+03 -0.82896045967E+03 -0.25982466168E+04  0.27462381198E+04  0.10100000352E+00 0. -1.
       -3    1    3    3    0  502 -0.32212245379E+03  0.82896045967E+03  0.11156784022E+04  0.14267713995E+04  0.10100000352E+00 0.  1.
</event>
<event>
 5   0  0.2904500E-09  0.3900363E+04  0.7818609E-02  0.8024954E-01
        1   -1    0    0  501    0  0.00000000000E+00  0.00000000000E+00  0.19468741604E+04  0.19468741604E+04  0.50400001928E-02 0. -1.
       -1   -1    0    0    0  501  0.00000000000E+00  0.00000000000E+00 -0.19534943061E+04  0.19534943061E+04  0.50400001928E-02 0.  1.
    10030    2    1    2    0    0  0.00000000000E+00  0.00000000000E+00 -0.66201457253E+01  0.39003684665E+04  0.39003628482E+04 0.  0.
        2    1    3    3  502    0  0.12147532564E+04 -0.46175882711E+03 -0.14573963804E+04  0.19526522727E+04  0.25500000920E-02 0.  1.
       -2    1    3    3    0  502 -0.12147532564E+04  0.46175882711E+03  0.14507762347E+04  0.19477161938E+04  0.25500000920E-02 0. -1.
</event>
<event>
 5   0  0.6335942E-09  0.3899712E+04  0.7818609E-02  0.8025089E-01
       -2   -1    0    0    0  501  0.00000000000E+00  0.00000000000E+00  0.13829475566E+04  0.13829475566E+04  0.25500000920E-02 0. -1.
        2   -1    0    0  501    0  0.00000000000E+00  0.00000000000E+00 -0.27491556909E+04  0.27491556909E+04  0.25500000920E-02 0.  1.
    10030    2    1    2    0    0  0.00000000000E+00  0.00000000000E+00 -0.13662081343E+04  0.41321032475E+04  0.38997118588E+04 0.  0.
        2    1    3    3  502    0 -0.11763907060E+04 -0.14788857880E+04 -0.17390439923E+03  0.18976936020E+04  0.25500000920E-02 0. -1.
       -2    1    3    3    0  502  0.11763907060E+04  0.14788857880E+04 -0.11923037350E+04  0.22344096455E+04  0.25500000920E-02 0.  1.
</event>
<event>
 5   0  0.2904500E-09  0.3879909E+04  0.7818609E-02  0.8029221E-01
        1   -1    0    0  501    0  0.00000000000E+00  0.00000000000E+00  0.17099493080E+04  0.17099493080E+04  0.50400001928E-02 0.  1.
       -1   -1    0    0    0  501  0.00000000000E+00  0.00000000000E+00 -0.22008972891E+04  0.22008972891E+04  0.50400001928E-02 0. -1.
    10030    2    1    2    0    0  0.00000000000E+00  0.00000000000E+00 -0.49094798109E+03  0.39108465971E+04  0.38799086569E+04 0.  0.
        3    1    3    3  502    0  0.53228147643E+01 -0.10767752296E+04  0.13810690635E+04  0.17512352772E+04  0.10100000352E+00 0.  1.
       -3    1    3    3    0  502 -0.53228147643E+01  0.10767752296E+04 -0.18720170446E+04  0.21596113199E+04  0.10100000352E+00 0. -1.
</event>
<event>
 5   0  0.6335942E-09  0.3900284E+04  0.7818609E-02  0.8024970E-01
       -2   -1    0    0    0  501  0.00000000000E+00  0.00000000000E+00  0.14479107394E+04  0.14479107394E+04  0.25500000920E-02 0.  1.
        2   -1    0    0  501    0  0.00000000000E+00  0.00000000000E+00 -0.26265806120E+04  0.26265806120E+04  0.25500000920E-02 0. -1.
    10030    2    1    2    0    0  0.00000000000E+00  0.00000000000E+00 -0.11786698725E+04  0.40744913514E+04  0.39002842338E+04 0.  0.
        2    1    3    3  502    0  0.17249933496E+04  0.90878381667E+03 -0.54801853121E+03  0.20252936558E+04  0.25500000920E-02 0. -1.
       -2    1    3    3    0  502 -0.17249933496E+04 -0.90878381667E+03 -0.63065134131E+03  0.20491976956E+04  0.25500000920E-02 0.  1.
</event>
<event>
 5   0  0.9434114E-09  0.3899334E+04  0.7818609E-02  0.8025168E-01
        2   -1    0    0  501    0  0.00000000000E+00  0.00000000000E+00  0.24949310693E+04  0.24949310693E+04  0.25500000920E-02 0. -1.
       -2   -1    0    0    0  501  0.00000000000E+00  0.00000000000E+00 -0.15235699949E+04  0.15235699949E+04  0.25500000920E-02 0.  1.
    10030    2    1    2    0    0  0.00000000000E+00  0.00000000000E+00  0.97136107445E+03  0.40185010642E+04  0.38993343619E+04 0.  0.
        4    1    3    3  502    0  0.14779504329E+03  0.27528779937E+03  0.24689608910E+04  0.24886534997E+04  0.12699999809E+01 0. -1.
       -4    1    3    3    0  502 -0.14779504329E+03 -0.27528779937E+03 -0.14975998165E+04  0.15298475645E+04  0.12699999809E+01 0.  1.
</event>
<event>
 5   0  0.2904500E-09  0.3900093E+04  0.7818609E-02  0.8025010E-01
       -1   -1    0    0    0  501  0.00000000000E+00  0.00000000000E+00  0.22767993790E+04  0.22767993791E+04  0.50400001928E-02 0. -1.
        1   -1    0    0  501    0  0.00000000000E+00  0.00000000000E+00 -0.16701870872E+04  0.16701870872E+04  0.50400001928E-02 0.  1.
    10030    2    1    2    0    0  0.00000000000E+00  0.00000000000E+00  0.60661229188E+03  0.39469864662E+04  0.39000927799E+04 0.  0.
        5    1    3    3  502    0  0.14285255409E+04 -0.13103398009E+04  0.88663526890E+02  0.19405048122E+04  0.46999998093E+01 0.  1.
       -5    1    3    3    0  502 -0.14285255409E+04  0.13103398009E+04  0.51794876499E+03  0.20064816541E+04  0.46999998093E+01 0. -1.
</event>
<event>
 5   0  0.9368546E-09  0.3899027E+04  0.7818609E-02  0.8025232E-01
        2   -1    0    0  501    0  0.00000000000E+00  0.00000000000E+00  0.15124667076E+04  0.15124667076E+04  0.25500000920E-02 0.  1.
       -2   -1    0    0    0  501  0.00000000000E+00  0.00000000000E+00 -0.25128509799E+04  0.25128509799E+04  0.25500000920E-02 0. -1.
    10030    2    1    2    0    0  0.00000000000E+00  0.00000000000E+00 -0.10003842723E+04  0.40253176875E+04  0.38990272881E+04 0.  0.
        5    1    3    3  502    0 -0.10831543096E+04  0.11054105174E+04  0.72371320622E+03  0.17084901420E+04  0.46999998093E+01 0.  1.
       -5    1    3    3    0  502  0.10831543096E+04 -0.11054105174E+04 -0.17240974785E+04  0.23168275456E+04  0.46999998093E+01 0. -1.
</event>
<event>
 5   0  0.6335942E-09  0.3897631E+04  0.7818609E-02  0.8025522E-01
       -2   -1    0    0    0  501  0.00000000000E+00  0.00000000000E+00  0.24469446586E+04  0.24469446586E+04  0.25500000920E-02 0.  1.
        2   -1    0    0  501    0  0.00000000000E+00  0.00000000000E+00 -0.15520913890E+04  0.15520913890E+04  0.25500000920E-02 0. -1.
    10030    2    1    2    0    0  0.00000000000E+00  0.00000000000E+00  0.89485326955E+03  0.39990360476E+04  0.38976309390E+04 0.  0.
        2    1    3    3  502    0 -0.50298535455E+03  0.38723761395E+03 -0.14430456056E+04  0.15764922633E+04  0.25500000920E-02 0. -1.
       -2    1    3    3    0  502  0.50298535455E+03 -0.38723761395E+03  0.23378988751E+04  0.24225437843E+04  0.25500000920E-02 0.  1.
</event>
<event>
 5   0  0.9078515E-09  0.3888674E+04  0.7818609E-02  0.8027389E-01
        2   -1    0    0  501    0  0.00000000000E+00  0.00000000000E+00  0.21347376814E+04  0.21347376814E+04  0.25500000920E-02 0.  1.
       -2   -1    0    0    0  501  0.00000000000E+00  0.00000000000E+00 -0.17709187960E+04  0.17709187960E+04  0.25500000920E-02 0. -1.
    10030    2    1    2    0    0  0.00000000000E+00  0.00000000000E+00  0.36381888531E+03  0.39056564774E+04  0.38886743677E+04 0.  0.
        3    1    3    3  502    0 -0.14992171682E+04  0.43230659031E+03  0.13471076943E+04  0.20613685396E+04  0.10100000352E+00 0.  1.
       -3    1    3    3    0  502  0.14992171682E+04 -0.43230659031E+03 -0.98328880904E+03  0.18442879378E+04  0.10100000352E+00 0. -1.
</event>
<event>
 5   0  0.9078515E-09  0.3892615E+04  0.7818609E-02  0.8026567E-01
       -2   -1    0    0    0  501  0.00000000000E+00  0.00000000000E+00  0.15834158884E+04  0.15834158884E+04  0.25500000920E-02 0.  1.
        2   -1    0    0  501    0  0.00000000000E+00  0.00000000000E+00 -0.23923674868E+04  0.23923674868E+04  0.25500000920E-02 0. -1.
    10030    2    1    2    0    0  0.00000000000E+00  0.00000000000E+00 -0.80895159831E+03  0.39757833752E+04  0.38926148998E+04 0.  0.
        3    1    3    3  502    0 -0.99461571231E+03  0.15528700201E+04 -0.10402273148E+04  0.21172478814E+04  0.10100000352E+00 0. -1.
       -3    1    3    3    0  502  0.99461571231E+03 -0.15528700201E+04  0.23127571644E+03  0.18585354938E+04  0.10100000352E+00 0.  1.
</event>
<event>
 5   0  0.2904500E-09  0.3899280E+04  0.7818609E-02  0.8025179E-01
       -1   -1    0    0    0  501  0.00000000000E+00  0.00000000000E+00  0.15894664506E+04  0.15894664506E+04  0.50400001928E-02 0. -1.
        1   -1    0    0  501    0  0.00000000000E+00  0.00000000000E+00 -0.23914291342E+04  0.23914291342E+04  0.50400001928E-02 0.  1.
    10030    2    1    2    0    0  0.00000000000E+00  0.00000000000E+00 -0.80196268356E+03  0.39808955848E+04  0.38992801274E+04 0.  0.
        2    1    3    3  502    0 -0.25131896859E+03 -0.66173601014E+02  0.15717034536E+04  0.15930448567E+04  0.25500000920E-02 0. -1.
       -2    1    3    3    0  502  0.25131896859E+03  0.66173601014E+02 -0.23736661371E+04  0.23878507282E+04  0.25500000920E-02 0.  1.
</event>
<event>
 5   0  0.6335942E-09  0.3898029E+04  0.7818609E-02  0.8025439E-01
        2   -1    0    0  501    0  0.00000000000E+00  0.00000000000E+00  0.27328300278E+04  0.27328300278E+04  0.25500000920E-02 0.  1.
       -2   -1    0    0    0  501  0.00000000000E+00  0.00000000000E+00 -0.13900089694E+04  0.13900089694E+04  0.25500000920E-02 0. -1.
    10030    2    1    2    0    0  0.00000000000E+00  0.00000000000E+00  0.13428210585E+04  0.41228389972E+04  0.38980293742E+04 0.  0.
        2    1    3    3  502    0 -0.12961611309E+04  0.86142133187E+03  0.19123530286E+04  0.24655982021E+04  0.25500000920E-02 0.  1.
       -2    1    3    3    0  502  0.12961611309E+04 -0.86142133187E+03 -0.56953197010E+03  0.16572407952E+04  0.25500000920E-02 0. -1.
</event>
<event>
 5   0  0.9368546E-09  0.3900716E+04  0.7818609E-02  0.8024880E-01
       -2   -1    0    0    0  501  0.00000000000E+00  0.00000000000E+00  0.21706176659E+04  0.21706176659E+04  0.25500000920E-02 0. -1.
        2   -1    0    0  501    0  0.00000000000E+00  0.00000000000E+00 -0.17524484324E+04  0.17524484324E+04  0.25500000920E-02 0.  1.
    10030    2    1    2    0    0  0.00000000000E+00  0.00000000000E+00  0.41816923348E+03  0.39230660982E+04  0.39007155886E+04 0.  0.
        5    1    3    3  502    0 -0.11898078799E+04 -0.15329911305E+04  0.12596715633E+02  0.19405889220E+04  0.46999998093E+01 0.  1.
       -5    1    3    3    0  502  0.11898078799E+04  0.15329911305E+04  0.40557251785E+03  0.19824771762E+04  0.46999998093E+01 0. -1.
</event>
<event>
 5   0  0.9078515E-09  0.3898009E+04  0.7818609E-02  0.8025443E-01
       -2   -1    0    0    0  501  0.00000000000E+00  0.00000000000E+00  0.12037458612E+04  0.12037458612E+04  0.25500000920E-02 0. -1.
        2   -1    0    0  501    0  0.00000000000E+00  0.00000000000E+00 -0.31556651252E+04  0.31556651252E+04  0.25500000920E-02 0.  1.
    10030    2    1    2    0    0  0.00000000000E+00  0.00000000000E+00 -0.19519192640E+04  0.43594109864E+04  0.38980091502E+04 0.  0.
        3    1    3    3  502    0  0.46843502950E+03 -0.15001220175E+03 -0.30851102165E+04  0.31240742782E+04  0.10100000352E+00 0.  1.
       -3    1    3    3    0  502 -0.46843502950E+03  0.15001220175E+03  0.11331909525E+04  0.12353367082E+04  0.10100000352E+00 0. -1.
</event>
<event>
 5   0  0.2904500E-09  0.3900235E+04  0.7818609E-02  0.8024980E-01
        1   -1    0    0  501    0  0.00000000000E+00  0.00000000000E+00  0.15654442259E+04  0.15654442259E+04  0.50400001928E-02 0.  1.
       -1   -1    0    0    0  501  0.00000000000E+00  0.00000000000E+00 -0.24293156131E+04  0.24293156131E+04  0.50400001928E-02 0. -1.
    10030    2    1    2    0    0  0.00000000000E+00  0.00000000000E+00 -0.86387138720E+03  0.39947598390E+04  0.39002349157E+04 0.  0.
        4    1    3    3  502    0  0.92099000240E+03  0.64346043441E+03 -0.20645213182E+04  0.23504284293E+04  0.12699999809E+01 0. -1.
       -4    1    3    3    0  502 -0.92099000240E+03 -0.64346043441E+03  0.12006499310E+04  0.16443314097E+04  0.12699999809E+01 0.  1.
</event>
<event>
 5   0  0.2904500E-09  0.3898553E+04  0.7818609E-02  0.8025330E-01
       -1   -1    0    0    0  501  0.00000000000E+00  0.00000000000E+00  0.18272064240E+04  0.18272064240E+04  0.50400001928E-02 0.  1.
        1   -1    0    0  501    0  0.00000000000E+00  0.00000000000E+00 -0.20795013207E+04  0.20795013207E+04  0.50400001928E-02 0. -1.
    10030    2    1    2    0    0  0.00000000000E+00  0.00000000000E+00 -0.25229489677E+03  0.39067077447E+04  0.38985526401E+04 0.  0.
        2    1    3    3  502    0 -0.11435359560E+04  0.15578576885E+04  0.12950012474E+03  0.19368441710E+04  0.25500000920E-02 0.  1.
       -2    1    3    3    0  502  0.11435359560E+04 -0.15578576885E+04 -0.38179502151E+03  0.19698635737E+04  0.25500000920E-02 0. -1.
</event>
<event>
 5   0  0.2929054E-09  0.3901868E+04  0.7818609E-02  0.8024641E-01
       -1   -1    0    0    0  501  0.00000000000E+00  0.00000000000E+00  0.15909979283E+04  0.15909979283E+04  0.50400001928E-02 0.  1.
        1   -1    0    0  501    0  0.00000000000E+00  0.00000000000E+00 -0.23922994851E+04  0.23922994851E+04  0.50400001928E-02 0. -1.
    10030    2    1    2    0    0  0.00000000000E+00  0.00000000000E+00 -0.80130155680E+03  0.39832974134E+04  0.39018680268E+04 0.  0.
        1    1    3    3  502    0  0.14885599466E+04 -0.53210037627E+03  0.76653909217E+03  0.17568505073E+04  0.50400001928E-02 0.  1.
       -1    1    3    3    0  502 -0.14885599466E+04  0.53210037627E+03 -0.15678406490E+04  0.22264469061E+04  0.50400001928E-02 0. -1.
</event>
<event>
 5   0  0.9368546E-09  0.3906746E+04  0.7818609E-02  0.8023628E-01
        2   -1    0    0  501    0  0.00000000000E+00  0.00000000000E+00  0.17543606477E+04  0.17543606477E+04  0.25500000920E-02 0.  1.
       -2   -1    0    0    0  501  0.00000000000E+00  0.00000000000E+00 -0.21749614932E+04  0.21749614932E+04  0.25500000920E-02 0. -1.
    10030    2    1    2    0    0  0.00000000000E+00  0.00000000000E+00 -0.42060084544E+03  0.39293221409E+04  0.39067463977E+04 0.  0.
        5    1    3    3  502    0  0.68889403377E+03 -0.24215761380E+03  0.16119166705E+04  0.17696080760E+04  0.46999998093E+01 0.  1.
       -5    1    3    3    0  502 -0.68889403377E+03  0.24215761380E+03 -0.20325175160E+04  0.21597140650E+04  0.46999998093E+01 0. -1.
</event>
<event>
 5   0  0.2904500E-09  0.3879531E+04  0.7818609E-02  0.8029300E-01
       -1   -1    0    0    0  501  0.00000000000E+00  0.00000000000E+00  0.14387695247E+04  0.14387695247E+04  0.50400001928E-02 0.  1.
        1   -1    0    0  501    0  0.00000000000E+00  0.00000000000E+00 -0.26152144372E+04  0.26152144372E+04  0.50400001928E-02 0. -1.
    10030    2    1    2    0    0  0.00000000000E+00  0.00000000000E+00 -0.11764449125E+04  0.40539839619E+04  0.38795313288E+04 0.  0.
        5    1    3    3  502    0  0.15928828196E+04  0.38764102076E+03  0.49528710783E+03  0.17125631805E+04  0.46999998093E+01 0.  1.
       -5    1    3    3    0  502 -0.15928828196E+04 -0.38764102076E+03 -0.16717320203E+04  0.23414207814E+04  0.46999998093E+01 0. -1.
</event>
<event>
 5   0  0.2904500E-09  0.3896384E+04  0.7818609E-02  0.8025782E-01
        1   -1    0    0  501    0  0.00000000000E+00  0.00000000000E+00  0.19529210128E+04  0.19529210128E+04  0.50400001928E-02 0.  1.
       -1   -1    0    0    0  501  0.00000000000E+00  0.00000000000E+00 -0.19434745287E+04  0.19434745287E+04  0.50400001928E-02 0. -1.
    10030    2    1    2    0    0  0.00000000000E+00  0.00000000000E+00  0.94464840756E+01  0.38963955414E+04  0.38963840903E+04 0.  0.
        3    1    3    3  502    0  0.10752916422E+04 -0.80589994561E+03  0.14153036516E+04  0.19516176046E+04  0.10100000352E+00 0.  1.
       -3    1    3    3    0  502 -0.10752916422E+04  0.80589994561E+03 -0.14058571675E+04  0.19447779369E+04  0.10100000352E+00 0. -1.
</event>
<event>
 5   0  0.9277261E-09  0.3903983E+04  0.7818609E-02  0.8024201E-01
       -2   -1    0    0    0  501  0.00000000000E+00  0.00000000000E+00  0.26879559891E+04  0.26879559891E+04  0.25500000920E-02 0.  1.
        2   -1    0    0  501    0  0.00000000000E+00  0.00000000000E+00 -0.14175346542E+04  0.14175346543E+04  0.25500000920E-02 0. -1.
    10030    2    1    2    0    0  0.00000000000E+00  0.00000000000E+00  0.12704213348E+04  0.41054906433E+04  0.39039829731E+04 0.  0.
        1    1    3    3  502    0  0.76137228136E+03 -0.89330279775E+02  0.25230305814E+04  0.26369207354E+04  0.50400001928E-02 0.  1.
       -1    1    3    3    0  502 -0.76137228136E+03  0.89330279775E+02 -0.12526092466E+04  0.14685699079E+04  0.50400001928E-02 0. -1.
</event>
<event>
 5   0  0.2929054E-09  0.3897510E+04  0.7818609E-02  0.8025547E-01
       -1   -1    0    0    0  501  0.00000000000E+00  0.00000000000E+00  0.24987981760E+04  0.24987981760E+04  0.50400001928E-02 0.  1.
        1   -1    0    0  501    0  0.00000000000E+00  0.00000000000E+00 -0.15197887516E+04  0.15197887516E+04  0.50400001928E-02 0. -1.
    10030    2    1    2    0    0  0.00000000000E+00  0.00000000000E+00  0.97900942440E+03  0.40185869276E+04  0.38975096461E+04 0.  0.
        1    1    3    3  502    0 -0.57447267227E+03  0.16479421582E+04  0.13835715967E+04  0.22271063223E+04  0.50400001928E-02 0.  1.
       -1    1    3    3    0  502  0.57447267227E+03 -0.16479421582E+04 -0.40456217225E+03  0.17914806053E+04  0.50400001928E-02 0. -1.
</event>
<event>
 5   0  0.9277261E-09  0.3902126E+04  0.7818609E-02  0.8024587E-01
        2   -1    0    0  501    0  0.00000000000E+00  0.00000000000E+00  0.24662184244E+04  0.24662184244E+04  0.25500000920E-02 0.  1.
       -2   -1    0    0    0  501  0.00000000000E+00  0.00000000000E+00 -0.15435158133E+04  0.15435158133E+04  0.25500000920E-02 0. -1.
    10030    2    1    2    0    0  0.00000000000E+00  0.00000000000E+00  0.92270261111E+03  0.40097342376E+04  0.39021261574E+04 0.  0.
        1    1    3    3  502    0  0.19398389665E+04  0.19799263727E+03  0.53005952348E+03  0.20206779552E+04  0.50400001928E-02 0. -1.
       -1    1    3    3    0  502 -0.19398389665E+04 -0.19799263727E+03  0.39264308763E+03  0.19890562824E+04  0.50400001928E-02 0.  1.
</event>
<event>
 5   0  0.2929054E-09  0.3899765E+04  0.7818609E-02  0.8025078E-01
       -1   -1    0    0    0  501  0.00000000000E+00  0.00000000000E+00  0.15073139920E+04  0.15073139921E+04  0.50400001928E-02 0.  1.
        1   -1    0    0  501    0  0.00000000000E+00  0.00000000000E+00 -0.25223959057E+04  0.25223959057E+04  0.50400001928E-02 0. -1.
    10030    2    1    2    0    0  0.00000000000E+00  0.00000000000E+00 -0.10150819137E+04  0.40297098978E+04  0.38997654505E+04 0.  0.
        1    1    3    3  502    0 -0.16608497987E+04 -0.99250725053E+03 -0.75757465473E+03  0.20778383127E+04  0.50400001928E-02 0. -1.
       -1    1    3    3    0  502  0.16608497987E+04  0.99250725053E+03 -0.25750725896E+03  0.19518715851E+04  0.50400001928E-02 0.  1.
</event>
<event>
 5   0  0.2904500E-09  0.3881559E+04  0.7818609E-02  0.8028876E-01
        1   -1    0    0  501    0  0.00000000000E+00  0.00000000000E+00  0.17440851348E+04  0.17440851348E+04  0.50400001928E-02 0.  1.
       -1   -1    0    0    0  501  0.00000000000E+00  0.00000000000E+00 -0.21596567259E+04  0.21596567259E+04  0.50400001928E-02 0. -1.
    10030    2    1    2    0    0  0.00000000000E+00  0.00000000000E+00 -0.41557159115E+03  0.39037418607E+04  0.38815590641E+04 0.  0.
        4    1    3    3  502    0  0.11223187511E+04  0.14244956796E+03 -0.17937355069E+04  0.21207026996E+04  0.12699999809E+01 0. -1.
       -4    1    3    3    0  502 -0.11223187511E+04 -0.14244956796E+03  0.13781639157E+04  0.17830391611E+04  0.12699999809E+01 0.  1.
</event>
<event>
 5   0  0.9434114E-09  0.3900451E+04  0.7818609E-02  0.8024935E-01
        2   -1    0    0  501    0  0.00000000000E+00  0.00000000000E+00  0.17680844880E+04  0.17680844880E+04  0.25500000920E-02 0. -1.
       -2   -1    0    0    0  501  0.00000000000E+00  0.00000000000E+00 -0.21511299581E+04  0.21511299581E+04  0.25500000920E-02 0.  1.
    10030    2    1    2    0    0  0.00000000000E+00  0.00000000000E+00 -0.38304547014E+03  0.39192144461E+04  0.39004510050E+04 0.  0.
        4    1    3    3  502    0 -0.12593999862E+04  0.28259124889E+03  0.12775061297E+04  0.18160312948E+04  0.12699999809E+01 0. -1.
       -4    1    3    3    0  502  0.12593999862E+04 -0.28259124889E+03 -0.16605515998E+04  0.21031831513E+04  0.12699999809E+01 0.  1.
</event>
<event>
 5   0  0.2929054E-09  0.3900166E+04  0.7818609E-02  0.8024995E-01
        1   -1    0    0  501    0  0.00000000000E+00  0.00000000000E+00  0.29179946504E+04  0.29179946504E+04  0.50400001928E-02 0.  1.
       -1   -1    0    0    0  501  0.00000000000E+00  0.00000000000E+00 -0.13032316763E+04  0.13032316763E+04  0.50400001928E-02 0. -1.
    10030    2    1    2    0    0  0.00000000000E+00  0.00000000000E+00  0.16147629741E+04  0.42212263267E+04  0.39001656681E+04 0.  0.
        1    1    3    3  502    0 -0.11890811094E+04 -0.15408354800E+04  0.93876279469E+03  0.21608709924E+04  0.50400001928E-02 0.  1.
       -1    1    3    3    0  502  0.11890811094E+04  0.15408354800E+04  0.67600017938E+03  0.20603553343E+04  0.50400001928E-02 0. -1.
</event>
<event>
 5   0  0.2929054E-09  0.3900460E+04  0.7818609E-02  0.8024934E-01
       -1   -1    0    0    0  501  0.00000000000E+00  0.00000000000E+00  0.23745508608E+04  0.23745508608E+04  0.50400001928E-02 0.  1.
        1   -1    0    0  501    0  0.00000000000E+00  0.00000000000E+00 -0.16017331429E+04  0.16017331429E+04  0.50400001928E-02 0. -1.
    10030    2    1    2    0    0  0.00000000000E+00  0.00000000000E+00  0.77281771789E+03  0.39762840037E+04  0.39004598772E+04 0.  0.
        1    1    3    3  502    0 -0.13292924963E+04  0.13429965054E+04  0.87821714910E+03  0.20837282729E+04  0.50400001928E-02 0.  1.
       -1    1    3    3    0  502  0.13292924963E+04 -0.13429965054E+04 -0.10539943122E+03  0.18925557308E+04  0.50400001928E-02 0. -1.
</event>
<event>
 5   0  0.9277261E-09  0.3903648E+04  0.7818609E-02  0.8024271E-01
       -2   -1    0    0    0  501  0.00000000000E+00  0.00000000000E+00  0.13719315217E+04  0.13719315217E+04  0.25500000920E-02 0.  1.
        2   -1    0    0  501    0  0.00000000000E+00  0.00000000000E+00 -0.27768274517E+04  0.27768274517E+04  0.25500000920E-02 0. -1.
    10030    2    1    2    0    0  0.00000000000E+00  0.00000000000E+00 -0.14048959299E+04  0.41487589734E+04  0.39036480945E+04 0.  0.
        1    1    3    3  502    0 -0.79233977536E+03 -0.93729477372E+03 -0.23154026516E+04  0.26205749849E+04  0.50400001928E-02 0. -1.
       -1    1    3    3    0  502  0.79233977536E+03  0.93729477372E+03  0.91050672167E+03  0.15281839885E+04  0.50400001928E-02 0.  1.
</event>
<event>
 5   0  0.9078515E-09  0.3877951E+04  0.7818609E-02  0.8029631E-01
       -2   -1    0    0    0  501  0.00000000000E+00  0.00000000000E+00  0.18977667606E+04  0.18977667606E+04  0.25500000920E-02 0. -1.
        2   -1    0    0  501    0  0.00000000000E+00  0.00000000000E+00 -0.19810786409E+04  0.19810786409E+04  0.25500000920E-02 0.  1.
    10030    2    1    2    0    0  0.00000000000E+00  0.00000000000E+00 -0.83311880248E+02  0.38788454015E+04  0.38779505901E+04 0.  0.
        3    1    3    3  502    0  0.84605492152E+03 -0.85084555214E+03 -0.15651219940E+04  0.19721445054E+04  0.10100000352E+00 0.  1.
       -3    1    3    3    0  502 -0.84605492152E+03  0.85084555214E+03  0.14818101137E+04  0.19067008961E+04  0.10100000352E+00 0. -1.
</event>
<event>
 5   0  0.6335942E-09  0.3899165E+04  0.7818609E-02  0.8025203E-01
        2   -1    0    0  501    0  0.00000000000E+00  0.00000000000E+00  0.25424894739E+04  0.25424894739E+04  0.25500000920E-02 0. -1.
       -2   -1    0    0    0  501  0.00000000000E+00  0.00000000000E+00 -0.14949409028E+04  0.14949409028E+04  0.25500000920E-02 0.  1.
    10030    2    1    2    0    0  0.00000000000E+00  0.00000000000E+00  0.10475485711E+04  0.40374303766E+04  0.38991647872E+04 0.  0.
        2    1    3    3  502    0 -0.14562308110E+03 -0.36898530220E+03 -0.14527117655E+04  0.15058976422E+04  0.25500000920E-02 0.  1.
       -2    1    3    3    0  502  0.14562308110E+03  0.36898530220E+03  0.25002603366E+04  0.25315327345E+04  0.25500000920E-02 0. -1.
</event>
<event>
 5   0  0.6335942E-09  0.3900088E+04  0.7818609E-02  0.8025011E-01
       -2   -1    0    0    0  501  0.00000000000E+00  0.00000000000E+00  0.17852197298E+04  0.17852197298E+04  0.25500000920E-02 0. -1.
        2   -1    0    0  501    0  0.00000000000E+00  0.00000000000E+00 -0.21300863384E+04  0.21300863384E+04  0.25500000920E-02 0.  1.
    10030    2    1    2    0    0  0.00000000000E+00  0.00000000000E+00 -0.34486660865E+03  0.39153060682E+04  0.39000882849E+04 0.  0.
        2    1    3    3  502    0 -0.15153357355E+04  0.26530799070E+03 -0.13754586162E+04  0.20636174855E+04  0.25500000920E-02 0.  1.
       -2    1    3    3    0  502  0.15153357355E+04 -0.26530799070E+03  0.10305920076E+04  0.18516885827E+04  0.25500000920E-02 0. -1.
</event>
<event>
 5   0  0.9277261E-09  0.3900072E+04  0.7818609E-02  0.8025014E-01
        2   -1    0    0  501    0  0.00000000000E+00  0.00000000000E+00  0.16662096538E+04  0.16662096538E+04  0.25500000920E-02 0.  1.
       -2   -1    0    0    0  501  0.00000000000E+00  0.00000000000E+00 -0.22822103892E+04  0.22822103892E+04  0.25500000920E-02 0. -1.
    10030    2    1    2    0    0  0.00000000000E+00  0.00000000000E+00 -0.61600073538E+03  0.39484200430E+04  0.39000722980E+04 0.  0.
        1    1    3    3  502    0 -0.14956537611E+04  0.11959632331E+03  0.95297510378E+03  0.17774827713E+04  0.50400001928E-02 0.  1.
       -1    1    3    3    0  502  0.14956537611E+04 -0.11959632331E+03 -0.15689758392E+04  0.21709372717E+04  0.50400001928E-02 0. -1.
</event>
<event>
 5   0  0.2904500E-09  0.3901357E+04  0.7818609E-02  0.8024747E-01
        1   -1    0    0  501    0  0.00000000000E+00  0.00000000000E+00  0.17072191800E+04  0.17072191800E+04  0.50400001928E-02 0. -1.
       -1   -1    0    0    0  501  0.00000000000E+00  0.00000000000E+00 -0.22288560225E+04  0.22288560225E+04  0.50400001928E-02 0.  1.
    10030    2    1    2    0    0  0.00000000000E+00  0.00000000000E+00 -0.52163684250E+03  0.39360752025E+04  0.39013565595E+04 0.  0.
        2    1    3    3  502    0  0.11860268628E+04  0.41772306071E+03 -0.17653956964E+04  0.21674349447E+04  0.25500000920E-02 0.  1.
       -2    1    3    3    0  502 -0.11860268628E+04 -0.41772306071E+03  0.12437588539E+04  0.17686402578E+04  0.25500000920E-02 0. -1.
</event>
<event>
 5   0  0.9434114E-09  0.3901293E+04  0.7818609E-02  0.8024760E-01
        2   -1    0    0  501    0  0.00000000000E+00  0.00000000000E+00  0.21893490629E+04  0.21893490629E+04  0.25500000920E-02 0.  1.
       -2   -1    0    0    0  501  0.00000000000E+00  0.00000000000E+00 -0.17379695565E+04  0.17379695565E+04  0.25500000920E-02 0. -1.
    10030    2    1    2    0    0  0.00000000000E+00  0.00000000000E+00  0.45137950640E+03  0.39273186194E+04  0.39012931291E+04 0.  0.
        4    1    3    3  502    0  0.30338074984E+03  0.41198916659E+03  0.21205979439E+04  0.21814472731E+04  0.12699999809E+01 0.  1.
       -4    1    3    3    0  502 -0.30338074984E+03 -0.41198916659E+03 -0.16692184375E+04  0.17458713463E+04  0.12699999809E+01 0. -1.
</event>
<event>
 5   0  0.2929054E-09  0.3899695E+04  0.7818609E-02  0.8025093E-01
        1   -1    0    0  501    0  0.00000000000E+00  0.00000000000E+00  0.21845444392E+04  0.21845444392E+04  0.50400001928E-02 0.  1.
       -1   -1    0    0    0  501  0.00000000000E+00  0.00000000000E+00 -0.17403648816E+04  0.17403648816E+04  0.50400001928E-02 0. -1.
    10030    2    1    2    0    0  0.00000000000E+00  0.00000000000E+00  0.44417955760E+03  0.39249093208E+04  0.38996945646E+04 0.  0.
        1    1    3    3  502    0 -0.47222739729E+03  0.18855257449E+04  0.67151647025E+02  0.19449204079E+04  0.50400001928E-02 0.  1.
       -1    1    3    3    0  502  0.47222739729E+03 -0.18855257449E+04  0.37702791057E+03  0.19799889128E+04  0.50400001928E-02 0. -1.
</event>
<event>
 5   0  0.2904500E-09  0.3900689E+04  0.7818609E-02  0.8024886E-01
       -1   -1    0    0    0  501  0.00000000000E+00  0.00000000000E+00  0.25070273864E+04  0.25070273864E+04  0.50400001928E-02 0. -1.
        1   -1    0    0  501    0  0.00000000000E+00  0.00000000000E+00 -0.15172722212E+04  0.15172722212E+04  0.50400001928E-02 0.  1.
    10030    2    1    2    0    0  0.00000000000E+00  0.00000000000E+00  0.98975516518E+03  0.40242996076E+04  0.39006886629E+04 0.  0.
        3    1    3    3  502    0 -0.14869032877E+04 -0.10146204647E+04  0.12693369688E+04  0.22026239862E+04  0.10100000352E+00 0. -1.
       -3    1    3    3    0  502  0.14869032877E+04  0.10146204647E+04 -0.27958180359E+03  0.18216756213E+04  0.10100000352E+00 0.  1.
</event>
<event>
 5   0  0.2904500E-09  0.3899618E+04  0.7818609E-02  0.8025109E-01
       -1   -1    0    0    0  501  0.00000000000E+00  0.00000000000E+00  0.11198161293E+04  0.11198161293E+04  0.50400001928E-02 0.  1.
        1   -1    0    0  501    0  0.00000000000E+00  0.00000000000E+00 -0.33949818260E+04  0.33949818260E+04  0.50400001928E-02 0. -1.
    10030    2    1    2    0    0  0.00000000000E+00  0.00000000000E+00 -0.22751656967E+04  0.45147979554E+04  0.38996181390E+04 0.  0.
        2    1    3    3  502    0  0.11008073494E+04 -0.54986717875E+02 -0.29997157730E+04  0.31957933410E+04  0.25500000920E-02 0. -1.
       -2    1    3    3    0  502 -0.11008073494E+04  0.54986717875E+02  0.72455007633E+03  0.13190046144E+04  0.25500000920E-02 0.  1.
</event>
<event>
 5   0  0.9434114E-09  0.3907023E+04  0.7818609E-02  0.8023570E-01
       -2   -1    0    0    0  501  0.00000000000E+00  0.00000000000E+00  0.26697454020E+04  0.26697454020E+04  0.25500000920E-02 0.  1.
        2   -1    0    0  501    0  0.00000000000E+00  0.00000000000E+00 -0.14294273177E+04  0.14294273177E+04  0.25500000920E-02 0. -1.
    10030    2    1    2    0    0  0.00000000000E+00  0.00000000000E+00  0.12403180843E+04  0.40991727197E+04  0.39070229121E+04 0.  0.
        4    1    3    3  502    0 -0.87738999094E+03  0.16438097083E+04  0.45466987178E+01  0.18633158183E+04  0.12699999809E+01 0. -1.
       -4    1    3    3    0  502  0.87738999094E+03 -0.16438097083E+04  0.12357713856E+04  0.22358569014E+04  0.12699999809E+01 0.  1.
</event>
<event>
 5   0  0.2904500E-09  0.3900019E+04  0.7818609E-02  0.8025025E-01
       -1   -1    0    0    0  501  0.00000000000E+00  0.00000000000E+00  0.30687181438E+04  0.30687181438E+04  0.50400001928E-02 0. -1.
        1   -1    0    0  501    0  0.00000000000E+00  0.00000000000E+00 -0.12391285099E+04  0.12391285099E+04  0.50400001928E-02 0.  1.
    10030    2    1    2    0    0  0.00000000000E+00  0.00000000000E+00  0.18295896339E+04  0.43078466537E+04  0.39000185337E+04 0.  0.
        3    1    3    3  502    0 -0.64296866504E+03 -0.52230071383E+03  0.28647078508E+04  0.29820727390E+04  0.10100000352E+00 0. -1.
       -3    1    3    3    0  502  0.64296866504E+03  0.52230071383E+03 -0.10351182169E+04  0.13257739147E+04  0.10100000352E+00 0.  1.
</event>
<event>
 5   0  0.9078515E-09  0.3887767E+04  0.7818609E-02  0.8027578E-01
       -2   -1    0    0    0  501  0.00000000000E+00  0.00000000000E+00  0.14658124473E+04  0.14658124473E+04  0.25500000920E-02 0.  1.
        2   -1    0    0  501    0  0.00000000000E+00  0.00000000000E+00 -0.25778762830E+04  0.25778762830E+04  0.25500000920E-02 0. -1.
    10030    2    1    2    0    0  0.00000000000E+00  0.00000000000E+00 -0.11120638357E+04  0.40436887303E+04  0.38877670420E+04 0.  0.
        3    1    3    3  502    0 -0.13246814124E+04 -0.34054769144E+03 -0.19927073066E+04  0.24169476607E+04  0.10100000352E+00 0. -1.
       -3    1    3    3    0  502  0.13246814124E+04  0.34054769144E+03  0.88064347087E+03  0.16267410696E+04  0.10100000352E+00 0.  1.
</event>
<event>
 5   0  0.2904500E-09  0.3896284E+04  0.7818609E-02  0.8025802E-01
        1   -1    0    0  501    0  0.00000000000E+00  0.00000000000E+00  0.23837017956E+04  0.23837017957E+04  0.50400001928E-02 0.  1.
       -1   -1    0    0    0  501  0.00000000000E+00  0.00000000000E+00 -0.15921695944E+04  0.15921695945E+04  0.50400001928E-02 0. -1.
    10030    2    1    2    0    0  0.00000000000E+00  0.00000000000E+00  0.79153220121E+03  0.39758713901E+04  0.38962841381E+04 0.  0.
        3    1    3    3  502    0 -0.16278182905E+04 -0.10280133375E+04  0.69959574524E+03  0.20484233024E+04  0.10100000352E+00 0.  1.
       -3    1    3    3    0  502  0.16278182905E+04  0.10280133375E+04  0.91936455965E+02  0.19274480877E+04  0.10100000352E+00 0. -1.
</event>
<event>
 5   0  0.9434114E-09  0.3900546E+04  0.7818609E-02  0.8024916E-01
        2   -1    0    0  501    0  0.00000000000E+00  0.00000000000E+00  0.25041381459E+04  0.25041381459E+04  0.25500000920E-02 0.  1.
       -2   -1    0    0    0  501  0.00000000000E+00  0.00000000000E+00 -0.15189119042E+04  0.15189119042E+04  0.25500000920E-02 0. -1.
    10030    2    1    2    0    0  0.00000000000E+00  0.00000000000E+00  0.98522624175E+03  0.40230500501E+04  0.39005462384E+04 0.  0.
        4    1    3    3  502    0  0.50224665195E+03 -0.13752142313E+02  0.24362397955E+04  0.24875101558E+04  0.12699999809E+01 0.  1.
       -4    1    3    3    0  502 -0.50224665195E+03  0.13752142313E+02 -0.14510135538E+04  0.15355398943E+04  0.12699999809E+01 0. -1.
</event>
<event>
 5   0  0.2904500E-09  0.3900747E+04  0.7818609E-02  0.8024874E-01
        1   -1    0    0  501    0  0.00000000000E+00  0.00000000000E+00  0.29013542132E+04  0.29013542132E+04  0.50400001928E-02 0. -1.
       -1   -1    0    0    0  501  0.00000000000E+00  0.00000000000E+00 -0.13110970970E+04  0.13110970970E+04  0.50400001928E-02 0.  1.
    10030    2    1    2    0    0  0.00000000000E+00  0.00000000000E+00  0.15902571162E+04  0.42124513103E+04  0.39007471523E+04 0.  0.
        3    1    3    3  502    0 -0.19033270752E+04  0.89535813728E+02  0.34558745436E+03  0.19365178326E+04  0.10100000352E+00 0.  1.
       -3    1    3    3    0  502  0.19033270752E+04 -0.89535813728E+02  0.12446696618E+04  0.22759334776E+04  0.10100000352E+00 0. -1.
</event>
<event>
 5   0  0.9368546E-09  0.3898426E+04  0.7818609E-02  0.8025357E-01
        2   -1    0    0  501    0  0.00000000000E+00  0.00000000000E+00  0.20416740390E+04  0.20416740390E+04  0.25500000920E-02 0. -1.
       -2   -1    0    0    0  501  0.00000000000E+00  0.00000000000E+00 -0.18609388914E+04  0.18609388914E+04  0.25500000920E-02 0.  1.
    10030    2    1    2    0    0  0.00000000000E+00  0.00000000000E+00  0.18073514759E+03  0.39026129304E+04  0.38984256426E+04 0.  0.
        5    1    3    3  502    0  0.13328598437E+04 -0.10884027565E+04  0.10069232726E+04  0.19937533674E+04  0.46999998093E+01 0. -1.
       -5    1    3    3    0  502 -0.13328598437E+04  0.10884027565E+04 -0.82618812500E+03  0.19088595630E+04  0.46999998093E+01 0.  1.
</event>
<event>
 5   0  0.9078515E-09  0.3902296E+04  0.7818609E-02  0.8024552E-01
        2   -1    0    0  501    0  0.00000000000E+00  0.00000000000E+00  0.23510174055E+04  0.23510174055E+04  0.25500000920E-02 0. -1.
       -2   -1    0    0    0  501  0.00000000000E+00  0.00000000000E+00 -0.16192901730E+04  0.16192901730E+04  0.25500000920E-02 0.  1.
    10030    2    1    2    0    0  0.00000000000E+00  0.00000000000E+00  0.73172723253E+03  0.39703075784E+04  0.39022964424E+04 0.  0.
        3    1    3    3  502    0  0.33029774799E+03  0.10353377998E+04  0.20145870714E+04  0.22890133334E+04  0.10100000352E+00 0. -1.
       -3    1    3    3    0  502 -0.33029774799E+03 -0.10353377998E+04 -0.12828598389E+04  0.16812942450E+04  0.10100000352E+00 0.  1.
</event>
<event>
 5   0  0.9078515E-09  0.3898805E+04  0.7818609E-02  0.8025278E-01
       -2   -1    0    0    0  501  0.00000000000E+00  0.00000000000E+00  0.13779305898E+04  0.13779305898E+04  0.25500000920E-02 0. -1.
        2   -1    0    0  501    0  0.00000000000E+00  0.00000000000E+00 -0.27578814672E+04  0.27578814672E+04  0.25500000920E-02 0.  1.
    10030    2    1    2    0    0  0.00000000000E+00  0.00000000000E+00 -0.13799508774E+04  0.41358120570E+04  0.38988045535E+04 0.  0.
        3    1    3    3  502    0 -0.12410649514E+04  0.25042486110E+03  0.88243366228E+03  0.15432575946E+04  0.10100000352E+00 0. -1.
       -3    1    3    3    0  502  0.12410649514E+04 -0.25042486110E+03 -0.22623845397E+04  0.25925544624E+04  0.10100000352E+00 0.  1.
</event>
<event>
 5   0  0.2904500E-09  0.3900379E+04  0.7818609E-02  0.8024950E-01
        1   -1    0    0  501    0  0.00000000000E+00  0.00000000000E+00  0.22899707014E+04  0.22899707014E+04  0.50400001928E-02 0. -1.
       -1   -1    0    0    0  501  0.00000000000E+00  0.00000000000E+00 -0.16608246535E+04  0.16608246535E+04  0.50400001928E-02 0.  1.
    10030    2    1    2    0    0  0.00000000000E+00  0.00000000000E+00  0.62914604786E+03  0.39507953549E+04  0.39003793644E+04 0.  0.
        4    1    3    3  502    0 -0.14163376758E+04  0.93820577570E+03  0.12845497922E+04  0.21298620309E+04  0.12699999809E+01 0. -1.
       -4    1    3    3    0  502  0.14163376758E+04 -0.93820577570E+03 -0.65540374429E+03  0.18209333239E+04  0.12699999809E+01 0.  1.
</event>
<event>
 5   0  0.2904500E-09  0.3899813E+04  0.7818609E-02  0.8025068E-01
       -1   -1    0    0    0  501  0.00000000000E+00  0.00000000000E+00  0.13726039354E+04  0.13726039354E+04  0.50400001928E-02 0.  1.
        1   -1    0    0  501    0  0.00000000000E+00  0.00000000000E+00 -0.27700168477E+04  0.27700168477E+04  0.50400001928E-02 0. -1.
    10030    2    1    2    0    0  0.00000000000E+00  0.00000000000E+00 -0.13974129122E+04  0.41426207831E+04  0.38998133424E+04 0.  0.
        4    1    3    3  502    0 -0.13081875410E+04  0.13796730985E+04 -0.23900140418E+03  0.19162400124E+04  0.12699999809E+01 0.  1.
       -4    1    3    3    0  502  0.13081875410E+04 -0.13796730985E+04 -0.11584115081E+04  0.22263807707E+04  0.12699999809E+01 0. -1.
</event>
<event>
 5   0  0.2929054E-09  0.3897412E+04  0.7818609E-02  0.8025568E-01
        1   -1    0    0  501    0  0.00000000000E+00  0.00000000000E+00  0.28458070750E+04  0.28458070750E+04  0.50400001928E-02 0.  1.
       -1   -1    0    0    0  501  0.00000000000E+00  0.00000000000E+00 -0.13344034032E+04  0.13344034032E+04  0.50400001928E-02 0. -1.
    10030    2    1    2    0    0  0.00000000000E+00  0.00000000000E+00  0.15114036718E+04  0.41802104782E+04  0.38974117800E+04 0.  0.
        1    1    3    3  502    0 -0.15914904070E+04 -0.54692430214E+02  0.19604226831E+04  0.25256860601E+04  0.50400001928E-02 0.  1.
       -1    1    3    3    0  502  0.15914904070E+04  0.54692430214E+02 -0.44901901132E+03  0.16545244181E+04  0.50400001928E-02 0. -1.
</event>
<event>
 5   0  0.2904500E-09  0.3899269E+04  0.7818609E-02  0.8025181E-01
       -1   -1    0    0    0  501  0.00000000000E+00  0.00000000000E+00  0.21114334798E+04  0.21114334798E+04  0.50400001928E-02 0.  1.
        1   -1    0    0  501    0  0.00000000000E+00  0.00000000000E+00 -0.18002337432E+04  0.18002337432E+04  0.50400001928E-02 0. -1.
    10030    2    1    2    0    0  0.00000000000E+00  0.00000000000E+00  0.31119973666E+03  0.39116672230E+04  0.38992685452E+04 0.  0.
        5    1    3    3  502    0 -0.19342763591E+04 -0.13291152076E+02 -0.88999173983E+02  0.19363740938E+04  0.46999998093E+01 0. -1.
       -5    1    3    3    0  502  0.19342763591E+04  0.13291152076E+02  0.40019891064E+03  0.19752931292E+04  0.46999998093E+01 0.  1.
</event>
<event>
 5   0  0.2904500E-09  0.3900322E+04  0.7818609E-02  0.8024962E-01
       -1   -1    0    0    0  501  0.00000000000E+00  0.00000000000E+00  0.27445122709E+04  0.27445122709E+04  0.50400001928E-02 0. -1.
        1   -1    0    0  501    0  0.00000000000E+00  0.00000000000E+00 -0.13857210950E+04  0.13857210950E+04  0.50400001928E-02 0.  1.
    10030    2    1    2    0    0  0.00000000000E+00  0.00000000000E+00  0.13587911760E+04  0.41302333659E+04  0.39003223196E+04 0.  0.
        3    1    3    3  502    0 -0.10764367672E+04  0.12844742478E+04  0.17354464996E+04  0.24125432163E+04  0.10100000352E+00 0. -1.
       -3    1    3    3    0  502  0.10764367672E+04 -0.12844742478E+04 -0.37665532363E+03  0.17176901496E+04  0.10100000352E+00 0.  1.
</event>
<event>
 5   0  0.2904500E-09  0.3900002E+04  0.7818609E-02  0.8025029E-01
        1   -1    0    0  501    0  0.00000000000E+00  0.00000000000E+00  0.19557952448E+04  0.19557952448E+04  0.50400001928E-02 0. -1.
       -1   -1    0    0    0  501  0.00000000000E+00  0.00000000000E+00 -0.19442237423E+04  0.19442237423E+04  0.50400001928E-02 0.  1.
    10030    2    1    2    0    0  0.00000000000E+00  0.00000000000E+00  0.11571502514E+02  0.39000189871E+04  0.39000018205E+04 0.  0.
        2    1    3    3  502    0 -0.12803595665E+04 -0.75283699662E+03  0.12692862225E+04  0.19537583468E+04  0.25500000920E-02 0. -1.
       -2    1    3    3    0  502  0.12803595665E+04  0.75283699662E+03 -0.12577147200E+04  0.19462606403E+04  0.25500000920E-02 0.  1.
</event>
<event>
 5   0  0.9368546E-09  0.3897156E+04  0.7818609E-02  0.8025621E-01
        2   -1    0    0  501    0  0.00000000000E+00  0.00000000000E+00  0.18716951480E+04  0.18716951480E+04  0.25500000920E-02 0.  1.
       -2   -1    0    0    0  501  0.00000000000E+00  0.00000000000E+00 -0.20286191609E+04  0.20286191609E+04  0.25500000920E-02 0. -1.
    10030    2    1    2    0    0  0.00000000000E+00  0.00000000000E+00 -0.15692401287E+03  0.39003143089E+04  0.38971562148E+04 0.  0.
        5    1    3    3  502    0  0.16380681386E+02 -0.16690702067E+04  0.92777348714E+03  0.19096725937E+04  0.46999998093E+01 0.  1.
       -5    1    3    3    0  502 -0.16380681386E+02  0.16690702067E+04 -0.10846975000E+04  0.19906417152E+04  0.46999998093E+01 0. -1.
</event>
<event>
 5   0  0.6335942E-09  0.3896567E+04  0.7818609E-02  0.8025744E-01
        2   -1    0    0  501    0  0.00000000000E+00  0.00000000000E+00  0.27273749578E+04  0.27273749578E+04  0.25500000920E-02 0.  1.
       -2   -1    0    0    0  501  0.00000000000E+00  0.00000000000E+00 -0.13917441554E+04  0.13917441554E+04  0.25500000920E-02 0. -1.
    10030    2    1    2    0    0  0.00000000000E+00  0.00000000000E+00  0.13356308023E+04  0.41191191132E+04  0.38965667746E+04 0.  0.
        2    1    3    3  502    0 -0.35068338705E+03 -0.68831253024E+03  0.25585609787E+04  0.26726367615E+04  0.25500000920E-02 0.  1.
       -2    1    3    3    0  502  0.35068338705E+03  0.68831253024E+03 -0.12229301764E+04  0.14464823516E+04  0.25500000920E-02 0. -1.
</event>
<event>
 5   0  0.2904500E-09  0.3898979E+04  0.7818609E-02  0.8025241E-01
        1   -1    0    0  501    0  0.00000000000E+00  0.00000000000E+00  0.19118786775E+04  0.19118786775E+04  0.50400001928E-02 0.  1.
       -1   -1    0    0    0  501  0.00000000000E+00  0.00000000000E+00 -0.19878406436E+04  0.19878406436E+04  0.50400001928E-02 0. -1.
    10030    2    1    2    0    0  0.00000000000E+00  0.00000000000E+00 -0.75961966125E+02  0.38997193211E+04  0.38989794258E+04 0.  0.
        3    1    3    3  502    0 -0.91677830308E+03  0.15763154250E+04 -0.72750092291E+03  0.19632907016E+04  0.10100000352E+00 0. -1.
       -3    1    3    3    0  502  0.91677830308E+03 -0.15763154250E+04  0.65153895678E+03  0.19364286195E+04  0.10100000352E+00 0.  1.
</event>
<event>
 5   0  0.2929054E-09  0.3903322E+04  0.7818609E-02  0.8024339E-01
        1   -1    0    0  501    0  0.00000000000E+00  0.00000000000E+00  0.23246543852E+04  0.23246543852E+04  0.50400001928E-02 0.  1.
       -1   -1    0    0    0  501  0.00000000000E+00  0.00000000000E+00 -0.16385151890E+04  0.16385151890E+04  0.50400001928E-02 0. -1.
    10030    2    1    2    0    0  0.00000000000E+00  0.00000000000E+00  0.68613919620E+03  0.39631695743E+04  0.39033224409E+04 0.  0.
        1    1    3    3  502    0  0.57843255248E+03 -0.16350538618E+04  0.12517757048E+04  0.21389080775E+04  0.50400001928E-02 0.  1.
       -1    1    3    3    0  502 -0.57843255248E+03  0.16350538618E+04 -0.56563650858E+03  0.18242614968E+04  0.50400001928E-02 0. -1.
</event>
<event>
 5   0  0.6335942E-09  0.3900181E+04  0.7818609E-02  0.8024991E-01
        2   -1    0    0  501    0  0.00000000000E+00  0.00000000000E+00  0.16608620249E+04  0.16608620249E+04  0.25500000920E-02 0. -1.
       -2   -1    0    0    0  501  0.00000000000E+00  0.00000000000E+00 -0.22896866385E+04  0.22896866385E+04  0.25500000920E-02 0.  1.
    10030    2    1    2    0    0  0.00000000000E+00  0.00000000000E+00 -0.62882461358E+03  0.39505486634E+04  0.39001813224E+04 0.  0.
        2    1    3    3  502    0  0.11465629567E+04 -0.84981421293E+03 -0.16605072296E+04  0.21895376383E+04  0.25500000920E-02 0.  1.
       -2    1    3    3    0  502 -0.11465629567E+04  0.84981421293E+03  0.10316826160E+04  0.17610110251E+04  0.25500000920E-02 0. -1.
</event>
<event>
 5   0  0.2904500E-09  0.3899700E+04  0.7818609E-02  0.8025092E-01
        1   -1    0    0  501    0  0.00000000000E+00  0.00000000000E+00  0.24292359796E+04  0.24292359796E+04  0.50400001928E-02 0. -1.
       -1   -1    0    0    0  501  0.00000000000E+00  0.00000000000E+00 -0.15650657834E+04  0.15650657834E+04  0.50400001928E-02 0.  1.
    10030    2    1    2    0    0  0.00000000000E+00  0.00000000000E+00  0.86417019619E+03  0.39943017630E+04  0.38996995327E+04 0.  0.
        2    1    3    3  502    0  0.84866165076E+03 -0.86926645895E+03 -0.11300568464E+04  0.16591802947E+04  0.25500000920E-02 0.  1.
       -2    1    3    3    0  502 -0.84866165076E+03  0.86926645895E+03  0.19942270426E+04  0.23351214683E+04  0.25500000920E-02 0. -1.
</event>
<event>
 5   0  0.2904500E-09  0.3894091E+04  0.7818609E-02  0.8026259E-01
       -1   -1    0    0    0  501  0.00000000000E+00  0.00000000000E+00  0.13953377479E+04  0.13953377479E+04  0.50400001928E-02 0.  1.
        1   -1    0    0  501    0  0.00000000000E+00  0.00000000000E+00 -0.27168956408E+04  0.27168956408E+04  0.50400001928E-02 0. -1.
    10030    2    1    2    0    0  0.00000000000E+00  0.00000000000E+00 -0.13215578929E+04  0.41122333888E+04  0.38940914447E+04 0.  0.
        3    1    3    3  502    0  0.88137388029E+03  0.10190965648E+04  0.82352260412E+03  0.15791032946E+04  0.10100000352E+00 0.  1.
       -3    1    3    3    0  502 -0.88137388029E+03 -0.10190965648E+04 -0.21450804970E+04  0.25331300942E+04  0.10100000352E+00 0. -1.
</event>
<event>
 5   0  0.9434114E-09  0.3900605E+04  0.7818609E-02  0.8024903E-01
        2   -1    0    0  501    0  0.00000000000E+00  0.00000000000E+00  0.20732764302E+04  0.20732764302E+04  0.25500000920E-02 0.  1.
       -2   -1    0    0    0  501  0.00000000000E+00  0.00000000000E+00 -0.18346226790E+04  0.18346226790E+04  0.25500000920E-02 0. -1.
    10030    2    1    2    0    0  0.00000000000E+00  0.00000000000E+00  0.23865375115E+03  0.39078991092E+04  0.39006050601E+04 0.  0.
        4    1    3    3  502    0  0.43464388649E+03  0.17999739547E+04  0.73272728264E+03  0.19914096589E+04  0.12699999809E+01 0.  1.
       -4    1    3    3    0  502 -0.43464388649E+03 -0.17999739547E+04 -0.49407353149E+03  0.19164894503E+04  0.12699999809E+01 0. -1.
</event>
<event>
 5   0  0.6335942E-09  0.3899332E+04  0.7818609E-02  0.8025168E-01
        2   -1    0    0  501    0  0.00000000000E+00  0.00000000000E+00  0.18397939136E+04  0.18397939136E+04  0.25500000920E-02 0.  1.
       -2   -1    0    0    0  501  0.00000000000E+00  0.00000000000E+00 -0.20661000481E+04  0.20661000481E+04  0.25500000920E-02 0. -1.
    10030    2    1    2    0    0  0.00000000000E+00  0.00000000000E+00 -0.22630613447E+03  0.39058939617E+04  0.38993324010E+04 0.  0.
        2    1    3    3  502    0  0.12072663965E+04 -0.11936335213E+04  0.84707630689E+03  0.18973116257E+04  0.25500000920E-02 0.  1.
       -2    1    3    3    0  502 -0.12072663965E+04  0.11936335213E+04 -0.10733824414E+04  0.20085823360E+04  0.25500000920E-02 0. -1.
</event>
<event>
 5   0  0.9434114E-09  0.3895255E+04  0.7818609E-02  0.8026017E-01
       -2   -1    0    0    0  501  0.00000000000E+00  0.00000000000E+00  0.19036488272E+04  0.19036488272E+04  0.25500000920E-02 0. -1.
        2   -1    0    0  501    0  0.00000000000E+00  0.00000000000E+00 -0.19926225695E+04  0.19926225695E+04  0.25500000920E-02 0.  1.
    10030    2    1    2    0    0  0.00000000000E+00  0.00000000000E+00 -0.88973742274E+02  0.38962713967E+04  0.38952553793E+04 0.  0.
        4    1    3    3  502    0  0.25498860927E+02  0.13029864349E+04 -0.14922165120E+04  0.19811954908E+04  0.12699999809E+01 0.  1.
       -4    1    3    3    0  502 -0.25498860927E+02 -0.13029864349E+04  0.14032427697E+04  0.19150759058E+04  0.12699999809E+01 0. -1.
</event>
<event>
 5   0  0.9078515E-09  0.3898839E+04  0.7818609E-02  0.8025271E-01
        2   -1    0    0  501    0  0.00000000000E+00  0.00000000000E+00  0.17221173487E+04  0.17221173487E+04  0.25500000920E-02 0.  1.
       -2   -1    0    0    0  501  0.00000000000E+00  0.00000000000E+00 -0.22067228237E+04  0.22067228237E+04  0.25500000920E-02 0. -1.
    10030    2    1    2    0    0  0.00000000000E+00  0.00000000000E+00 -0.48460547498E+03  0.39288401724E+04  0.38988386263E+04 0.  0.
        3    1    3    3  502    0 -0.60887329109E+03 -0.30013275297E+03 -0.20837751970E+04  0.21915577647E+04  0.10100000352E+00 0. -1.
       -3    1    3    3    0  502  0.60887329109E+03  0.30013275297E+03  0.15991697220E+04  0.17372824077E+04  0.10100000352E+00 0.  1.
</event>
<event>
 5   0  0.6335942E-09  0.3899361E+04  0.7818609E-02  0.8025162E-01
        2   -1    0    0  501    0  0.00000000000E+00  0.00000000000E+00  0.12138292098E+04  0.12138292098E+04  0.25500000920E-02 0.  1.
       -2   -1    0    0    0  501  0.00000000000E+00  0.00000000000E+00 -0.31316224902E+04  0.31316224902E+04  0.25500000920E-02 0. -1.
    10030    2    1    2    0    0  0.00000000000E+00  0.00000000000E+00 -0.19177932804E+04  0.43454517000E+04  0.38993614106E+04 0.  0.
        2    1    3    3  502    0  0.45423281589E+03  0.33285462654E+03 -0.30390192625E+04  0.30907535863E+04  0.25500000920E-02 0. -1.
       -2    1    3    3    0  502 -0.45423281589E+03 -0.33285462654E+03  0.11212259821E+04  0.12546981136E+04  0.25500000920E-02 0.  1.
</event>
<event>
 5   0  0.9277261E-09  0.3899357E+04  0.7818609E-02  0.8025163E-01
       -2   -1    0    0    0  501  0.00000000000E+00  0.00000000000E+00  0.21164867608E+04  0.21164867608E+04  0.25500000920E-02 0. -1.
        2   -1    0    0  501    0  0.00000000000E+00  0.00000000000E+00 -0.17960166089E+04  0.17960166089E+04  0.25500000920E-02 0.  1.
    10030    2    1    2    0    0  0.00000000000E+00  0.00000000000E+00  0.32047015188E+03  0.39125033696E+04  0.38993565494E+04 0.  0.
        1    1    3    3  502    0 -0.94324927253E+03  0.89511523747E+02 -0.15494799526E+04  0.18162102374E+04  0.50400001928E-02 0.  1.
       -1    1    3    3    0  502  0.94324927253E+03 -0.89511523747E+02  0.18699501045E+04  0.20962931322E+04  0.50400001928E-02 0. -1.
</event>
<event>
 5   0  0.2904500E-09  0.3901876E+04  0.7818609E-02  0.8024639E-01
       -1   -1    0    0    0  501  0.00000000000E+00  0.00000000000E+00  0.16519740329E+04  0.16519740329E+04  0.50400001928E-02 0.  1.
        1   -1    0    0  501    0  0.00000000000E+00  0.00000000000E+00 -0.23040069254E+04  0.23040069254E+04  0.50400001928E-02 0. -1.
    10030    2    1    2    0    0  0.00000000000E+00  0.00000000000E+00 -0.65203289257E+03  0.39559809583E+04  0.39018762730E+04 0.  0.
        2    1    3    3  502    0 -0.14151928215E+04  0.38102370392E+03  0.97955439175E+03  0.17628036168E+04  0.25500000920E-02 0. -1.
       -2    1    3    3    0  502  0.14151928215E+04 -0.38102370392E+03 -0.16315872843E+04  0.21931773415E+04  0.25500000920E-02 0.  1.
</event>
<event>
 5   0  0.6335942E-09  0.3885002E+04  0.7818609E-02  0.8028156E-01
       -2   -1    0    0    0  501  0.00000000000E+00  0.00000000000E+00  0.15857095308E+04  0.15857095309E+04  0.25500000920E-02 0. -1.
        2   -1    0    0  501    0  0.00000000000E+00  0.00000000000E+00 -0.23795726243E+04  0.23795726243E+04  0.25500000920E-02 0.  1.
    10030    2    1    2    0    0  0.00000000000E+00  0.00000000000E+00 -0.79386309341E+03  0.39652821551E+04  0.38850024400E+04 0.  0.
        2    1    3    3  502    0 -0.67579441490E+02  0.19413150576E+04 -0.39048794592E+03  0.19813510466E+04  0.25500000920E-02 0. -1.
       -2    1    3    3    0  502  0.67579441490E+02 -0.19413150576E+04 -0.40337514748E+03  0.19839311085E+04  0.25500000920E-02 0.  1.
</event>
<event>
 5   0  0.9078515E-09  0.3912981E+04  0.7818609E-02  0.8022335E-01
        2   -1    0    0  501    0  0.00000000000E+00  0.00000000000E+00  0.17984059096E+04  0.17984059096E+04  0.25500000920E-02 0.  1.
       -2   -1    0    0    0  501  0.00000000000E+00  0.00000000000E+00 -0.21284713628E+04  0.21284713628E+04  0.25500000920E-02 0. -1.
    10030    2    1    2    0    0  0.00000000000E+00  0.00000000000E+00 -0.33006545320E+03  0.39268772724E+04  0.39129812048E+04 0.  0.
        3    1    3    3  502    0 -0.19118099684E+04  0.23487816568E+03  0.17921660522E+03  0.19345034788E+04  0.10100000352E+00 0.  1.
       -3    1    3    3    0  502  0.19118099684E+04 -0.23487816568E+03 -0.50928205842E+03  0.19923737935E+04  0.10100000352E+00 0. -1.
</event>
<event>
 5   0  0.9368546E-09  0.3900132E+04  0.7818609E-02  0.8025002E-01
       -2   -1    0    0    0  501  0.00000000000E+00  0.00000000000E+00  0.15344779243E+04  0.15344779243E+04  0.25500000920E-02 0.  1.
        2   -1    0    0  501    0  0.00000000000E+00  0.00000000000E+00 -0.24782097318E+04  0.24782097318E+04  0.25500000920E-02 0. -1.
    10030    2    1    2    0    0  0.00000000000E+00  0.00000000000E+00 -0.94373180754E+03  0.40126876561E+04  0.39001323697E+04 0.  0.
        5    1    3    3  502    0 -0.15228378780E+04 -0.10510199898E+04 -0.11053106456E+04  0.21553217706E+04  0.46999998093E+01 0. -1.
       -5    1    3    3    0  502  0.15228378780E+04  0.10510199898E+04  0.16157883801E+03  0.18573658855E+04  0.46999998093E+01 0.  1.
</event>
<event>
 5   0  0.9277261E-09  0.3900456E+04  0.7818609E-02  0.8024934E-01
        2   -1    0    0  501    0  0.00000000000E+00  0.00000000000E+00  0.19176713327E+04  0.19176713327E+04  0.25500000920E-02 0.  1.
       -2   -1    0    0    0  501  0.00000000000E+00  0.00000000000E+00 -0.19833377995E+04  0.19833377995E+04  0.25500000920E-02 0. -1.
    10030    2    1    2    0    0  0.00000000000E+00  0.00000000000E+00 -0.65666466796E+02  0.39010091322E+04  0.39004564047E+04 0.  0.
        1    1    3    3  502    0  0.13030381482E+04 -0.58036004507E+03  0.12972664427E+04  0.19281147323E+04  0.50400001928E-02 0.  1.
       -1    1    3    3    0  502 -0.13030381482E+04  0.58036004507E+03 -0.13629329095E+04  0.19728943999E+04  0.50400001928E-02 0. -1.
</event>
<event>
 5   0  0.2929054E-09  0.3899755E+04  0.7818609E-02  0.8025080E-01
       -1   -1    0    0    0  501  0.00000000000E+00  0.00000000000E+00  0.13979257843E+04  0.13979257843E+04  0.50400001928E-02 0.  1.
        1   -1    0    0  501    0  0.00000000000E+00  0.00000000000E+00 -0.27197600667E+04  0.27197600667E+04  0.50400001928E-02 0. -1.
    10030    2    1    2    0    0  0.00000000000E+00  0.00000000000E+00 -0.13218342824E+04  0.41176858510E+04  0.38997552356E+04 0.  0.
        1    1    3    3  502    0 -0.11806329669E+04  0.59691642060E+03 -0.21733824305E+04  0.25443652656E+04  0.50400001928E-02 0. -1.
       -1    1    3    3    0  502  0.11806329669E+04 -0.59691642060E+03  0.85154814817E+03  0.15733205854E+04  0.50400001928E-02 0.  1.
</event>
<event>
 5   0  0.6335942E-09  0.3900916E+04  0.7818609E-02  0.8024839E-01
       -2   -1    0    0    0  501  0.00000000000E+00  0.00000000000E+00  0.26863610753E+04  0.26863610753E+04  0.25500000920E-02 0.  1.
        2   -1    0    0  501    0  0.00000000000E+00  0.00000000000E+00 -0.14161486712E+04  0.14161486712E+04  0.25500000920E-02 0. -1.
    10030    2    1    2    0    0  0.00000000000E+00  0.00000000000E+00  0.12702124041E+04  0.41025097465E+04  0.39009161320E+04 0.  0.
        2    1    3    3  502    0 -0.15877283426E+04 -0.31788459519E+03  0.17786608162E+04  0.24053203954E+04  0.25500000920E-02 0.  1.
       -2    1    3    3    0  502  0.15877283426E+04  0.31788459519E+03 -0.50844841213E+03  0.16971893511E+04  0.25500000920E-02 0. -1.
</event>
<event>
 5   0  0.2904500E-09  0.3900778E+04  0.7818609E-02  0.8024867E-01
       -1   -1    0    0    0  501  0.00000000000E+00  0.00000000000E+00  0.19414995664E+04  0.19414995664E+04  0.50400001928E-02 0. -1.
        1   -1    0    0  501    0  0.00000000000E+00  0.00000000000E+00 -0.19593191882E+04  0.19593191882E+04  0.50400001928E-02 0.  1.
    10030    2    1    2    0    0  0.00000000000E+00  0.00000000000E+00 -0.17819621761E+02  0.39008187546E+04  0.39007780528E+04 0.  0.
        3    1    3    3  502    0  0.18401449141E+03  0.90185739766E+03  0.17106456404E+04  0.19425541475E+04  0.10100000352E+00 0. -1.
       -3    1    3    3    0  502 -0.18401449141E+03 -0.90185739766E+03 -0.17284652622E+04  0.19582646071E+04  0.10100000352E+00 0.  1.
</event>
<event>
 5   0  0.9078515E-09  0.3903680E+04  0.7818609E-02  0.8024264E-01
       -2   -1    0    0    0  501  0.00000000000E+00  0.00000000000E+00  0.12882398405E+04  0.12882398405E+04  0.25500000920E-02 0.  1.
        2   -1    0    0  501    0  0.00000000000E+00  0.00000000000E+00 -0.29572749877E+04  0.29572749877E+04  0.25500000920E-02 0. -1.
    10030    2    1    2    0    0  0.00000000000E+00  0.00000000000E+00 -0.16690351472E+04  0.42455148282E+04  0.39036800374E+04 0.  0.
        3    1    3    3  502    0 -0.78951779789E+03 -0.10830010848E+04  0.70869781542E+03  0.15160746376E+04  0.10100000352E+00 0.  1.
       -3    1    3    3    0  502  0.78951779789E+03  0.10830010848E+04 -0.23777329626E+04  0.27294401907E+04  0.10100000352E+00 0. -1.
</event>
<event>
 5   0  0.2904500E-09  0.3899290E+04  0.7818609E-02  0.8025177E-01
       -1   -1    0    0    0  501  0.00000000000E+00  0.00000000000E+00  0.16932394640E+04  0.16932394640E+04  0.50400001928E-02 0. -1.
        1   -1    0    0  501    0  0.00000000000E+00  0.00000000000E+00 -0.22448783388E+04  0.22448783388E+04  0.50400001928E-02 0.  1.
    10030    2    1    2    0    0  0.00000000000E+00  0.00000000000E+00 -0.55163887480E+03  0.39381178028E+04  0.38992904971E+04 0.  0.
        2    1    3    3  502    0 -0.13990667854E+04 -0.13476888997E+04 -0.44319031938E+03  0.19925036762E+04  0.25500000920E-02 0. -1.
       -2    1    3    3    0  502  0.13990667854E+04  0.13476888997E+04 -0.10844855542E+03  0.19456141266E+04  0.25500000920E-02 0.  1.
</event>
<event>
 5   0  0.9434114E-09  0.3899804E+04  0.7818609E-02  0.8025070E-01
        2   -1    0    0  501    0  0.00000000000E+00  0.00000000000E+00  0.27408749249E+04  0.27408749250E+04  0.25500000920E-02 0.  1.
       -2   -1    0    0    0  501  0.00000000000E+00  0.00000000000E+00 -0.13871914239E+04  0.13871914239E+04  0.25500000920E-02 0. -1.
    10030    2    1    2    0    0  0.00000000000E+00  0.00000000000E+00  0.13536835010E+04  0.41280663489E+04  0.38998041950E+04 0.  0.
        4    1    3    3  502    0  0.19450474964E+04  0.10916412987E+03  0.76534162538E+03  0.20930542246E+04  0.12699999809E+01 0. -1.
       -4    1    3    3    0  502 -0.19450474964E+04 -0.10916412987E+03  0.58834187566E+03  0.20350121243E+04  0.12699999809E+01 0.  1.
</event>
<event>
 5   0  0.2929054E-09  0.3904501E+04  0.7818609E-02  0.8024094E-01
        1   -1    0    0  501    0  0.00000000000E+00  0.00000000000E+00  0.25168487467E+04  0.25168487467E+04  0.50400001928E-02 0. -1.
       -1   -1    0    0    0  501  0.00000000000E+00  0.00000000000E+00 -0.15143070063E+04  0.15143070063E+04  0.50400001928E-02 0.  1.
    10030    2    1    2    0    0  0.00000000000E+00  0.00000000000E+00  0.10025417404E+04  0.40311557530E+04  0.39045008341E+04 0.  0.
        1    1    3    3  502    0  0.16818876425E+04  0.56460238880E+03 -0.33987153662E+03  0.18063871570E+04  0.50400001928E-02 0.  1.
       -1    1    3    3    0  502 -0.16818876425E+04 -0.56460238880E+03  0.13424132770E+04  0.22247685960E+04  0.50400001928E-02 0. -1.
</event>
<event>
 5   0  0.9277261E-09  0.3901642E+04  0.7818609E-02  0.8024688E-01
       -2   -1    0    0    0  501  0.00000000000E+00  0.00000000000E+00  0.13128231148E+04  0.13128231148E+04  0.25500000920E-02 0.  1.
        2   -1    0    0  501    0  0.00000000000E+00  0.00000000000E+00 -0.28988689611E+04  0.28988689611E+04  0.25500000920E-02 0. -1.
    10030    2    1    2    0    0  0.00000000000E+00  0.00000000000E+00 -0.15860458463E+04  0.42116920760E+04  0.39016417975E+04 0.  0.
        1    1    3    3  502    0 -0.22500447569E+03  0.27987908539E+03 -0.28628823210E+04  0.28853170537E+04  0.50400001928E-02 0. -1.
       -1    1    3    3    0  502  0.22500447569E+03 -0.27987908539E+03  0.12768364747E+04  0.13263750223E+04  0.50400001928E-02 0.  1.
</event>
<event>
 5   0  0.2904500E-09  0.3901466E+04  0.7818609E-02  0.8024724E-01
        1   -1    0    0  501    0  0.00000000000E+00  0.00000000000E+00  0.25203341954E+04  0.25203341954E+04  0.50400001928E-02 0.  1.
       -1   -1    0    0    0  501  0.00000000000E+00  0.00000000000E+00 -0.15098629211E+04  0.15098629211E+04  0.50400001928E-02 0. -1.
    10030    2    1    2    0    0  0.00000000000E+00  0.00000000000E+00  0.10104712743E+04  0.40301971165E+04  0.39014659555E+04 0.  0.
        2    1    3    3  502    0  0.22057956678E+02  0.13774229233E+04  0.19319587511E+04  0.23728137472E+04  0.25500000920E-02 0.  1.
       -2    1    3    3    0  502 -0.22057956678E+02 -0.13774229233E+04 -0.92148747681E+03  0.16573833693E+04  0.25500000920E-02 0. -1.
</event>
<event>
 5   0  0.2904500E-09  0.3898157E+04  0.7818609E-02  0.8025413E-01
        3   -1    0    0  501    0  0.00000000000E+00  0.00000000000E+00  0.16303861131E+04  0.16303861162E+04  0.10100000352E+00 0. -1.
       -3   -1    0    0    0  501  0.00000000000E+00  0.00000000000E+00 -0.23300656833E+04  0.23300656855E+04  0.10100000352E+00 0.  1.
    10030    2    1    2    0    0  0.00000000000E+00  0.00000000000E+00 -0.69967957019E+03  0.39604518017E+04  0.38981568687E+04 0.  0.
        1    1    3    3  502    0 -0.15188703393E+04 -0.17476835682E+03  0.87836087551E+03  0.17632438611E+04  0.50400001928E-02 0. -1.
       -1    1    3    3    0  502  0.15188703393E+04  0.17476835682E+03 -0.15780404457E+04  0.21972079406E+04  0.50400001928E-02 0.  1.
</event>
<event>
 5   0  0.9078515E-09  0.3900918E+04  0.7818609E-02  0.8024838E-01
       -2   -1    0    0    0  501  0.00000000000E+00  0.00000000000E+00  0.26901472901E+04  0.26901472901E+04  0.25500000920E-02 0.  1.
        2   -1    0    0  501    0  0.00000000000E+00  0.00000000000E+00 -0.14141570852E+04  0.14141570852E+04  0.25500000920E-02 0. -1.
    10030    2    1    2    0    0  0.00000000000E+00  0.00000000000E+00  0.12759902049E+04  0.41043043753E+04  0.39009182768E+04 0.  0.
        3    1    3    3  502    0  0.66604320272E+02 -0.17437395641E+04 -0.27877098855E+03  0.17671381036E+04  0.10100000352E+00 0. -1.
       -3    1    3    3    0  502 -0.66604320272E+02  0.17437395641E+04  0.15547611934E+04  0.23371662717E+04  0.10100000352E+00 0.  1.
</event>
<event>
 5   0  0.2904500E-09  0.3898779E+04  0.7818609E-02  0.8025283E-01
        1   -1    0    0  501    0  0.00000000000E+00  0.00000000000E+00  0.30200090775E+04  0.30200090775E+04  0.50400001928E-02 0.  1.
       -1   -1    0    0    0  501  0.00000000000E+00  0.00000000000E+00 -0.12583140409E+04  0.12583140409E+04  0.50400001928E-02 0. -1.
    10030    2    1    2    0    0  0.00000000000E+00  0.00000000000E+00  0.17616950367E+04  0.42783231184E+04  0.38987792068E+04 0.  0.
        3    1    3    3  502    0 -0.15822010709E+04 -0.76130851772E+03  0.18101469524E+04  0.25218213432E+04  0.10100000352E+00 0.  1.
       -3    1    3    3    0  502  0.15822010709E+04  0.76130851772E+03 -0.48451915715E+02  0.17565017752E+04  0.10100000352E+00 0. -1.
</event>
<event>
 5   0  0.9277261E-09  0.3897772E+04  0.7818609E-02  0.8025493E-01
       -2   -1    0    0    0  501  0.00000000000E+00  0.00000000000E+00  0.14799773521E+04  0.14799773521E+04  0.25500000920E-02 0. -1.
        2   -1    0    0  501    0  0.00000000000E+00  0.00000000000E+00 -0.25663611956E+04  0.25663611956E+04  0.25500000920E-02 0.  1.
    10030    2    1    2    0    0  0.00000000000E+00  0.00000000000E+00 -0.10863838434E+04  0.40463385477E+04  0.38977719004E+04 0.  0.
        1    1    3    3  502    0 -0.46434021520E+03 -0.18284763797E+04 -0.10509342795E+04  0.21594908118E+04  0.50400001928E-02 0.  1.
       -1    1    3    3    0  502  0.46434021520E+03  0.18284763797E+04 -0.35449563967E+02  0.18868477358E+04  0.50400001928E-02 0. -1.
</event>
<event>
 5   0  0.2904500E-09  0.3900335E+04  0.7818609E-02  0.8024959E-01
       -1   -1    0    0    0  501  0.00000000000E+00  0.00000000000E+00  0.31963369714E+04  0.31963369714E+04  0.50400001928E-02 0.  1.
        1   -1    0    0  501    0  0.00000000000E+00  0.00000000000E+00 -0.11898476917E+04  0.11898476917E+04  0.50400001928E-02 0. -1.
    10030    2    1    2    0    0  0.00000000000E+00  0.00000000000E+00  0.20064892797E+04  0.43861846631E+04  0.39003354560E+04 0.  0.
        4    1    3    3  502    0  0.10706156650E+03  0.15179986504E+04 -0.36825130813E+03  0.15656924093E+04  0.12699999809E+01 0. -1.
       -4    1    3    3    0  502 -0.10706156650E+03 -0.15179986504E+04  0.23747405878E+04  0.28204922538E+04  0.12699999809E+01 0.  1.
</event>
<event>
 5   0  0.9277261E-09  0.3902095E+04  0.7818609E-02  0.8024594E-01
       -2   -1    0    0    0  501  0.00000000000E+00  0.00000000000E+00  0.16953860181E+04  0.16953860181E+04  0.25500000920E-02 0.  1.
        2   -1    0    0  501    0  0.00000000000E+00  0.00000000000E+00 -0.22452628734E+04  0.22452628734E+04  0.25500000920E-02 0. -1.
    10030    2    1    2    0    0  0.00000000000E+00  0.00000000000E+00 -0.54987685534E+03  0.39406488915E+04  0.39020954793E+04 0.  0.
        1    1    3    3  502    0  0.48851851135E+03 -0.52949382172E+03 -0.21060194764E+04  0.22258328954E+04  0.50400001928E-02 0. -1.
       -1    1    3    3    0  502 -0.48851851135E+03  0.52949382172E+03  0.15561426211E+04  0.17148159961E+04  0.50400001928E-02 0.  1.
</event>
<event>
 5   0  0.2904500E-09  0.3900916E+04  0.7818609E-02  0.8024839E-01
       -1   -1    0    0    0  501  0.00000000000E+00  0.00000000000E+00  0.17508435097E+04  0.17508435097E+04  0.50400001928E-02 0. -1.
        1   -1    0    0  501    0  0.00000000000E+00  0.00000000000E+00 -0.21728304775E+04  0.21728304775E+04  0.50400001928E-02 0.  1.
    10030    2    1    2    0    0  0.00000000000E+00  0.00000000000E+00 -0.42198696779E+03  0.39236739873E+04  0.39009158614E+04 0.  0.
        4    1    3    3  502    0 -0.59823448034E+03  0.56326089000E+02  0.16554256809E+04  0.17611055958E+04  0.12699999809E+01 0. -1.
       -4    1    3    3    0  502  0.59823448034E+03 -0.56326089000E+02 -0.20774126487E+04  0.21625683914E+04  0.12699999809E+01 0.  1.
</event>
<event>
 5   0  0.2904500E-09  0.3901491E+04  0.7818609E-02  0.8024719E-01
       -1   -1    0    0    0  501  0.00000000000E+00  0.00000000000E+00  0.24835329680E+04  0.24835329680E+04  0.50400001928E-02 0.  1.
        1   -1    0    0  501    0  0.00000000000E+00  0.00000000000E+00 -0.15322557009E+04  0.15322557009E+04  0.50400001928E-02 0. -1.
    10030    2    1    2    0    0  0.00000000000E+00  0.00000000000E+00  0.95127726714E+03  0.40157886689E+04  0.39014907656E+04 0.  0.
        5    1    3    3  502    0  0.27695909737E+03 -0.49733926710E+03  0.23961329920E+04  0.24628292863E+04  0.46999998093E+01 0.  1.
       -5    1    3    3    0  502 -0.27695909737E+03  0.49733926710E+03 -0.14448557249E+04  0.15529593826E+04  0.46999998093E+01 0. -1.
</event>
<event>
 5   0  0.2904500E-09  0.3901240E+04  0.7818609E-02  0.8024771E-01
       -1   -1    0    0    0  501  0.00000000000E+00  0.00000000000E+00  0.17997169943E+04  0.17997169943E+04  0.50400001928E-02 0.  1.
        1   -1    0    0  501    0  0.00000000000E+00  0.00000000000E+00 -0.21141763036E+04  0.21141763036E+04  0.50400001928E-02 0. -1.
    10030    2    1    2    0    0  0.00000000000E+00  0.00000000000E+00 -0.31445930933E+03  0.39138932979E+04  0.39012403272E+04 0.  0.
        2    1    3    3  502    0  0.26716124357E+03 -0.98449999407E+03 -0.18252415776E+04  0.20909620238E+04  0.25500000920E-02 0. -1.
       -2    1    3    3    0  502 -0.26716124357E+03  0.98449999407E+03  0.15107822682E+04  0.18229312742E+04  0.25500000920E-02 0.  1.
</event>
<event>
 5   0  0.2904500E-09  0.3899559E+04  0.7818609E-02  0.8025121E-01
        1   -1    0    0  501    0  0.00000000000E+00  0.00000000000E+00  0.18738972145E+04  0.18738972145E+04  0.50400001928E-02 0. -1.
       -1   -1    0    0    0  501  0.00000000000E+00  0.00000000000E+00 -0.20287341917E+04  0.20287341917E+04  0.50400001928E-02 0.  1.
    10030    2    1    2    0    0  0.00000000000E+00  0.00000000000E+00 -0.15483697719E+03  0.39026314062E+04  0.38995586165E+04 0.  0.
        3    1    3    3  502    0 -0.95207214958E+03 -0.13850724041E+04  0.91167825419E+03  0.19120732705E+04  0.10100000352E+00 0.  1.
       -3    1    3    3    0  502  0.95207214958E+03  0.13850724041E+04 -0.10665152314E+04  0.19905581357E+04  0.10100000352E+00 0. -1.
</event>
<event>
 5   0  0.6335942E-09  0.3900375E+04  0.7818609E-02  0.8024951E-01
        2   -1    0    0  501    0  0.00000000000E+00  0.00000000000E+00  0.11996843745E+04  0.11996843745E+04  0.25500000920E-02 0. -1.
       -2   -1    0    0    0  501  0.00000000000E+00  0.00000000000E+00 -0.31701924804E+04  0.31701924804E+04  0.25500000920E-02 0.  1.
    10030    2    1    2    0    0  0.00000000000E+00  0.00000000000E+00 -0.19705081058E+04  0.43698768549E+04  0.39003745373E+04 0.  0.
        2    1    3    3  502    0 -0.86775801365E+02 -0.14313895050E+04  0.49551563035E+03  0.15172151115E+04  0.25500000920E-02 0. -1.
       -2    1    3    3    0  502  0.86775801365E+02  0.14313895050E+04 -0.24660237362E+04  0.28526617434E+04  0.25500000920E-02 0.  1.
</event>
<event>
 5   0  0.9434114E-09  0.3903894E+04  0.7818609E-02  0.8024220E-01
       -2   -1    0    0    0  501  0.00000000000E+00  0.00000000000E+00  0.19285977271E+04  0.19285977271E+04  0.25500000920E-02 0. -1.
        2   -1    0    0  501    0  0.00000000000E+00  0.00000000000E+00 -0.19755791577E+04  0.19755791577E+04  0.25500000920E-02 0.  1.
    10030    2    1    2    0    0  0.00000000000E+00  0.00000000000E+00 -0.46981430637E+02  0.39041768848E+04  0.39038941959E+04 0.  0.
        4    1    3    3  502    0 -0.29687240333E+03 -0.58347436536E+03 -0.18625149252E+04  0.19742185842E+04  0.12699999809E+01 0.  1.
       -4    1    3    3    0  502  0.29687240333E+03  0.58347436536E+03  0.18155334946E+04  0.19299583005E+04  0.12699999809E+01 0. -1.
</event>
<event>
 5   0  0.9078515E-09  0.3906645E+04  0.7818609E-02  0.8023649E-01
        2   -1    0    0  501    0  0.00000000000E+00  0.00000000000E+00  0.20809694351E+04  0.20809694351E+04  0.25500000920E-02 0.  1.
       -2   -1    0    0    0  501  0.00000000000E+00  0.00000000000E+00 -0.18335052833E+04  0.18335052833E+04  0.25500000920E-02 0. -1.
    10030    2    1    2    0    0  0.00000000000E+00  0.00000000000E+00  0.24746415186E+03  0.39144747184E+04  0.39066448283E+04 0.  0.
        3    1    3    3  502    0 -0.10967974350E+04  0.15520344797E+04  0.57596003217E+03  0.19858261778E+04  0.10100000352E+00 0. -1.
       -3    1    3    3    0  502  0.10967974350E+04 -0.15520344797E+04 -0.32849588031E+03  0.19286485406E+04  0.10100000352E+00 0.  1.
</event>
<event>
 5   0  0.9368546E-09  0.3904676E+04  0.7818609E-02  0.8024057E-01
        2   -1    0    0  501    0  0.00000000000E+00  0.00000000000E+00  0.11894788130E+04  0.11894788130E+04  0.25500000920E-02 0.  1.
       -2   -1    0    0    0  501  0.00000000000E+00  0.00000000000E+00 -0.32044491247E+04  0.32044491247E+04  0.25500000920E-02 0. -1.
    10030    2    1    2    0    0  0.00000000000E+00  0.00000000000E+00 -0.20149703118E+04  0.43939279377E+04  0.39046763457E+04 0.  0.
        5    1    3    3  502    0  0.89494071302E+03 -0.10163970692E+04 -0.25899692437E+04  0.29226605440E+04  0.46999998093E+01 0. -1.
       -5    1    3    3    0  502 -0.89494071302E+03  0.10163970692E+04  0.57499893193E+03  0.14712673937E+04  0.46999998093E+01 0.  1.
</event>
<event>
 5   0  0.2904500E-09  0.3890647E+04  0.7818609E-02  0.8026977E-01
       -1   -1    0    0    0  501  0.00000000000E+00  0.00000000000E+00  0.23115543575E+04  0.23115543575E+04  0.50400001928E-02 0.  1.
        1   -1    0    0  501    0  0.00000000000E+00  0.00000000000E+00 -0.16371167067E+04  0.16371167067E+04  0.50400001928E-02 0. -1.
    10030    2    1    2    0    0  0.00000000000E+00  0.00000000000E+00  0.67443765078E+03  0.39486710641E+04  0.38906473790E+04 0.  0.
        2    1    3    3  502    0  0.14673713428E+04 -0.16867566393E+03 -0.94762099554E+03  0.17548833831E+04  0.25500000920E-02 0. -1.
       -2    1    3    3    0  502 -0.14673713428E+04  0.16867566393E+03  0.16220586463E+04  0.21937876810E+04  0.25500000920E-02 0.  1.
</event>
<event>
 5   0  0.2904500E-09  0.3902067E+04  0.7818609E-02  0.8024599E-01
        1   -1    0    0  501    0  0.00000000000E+00  0.00000000000E+00  0.13991809205E+04  0.13991809205E+04  0.50400001928E-02 0. -1.
       -1   -1    0    0    0  501  0.00000000000E+00  0.00000000000E+00 -0.27205426729E+04  0.27205426729E+04  0.50400001928E-02 0.  1.
    10030    2    1    2    0    0  0.00000000000E+00  0.00000000000E+00 -0.13213617524E+04  0.41197235934E+04  0.39020668377E+04 0.  0.
        4    1    3    3  502    0  0.12721625008E+04 -0.14357683226E+04 -0.10364876190E+04  0.21803981980E+04  0.12699999809E+01 0.  1.
       -4    1    3    3    0  502 -0.12721625008E+04  0.14357683226E+04 -0.28487413343E+03  0.19393253954E+04  0.12699999809E+01 0. -1.
</event>
<event>
 5   0  0.9277261E-09  0.3898954E+04  0.7818609E-02  0.8025247E-01
       -2   -1    0    0    0  501  0.00000000000E+00  0.00000000000E+00  0.18579257505E+04  0.18579257505E+04  0.25500000920E-02 0. -1.
        2   -1    0    0  501    0  0.00000000000E+00  0.00000000000E+00 -0.20455393238E+04  0.20455393238E+04  0.25500000920E-02 0.  1.
    10030    2    1    2    0    0  0.00000000000E+00  0.00000000000E+00 -0.18761357324E+03  0.39034650743E+04  0.38989537998E+04 0.  0.
        1    1    3    3  502    0 -0.15031646622E+04 -0.45846454388E+03  0.10611164771E+04  0.18962230664E+04  0.50400001928E-02 0. -1.
       -1    1    3    3    0  502  0.15031646622E+04  0.45846454388E+03 -0.12487300503E+04  0.20072420079E+04  0.50400001928E-02 0.  1.
</event>
<event>
 5   0  0.9277261E-09  0.3901044E+04  0.7818609E-02  0.8024812E-01
        2   -1    0    0  501    0  0.00000000000E+00  0.00000000000E+00  0.21299474781E+04  0.21299474781E+04  0.25500000920E-02 0.  1.
       -2   -1    0    0    0  501  0.00000000000E+00  0.00000000000E+00 -0.17862109123E+04  0.17862109123E+04  0.25500000920E-02 0. -1.
    10030    2    1    2    0    0  0.00000000000E+00  0.00000000000E+00  0.34373656574E+03  0.39161583904E+04  0.39010436696E+04 0.  0.
        1    1    3    3  502    0  0.11761047862E+04  0.15560062009E+04  0.15926325872E+03  0.19569728028E+04  0.50400001928E-02 0. -1.
       -1    1    3    3    0  502 -0.11761047862E+04 -0.15560062009E+04  0.18447330701E+03  0.19591855876E+04  0.50400001928E-02 0.  1.
</event>
<event>
 5   0  0.2904500E-09  0.3900781E+04  0.7818609E-02  0.8024867E-01
       -3   -1    0    0    0  501  0.00000000000E+00  0.00000000000E+00  0.31147570971E+04  0.31147570987E+04  0.10100000352E+00 0.  1.
        3   -1    0    0  501    0  0.00000000000E+00  0.00000000000E+00 -0.12212902972E+04  0.12212903014E+04  0.10100000352E+00 0. -1.
    10030    2    1    2    0    0  0.00000000000E+00  0.00000000000E+00  0.18934667999E+04  0.43360474001E+04  0.39007807595E+04 0.  0.
        4    1    3    3  502    0 -0.60012655597E+02  0.19000199025E+04  0.46176668912E+03  0.19562482554E+04  0.12699999809E+01 0. -1.
       -4    1    3    3    0  502  0.60012655597E+02 -0.19000199025E+04  0.14317001108E+04  0.23797991446E+04  0.12699999809E+01 0.  1.
</event>
<event>
 5   0  0.9078515E-09  0.3899094E+04  0.7818609E-02  0.8025218E-01
       -2   -1    0    0    0  501  0.00000000000E+00  0.00000000000E+00  0.13042914426E+04  0.13042914426E+04  0.25500000920E-02 0.  1.
        2   -1    0    0  501    0  0.00000000000E+00  0.00000000000E+00 -0.29140214143E+04  0.29140214143E+04  0.25500000920E-02 0. -1.
    10030    2    1    2    0    0  0.00000000000E+00  0.00000000000E+00 -0.16097299717E+04  0.42183128569E+04  0.38990938405E+04 0.  0.
        3    1    3    3  502    0  0.16236948292E+04  0.10321805777E+04 -0.46454584261E+03  0.19792888858E+04  0.10100000352E+00 0.  1.
       -3    1    3    3    0  502 -0.16236948292E+04 -0.10321805777E+04 -0.11451841291E+04  0.22390239711E+04  0.10100000352E+00 0. -1.
</event>
<event>
 5   0  0.2904500E-09  0.3893552E+04  0.7818609E-02  0.8026372E-01
       -1   -1    0    0    0  501  0.00000000000E+00  0.00000000000E+00  0.19470050200E+04  0.19470050200E+04  0.50400001928E-02 0.  1.
        1   -1    0    0  501    0  0.00000000000E+00  0.00000000000E+00 -0.19465470963E+04  0.19465470963E+04  0.50400001928E-02 0. -1.
    10030    2    1    2    0    0  0.00000000000E+00  0.00000000000E+00  0.45792370055E+00  0.38935521164E+04  0.38935520894E+04 0.  0.
        3    1    3    3  502    0 -0.15904838183E+04 -0.28363965772E+03  0.10864364663E+04  0.19469038079E+04  0.10100000352E+00 0.  1.
       -3    1    3    3    0  502  0.15904838183E+04  0.28363965772E+03 -0.10859785426E+04  0.19466483085E+04  0.10100000352E+00 0. -1.
</event>
<event>
 5   0  0.2904500E-09  0.3901226E+04  0.7818609E-02  0.8024774E-01
        3   -1    0    0  501    0  0.00000000000E+00  0.00000000000E+00  0.22514775339E+04  0.22514775362E+04  0.10100000352E+00 0. -1.
       -3   -1    0    0    0  501  0.00000000000E+00  0.00000000000E+00 -0.16899528346E+04  0.16899528376E+04  0.10100000352E+00 0.  1.
    10030    2    1    2    0    0  0.00000000000E+00  0.00000000000E+00  0.56152469933E+03  0.39414303738E+04  0.39012258847E+04 0.  0.
        5    1    3    3  502    0 -0.18869179414E+04  0.24541826983E+03  0.71434629206E+03  0.20324866936E+04  0.46999998093E+01 0.  1.
       -5    1    3    3    0  502  0.18869179414E+04 -0.24541826983E+03 -0.15282159273E+03  0.19089436801E+04  0.46999998093E+01 0. -1.
</event>
<event>
 5   0  0.6335942E-09  0.3901586E+04  0.7818609E-02  0.8024699E-01
       -2   -1    0    0    0  501  0.00000000000E+00  0.00000000000E+00  0.13485949606E+04  0.13485949606E+04  0.25500000920E-02 0.  1.
        2   -1    0    0  501    0  0.00000000000E+00  0.00000000000E+00 -0.28218953873E+04  0.28218953873E+04  0.25500000920E-02 0. -1.
    10030    2    1    2    0    0  0.00000000000E+00  0.00000000000E+00 -0.14733004267E+04  0.41704903479E+04  0.39015862921E+04 0.  0.
        2    1    3    3  502    0 -0.14296875132E+04 -0.70511006110E+03  0.46530809426E+03  0.16606318696E+04  0.25500000920E-02 0.  1.
       -2    1    3    3    0  502  0.14296875132E+04  0.70511006110E+03 -0.19386085210E+04  0.25098584783E+04  0.25500000920E-02 0. -1.
</event>
<event>
 5   0  0.2929054E-09  0.3899748E+04  0.7818609E-02  0.8025082E-01
       -1   -1    0    0    0  501  0.00000000000E+00  0.00000000000E+00  0.18059650022E+04  0.18059650022E+04  0.50400001928E-02 0. -1.
        1   -1    0    0  501    0  0.00000000000E+00  0.00000000000E+00 -0.21052501968E+04  0.21052501968E+04  0.50400001928E-02 0.  1.
    10030    2    1    2    0    0  0.00000000000E+00  0.00000000000E+00 -0.29928519456E+03  0.39112151990E+04  0.38997477745E+04 0.  0.
        1    1    3    3  502    0  0.64130396508E+03 -0.40099698278E+03 -0.19521304273E+04  0.20935335109E+04  0.50400001928E-02 0.  1.
       -1    1    3    3    0  502 -0.64130396508E+03  0.40099698278E+03  0.16528452327E+04  0.18176816881E+04  0.50400001928E-02 0. -1.
</event>
<event>
 5   0  0.9277261E-09  0.3900282E+04  0.7818609E-02  0.8024971E-01
       -2   -1    0    0    0  501  0.00000000000E+00  0.00000000000E+00  0.15721975119E+04  0.15721975119E+04  0.25500000920E-02 0.  1.
        2   -1    0    0  501    0  0.00000000000E+00  0.00000000000E+00 -0.24189384831E+04  0.24189384831E+04  0.25500000920E-02 0. -1.
    10030    2    1    2    0    0  0.00000000000E+00  0.00000000000E+00 -0.84674097121E+03  0.39911359950E+04  0.39002815614E+04 0.  0.
        1    1    3    3  502    0  0.17087123664E+03  0.10573381655E+04 -0.20910225753E+04  0.23493693593E+04  0.50400001928E-02 0. -1.
       -1    1    3    3    0  502 -0.17087123664E+03 -0.10573381655E+04  0.12442816041E+04  0.16417666357E+04  0.50400001928E-02 0.  1.
</event>
<event>
 5   0  0.6335942E-09  0.3904743E+04  0.7818609E-02  0.8024043E-01
       -2   -1    0    0    0  501  0.00000000000E+00  0.00000000000E+00  0.28275106794E+04  0.28275106794E+04  0.25500000920E-02 0. -1.
        2   -1    0    0  501    0  0.00000000000E+00  0.00000000000E+00 -0.13480957574E+04  0.13480957574E+04  0.25500000920E-02 0.  1.
    10030    2    1    2    0    0  0.00000000000E+00  0.00000000000E+00  0.14794149220E+04  0.41756064369E+04  0.39047433468E+04 0.  0.
        2    1    3    3  502    0 -0.12060230457E+03  0.53154230040E+02  0.28227481551E+04  0.28258233198E+04  0.25500000920E-02 0. -1.
       -2    1    3    3    0  502  0.12060230457E+03 -0.53154230040E+02 -0.13433332330E+04  0.13497831170E+04  0.25500000920E-02 0.  1.
</event>
<event>
 5   0  0.2929054E-09  0.3901320E+04  0.7818609E-02  0.8024755E-01
       -1   -1    0    0    0  501  0.00000000000E+00  0.00000000000E+00  0.12668180901E+04  0.12668180901E+04  0.50400001928E-02 0. -1.
        1   -1    0    0  501    0  0.00000000000E+00  0.00000000000E+00 -0.30036477624E+04  0.30036477624E+04  0.50400001928E-02 0.  1.
    10030    2    1    2    0    0  0.00000000000E+00  0.00000000000E+00 -0.17368296723E+04  0.42704658525E+04  0.39013204542E+04 0.  0.
        1    1    3    3  502    0 -0.31872042970E+03  0.17201151115E+04 -0.18130265308E+04  0.25194134060E+04  0.50400001928E-02 0.  1.
       -1    1    3    3    0  502  0.31872042970E+03 -0.17201151115E+04  0.76196858488E+02  0.17510524465E+04  0.50400001928E-02 0. -1.
</event>
<event>
 5   0  0.9078515E-09  0.3899938E+04  0.7818609E-02  0.8025042E-01
        2   -1    0    0  501    0  0.00000000000E+00  0.00000000000E+00  0.20386055641E+04  0.20386055641E+04  0.25500000920E-02 0.  1.
       -2   -1    0    0    0  501  0.00000000000E+00  0.00000000000E+00 -0.18651860961E+04  0.18651860961E+04  0.25500000920E-02 0. -1.
    10030    2    1    2    0    0  0.00000000000E+00  0.00000000000E+00  0.17341946798E+03  0.39037916602E+04  0.38999378218E+04 0.  0.
        3    1    3    3  502    0  0.12292551158E+04 -0.14673710155E+04  0.45873935855E+03  0.19684226289E+04  0.10100000352E+00 0. -1.
       -3    1    3    3    0  502 -0.12292551158E+04  0.14673710155E+04 -0.28531989057E+03  0.19353690312E+04  0.10100000352E+00 0.  1.
</event>
<event>
 5   0  0.6335942E-09  0.3900125E+04  0.7818609E-02  0.8025003E-01
       -2   -1    0    0    0  501  0.00000000000E+00  0.00000000000E+00  0.19312558165E+04  0.19312558165E+04  0.25500000920E-02 0.  1.
        2   -1    0    0  501    0  0.00000000000E+00  0.00000000000E+00 -0.19690524610E+04  0.19690524610E+04  0.25500000920E-02 0. -1.
    10030    2    1    2    0    0  0.00000000000E+00  0.00000000000E+00 -0.37796644444E+02  0.39003082775E+04  0.39001251356E+04 0.  0.
        2    1    3    3  502    0 -0.67906600914E+03  0.17518062291E+04  0.50341760602E+03  0.19450925416E+04  0.25500000920E-02 0.  1.
       -2    1    3    3    0  502  0.67906600914E+03 -0.17518062291E+04 -0.54121425046E+03  0.19552157360E+04  0.25500000920E-02 0. -1.
</event>
<event>
 5   0  0.9368546E-09  0.3898575E+04  0.7818609E-02  0.8025326E-01
       -2   -1    0    0    0  501  0.00000000000E+00  0.00000000000E+00  0.12356895136E+04  0.12356895136E+04  0.25500000920E-02 0. -1.
        2   -1    0    0  501    0  0.00000000000E+00  0.00000000000E+00 -0.30749812960E+04  0.30749812960E+04  0.25500000920E-02 0.  1.
    10030    2    1    2    0    0  0.00000000000E+00  0.00000000000E+00 -0.18392917824E+04  0.43106708096E+04  0.38985751972E+04 0.  0.
        5    1    3    3  502    0  0.15017479226E+04  0.81849359460E+03  0.11436277790E+03  0.17141410450E+04  0.46999998093E+01 0. -1.
       -5    1    3    3    0  502 -0.15017479226E+04 -0.81849359460E+03 -0.19536545603E+04  0.25965297646E+04  0.46999998093E+01 0.  1.
</event>
<event>
 5   0  0.2904500E-09  0.3903941E+04  0.7818609E-02  0.8024210E-01
        1   -1    0    0  501    0  0.00000000000E+00  0.00000000000E+00  0.19934535399E+04  0.19934535399E+04  0.50400001928E-02 0.  1.
       -1   -1    0    0    0  501  0.00000000000E+00  0.00000000000E+00 -0.19113506243E+04  0.19113506243E+04  0.50400001928E-02 0. -1.
    10030    2    1    2    0    0  0.00000000000E+00  0.00000000000E+00  0.82102915531E+02  0.39048041642E+04  0.39039409156E+04 0.  0.
        4    1    3    3  502    0 -0.30763955775E+03 -0.91512766604E+03 -0.16558160302E+04  0.19167235276E+04  0.12699999809E+01 0. -1.
       -4    1    3    3    0  502  0.30763955775E+03  0.91512766604E+03  0.17379189457E+04  0.19880806366E+04  0.12699999809E+01 0.  1.
</event>
<event>
 5   0  0.9434114E-09  0.3898518E+04  0.7818609E-02  0.8025338E-01
        2   -1    0    0  501    0  0.00000000000E+00  0.00000000000E+00  0.26651606502E+04  0.26651606502E+04  0.25500000920E-02 0. -1.
       -2   -1    0    0    0  501  0.00000000000E+00  0.00000000000E+00 -0.14256588624E+04  0.14256588624E+04  0.25500000920E-02 0.  1.
    10030    2    1    2    0    0  0.00000000000E+00  0.00000000000E+00  0.12395017879E+04  0.40908195126E+04  0.38985176160E+04 0.  0.
        4    1    3    3  502    0 -0.13014413409E+04  0.85862932608E+03 -0.60783353507E+03  0.16734566330E+04  0.12699999809E+01 0.  1.
       -4    1    3    3    0  502  0.13014413409E+04 -0.85862932608E+03  0.18473353229E+04  0.24173628796E+04  0.12699999809E+01 0. -1.
</event>
<event>
 5   0  0.9078515E-09  0.3900635E+04  0.7818609E-02  0.8024897E-01
        2   -1    0    0  501    0  0.00000000000E+00  0.00000000000E+00  0.19266134296E+04  0.19266134296E+04  0.25500000920E-02 0. -1.
       -2   -1    0    0    0  501  0.00000000000E+00  0.00000000000E+00 -0.19743128198E+04  0.19743128198E+04  0.25500000920E-02 0.  1.
    10030    2    1    2    0    0  0.00000000000E+00  0.00000000000E+00 -0.47699390189E+02  0.39009262494E+04  0.39006346114E+04 0.  0.
        3    1    3    3  502    0  0.32419033721E+03 -0.18982510615E+04  0.28484977645E+03  0.19466884375E+04  0.10100000352E+00 0.  1.
       -3    1    3    3    0  502 -0.32419033721E+03  0.18982510615E+04 -0.33254916664E+03  0.19542378119E+04  0.10100000352E+00 0. -1.
</event>
<event>
 5   0  0.9368546E-09  0.3885629E+04  0.7818609E-02  0.8028025E-01
       -2   -1    0    0    0  501  0.00000000000E+00  0.00000000000E+00  0.18664782596E+04  0.18664782596E+04  0.25500000920E-02 0.  1.
        2   -1    0    0  501    0  0.00000000000E+00  0.00000000000E+00 -0.20222732848E+04  0.20222732848E+04  0.25500000920E-02 0. -1.
    10030    2    1    2    0    0  0.00000000000E+00  0.00000000000E+00 -0.15579502512E+03  0.38887515444E+04  0.38856294836E+04 0.  0.
        5    1    3    3  502    0  0.53152002612E+03 -0.95304061973E+02  0.17898577814E+04  0.18695479053E+04  0.46999998093E+01 0.  1.
       -5    1    3    3    0  502 -0.53152002612E+03  0.95304061973E+02 -0.19456528066E+04  0.20192036391E+04  0.46999998093E+01 0. -1.
</event>
<event>
 5   0  0.9078515E-09  0.3900124E+04  0.7818609E-02  0.8025003E-01
        2   -1    0    0  501    0  0.00000000000E+00  0.00000000000E+00  0.16497413387E+04  0.16497413387E+04  0.25500000920E-02 0.  1.
       -2   -1    0    0    0  501  0.00000000000E+00  0.00000000000E+00 -0.23050534211E+04  0.23050534211E+04  0.25500000920E-02 0. -1.
    10030    2    1    2    0    0  0.00000000000E+00  0.00000000000E+00 -0.65531208241E+03  0.39547947598E+04  0.39001240579E+04 0.  0.
        3    1    3    3  502    0  0.74163691569E+03  0.16536914926E+04  0.40216978534E+03  0.18564647623E+04  0.10100000352E+00 0.  1.
       -3    1    3    3    0  502 -0.74163691569E+03 -0.16536914926E+04 -0.10574818677E+04  0.20983299975E+04  0.10100000352E+00 0. -1.
</event>
<event>
 5   0  0.2904500E-09  0.3900087E+04  0.7818609E-02  0.8025011E-01
       -1   -1    0    0    0  501  0.00000000000E+00  0.00000000000E+00  0.15552884824E+04  0.15552884824E+04  0.50400001928E-02 0.  1.
        1   -1    0    0  501    0  0.00000000000E+00  0.00000000000E+00 -0.24449932144E+04  0.24449932144E+04  0.50400001928E-02 0. -1.
    10030    2    1    2    0    0  0.00000000000E+00  0.00000000000E+00 -0.88970473196E+03  0.40002816968E+04  0.39000870688E+04 0.  0.
        3    1    3    3  502    0  0.10159528076E+04  0.11598410707E+04 -0.16693730290E+04  0.22724871257E+04  0.10100000352E+00 0. -1.
       -3    1    3    3    0  502 -0.10159528076E+04 -0.11598410707E+04  0.77966829703E+03  0.17277945711E+04  0.10100000352E+00 0.  1.
</event>
<event>
 5   0  0.2904500E-09  0.3900857E+04  0.7818609E-02  0.8024851E-01
       -1   -1    0    0    0  501  0.00000000000E+00  0.00000000000E+00  0.16619375289E+04  0.16619375289E+04  0.50400001928E-02 0.  1.
        1   -1    0    0  501    0  0.00000000000E+00  0.00000000000E+00 -0.22889981792E+04  0.22889981792E+04  0.50400001928E-02 0. -1.
    10030    2    1    2    0    0  0.00000000000E+00  0.00000000000E+00 -0.62706065033E+03  0.39509357081E+04  0.39008573302E+04 0.  0.
        3    1    3    3  502    0  0.10340830389E+04 -0.87303583436E+03  0.11090120364E+04  0.17496934036E+04  0.10100000352E+00 0.  1.
       -3    1    3    3    0  502 -0.10340830389E+04  0.87303583436E+03 -0.17360726868E+04  0.22012423045E+04  0.10100000352E+00 0. -1.
</event>
<event>
 5   0  0.6335942E-09  0.3900392E+04  0.7818609E-02  0.8024948E-01
        2   -1    0    0  501    0  0.00000000000E+00  0.00000000000E+00  0.17319488231E+04  0.17319488231E+04  0.25500000920E-02 0. -1.
       -2   -1    0    0    0  501  0.00000000000E+00  0.00000000000E+00 -0.21959453709E+04  0.21959453709E+04  0.25500000920E-02 0.  1.
    10030    2    1    2    0    0  0.00000000000E+00  0.00000000000E+00 -0.46399654785E+03  0.39278941940E+04  0.39003922883E+04 0.  0.
        2    1    3    3  502    0 -0.59952473530E+03 -0.84344277912E+02 -0.20989093763E+04  0.21844826471E+04  0.25500000920E-02 0.  1.
       -2    1    3    3    0  502  0.59952473530E+03  0.84344277912E+02  0.16349128284E+04  0.17434115470E+04  0.25500000920E-02 0. -1.
</event>
<event>
 5   0  0.2904500E-09  0.3900335E+04  0.7818609E-02  0.8024960E-01
        1   -1    0    0  501    0  0.00000000000E+00  0.00000000000E+00  0.19894920601E+04  0.19894920601E+04  0.50400001928E-02 0.  1.
       -1   -1    0    0    0  501  0.00000000000E+00  0.00000000000E+00 -0.19116197732E+04  0.19116197732E+04  0.50400001928E-02 0. -1.
    10030    2    1    2    0    0  0.00000000000E+00  0.00000000000E+00  0.77872286883E+02  0.39011118333E+04  0.39003345296E+04 0.  0.
        5    1    3    3  502    0 -0.11009253326E+04  0.47835591209E+02  0.16482333179E+04  0.19826800024E+04  0.46999998093E+01 0.  1.
       -5    1    3    3    0  502  0.11009253326E+04 -0.47835591209E+02 -0.15703610310E+04  0.19184318308E+04  0.46999998093E+01 0. -1.
</event>
<event>
 5   0  0.2904500E-09  0.3900127E+04  0.7818609E-02  0.8025003E-01
        3   -1    0    0  501    0  0.00000000000E+00  0.00000000000E+00  0.25648388335E+04  0.25648388355E+04  0.10100000352E+00 0.  1.
       -3   -1    0    0    0  501  0.00000000000E+00  0.00000000000E+00 -0.14826456843E+04  0.14826456877E+04  0.10100000352E+00 0. -1.
    10030    2    1    2    0    0  0.00000000000E+00  0.00000000000E+00  0.10821931493E+04  0.40474845233E+04  0.39001267869E+04 0.  0.
        2    1    3    3  502    0  0.15167929905E+04 -0.25253970136E+03  0.17857049395E+04  0.23565184929E+04  0.25500000920E-02 0.  1.
       -2    1    3    3    0  502 -0.15167929905E+04  0.25253970136E+03 -0.70351179019E+03  0.16909660303E+04  0.25500000920E-02 0. -1.
</event>
<event>
 5   0  0.2904500E-09  0.3898585E+04  0.7818609E-02  0.8025324E-01
       -1   -1    0    0    0  501  0.00000000000E+00  0.00000000000E+00  0.15521212607E+04  0.15521212607E+04  0.50400001928E-02 0. -1.
        1   -1    0    0  501    0  0.00000000000E+00  0.00000000000E+00 -0.24480955835E+04  0.24480955835E+04  0.50400001928E-02 0.  1.
    10030    2    1    2    0    0  0.00000000000E+00  0.00000000000E+00 -0.89597432282E+03  0.40002168442E+04  0.38985849758E+04 0.  0.
        3    1    3    3  502    0 -0.33747910269E+03 -0.82768095309E+03  0.13294512830E+04  0.16019952026E+04  0.10100000352E+00 0. -1.
       -3    1    3    3    0  502  0.33747910269E+03  0.82768095309E+03 -0.22254256059E+04  0.23982216416E+04  0.10100000352E+00 0.  1.
</event>
<event>
 5   0  0.2904500E-09  0.3898197E+04  0.7818609E-02  0.8025404E-01
        1   -1    0    0  501    0  0.00000000000E+00  0.00000000000E+00  0.17718388791E+04  0.17718388791E+04  0.50400001928E-02 0. -1.
       -1   -1    0    0    0  501  0.00000000000E+00  0.00000000000E+00 -0.21440912873E+04  0.21440912873E+04  0.50400001928E-02 0.  1.
    10030    2    1    2    0    0  0.00000000000E+00  0.00000000000E+00 -0.37225240826E+03  0.39159301664E+04  0.38981966616E+04 0.  0.
        5    1    3    3  502    0 -0.89390865226E+03  0.92957507176E+03 -0.16542051906E+04  0.20975222037E+04  0.46999998093E+01 0.  1.
       -5    1    3    3    0  502  0.89390865226E+03 -0.92957507176E+03  0.12819527823E+04  0.18184079627E+04  0.46999998093E+01 0. -1.
</event>
<event>
 5   0  0.2929054E-09  0.3899138E+04  0.7818609E-02  0.8025209E-01
        1   -1    0    0  501    0  0.00000000000E+00  0.00000000000E+00  0.12940104422E+04  0.12940104422E+04  0.50400001928E-02 0. -1.
       -1   -1    0    0    0  501  0.00000000000E+00  0.00000000000E+00 -0.29372395104E+04  0.29372395105E+04  0.50400001928E-02 0.  1.
    10030    2    1    2    0    0  0.00000000000E+00  0.00000000000E+00 -0.16432290683E+04  0.42312499526E+04  0.38991376471E+04 0.  0.
        1    1    3    3  502    0  0.25491359702E+02  0.15792451153E+04  0.41860123538E+03  0.16339803970E+04  0.50400001928E-02 0. -1.
       -1    1    3    3    0  502 -0.25491359702E+02 -0.15792451153E+04 -0.20618303037E+04  0.25972695556E+04  0.50400001928E-02 0.  1.
</event>
<event>
 5   0  0.9277261E-09  0.3899936E+04  0.7818609E-02  0.8025043E-01
        2   -1    0    0  501    0  0.00000000000E+00  0.00000000000E+00  0.24883436944E+04  0.24883436944E+04  0.25500000920E-02 0.  1.
       -2   -1    0    0    0  501  0.00000000000E+00  0.00000000000E+00 -0.15280744220E+04  0.15280744220E+04  0.25500000920E-02 0. -1.
    10030    2    1    2    0    0  0.00000000000E+00  0.00000000000E+00  0.96026927238E+03  0.40164181164E+04  0.38999355649E+04 0.  0.
        1    1    3    3  502    0 -0.31697626132E+03 -0.16295297069E+04 -0.57342232080E+03  0.17563183578E+04  0.50400001928E-02 0. -1.
       -1    1    3    3    0  502  0.31697626132E+03  0.16295297069E+04  0.15336915932E+04  0.22600997586E+04  0.50400001928E-02 0.  1.
</event>
<event>
 5   0  0.2904500E-09  0.3898144E+04  0.7818609E-02  0.8025415E-01
        1   -1    0    0  501    0  0.00000000000E+00  0.00000000000E+00  0.17675136945E+04  0.17675136945E+04  0.50400001928E-02 0.  1.
       -1   -1    0    0    0  501  0.00000000000E+00  0.00000000000E+00 -0.21492796860E+04  0.21492796860E+04  0.50400001928E-02 0. -1.
    10030    2    1    2    0    0  0.00000000000E+00  0.00000000000E+00 -0.38176599156E+03  0.39167933805E+04  0.38981438035E+04 0.  0.
        2    1    3    3  502    0  0.49131491551E+03  0.16934437516E+04  0.64359570826E+03  0.18770608732E+04  0.25500000920E-02 0.  1.
       -2    1    3    3    0  502 -0.49131491551E+03 -0.16934437516E+04 -0.10253616998E+04  0.20397325073E+04  0.25500000920E-02 0. -1.
</event>
<event>
 5   0  0.2904500E-09  0.3899880E+04  0.7818609E-02  0.8025054E-01
       -1   -1    0    0    0  501  0.00000000000E+00  0.00000000000E+00  0.26763732432E+04  0.26763732432E+04  0.50400001928E-02 0.  1.
        1   -1    0    0  501    0  0.00000000000E+00  0.00000000000E+00 -0.14206783732E+04  0.14206783732E+04  0.50400001928E-02 0. -1.
    10030    2    1    2    0    0  0.00000000000E+00  0.00000000000E+00  0.12556948700E+04  0.40970516164E+04  0.38998797854E+04 0.  0.
        3    1    3    3  502    0  0.87641508967E+03 -0.18080902414E+03 -0.11922189882E+04  0.14906983057E+04  0.10100000352E+00 0. -1.
       -3    1    3    3    0  502 -0.87641508967E+03  0.18080902414E+03  0.24479138582E+04  0.26063533106E+04  0.10100000352E+00 0.  1.
</event>
<event>
 5   0  0.2904500E-09  0.3900670E+04  0.7818609E-02  0.8024890E-01
        1   -1    0    0  501    0  0.00000000000E+00  0.00000000000E+00  0.16924925302E+04  0.16924925302E+04  0.50400001928E-02 0.  1.
       -1   -1    0    0    0  501  0.00000000000E+00  0.00000000000E+00 -0.22474578718E+04  0.22474578718E+04  0.50400001928E-02 0. -1.
    10030    2    1    2    0    0  0.00000000000E+00  0.00000000000E+00 -0.55496534165E+03  0.39399504020E+04  0.39006695117E+04 0.  0.
        2    1    3    3  502    0  0.87730902189E+03 -0.14932454395E+04  0.62840601018E+03  0.18423754167E+04  0.25500000920E-02 0.  1.
       -2    1    3    3    0  502 -0.87730902189E+03  0.14932454395E+04 -0.11833713518E+04  0.20975749853E+04  0.25500000920E-02 0. -1.
</event>
<event>
 5   0  0.2904500E-09  0.3899770E+04  0.7818609E-02  0.8025077E-01
       -1   -1    0    0    0  501  0.00000000000E+00  0.00000000000E+00  0.12763523875E+04  0.12763523875E+04  0.50400001928E-02 0.  1.
        1   -1    0    0  501    0  0.00000000000E+00  0.00000000000E+00 -0.29788421319E+04  0.29788421319E+04  0.50400001928E-02 0. -1.
    10030    2    1    2    0    0  0.00000000000E+00  0.00000000000E+00 -0.17024897444E+04  0.42551945193E+04  0.38997703865E+04 0.  0.
        3    1    3    3  502    0 -0.78537001712E+03 -0.49252040516E+03  0.10205193865E+04  0.13787103545E+04  0.10100000352E+00 0.  1.
       -3    1    3    3    0  502  0.78537001712E+03  0.49252040516E+03 -0.27230091309E+04  0.28764841648E+04  0.10100000352E+00 0. -1.
</event>
<event>
 5   0  0.9368546E-09  0.3903090E+04  0.7818609E-02  0.8024387E-01
        2   -1    0    0  501    0  0.00000000000E+00  0.00000000000E+00  0.21018004275E+04  0.21018004275E+04  0.25500000920E-02 0.  1.
       -2   -1    0    0    0  501  0.00000000000E+00  0.00000000000E+00 -0.18120314981E+04  0.18120314981E+04  0.25500000920E-02 0. -1.
    10030    2    1    2    0    0  0.00000000000E+00  0.00000000000E+00  0.28976892944E+03  0.39138319257E+04  0.39030903538E+04 0.  0.
        5    1    3    3  502    0  0.14376533872E+04 -0.35514964013E+03  0.14194166463E+04  0.20512786827E+04  0.46999998093E+01 0.  1.
       -5    1    3    3    0  502 -0.14376533872E+04  0.35514964013E+03 -0.11296477168E+04  0.18625532429E+04  0.46999998093E+01 0. -1.
</event>
<event>
 5   0  0.9277261E-09  0.3891549E+04  0.7818609E-02  0.8026789E-01
        2   -1    0    0  501    0  0.00000000000E+00  0.00000000000E+00  0.21788626326E+04  0.21788626326E+04  0.25500000920E-02 0.  1.
       -2   -1    0    0    0  501  0.00000000000E+00  0.00000000000E+00 -0.17376217759E+04  0.17376217759E+04  0.25500000920E-02 0. -1.
    10030    2    1    2    0    0  0.00000000000E+00  0.00000000000E+00  0.44124085670E+03  0.39164844085E+04  0.38915493866E+04 0.  0.
        1    1    3    3  502    0 -0.19114672139E+04  0.16402625995E+03 -0.10615627263E+03  0.19214267298E+04  0.50400001928E-02 0. -1.
       -1    1    3    3    0  502  0.19114672139E+04 -0.16402625995E+03  0.54739712934E+03  0.19950576786E+04  0.50400001928E-02 0.  1.
</event>
<event>
 5   0  0.2929054E-09  0.3900038E+04  0.7818609E-02  0.8025021E-01
       -1   -1    0    0    0  501  0.00000000000E+00  0.00000000000E+00  0.21227320629E+04  0.21227320629E+04  0.50400001928E-02 0. -1.
        1   -1    0    0  501    0  0.00000000000E+00  0.00000000000E+00 -0.17913581034E+04  0.17913581034E+04  0.50400001928E-02 0.  1.
    10030    2    1    2    0    0  0.00000000000E+00  0.00000000000E+00  0.33137395951E+03  0.39140901663E+04  0.39000375805E+04 0.  0.
        1    1    3    3  502    0 -0.32627603497E+03 -0.18531549198E+04  0.67932602908E+03  0.20005306950E+04  0.50400001928E-02 0. -1.
       -1    1    3    3    0  502  0.32627603497E+03  0.18531549198E+04 -0.34795206957E+03  0.19135594714E+04  0.50400001928E-02 0.  1.
</event>
<event>
 5   0  0.6335942E-09  0.3901199E+04  0.7818609E-02  0.8024780E-01
       -2   -1    0    0    0  501  0.00000000000E+00  0.00000000000E+00  0.18385840275E+04  0.18385840275E+04  0.25500000920E-02 0.  1.
        2   -1    0    0  501    0  0.00000000000E+00  0.00000000000E+00 -0.20694398289E+04  0.20694398289E+04  0.25500000920E-02 0. -1.
    10030    2    1    2    0    0  0.00000000000E+00  0.00000000000E+00 -0.23085580141E+03  0.39080238564E+04  0.39011993106E+04 0.  0.
        2    1    3    3  502    0  0.99326450677E+01 -0.19664794522E+03 -0.20594592235E+04  0.20688502520E+04  0.25500000920E-02 0. -1.
       -2    1    3    3    0  502 -0.99326450677E+01  0.19664794522E+03  0.18286034221E+04  0.18391736044E+04  0.25500000920E-02 0.  1.
</event>
<event>
 5   0  0.9368546E-09  0.3901215E+04  0.7818609E-02  0.8024776E-01
        2   -1    0    0  501    0  0.00000000000E+00  0.00000000000E+00  0.21887835611E+04  0.21887835611E+04  0.25500000920E-02 0. -1.
       -2   -1    0    0    0  501  0.00000000000E+00  0.00000000000E+00 -0.17383493533E+04  0.17383493533E+04  0.25500000920E-02 0.  1.
    10030    2    1    2    0    0  0.00000000000E+00  0.00000000000E+00  0.45043420777E+03  0.39271329144E+04  0.39012154455E+04 0.  0.
        5    1    3    3  502    0  0.12908895592E+04 -0.14112582692E+04 -0.16047664532E+03  0.19193281638E+04  0.46999998093E+01 0. -1.
       -5    1    3    3    0  502 -0.12908895592E+04  0.14112582692E+04  0.61091085310E+03  0.20078047507E+04  0.46999998093E+01 0.  1.
</event>
<event>
 5   0  0.9368546E-09  0.3900201E+04  0.7818609E-02  0.8024987E-01
       -2   -1    0    0    0  501  0.00000000000E+00  0.00000000000E+00  0.29943695785E+04  0.29943695785E+04  0.25500000920E-02 0. -1.
        2   -1    0    0  501    0  0.00000000000E+00  0.00000000000E+00 -0.12700141655E+04  0.12700141655E+04  0.25500000920E-02 0.  1.
    10030    2    1    2    0    0  0.00000000000E+00  0.00000000000E+00  0.17243554130E+04  0.42643837440E+04  0.39002009084E+04 0.  0.
        5    1    3    3  502    0  0.59855326545E+03 -0.71127680551E+03 -0.10121525360E+04  0.13742836504E+04  0.46999998093E+01 0.  1.
       -5    1    3    3    0  502 -0.59855326545E+03  0.71127680551E+03  0.27365079490E+04  0.28901000936E+04  0.46999998093E+01 0. -1.
</event>
<event>
 5   0  0.6335942E-09  0.3904155E+04  0.7818609E-02  0.8024166E-01
       -2   -1    0    0    0  501  0.00000000000E+00  0.00000000000E+00  0.22671352053E+04  0.22671352053E+04  0.25500000920E-02 0.  1.
        2   -1    0    0  501    0  0.00000000000E+00  0.00000000000E+00 -0.16808026841E+04  0.16808026841E+04  0.25500000920E-02 0. -1.
    10030    2    1    2    0    0  0.00000000000E+00  0.00000000000E+00  0.58633252122E+03  0.39479378894E+04  0.39041551907E+04 0.  0.
        2    1    3    3  502    0  0.12034744775E+04 -0.20349327031E+03  0.18336831279E+04  0.22027605732E+04  0.25500000920E-02 0.  1.
       -2    1    3    3    0  502 -0.12034744775E+04  0.20349327031E+03 -0.12473506067E+04  0.17451773162E+04  0.25500000920E-02 0. -1.
</event>
<event>
 5   0  0.9078515E-09  0.3902753E+04  0.7818609E-02  0.8024457E-01
        2   -1    0    0  501    0  0.00000000000E+00  0.00000000000E+00  0.18321073398E+04  0.18321073398E+04  0.25500000920E-02 0.  1.
       -2   -1    0    0    0  501  0.00000000000E+00  0.00000000000E+00 -0.20784104999E+04  0.20784104999E+04  0.25500000920E-02 0. -1.
    10030    2    1    2    0    0  0.00000000000E+00  0.00000000000E+00 -0.24630316009E+03  0.39105178398E+04  0.39027534548E+04 0.  0.
        3    1    3    3  502    0 -0.49048348896E+03  0.18498693465E+04 -0.50506663000E+03  0.19793137606E+04  0.10100000352E+00 0. -1.
       -3    1    3    3    0  502  0.49048348896E+03 -0.18498693465E+04  0.25876346991E+03  0.19312040792E+04  0.10100000352E+00 0.  1.
</event>
<event>
 5   0  0.2904500E-09  0.3900936E+04  0.7818609E-02  0.8024835E-01
        1   -1    0    0  501    0  0.00000000000E+00  0.00000000000E+00  0.16501227479E+04  0.16501227480E+04  0.50400001928E-02 0. -1.
       -1   -1    0    0    0  501  0.00000000000E+00  0.00000000000E+00 -0.23054800025E+04  0.23054800025E+04  0.50400001928E-02 0.  1.
    10030    2    1    2    0    0  0.00000000000E+00  0.00000000000E+00 -0.65535725460E+03  0.39556027505E+04  0.39009357837E+04 0.  0.
        5    1    3    3  502    0  0.13084627953E+04  0.52217473843E+03  0.10401360075E+04  0.17511842702E+04  0.46999998093E+01 0. -1.
       -5    1    3    3    0  502 -0.13084627953E+04 -0.52217473843E+03 -0.16954932621E+04  0.22044184803E+04  0.46999998093E+01 0.  1.
</event>
<event>
 5   0  0.2904500E-09  0.3900022E+04  0.7818609E-02  0.8025025E-01
       -1   -1    0    0    0  501  0.00000000000E+00  0.00000000000E+00  0.17465724855E+04  0.17465724855E+04  0.50400001928E-02 0. -1.
        1   -1    0    0  501    0  0.00000000000E+00  0.00000000000E+00 -0.21771456922E+04  0.21771456922E+04  0.50400001928E-02 0.  1.
    10030    2    1    2    0    0  0.00000000000E+00  0.00000000000E+00 -0.43057320668E+03  0.39237181776E+04  0.39000219296E+04 0.  0.
        5    1    3    3  502    0 -0.74662732672E+03  0.17707857675E+04 -0.54803178365E+03  0.19983732198E+04  0.46999998093E+01 0. -1.
       -5    1    3    3    0  502  0.74662732672E+03 -0.17707857675E+04  0.11745857697E+03  0.19253449579E+04  0.46999998093E+01 0.  1.
</event>
<event>
 5   0  0.9277261E-09  0.3899394E+04  0.7818609E-02  0.8025155E-01
       -2   -1    0    0    0  501  0.00000000000E+00  0.00000000000E+00  0.14298358072E+04  0.14298358072E+04  0.25500000920E-02 0.  1.
        2   -1    0    0  501    0  0.00000000000E+00  0.00000000000E+00 -0.26585696188E+04  0.26585696188E+04  0.25500000920E-02 0. -1.
    10030    2    1    2    0    0  0.00000000000E+00  0.00000000000E+00 -0.12287338116E+04  0.40884054261E+04  0.38993938180E+04 0.  0.
        1    1    3    3  502    0 -0.65531391351E+03  0.85862039160E+03 -0.23162062015E+04  0.25556753452E+04  0.50400001928E-02 0. -1.
       -1    1    3    3    0  502  0.65531391351E+03 -0.85862039160E+03  0.10874723899E+04  0.15327300809E+04  0.50400001928E-02 0.  1.
</event>
<event>
 5   0  0.2904500E-09  0.3899298E+04  0.7818609E-02  0.8025175E-01
        1   -1    0    0  501    0  0.00000000000E+00  0.00000000000E+00  0.24114992412E+04  0.24114992412E+04  0.50400001928E-02 0. -1.
       -1   -1    0    0    0  501  0.00000000000E+00  0.00000000000E+00 -0.15762521846E+04  0.15762521846E+04  0.50400001928E-02 0.  1.
    10030    2    1    2    0    0  0.00000000000E+00  0.00000000000E+00  0.83524705663E+03  0.39877514258E+04  0.38992978584E+04 0.  0.
        2    1    3    3  502    0  0.68172696332E+03 -0.13545990203E+04 -0.83550544910E+03  0.17314039141E+04  0.25500000920E-02 0. -1.
       -2    1    3    3    0  502 -0.68172696332E+03  0.13545990203E+04  0.16707525057E+04  0.22563475117E+04  0.25500000920E-02 0.  1.
</event>
<event>
 5   0  0.2904500E-09  0.3900637E+04  0.7818609E-02  0.8024897E-01
       -1   -1    0    0    0  501  0.00000000000E+00  0.00000000000E+00  0.18523906052E+04  0.18523906052E+04  0.50400001928E-02 0.  1.
        1   -1    0    0  501    0  0.00000000000E+00  0.00000000000E+00 -0.20534232574E+04  0.20534232574E+04  0.50400001928E-02 0. -1.
    10030    2    1    2    0    0  0.00000000000E+00  0.00000000000E+00 -0.20103265221E+03  0.39058138627E+04  0.39006368458E+04 0.  0.
        2    1    3    3  502    0 -0.73073839305E+03  0.11061528793E+04  0.13318328856E+04  0.18791837661E+04  0.25500000920E-02 0.  1.
       -2    1    3    3    0  502  0.73073839305E+03 -0.11061528793E+04 -0.15328655378E+04  0.20266300966E+04  0.25500000920E-02 0. -1.
</event>
<event>
 5   0  0.6335942E-09  0.3899118E+04  0.7818609E-02  0.8025213E-01
        2   -1    0    0  501    0  0.00000000000E+00  0.00000000000E+00  0.26353407182E+04  0.26353407182E+04  0.25500000920E-02 0.  1.
       -2   -1    0    0    0  501  0.00000000000E+00  0.00000000000E+00 -0.14422350101E+04  0.14422350101E+04  0.25500000920E-02 0. -1.
    10030    2    1    2    0    0  0.00000000000E+00  0.00000000000E+00  0.11931057081E+04  0.40775757283E+04  0.38991181810E+04 0.  0.
        2    1    3    3  502    0 -0.68087462203E+03 -0.19049390880E+03 -0.13034400671E+04  0.14828466504E+04  0.25500000920E-02 0. -1.
       -2    1    3    3    0  502  0.68087462203E+03  0.19049390880E+03  0.24965457752E+04  0.25947290779E+04  0.25500000920E-02 0.  1.
</event>
<event>
 5   0  0.6335942E-09  0.3895940E+04  0.7818609E-02  0.8025874E-01
        2   -1    0    0  501    0  0.00000000000E+00  0.00000000000E+00  0.33851346880E+04  0.33851346880E+04  0.25500000920E-02 0. -1.
       -2   -1    0    0    0  501  0.00000000000E+00  0.00000000000E+00 -0.11209559559E+04  0.11209559560E+04  0.25500000920E-02 0.  1.
    10030    2    1    2    0    0  0.00000000000E+00  0.00000000000E+00  0.22641787320E+04  0.45060906439E+04  0.38959398815E+04 0.  0.
        2    1    3    3  502    0 -0.16305335388E+04  0.86868057731E+03  0.41784863689E+03  0.18941602492E+04  0.25500000920E-02 0.  1.
       -2    1    3    3    0  502  0.16305335388E+04 -0.86868057731E+03  0.18463300951E+04  0.26119303947E+04  0.25500000920E-02 0. -1.
</event>
<event>
 5   0  0.9078515E-09  0.3899536E+04  0.7818609E-02  0.8025126E-01
       -2   -1    0    0    0  501  0.00000000000E+00  0.00000000000E+00  0.15821932206E+04  0.15821932206E+04  0.25500000920E-02 0.  1.
        2   -1    0    0  501    0  0.00000000000E+00  0.00000000000E+00 -0.24027376945E+04  0.24027376945E+04  0.25500000920E-02 0. -1.
    10030    2    1    2    0    0  0.00000000000E+00  0.00000000000E+00 -0.82054447386E+03  0.39849309151E+04  0.38995360191E+04 0.  0.
        3    1    3    3  502    0 -0.61265542178E+03  0.13688168321E+03  0.14760963632E+04  0.16040398202E+04  0.10100000352E+00 0.  1.
       -3    1    3    3    0  502  0.61265542178E+03 -0.13688168321E+03 -0.22966408371E+04  0.23808910949E+04  0.10100000352E+00 0. -1.
</event>
<event>
 5   0  0.9368546E-09  0.3900676E+04  0.7818609E-02  0.8024889E-01
       -2   -1    0    0    0  501  0.00000000000E+00  0.00000000000E+00  0.16218133048E+04  0.16218133048E+04  0.25500000920E-02 0. -1.
        2   -1    0    0  501    0  0.00000000000E+00  0.00000000000E+00 -0.23454104721E+04  0.23454104721E+04  0.25500000920E-02 0.  1.
    10030    2    1    2    0    0  0.00000000000E+00  0.00000000000E+00 -0.72359716729E+03  0.39672237770E+04  0.39006757922E+04 0.  0.
        5    1    3    3  502    0 -0.18866507613E+04 -0.44871893858E+03 -0.57269104787E+03  0.20220773742E+04  0.46999998093E+01 0. -1.
       -5    1    3    3    0  502  0.18866507613E+04  0.44871893858E+03 -0.15090611941E+03  0.19451464027E+04  0.46999998093E+01 0.  1.
</event>
<event>
 5   0  0.6335942E-09  0.3895041E+04  0.7818609E-02  0.8026061E-01
       -2   -1    0    0    0  501  0.00000000000E+00  0.00000000000E+00  0.14920337839E+04  0.14920337839E+04  0.25500000920E-02 0.  1.
        2   -1    0    0  501    0  0.00000000000E+00  0.00000000000E+00 -0.25420581278E+04  0.25420581278E+04  0.25500000920E-02 0. -1.
    10030    2    1    2    0    0  0.00000000000E+00  0.00000000000E+00 -0.10500243439E+04  0.40340919117E+04  0.38950412615E+04 0.  0.
        2    1    3    3  502    0 -0.17927476885E+04  0.18627820690E+02 -0.13127875901E+04  0.22220941760E+04  0.25500000920E-02 0.  1.
       -2    1    3    3    0  502  0.17927476885E+04 -0.18627820690E+02  0.26276324618E+03  0.18119977357E+04  0.25500000920E-02 0. -1.
</event>
<event>
 5   0  0.9277261E-09  0.3899570E+04  0.7818609E-02  0.8025119E-01
        2   -1    0    0  501    0  0.00000000000E+00  0.00000000000E+00  0.18294244076E+04  0.18294244076E+04  0.25500000920E-02 0. -1.
       -2   -1    0    0    0  501  0.00000000000E+00  0.00000000000E+00 -0.20780646137E+04  0.20780646137E+04  0.25500000920E-02 0.  1.
    10030    2    1    2    0    0  0.00000000000E+00  0.00000000000E+00 -0.24864020611E+03  0.39074890214E+04  0.38995702969E+04 0.  0.
        1    1    3    3  502    0 -0.82950045132E+03  0.73246312000E+02 -0.18909163950E+04  0.20661560527E+04  0.50400001928E-02 0.  1.
       -1    1    3    3    0  502  0.82950045132E+03 -0.73246312000E+02  0.16422761889E+04  0.18413329687E+04  0.50400001928E-02 0. -1.
</event>
<event>
 5   0  0.2904500E-09  0.3899613E+04  0.7818609E-02  0.8025110E-01
       -1   -1    0    0    0  501  0.00000000000E+00  0.00000000000E+00  0.20972778844E+04  0.20972778844E+04  0.50400001928E-02 0. -1.
        1   -1    0    0  501    0  0.00000000000E+00  0.00000000000E+00 -0.18127042496E+04  0.18127042496E+04  0.50400001928E-02 0.  1.
    10030    2    1    2    0    0  0.00000000000E+00  0.00000000000E+00  0.28457363484E+03  0.39099821340E+04  0.38996125621E+04 0.  0.
        3    1    3    3  502    0 -0.18100521246E+04 -0.72464154040E+03  0.12351625310E+03  0.19536249207E+04  0.10100000352E+00 0. -1.
       -3    1    3    3    0  502  0.18100521246E+04  0.72464154040E+03  0.16105738174E+03  0.19563572133E+04  0.10100000352E+00 0.  1.
</event>
<event>
 5   0  0.9277261E-09  0.3900063E+04  0.7818609E-02  0.8025016E-01
        2   -1    0    0  501    0  0.00000000000E+00  0.00000000000E+00  0.17974184861E+04  0.17974184861E+04  0.25500000920E-02 0.  1.
       -2   -1    0    0    0  501  0.00000000000E+00  0.00000000000E+00 -0.21156025759E+04  0.21156025759E+04  0.25500000920E-02 0. -1.
    10030    2    1    2    0    0  0.00000000000E+00  0.00000000000E+00 -0.31818408979E+03  0.39130210621E+04  0.39000631684E+04 0.  0.
        1    1    3    3  502    0 -0.11221066923E+04 -0.12691089139E+04 -0.11281490355E+04  0.20353086033E+04  0.50400001928E-02 0. -1.
       -1    1    3    3    0  502  0.11221066923E+04  0.12691089139E+04  0.80996494572E+03  0.18777124587E+04  0.50400001928E-02 0.  1.
</event>
<event>
 5   0  0.2904500E-09  0.3901009E+04  0.7818609E-02  0.8024819E-01
        1   -1    0    0  501    0  0.00000000000E+00  0.00000000000E+00  0.13380285502E+04  0.13380285502E+04  0.50400001928E-02 0.  1.
       -1   -1    0    0    0  501  0.00000000000E+00  0.00000000000E+00 -0.28433389242E+04  0.28433389242E+04  0.50400001928E-02 0. -1.
    10030    2    1    2    0    0  0.00000000000E+00  0.00000000000E+00 -0.15053103740E+04  0.41813674743E+04  0.39010094378E+04 0.  0.
        2    1    3    3  502    0  0.22415389852E+03 -0.87510382678E+03  0.11002872736E+04  0.14236164379E+04  0.25500000920E-02 0.  1.
       -2    1    3    3    0  502 -0.22415389852E+03  0.87510382678E+03 -0.26055976476E+04  0.27577510364E+04  0.25500000920E-02 0. -1.
</event>
<event>
 5   0  0.2929054E-09  0.3900156E+04  0.7818609E-02  0.8024997E-01
       -1   -1    0    0    0  501  0.00000000000E+00  0.00000000000E+00  0.20768660998E+04  0.20768660998E+04  0.50400001928E-02 0.  1.
        1   -1    0    0  501    0  0.00000000000E+00  0.00000000000E+00 -0.18310297352E+04  0.18310297352E+04  0.50400001928E-02 0. -1.
    10030    2    1    2    0    0  0.00000000000E+00  0.00000000000E+00  0.24583636458E+03  0.39078958350E+04  0.39001556813E+04 0.  0.
        1    1    3    3  502    0 -0.87512332639E+03  0.47488602593E+02  0.18684166057E+04  0.20637530415E+04  0.50400001928E-02 0.  1.
       -1    1    3    3    0  502  0.87512332639E+03 -0.47488602593E+02 -0.16225802411E+04  0.18441427935E+04  0.50400001928E-02 0. -1.
</event>
<event>
 5   0  0.6335942E-09  0.3919697E+04  0.7818609E-02  0.8020945E-01
       -2   -1    0    0    0  501  0.00000000000E+00  0.00000000000E+00  0.12375918664E+04  0.12375918664E+04  0.25500000920E-02 0.  1.
        2   -1    0    0  501    0  0.00000000000E+00  0.00000000000E+00 -0.31036125670E+04  0.31036125670E+04  0.25500000920E-02 0. -1.
    10030    2    1    2    0    0  0.00000000000E+00  0.00000000000E+00 -0.18660207006E+04  0.43412044335E+04  0.39196967584E+04 0.  0.
        2    1    3    3  502    0 -0.60480389715E+03  0.46930376675E+03 -0.29311755422E+04  0.30294923401E+04  0.25500000920E-02 0. -1.
       -2    1    3    3    0  502  0.60480389715E+03 -0.46930376675E+03  0.10651548416E+04  0.13117120934E+04  0.25500000920E-02 0.  1.
</event>
<event>
 5   0  0.9434114E-09  0.3899566E+04  0.7818609E-02  0.8025119E-01
        2   -1    0    0  501    0  0.00000000000E+00  0.00000000000E+00  0.26404929735E+04  0.26404929735E+04  0.25500000920E-02 0. -1.
       -2   -1    0    0    0  501  0.00000000000E+00  0.00000000000E+00 -0.14397515874E+04  0.14397515874E+04  0.25500000920E-02 0.  1.
    10030    2    1    2    0    0  0.00000000000E+00  0.00000000000E+00  0.12007413861E+04  0.40802445609E+04  0.38995661042E+04 0.  0.
        4    1    3    3  502    0  0.35791823447E+02 -0.12890563758E+03  0.26356845521E+04  0.26390779430E+04  0.12699999809E+01 0. -1.
       -4    1    3    3    0  502 -0.35791823447E+02  0.12890563758E+03 -0.14349431660E+04  0.14411666179E+04  0.12699999809E+01 0.  1.
</event>
<event>
 5   0  0.9434114E-09  0.3875482E+04  0.7818609E-02  0.8030148E-01
       -2   -1    0    0    0  501  0.00000000000E+00  0.00000000000E+00  0.14846239701E+04  0.14846239701E+04  0.25500000920E-02 0. -1.
        2   -1    0    0  501    0  0.00000000000E+00  0.00000000000E+00 -0.25291519427E+04  0.25291519427E+04  0.25500000920E-02 0.  1.
    10030    2    1    2    0    0  0.00000000000E+00  0.00000000000E+00 -0.10445279725E+04  0.40137759128E+04  0.38754816981E+04 0.  0.
        4    1    3    3  502    0 -0.75913338766E+02 -0.87754562772E+02  0.14810222661E+04  0.14855612623E+04  0.12699999809E+01 0. -1.
       -4    1    3    3    0  502  0.75913338766E+02  0.87754562772E+02 -0.25255502387E+04  0.25282146505E+04  0.12699999809E+01 0.  1.
</event>
<event>
 5   0  0.2904500E-09  0.3899492E+04  0.7818609E-02  0.8025135E-01
       -3   -1    0    0    0  501  0.00000000000E+00  0.00000000000E+00  0.16622694299E+04  0.16622694330E+04  0.10100000352E+00 0.  1.
        3   -1    0    0  501    0  0.00000000000E+00  0.00000000000E+00 -0.22869395961E+04  0.22869395983E+04  0.10100000352E+00 0. -1.
    10030    2    1    2    0    0  0.00000000000E+00  0.00000000000E+00 -0.62467016619E+03  0.39492090313E+04  0.38994921665E+04 0.  0.
        4    1    3    3  502    0  0.19496592119E+04 -0.89394344057E+01 -0.32857764156E+03  0.19771736989E+04  0.12699999809E+01 0. -1.
       -4    1    3    3    0  502 -0.19496592119E+04  0.89394344057E+01 -0.29609252463E+03  0.19720353324E+04  0.12699999809E+01 0.  1.
</event>
<event>
 5   0  0.2929054E-09  0.3900395E+04  0.7818609E-02  0.8024947E-01
       -1   -1    0    0    0  501  0.00000000000E+00  0.00000000000E+00  0.21796647212E+04  0.21796647212E+04  0.50400001928E-02 0. -1.
        1   -1    0    0  501    0  0.00000000000E+00  0.00000000000E+00 -0.17448875085E+04  0.17448875085E+04  0.50400001928E-02 0.  1.
    10030    2    1    2    0    0  0.00000000000E+00  0.00000000000E+00  0.43477721269E+03  0.39245522297E+04  0.39003947209E+04 0.  0.
        1    1    3    3  502    0  0.23909818857E+03  0.11304201181E+04 -0.13634091685E+04  0.17871491678E+04  0.50400001928E-02 0.  1.
       -1    1    3    3    0  502 -0.23909818857E+03 -0.11304201181E+04  0.17981863812E+04  0.21374030619E+04  0.50400001928E-02 0. -1.
</event>
<event>
 5   0  0.2904500E-09  0.3897534E+04  0.7818609E-02  0.8025542E-01
        3   -1    0    0  501    0  0.00000000000E+00  0.00000000000E+00  0.27568310875E+04  0.27568310894E+04  0.10100000352E+00 0.  1.
       -3   -1    0    0    0  501  0.00000000000E+00  0.00000000000E+00 -0.13775574777E+04  0.13775574814E+04  0.10100000352E+00 0. -1.
    10030    2    1    2    0    0  0.00000000000E+00  0.00000000000E+00  0.13792736098E+04  0.41343885708E+04  0.38975342415E+04 0.  0.
        1    1    3    3  502    0 -0.67356854300E+03 -0.16248276829E+04 -0.20035751212E+03  0.17702832299E+04  0.50400001928E-02 0. -1.
       -1    1    3    3    0  502  0.67356854300E+03  0.16248276829E+04  0.15796311219E+04  0.23641053409E+04  0.50400001928E-02 0.  1.
</event>
<event>
 5   0  0.9078515E-09  0.3900057E+04  0.7818609E-02  0.8025017E-01
        2   -1    0    0  501    0  0.00000000000E+00  0.00000000000E+00  0.21403830429E+04  0.21403830429E+04  0.25500000920E-02 0.  1.
       -2   -1    0    0    0  501  0.00000000000E+00  0.00000000000E+00 -0.17766032441E+04  0.17766032441E+04  0.25500000920E-02 0. -1.
    10030    2    1    2    0    0  0.00000000000E+00  0.00000000000E+00  0.36377979885E+03  0.39169862870E+04  0.39000571573E+04 0.  0.
        3    1    3    3  502    0 -0.16370599105E+04 -0.18074767140E+03  0.12304411480E+04  0.20558745828E+04  0.10100000352E+00 0. -1.
       -3    1    3    3    0  502  0.16370599105E+04  0.18074767140E+03 -0.86666134916E+03  0.18611117042E+04  0.10100000352E+00 0.  1.
</event>
<event>
 5   0  0.9277261E-09  0.3897433E+04  0.7818609E-02  0.8025563E-01
       -2   -1    0    0    0  501  0.00000000000E+00  0.00000000000E+00  0.19348207592E+04  0.19348207592E+04  0.25500000920E-02 0.  1.
        2   -1    0    0  501    0  0.00000000000E+00  0.00000000000E+00 -0.19627125175E+04  0.19627125175E+04  0.25500000920E-02 0. -1.
    10030    2    1    2    0    0  0.00000000000E+00  0.00000000000E+00 -0.27891758322E+02  0.38975332767E+04  0.38974334751E+04 0.  0.
        1    1    3    3  502    0  0.51894164402E+03 -0.17194890325E+04 -0.76997711674E+03  0.19541769938E+04  0.50400001928E-02 0. -1.
       -1    1    3    3    0  502 -0.51894164402E+03  0.17194890325E+04  0.74208535842E+03  0.19433562829E+04  0.50400001928E-02 0.  1.
</event>
<event>
 5   0  0.9368546E-09  0.3899821E+04  0.7818609E-02  0.8025066E-01
       -2   -1    0    0    0  501  0.00000000000E+00  0.00000000000E+00  0.20258198421E+04  0.20258198421E+04  0.25500000920E-02 0. -1.
        2   -1    0    0  501    0  0.00000000000E+00  0.00000000000E+00 -0.18768458307E+04  0.18768458307E+04  0.25500000920E-02 0.  1.
    10030    2    1    2    0    0  0.00000000000E+00  0.00000000000E+00  0.14897401132E+03  0.39026656728E+04  0.38998212905E+04 0.  0.
        5    1    3    3  502    0 -0.80281009547E+03 -0.15962735121E+04 -0.70681045966E+03  0.19215088578E+04  0.46999998093E+01 0. -1.
       -5    1    3    3    0  502  0.80281009547E+03  0.15962735121E+04  0.85578447098E+03  0.19811568150E+04  0.46999998093E+01 0.  1.
</event>
<event>
 5   0  0.2929054E-09  0.3902275E+04  0.7818609E-02  0.8024556E-01
       -1   -1    0    0    0  501  0.00000000000E+00  0.00000000000E+00  0.18262989164E+04  0.18262989164E+04  0.50400001928E-02 0. -1.
        1   -1    0    0  501    0  0.00000000000E+00  0.00000000000E+00 -0.20845091340E+04  0.20845091340E+04  0.50400001928E-02 0.  1.
    10030    2    1    2    0    0  0.00000000000E+00  0.00000000000E+00 -0.25821021760E+03  0.39108080505E+04  0.39022746048E+04 0.  0.
        1    1    3    3  502    0 -0.12886254297E+04  0.14221936933E+04 -0.48165039550E+03  0.19786807481E+04  0.50400001928E-02 0.  1.
       -1    1    3    3    0  502  0.12886254297E+04 -0.14221936933E+04  0.22344017791E+03  0.19321273024E+04  0.50400001928E-02 0. -1.
</event>
<event>
 5   0  0.9368546E-09  0.3898386E+04  0.7818609E-02  0.8025365E-01
        2   -1    0    0  501    0  0.00000000000E+00  0.00000000000E+00  0.25428805236E+04  0.25428805236E+04  0.25500000920E-02 0.  1.
       -2   -1    0    0    0  501  0.00000000000E+00  0.00000000000E+00 -0.14941138937E+04  0.14941138937E+04  0.25500000920E-02 0. -1.
    10030    2    1    2    0    0  0.00000000000E+00  0.00000000000E+00  0.10487666299E+04  0.40369944172E+04  0.38983858815E+04 0.  0.
        5    1    3    3  502    0 -0.18467056750E+04 -0.33004620248E+03 -0.23658066146E+02  0.18761221016E+04  0.46999998093E+01 0. -1.
       -5    1    3    3    0  502  0.18467056750E+04  0.33004620248E+03  0.10724246960E+04  0.21608723157E+04  0.46999998093E+01 0.  1.
</event>
<event>
 5   0  0.9078515E-09  0.3899654E+04  0.7818609E-02  0.8025101E-01
        2   -1    0    0  501    0  0.00000000000E+00  0.00000000000E+00  0.21566655641E+04  0.21566655641E+04  0.25500000920E-02 0.  1.
       -2   -1    0    0    0  501  0.00000000000E+00  0.00000000000E+00 -0.17628257288E+04  0.17628257288E+04  0.25500000920E-02 0. -1.
    10030    2    1    2    0    0  0.00000000000E+00  0.00000000000E+00  0.39383983539E+03  0.39194912929E+04  0.38996541102E+04 0.  0.
        3    1    3    3  502    0 -0.36083931241E+03  0.10004146878E+04 -0.14456488712E+04  0.17946964161E+04  0.10100000352E+00 0. -1.
       -3    1    3    3    0  502  0.36083931241E+03 -0.10004146878E+04  0.18394887066E+04  0.21247948768E+04  0.10100000352E+00 0.  1.
</event>
<event>
 5   0  0.9368546E-09  0.3899087E+04  0.7818609E-02  0.8025219E-01
        2   -1    0    0  501    0  0.00000000000E+00  0.00000000000E+00  0.13119334769E+04  0.13119334769E+04  0.25500000920E-02 0. -1.
       -2   -1    0    0    0  501  0.00000000000E+00  0.00000000000E+00 -0.28970364843E+04  0.28970364843E+04  0.25500000920E-02 0.  1.
    10030    2    1    2    0    0  0.00000000000E+00  0.00000000000E+00 -0.15851030074E+04  0.42089699612E+04  0.38990866354E+04 0.  0.
        5    1    3    3  502    0 -0.10736653964E+03 -0.12091635633E+04  0.85416867548E+03  0.14843282362E+04  0.46999998093E+01 0. -1.
       -5    1    3    3    0  502  0.10736653964E+03  0.12091635633E+04 -0.24392716829E+04  0.27246417250E+04  0.46999998093E+01 0.  1.
</event>
<event>
 5   0  0.6335942E-09  0.3901304E+04  0.7818609E-02  0.8024758E-01
        2   -1    0    0  501    0  0.00000000000E+00  0.00000000000E+00  0.23751234667E+04  0.23751234667E+04  0.25500000920E-02 0. -1.
       -2   -1    0    0    0  501  0.00000000000E+00  0.00000000000E+00 -0.16020399424E+04  0.16020399424E+04  0.25500000920E-02 0.  1.
    10030    2    1    2    0    0  0.00000000000E+00  0.00000000000E+00  0.77308352431E+03  0.39771634090E+04  0.39013037111E+04 0.  0.
        2    1    3    3  502    0 -0.38220441230E+03  0.20140075748E+03  0.23257389499E+04  0.23655240732E+04  0.25500000920E-02 0. -1.
       -2    1    3    3    0  502  0.38220441230E+03 -0.20140075748E+03 -0.15526554256E+04  0.16116393358E+04  0.25500000920E-02 0.  1.
</event>
<event>
 5   0  0.2904500E-09  0.3900594E+04  0.7818609E-02  0.8024906E-01
       -1   -1    0    0    0  501  0.00000000000E+00  0.00000000000E+00  0.14708047293E+04  0.14708047293E+04  0.50400001928E-02 0.  1.
        1   -1    0    0  501    0  0.00000000000E+00  0.00000000000E+00 -0.25861074562E+04  0.25861074562E+04  0.50400001928E-02 0. -1.
    10030    2    1    2    0    0  0.00000000000E+00  0.00000000000E+00 -0.11153027270E+04  0.40569121855E+04  0.39005943532E+04 0.  0.
        3    1    3    3  502    0  0.13822527022E+03 -0.16451857328E+03 -0.25737581562E+04  0.25827124584E+04  0.10100000352E+00 0. -1.
       -3    1    3    3    0  502 -0.13822527022E+03  0.16451857328E+03  0.14584554292E+04  0.14741997271E+04  0.10100000352E+00 0.  1.
</event>
<event>
 5   0  0.2929054E-09  0.3896543E+04  0.7818609E-02  0.8025749E-01
       -1   -1    0    0    0  501  0.00000000000E+00  0.00000000000E+00  0.20136539474E+04  0.20136539474E+04  0.50400001928E-02 0.  1.
        1   -1    0    0  501    0  0.00000000000E+00  0.00000000000E+00 -0.18850118380E+04  0.18850118380E+04  0.50400001928E-02 0. -1.
    10030    2    1    2    0    0  0.00000000000E+00  0.00000000000E+00  0.12864210946E+03  0.38986657854E+04  0.38965428413E+04 0.  0.
        1    1    3    3  502    0 -0.12472186470E+04  0.48311704979E+03  0.14817103494E+04  0.19961017000E+04  0.50400001928E-02 0.  1.
       -1    1    3    3    0  502  0.12472186470E+04 -0.48311704979E+03 -0.13530682399E+04  0.19025640854E+04  0.50400001928E-02 0. -1.
</event>
<event>
 5   0  0.6335942E-09  0.3899255E+04  0.7818609E-02  0.8025184E-01
       -2   -1    0    0    0  501  0.00000000000E+00  0.00000000000E+00  0.20357910968E+04  0.20357910969E+04  0.25500000920E-02 0. -1.
        2   -1    0    0  501    0  0.00000000000E+00  0.00000000000E+00 -0.18671103280E+04  0.18671103280E+04  0.25500000920E-02 0.  1.
    10030    2    1    2    0    0  0.00000000000E+00  0.00000000000E+00  0.16868076883E+03  0.39029014249E+04  0.38992545865E+04 0.  0.
        2    1    3    3  502    0 -0.14520446527E+04 -0.56100296206E+03 -0.10905924539E+04  0.19006709071E+04  0.25500000920E-02 0.  1.
       -2    1    3    3    0  502  0.14520446527E+04  0.56100296206E+03  0.12592732227E+04  0.20022305177E+04  0.25500000920E-02 0. -1.
</event>
<event>
 5   0  0.9078515E-09  0.3902438E+04  0.7818609E-02  0.8024522E-01
       -2   -1    0    0    0  501  0.00000000000E+00  0.00000000000E+00  0.28010897076E+04  0.28010897076E+04  0.25500000920E-02 0. -1.
        2   -1    0    0  501    0  0.00000000000E+00  0.00000000000E+00 -0.13592054501E+04  0.13592054501E+04  0.25500000920E-02 0.  1.
    10030    2    1    2    0    0  0.00000000000E+00  0.00000000000E+00  0.14418842575E+04  0.41602951577E+04  0.39024384156E+04 0.  0.
        3    1    3    3  502    0  0.10665580603E+04 -0.19705255007E+03  0.24501159542E+04  0.26794484513E+04  0.10100000352E+00 0. -1.
       -3    1    3    3    0  502 -0.10665580603E+04  0.19705255007E+03 -0.10082316967E+04  0.14808467065E+04  0.10100000352E+00 0.  1.
</event>
<event>
 5   0  0.9368546E-09  0.3900602E+04  0.7818609E-02  0.8024904E-01
        2   -1    0    0  501    0  0.00000000000E+00  0.00000000000E+00  0.17703881539E+04  0.17703881539E+04  0.25500000920E-02 0. -1.
       -2   -1    0    0    0  501  0.00000000000E+00  0.00000000000E+00 -0.21484977418E+04  0.21484977418E+04  0.25500000920E-02 0.  1.
    10030    2    1    2    0    0  0.00000000000E+00  0.00000000000E+00 -0.37810958789E+03  0.39188858957E+04  0.39006024923E+04 0.  0.
        5    1    3    3  502    0 -0.49019569683E+03  0.18858855576E+04 -0.27188334653E+03  0.19674345737E+04  0.46999998093E+01 0.  1.
       -5    1    3    3    0  502  0.49019569683E+03 -0.18858855576E+04 -0.10622624135E+03  0.19514513220E+04  0.46999998093E+01 0. -1.
</event>
<event>
 5   0  0.2904500E-09  0.3900901E+04  0.7818609E-02  0.8024842E-01
        1   -1    0    0  501    0  0.00000000000E+00  0.00000000000E+00  0.19447601480E+04  0.19447601480E+04  0.50400001928E-02 0.  1.
       -1   -1    0    0    0  501  0.00000000000E+00  0.00000000000E+00 -0.19561573576E+04  0.19561573577E+04  0.50400001928E-02 0. -1.
    10030    2    1    2    0    0  0.00000000000E+00  0.00000000000E+00 -0.11397209607E+02  0.39009175057E+04  0.39009008562E+04 0.  0.
        2    1    3    3  502    0 -0.79370283691E+03  0.37512752040E+03 -0.17474212917E+04  0.19555474989E+04  0.25500000920E-02 0. -1.
       -2    1    3    3    0  502  0.79370283691E+03 -0.37512752040E+03  0.17360240821E+04  0.19453700068E+04  0.25500000920E-02 0.  1.
</event>
<event>
 5   0  0.2929054E-09  0.3900440E+04  0.7818609E-02  0.8024938E-01
        1   -1    0    0  501    0  0.00000000000E+00  0.00000000000E+00  0.12071764001E+04  0.12071764001E+04  0.50400001928E-02 0. -1.
       -1   -1    0    0    0  501  0.00000000000E+00  0.00000000000E+00 -0.31506226461E+04  0.31506226461E+04  0.50400001928E-02 0.  1.
    10030    2    1    2    0    0  0.00000000000E+00  0.00000000000E+00 -0.19434462460E+04  0.43577990462E+04  0.39004396183E+04 0.  0.
        1    1    3    3  502    0  0.10433211097E+04  0.57700639585E+03 -0.26960340629E+04  0.29478899211E+04  0.50400001928E-02 0.  1.
       -1    1    3    3    0  502 -0.10433211097E+04 -0.57700639585E+03  0.75258781691E+03  0.14099091251E+04  0.50400001928E-02 0. -1.
</event>
<event>
 5   0  0.2904500E-09  0.3899494E+04  0.7818609E-02  0.8025134E-01
       -1   -1    0    0    0  501  0.00000000000E+00  0.00000000000E+00  0.19342525235E+04  0.19342525235E+04  0.50400001928E-02 0. -1.
        1   -1    0    0  501    0  0.00000000000E+00  0.00000000000E+00 -0.19653656516E+04  0.19653656516E+04  0.50400001928E-02 0.  1.
    10030    2    1    2    0    0  0.00000000000E+00  0.00000000000E+00 -0.31113128064E+02  0.38996181752E+04  0.38994940550E+04 0.  0.
        5    1    3    3  502    0 -0.15862215128E+04 -0.96472523803E+03 -0.61114072180E+03  0.19545609595E+04  0.46999998093E+01 0.  1.
       -5    1    3    3    0  502  0.15862215128E+04  0.96472523803E+03  0.58002759373E+03  0.19450572156E+04  0.46999998093E+01 0. -1.
</event>
<event>
 5   0  0.2904500E-09  0.3896819E+04  0.7818609E-02  0.8025691E-01
        1   -1    0    0  501    0  0.00000000000E+00  0.00000000000E+00  0.12401415102E+04  0.12401415102E+04  0.50400001928E-02 0.  1.
       -1   -1    0    0    0  501  0.00000000000E+00  0.00000000000E+00 -0.30611818399E+04  0.30611818399E+04  0.50400001928E-02 0. -1.
    10030    2    1    2    0    0  0.00000000000E+00  0.00000000000E+00 -0.18210403297E+04  0.43013233500E+04  0.38968185330E+04 0.  0.
        3    1    3    3  502    0 -0.31787913346E+03  0.16668263690E+04  0.14644991509E+03  0.17031749398E+04  0.10100000352E+00 0.  1.
       -3    1    3    3    0  502  0.31787913346E+03 -0.16668263690E+04 -0.19674902448E+04  0.25981484102E+04  0.10100000352E+00 0. -1.
</event>
<event>
 5   0  0.9434114E-09  0.3899210E+04  0.7818609E-02  0.8025193E-01
        2   -1    0    0  501    0  0.00000000000E+00  0.00000000000E+00  0.19617957582E+04  0.19617957582E+04  0.25500000920E-02 0. -1.
       -2   -1    0    0    0  501  0.00000000000E+00  0.00000000000E+00 -0.19374904846E+04  0.19374904846E+04  0.25500000920E-02 0.  1.
    10030    2    1    2    0    0  0.00000000000E+00  0.00000000000E+00  0.24305273680E+02  0.38992862428E+04  0.38992104915E+04 0.  0.
        4    1    3    3  502    0 -0.13505486138E+04 -0.60795725071E+03  0.12799964280E+04  0.19575459242E+04  0.12699999809E+01 0. -1.
       -4    1    3    3    0  502  0.13505486138E+04  0.60795725071E+03 -0.12556911543E+04  0.19417403186E+04  0.12699999809E+01 0.  1.
</event>
<event>
 5   0  0.2904500E-09  0.3898494E+04  0.7818609E-02  0.8025343E-01
       -1   -1    0    0    0  501  0.00000000000E+00  0.00000000000E+00  0.15655298259E+04  0.15655298259E+04  0.50400001928E-02 0. -1.
        1   -1    0    0  501    0  0.00000000000E+00  0.00000000000E+00 -0.24270144821E+04  0.24270144821E+04  0.50400001928E-02 0.  1.
    10030    2    1    2    0    0  0.00000000000E+00  0.00000000000E+00 -0.86148465622E+03  0.39925443079E+04  0.38984938422E+04 0.  0.
        3    1    3    3  502    0  0.54292764769E+03 -0.60635605705E+03  0.13831806192E+04  0.16048759249E+04  0.10100000352E+00 0. -1.
       -3    1    3    3    0  502 -0.54292764769E+03  0.60635605705E+03 -0.22446652755E+04  0.23876683831E+04  0.10100000352E+00 0.  1.
</event>
<event>
 5   0  0.2929054E-09  0.3893684E+04  0.7818609E-02  0.8026344E-01
       -1   -1    0    0    0  501  0.00000000000E+00  0.00000000000E+00  0.26418822381E+04  0.26418822381E+04  0.50400001928E-02 0. -1.
        1   -1    0    0  501    0  0.00000000000E+00  0.00000000000E+00 -0.14346567653E+04  0.14346567654E+04  0.50400001928E-02 0.  1.
    10030    2    1    2    0    0  0.00000000000E+00  0.00000000000E+00  0.12072254728E+04  0.40765390035E+04  0.38936842328E+04 0.  0.
        1    1    3    3  502    0  0.37826005207E+03 -0.65975857664E+03  0.24799344132E+04  0.25939230406E+04  0.50400001928E-02 0. -1.
       -1    1    3    3    0  502 -0.37826005207E+03  0.65975857664E+03 -0.12727089404E+04  0.14826159629E+04  0.50400001928E-02 0.  1.
</event>
<event>
 5   0  0.2929054E-09  0.3900211E+04  0.7818609E-02  0.8024985E-01
        1   -1    0    0  501    0  0.00000000000E+00  0.00000000000E+00  0.21005998218E+04  0.21005998218E+04  0.50400001928E-02 0. -1.
       -1   -1    0    0    0  501  0.00000000000E+00  0.00000000000E+00 -0.18103931815E+04  0.18103931815E+04  0.50400001928E-02 0.  1.
    10030    2    1    2    0    0  0.00000000000E+00  0.00000000000E+00  0.29020664024E+03  0.39109930033E+04  0.39002110684E+04 0.  0.
        1    1    3    3  502    0 -0.16747240402E+04  0.57066373836E+03 -0.67725761228E+03  0.18944750161E+04  0.50400001928E-02 0.  1.
       -1    1    3    3    0  502  0.16747240402E+04 -0.57066373836E+03  0.96746425252E+03  0.20165179873E+04  0.50400001928E-02 0. -1.
</event>
<event>
 5   0  0.2904500E-09  0.3896144E+04  0.7818609E-02  0.8025832E-01
       -1   -1    0    0    0  501  0.00000000000E+00  0.00000000000E+00  0.17772024548E+04  0.17772024548E+04  0.50400001928E-02 0.  1.
        1   -1    0    0  501    0  0.00000000000E+00  0.00000000000E+00 -0.21353694527E+04  0.21353694527E+04  0.50400001928E-02 0. -1.
    10030    2    1    2    0    0  0.00000000000E+00  0.00000000000E+00 -0.35816699787E+03  0.39125719075E+04  0.38961436489E+04 0.  0.
        2    1    3    3  502    0 -0.47146590773E+03  0.17210862310E+03  0.17111610532E+04  0.17832480563E+04  0.25500000920E-02 0.  1.
       -2    1    3    3    0  502  0.47146590773E+03 -0.17210862310E+03 -0.20693280511E+04  0.21293238512E+04  0.25500000920E-02 0. -1.
</event>
<event>
 5   0  0.2904500E-09  0.3901590E+04  0.7818609E-02  0.8024699E-01
       -1   -1    0    0    0  501  0.00000000000E+00  0.00000000000E+00  0.17740393908E+04  0.17740393908E+04  0.50400001928E-02 0. -1.
        1   -1    0    0  501    0  0.00000000000E+00  0.00000000000E+00 -0.21451619754E+04  0.21451619754E+04  0.50400001928E-02 0.  1.
    10030    2    1    2    0    0  0.00000000000E+00  0.00000000000E+00 -0.37112258453E+03  0.39192013662E+04  0.39015903650E+04 0.  0.
        3    1    3    3  502    0 -0.18792245210E+03  0.15759309936E+04 -0.13250220320E+04  0.20675001185E+04  0.10100000352E+00 0.  1.
       -3    1    3    3    0  502  0.18792245210E+03 -0.15759309936E+04  0.95389944751E+03  0.18517012477E+04  0.10100000352E+00 0. -1.
</event>
<event>
 5   0  0.9434114E-09  0.3901281E+04  0.7818609E-02  0.8024763E-01
       -2   -1    0    0    0  501  0.00000000000E+00  0.00000000000E+00  0.20738789590E+04  0.20738789590E+04  0.25500000920E-02 0. -1.
        2   -1    0    0  501    0  0.00000000000E+00  0.00000000000E+00 -0.18347255000E+04  0.18347255000E+04  0.25500000920E-02 0.  1.
    10030    2    1    2    0    0  0.00000000000E+00  0.00000000000E+00  0.23915345897E+03  0.39086044589E+04  0.39012811280E+04 0.  0.
        4    1    3    3  502    0  0.15036360683E+04 -0.12106224720E+04  0.40022539780E+03  0.19714741128E+04  0.12699999809E+01 0. -1.
       -4    1    3    3    0  502 -0.15036360683E+04  0.12106224720E+04 -0.16107193883E+03  0.19371303461E+04  0.12699999809E+01 0.  1.
</event>
<event>
 5   0  0.9078515E-09  0.3903325E+04  0.7818609E-02  0.8024338E-01
       -2   -1    0    0    0  501  0.00000000000E+00  0.00000000000E+00  0.29756110844E+04  0.29756110844E+04  0.25500000920E-02 0.  1.
        2   -1    0    0  501    0  0.00000000000E+00  0.00000000000E+00 -0.12800686863E+04  0.12800686863E+04  0.25500000920E-02 0. -1.
    10030    2    1    2    0    0  0.00000000000E+00  0.00000000000E+00  0.16955423982E+04  0.42556797707E+04  0.39033250296E+04 0.  0.
        3    1    3    3  502    0  0.14760308198E+04 -0.56800752852E+03 -0.39899819411E+03  0.16311036456E+04  0.10100000352E+00 0. -1.
       -3    1    3    3    0  502 -0.14760308198E+04  0.56800752852E+03  0.20945405923E+04  0.26245761251E+04  0.10100000352E+00 0.  1.
</event>
<event>
 5   0  0.2904500E-09  0.3899842E+04  0.7818609E-02  0.8025062E-01
        1   -1    0    0  501    0  0.00000000000E+00  0.00000000000E+00  0.23356223019E+04  0.23356223019E+04  0.50400001928E-02 0. -1.
       -1   -1    0    0    0  501  0.00000000000E+00  0.00000000000E+00 -0.16279141331E+04  0.16279141331E+04  0.50400001928E-02 0.  1.
    10030    2    1    2    0    0  0.00000000000E+00  0.00000000000E+00  0.70770816878E+03  0.39635364350E+04  0.38998423327E+04 0.  0.
        3    1    3    3  502    0 -0.11374123737E+04  0.58424316556E+03 -0.11423121415E+04  0.17146206645E+04  0.10100000352E+00 0.  1.
       -3    1    3    3    0  502  0.11374123737E+04 -0.58424316556E+03  0.18500203103E+04  0.22489157705E+04  0.10100000352E+00 0. -1.
</event>
<event>
 5   0  0.9368546E-09  0.3899749E+04  0.7818609E-02  0.8025081E-01
        2   -1    0    0  501    0  0.00000000000E+00  0.00000000000E+00  0.23385488025E+04  0.23385488025E+04  0.25500000920E-02 0. -1.
       -2   -1    0    0    0  501  0.00000000000E+00  0.00000000000E+00 -0.16257991442E+04  0.16257991442E+04  0.25500000920E-02 0.  1.
    10030    2    1    2    0    0  0.00000000000E+00  0.00000000000E+00  0.71274965831E+03  0.39643479467E+04  0.38997490390E+04 0.  0.
        5    1    3    3  502    0  0.51109852067E+03  0.13862486455E+04 -0.93713420670E+03  0.17496141336E+04  0.46999998093E+01 0.  1.
       -5    1    3    3    0  502 -0.51109852067E+03 -0.13862486455E+04  0.16498838650E+04  0.22147338131E+04  0.46999998093E+01 0. -1.
</event>
<event>
 5   0  0.2904500E-09  0.3899864E+04  0.7818609E-02  0.8025057E-01
       -1   -1    0    0    0  501  0.00000000000E+00  0.00000000000E+00  0.14241007094E+04  0.14241007095E+04  0.50400001928E-02 0. -1.
        1   -1    0    0  501    0  0.00000000000E+00  0.00000000000E+00 -0.26699204959E+04  0.26699204959E+04  0.50400001928E-02 0.  1.
    10030    2    1    2    0    0  0.00000000000E+00  0.00000000000E+00 -0.12458197864E+04  0.40940212053E+04  0.38998644450E+04 0.  0.
        2    1    3    3  502    0 -0.12940951206E+03 -0.84986170955E+03 -0.24602516650E+04  0.26061178029E+04  0.25500000920E-02 0.  1.
       -2    1    3    3    0  502  0.12940951206E+03  0.84986170955E+03  0.12144318786E+04  0.14879034024E+04  0.25500000920E-02 0. -1.
</event>
<event>
 5   0  0.2904500E-09  0.3896719E+04  0.7818609E-02  0.8025712E-01
       -1   -1    0    0    0  501  0.00000000000E+00  0.00000000000E+00  0.26424779687E+04  0.26424779687E+04  0.50400001928E-02 0.  1.
        1   -1    0    0  501    0  0.00000000000E+00  0.00000000000E+00 -0.14365703565E+04  0.14365703565E+04  0.50400001928E-02 0. -1.
    10030    2    1    2    0    0  0.00000000000E+00  0.00000000000E+00  0.12059076122E+04  0.40790483252E+04  0.38967193984E+04 0.  0.
        2    1    3    3  502    0 -0.70745838429E+03  0.14818742122E+04 -0.49475799432E+03  0.17150026295E+04  0.25500000920E-02 0. -1.
       -2    1    3    3    0  502  0.70745838429E+03 -0.14818742122E+04  0.17006656065E+04  0.23640456957E+04  0.25500000920E-02 0.  1.
</event>
<event>
 5   0  0.2929054E-09  0.3900116E+04  0.7818609E-02  0.8025005E-01
       -1   -1    0    0    0  501  0.00000000000E+00  0.00000000000E+00  0.22294355567E+04  0.22294355567E+04  0.50400001928E-02 0.  1.
        1   -1    0    0  501    0  0.00000000000E+00  0.00000000000E+00 -0.17056902448E+04  0.17056902448E+04  0.50400001928E-02 0. -1.
    10030    2    1    2    0    0  0.00000000000E+00  0.00000000000E+00  0.52374531183E+03  0.39351258015E+04  0.39001161421E+04 0.  0.
        1    1    3    3  502    0  0.17656917272E+04  0.58915133251E+03 -0.32468900786E+03  0.18894945144E+04  0.50400001928E-02 0. -1.
       -1    1    3    3    0  502 -0.17656917272E+04 -0.58915133251E+03  0.84843431970E+03  0.20456312871E+04  0.50400001928E-02 0.  1.
</event>
<event>
 5   0  0.2904500E-09  0.3898169E+04  0.7818609E-02  0.8025410E-01
       -1   -1    0    0    0  501  0.00000000000E+00  0.00000000000E+00  0.18057193586E+04  0.18057193586E+04  0.50400001928E-02 0. -1.
        1   -1    0    0  501    0  0.00000000000E+00  0.00000000000E+00 -0.21038320175E+04  0.21038320175E+04  0.50400001928E-02 0.  1.
    10030    2    1    2    0    0  0.00000000000E+00  0.00000000000E+00 -0.29811265889E+03  0.39095513761E+04  0.38981689042E+04 0.  0.
        3    1    3    3  502    0  0.99366345804E+03  0.61572729026E+03  0.14151268465E+04  0.18355029735E+04  0.10100000352E+00 0. -1.
       -3    1    3    3    0  502 -0.99366345804E+03 -0.61572729026E+03 -0.17132395053E+04  0.20740484027E+04  0.10100000352E+00 0.  1.
</event>
<event>
 5   0  0.9368546E-09  0.3898870E+04  0.7818609E-02  0.8025264E-01
        2   -1    0    0  501    0  0.00000000000E+00  0.00000000000E+00  0.15803596576E+04  0.15803596576E+04  0.25500000920E-02 0. -1.
       -2   -1    0    0    0  501  0.00000000000E+00  0.00000000000E+00 -0.24047040483E+04  0.24047040483E+04  0.25500000920E-02 0.  1.
    10030    2    1    2    0    0  0.00000000000E+00  0.00000000000E+00 -0.82434439065E+03  0.39850637059E+04  0.38988702294E+04 0.  0.
        5    1    3    3  502    0 -0.10764733913E+04 -0.31826164782E+03 -0.20412040126E+04  0.23295109679E+04  0.46999998093E+01 0.  1.
       -5    1    3    3    0  502  0.10764733913E+04  0.31826164782E+03  0.12168596220E+04  0.16555527380E+04  0.46999998093E+01 0. -1.
</event>
<event>
 5   0  0.6335942E-09  0.3898892E+04  0.7818609E-02  0.8025260E-01
       -2   -1    0    0    0  501  0.00000000000E+00  0.00000000000E+00  0.20187388715E+04  0.20187388715E+04  0.25500000920E-02 0. -1.
        2   -1    0    0  501    0  0.00000000000E+00  0.00000000000E+00 -0.18825318179E+04  0.18825318179E+04  0.25500000920E-02 0.  1.
    10030    2    1    2    0    0  0.00000000000E+00  0.00000000000E+00  0.13620705360E+03  0.39012706894E+04  0.38988922312E+04 0.  0.
        2    1    3    3  502    0  0.90988268405E+03 -0.46748064370E+03 -0.15924013656E+04  0.18926612904E+04  0.25500000920E-02 0.  1.
       -2    1    3    3    0  502 -0.90988268405E+03  0.46748064370E+03  0.17286084192E+04  0.20086093990E+04  0.25500000920E-02 0. -1.
</event>
<event>
 5   0  0.2904500E-09  0.3898178E+04  0.7818609E-02  0.8025408E-01
        1   -1    0    0  501    0  0.00000000000E+00  0.00000000000E+00  0.22841488849E+04  0.22841488849E+04  0.50400001928E-02 0.  1.
       -1   -1    0    0    0  501  0.00000000000E+00  0.00000000000E+00 -0.16631790832E+04  0.16631790832E+04  0.50400001928E-02 0. -1.
    10030    2    1    2    0    0  0.00000000000E+00  0.00000000000E+00  0.62096980168E+03  0.39473279681E+04  0.38981783686E+04 0.  0.
        5    1    3    3  502    0  0.33641478990E+03 -0.13250549232E+04 -0.10962686898E+04  0.17523620033E+04  0.46999998093E+01 0. -1.
       -5    1    3    3    0  502 -0.33641478990E+03  0.13250549232E+04  0.17172384915E+04  0.21949659649E+04  0.46999998093E+01 0.  1.
</event>
<event>
 5   0  0.2904500E-09  0.3896742E+04  0.7818609E-02  0.8025707E-01
        1   -1    0    0  501    0  0.00000000000E+00  0.00000000000E+00  0.29847149939E+04  0.29847149939E+04  0.50400001928E-02 0.  1.
       -1   -1    0    0    0  501  0.00000000000E+00  0.00000000000E+00 -0.12718634622E+04  0.12718634622E+04  0.50400001928E-02 0. -1.
    10030    2    1    2    0    0  0.00000000000E+00  0.00000000000E+00  0.17128515317E+04  0.42565784561E+04  0.38967422013E+04 0.  0.
        5    1    3    3  502    0 -0.19495266194E+03  0.19381985575E+03 -0.12505660206E+04  0.12804335745E+04  0.46999998093E+01 0. -1.
       -5    1    3    3    0  502  0.19495266194E+03 -0.19381985575E+03  0.29634175523E+04  0.29761448816E+04  0.46999998093E+01 0.  1.
</event>
<event>
 5   0  0.9277261E-09  0.3901080E+04  0.7818609E-02  0.8024805E-01
        2   -1    0    0  501    0  0.00000000000E+00  0.00000000000E+00  0.14256443005E+04  0.14256443005E+04  0.25500000920E-02 0. -1.
       -2   -1    0    0    0  501  0.00000000000E+00  0.00000000000E+00 -0.26686926131E+04  0.26686926131E+04  0.25500000920E-02 0.  1.
    10030    2    1    2    0    0  0.00000000000E+00  0.00000000000E+00 -0.12430483126E+04  0.40943369136E+04  0.39010800626E+04 0.  0.
        1    1    3    3  502    0 -0.68118671656E+03  0.24547003406E+03  0.12793696147E+04  0.14700535676E+04  0.50400001928E-02 0. -1.
       -1    1    3    3    0  502  0.68118671656E+03 -0.24547003406E+03 -0.25224179273E+04  0.26242833461E+04  0.50400001928E-02 0.  1.
</event>
<event>
 5   0  0.9434114E-09  0.3900502E+04  0.7818609E-02  0.8024925E-01
       -2   -1    0    0    0  501  0.00000000000E+00  0.00000000000E+00  0.23380089327E+04  0.23380089327E+04  0.25500000920E-02 0. -1.
        2   -1    0    0  501    0  0.00000000000E+00  0.00000000000E+00 -0.16268023343E+04  0.16268023343E+04  0.25500000920E-02 0.  1.
    10030    2    1    2    0    0  0.00000000000E+00  0.00000000000E+00  0.71120659838E+03  0.39648112671E+04  0.39005017059E+04 0.  0.
        4    1    3    3  502    0 -0.38322771892E+03 -0.13142759487E+04 -0.10562872492E+04  0.17291411509E+04  0.12699999809E+01 0.  1.
       -4    1    3    3    0  502  0.38322771892E+03  0.13142759487E+04  0.17674938476E+04  0.22356701161E+04  0.12699999809E+01 0. -1.
</event>
<event>
 5   0  0.9434114E-09  0.3900375E+04  0.7818609E-02  0.8024951E-01
       -2   -1    0    0    0  501  0.00000000000E+00  0.00000000000E+00  0.16091170171E+04  0.16091170171E+04  0.25500000920E-02 0.  1.
        2   -1    0    0  501    0  0.00000000000E+00  0.00000000000E+00 -0.23635521460E+04  0.23635521460E+04  0.25500000920E-02 0. -1.
    10030    2    1    2    0    0  0.00000000000E+00  0.00000000000E+00 -0.75443512890E+03  0.39726691632E+04  0.39003753558E+04 0.  0.
        4    1    3    3  502    0 -0.77973090985E+03 -0.11020765358E+04  0.10562334848E+04  0.17141131147E+04  0.12699999809E+01 0.  1.
       -4    1    3    3    0  502  0.77973090985E+03  0.11020765358E+04 -0.18106686137E+04  0.22585560485E+04  0.12699999809E+01 0. -1.
</event>
<event>
 5   0  0.2904500E-09  0.3902679E+04  0.7818609E-02  0.8024472E-01
       -1   -1    0    0    0  501  0.00000000000E+00  0.00000000000E+00  0.16278716842E+04  0.16278716842E+04  0.50400001928E-02 0.  1.
        1   -1    0    0  501    0  0.00000000000E+00  0.00000000000E+00 -0.23390822027E+04  0.23390822027E+04  0.50400001928E-02 0. -1.
    10030    2    1    2    0    0  0.00000000000E+00  0.00000000000E+00 -0.71121051848E+03  0.39669538869E+04  0.39026789182E+04 0.  0.
        4    1    3    3  502    0  0.52327447300E+03 -0.80713348101E+03  0.13701322033E+04  0.16740801946E+04  0.12699999809E+01 0.  1.
       -4    1    3    3    0  502 -0.52327447300E+03  0.80713348101E+03 -0.20813427218E+04  0.22928736923E+04  0.12699999809E+01 0. -1.
</event>
<event>
 5   0  0.2904500E-09  0.3899780E+04  0.7818609E-02  0.8025075E-01
        1   -1    0    0  501    0  0.00000000000E+00  0.00000000000E+00  0.18679137960E+04  0.18679137960E+04  0.50400001928E-02 0.  1.
       -1   -1    0    0    0  501  0.00000000000E+00  0.00000000000E+00 -0.20354639737E+04  0.20354639737E+04  0.50400001928E-02 0. -1.
    10030    2    1    2    0    0  0.00000000000E+00  0.00000000000E+00 -0.16755017769E+03  0.39033777697E+04  0.38997801157E+04 0.  0.
        3    1    3    3  502    0  0.29176221875E+03 -0.10789656759E+04 -0.16829909265E+04  0.20203342770E+04  0.10100000352E+00 0. -1.
       -3    1    3    3    0  502 -0.29176221875E+03  0.10789656759E+04  0.15154407488E+04  0.18830434927E+04  0.10100000352E+00 0.  1.
</event>
<event>
 5   0  0.2929054E-09  0.3894397E+04  0.7818609E-02  0.8026195E-01
        1   -1    0    0  501    0  0.00000000000E+00  0.00000000000E+00  0.20983145013E+04  0.20983145013E+04  0.50400001928E-02 0. -1.
       -1   -1    0    0    0  501  0.00000000000E+00  0.00000000000E+00 -0.18069659798E+04  0.18069659798E+04  0.50400001928E-02 0.  1.
    10030    2    1    2    0    0  0.00000000000E+00  0.00000000000E+00  0.29134852150E+03  0.39052804810E+04  0.38943974726E+04 0.  0.
        1    1    3    3  502    0 -0.12333746884E+04 -0.14765994571E+04  0.44655246086E+03  0.19750868789E+04  0.50400001928E-02 0.  1.
       -1    1    3    3    0  502  0.12333746884E+04  0.14765994571E+04 -0.15520393935E+03  0.19301936021E+04  0.50400001928E-02 0. -1.
</event>
<event>
 5   0  0.9434114E-09  0.3900113E+04  0.7818609E-02  0.8025006E-01
       -2   -1    0    0    0  501  0.00000000000E+00  0.00000000000E+00  0.27804763674E+04  0.27804763674E+04  0.25500000920E-02 0. -1.
        2   -1    0    0  501    0  0.00000000000E+00  0.00000000000E+00 -0.13676503759E+04  0.13676503759E+04  0.25500000920E-02 0.  1.
    10030    2    1    2    0    0  0.00000000000E+00  0.00000000000E+00  0.14128259915E+04  0.41481267433E+04  0.39001125877E+04 0.  0.
        4    1    3    3  502    0  0.16766520258E+04 -0.83062221068E+03  0.12228656381E+03  0.18751135670E+04  0.12699999809E+01 0.  1.
       -4    1    3    3    0  502 -0.16766520258E+04  0.83062221068E+03  0.12905394277E+04  0.22730131763E+04  0.12699999809E+01 0. -1.
</event>
<event>
 5   0  0.2904500E-09  0.3898569E+04  0.7818609E-02  0.8025327E-01
       -1   -1    0    0    0  501  0.00000000000E+00  0.00000000000E+00  0.17607535701E+04  0.17607535701E+04  0.50400001928E-02 0.  1.
        1   -1    0    0  501    0  0.00000000000E+00  0.00000000000E+00 -0.21580021392E+04  0.21580021392E+04  0.50400001928E-02 0. -1.
    10030    2    1    2    0    0  0.00000000000E+00  0.00000000000E+00 -0.39724856907E+03  0.39187557093E+04  0.38985689533E+04 0.  0.
        4    1    3    3  502    0  0.10610869427E+04  0.84723868153E+03 -0.16044329879E+04  0.21018862265E+04  0.12699999809E+01 0. -1.
       -4    1    3    3    0  502 -0.10610869427E+04 -0.84723868153E+03  0.12071844188E+04  0.18168694828E+04  0.12699999809E+01 0.  1.
</event>
<event>
 5   0  0.9277261E-09  0.3901460E+04  0.7818609E-02  0.8024726E-01
       -2   -1    0    0    0  501  0.00000000000E+00  0.00000000000E+00  0.20644328917E+04  0.20644328917E+04  0.25500000920E-02 0.  1.
        2   -1    0    0  501    0  0.00000000000E+00  0.00000000000E+00 -0.18432895961E+04  0.18432895961E+04  0.25500000920E-02 0. -1.
    10030    2    1    2    0    0  0.00000000000E+00  0.00000000000E+00  0.22114329565E+03  0.39077224878E+04  0.39014600709E+04 0.  0.
        1    1    3    3  502    0  0.17356514935E+04 -0.42424880755E+03 -0.67354798579E+03  0.19094868543E+04  0.50400001928E-02 0. -1.
       -1    1    3    3    0  502 -0.17356514935E+04  0.42424880755E+03  0.89469128144E+03  0.19982356335E+04  0.50400001928E-02 0.  1.
</event>
<event>
 5   0  0.2904500E-09  0.3899084E+04  0.7818609E-02  0.8025220E-01
        1   -1    0    0  501    0  0.00000000000E+00  0.00000000000E+00  0.22684206960E+04  0.22684206960E+04  0.50400001928E-02 0. -1.
       -1   -1    0    0    0  501  0.00000000000E+00  0.00000000000E+00 -0.16754888501E+04  0.16754888502E+04  0.50400001928E-02 0.  1.
    10030    2    1    2    0    0  0.00000000000E+00  0.00000000000E+00  0.59293184588E+03  0.39439095462E+04  0.38990837814E+04 0.  0.
        3    1    3    3  502    0 -0.66408153291E+03  0.15517279120E+04 -0.69037825929E+03  0.18235914966E+04  0.10100000352E+00 0.  1.
       -3    1    3    3    0  502  0.66408153291E+03 -0.15517279120E+04  0.12833101052E+04  0.21203180496E+04  0.10100000352E+00 0. -1.
</event>
<event>
 5   0  0.9277261E-09  0.3897814E+04  0.7818609E-02  0.8025484E-01
        2   -1    0    0  501    0  0.00000000000E+00  0.00000000000E+00  0.18717903041E+04  0.18717903041E+04  0.25500000920E-02 0.  1.
       -2   -1    0    0    0  501  0.00000000000E+00  0.00000000000E+00 -0.20292006840E+04  0.20292006840E+04  0.25500000920E-02 0. -1.
    10030    2    1    2    0    0  0.00000000000E+00  0.00000000000E+00 -0.15741037990E+03  0.39009909881E+04  0.38978138310E+04 0.  0.
        1    1    3    3  502    0 -0.13021695999E+04 -0.14497754278E+04 -0.10599841706E+03  0.19515968135E+04  0.50400001928E-02 0.  1.
       -1    1    3    3    0  502  0.13021695999E+04  0.14497754278E+04 -0.51411962841E+02  0.19493941746E+04  0.50400001928E-02 0. -1.
</event>
<event>
 5   0  0.9277261E-09  0.3899955E+04  0.7818609E-02  0.8025038E-01
        2   -1    0    0  501    0  0.00000000000E+00  0.00000000000E+00  0.20143950277E+04  0.20143950277E+04  0.25500000920E-02 0.  1.
       -2   -1    0    0    0  501  0.00000000000E+00  0.00000000000E+00 -0.18876202712E+04  0.18876202712E+04  0.25500000920E-02 0. -1.
    10030    2    1    2    0    0  0.00000000000E+00  0.00000000000E+00  0.12677475649E+03  0.39020152989E+04  0.38999553272E+04 0.  0.
        1    1    3    3  502    0 -0.15719896491E+04 -0.29973597289E+03  0.11781660873E+04  0.19872263182E+04  0.50400001928E-02 0.  1.
       -1    1    3    3    0  502  0.15719896491E+04  0.29973597289E+03 -0.10513913308E+04  0.19147889808E+04  0.50400001928E-02 0. -1.
</event>
<event>
 5   0  0.2904500E-09  0.3900156E+04  0.7818609E-02  0.8024997E-01
        1   -1    0    0  501    0  0.00000000000E+00  0.00000000000E+00  0.28026569392E+04  0.28026569393E+04  0.50400001928E-02 0.  1.
       -1   -1    0    0    0  501  0.00000000000E+00  0.00000000000E+00 -0.13568571631E+04  0.13568571631E+04  0.50400001928E-02 0. -1.
    10030    2    1    2    0    0  0.00000000000E+00  0.00000000000E+00  0.14457997761E+04  0.41595141024E+04  0.39001564809E+04 0.  0.
        5    1    3    3  502    0 -0.12322279833E+04 -0.20231387099E+03  0.23203244170E+04  0.26350036424E+04  0.46999998093E+01 0.  1.
       -5    1    3    3    0  502  0.12322279833E+04  0.20231387099E+03 -0.87452464081E+03  0.15245104600E+04  0.46999998093E+01 0. -1.
</event>
<event>
 5   0  0.2904500E-09  0.3900403E+04  0.7818609E-02  0.8024945E-01
       -1   -1    0    0    0  501  0.00000000000E+00  0.00000000000E+00  0.21316406402E+04  0.21316406402E+04  0.50400001928E-02 0.  1.
        1   -1    0    0  501    0  0.00000000000E+00  0.00000000000E+00 -0.17842057992E+04  0.17842057993E+04  0.50400001928E-02 0. -1.
    10030    2    1    2    0    0  0.00000000000E+00  0.00000000000E+00  0.34743484097E+03  0.39158464395E+04  0.39004028470E+04 0.  0.
        2    1    3    3  502    0  0.59879812323E+03 -0.14698659027E+04  0.13114390340E+04  0.20588679667E+04  0.25500000920E-02 0.  1.
       -2    1    3    3    0  502 -0.59879812323E+03  0.14698659027E+04 -0.96400419306E+03  0.18569784728E+04  0.25500000920E-02 0. -1.
</event>
<event>
 5   0  0.6335942E-09  0.3897734E+04  0.7818609E-02  0.8025501E-01
       -2   -1    0    0    0  501  0.00000000000E+00  0.00000000000E+00  0.27277496104E+04  0.27277496104E+04  0.25500000920E-02 0. -1.
        2   -1    0    0  501    0  0.00000000000E+00  0.00000000000E+00 -0.13923868302E+04  0.13923868302E+04  0.25500000920E-02 0.  1.
    10030    2    1    2    0    0  0.00000000000E+00  0.00000000000E+00  0.13353627802E+04  0.41201364406E+04  0.38977340256E+04 0.  0.
        2    1    3    3  502    0  0.23506875338E+03 -0.19332937413E+04  0.74391160564E+03  0.20847749246E+04  0.25500000920E-02 0.  1.
       -2    1    3    3    0  502 -0.23506875338E+03  0.19332937413E+04  0.59145117459E+03  0.20353615161E+04  0.25500000920E-02 0. -1.
</event>
<event>
 5   0  0.6335942E-09  0.3899158E+04  0.7818609E-02  0.8025204E-01
        2   -1    0    0  501    0  0.00000000000E+00  0.00000000000E+00  0.17149904157E+04  0.17149904157E+04  0.25500000920E-02 0. -1.
       -2   -1    0    0    0  501  0.00000000000E+00  0.00000000000E+00 -0.22162567123E+04  0.22162567123E+04  0.25500000920E-02 0.  1.
    10030    2    1    2    0    0  0.00000000000E+00  0.00000000000E+00 -0.50126629654E+03  0.39312471280E+04  0.38991583811E+04 0.  0.
        2    1    3    3  502    0  0.11928593015E+04 -0.15379841736E+04 -0.13768267490E+03  0.19512214510E+04  0.25500000920E-02 0. -1.
       -2    1    3    3    0  502 -0.11928593015E+04  0.15379841736E+04 -0.36358362164E+03  0.19800256770E+04  0.25500000920E-02 0.  1.
</event>
<event>
 5   0  0.2929054E-09  0.3899315E+04  0.7818609E-02  0.8025172E-01
       -1   -1    0    0    0  501  0.00000000000E+00  0.00000000000E+00  0.19629753347E+04  0.19629753347E+04  0.50400001928E-02 0.  1.
        1   -1    0    0  501    0  0.00000000000E+00  0.00000000000E+00 -0.19364295312E+04  0.19364295312E+04  0.50400001928E-02 0. -1.
    10030    2    1    2    0    0  0.00000000000E+00  0.00000000000E+00  0.26545803515E+02  0.38994048659E+04  0.38993145075E+04 0.  0.
        1    1    3    3  502    0  0.57751506145E+03  0.23560815790E+03 -0.18339646835E+04  0.19371270765E+04  0.50400001928E-02 0. -1.
       -1    1    3    3    0  502 -0.57751506145E+03 -0.23560815790E+03  0.18605104870E+04  0.19622777894E+04  0.50400001928E-02 0.  1.
</event>
<event>
 5   0  0.9368546E-09  0.3901782E+04  0.7818609E-02  0.8024659E-01
        2   -1    0    0  501    0  0.00000000000E+00  0.00000000000E+00  0.19561795030E+04  0.19561795030E+04  0.25500000920E-02 0. -1.
       -2   -1    0    0    0  501  0.00000000000E+00  0.00000000000E+00 -0.19456168540E+04  0.19456168540E+04  0.25500000920E-02 0.  1.
    10030    2    1    2    0    0  0.00000000000E+00  0.00000000000E+00  0.10562649046E+02  0.39017963570E+04  0.39017820597E+04 0.  0.
        5    1    3    3  502    0 -0.12586051900E+04  0.14904361300E+04  0.26887850742E+02  0.19509566700E+04  0.46999998093E+01 0. -1.
       -5    1    3    3    0  502  0.12586051900E+04 -0.14904361300E+04 -0.16325201696E+02  0.19508396869E+04  0.46999998093E+01 0.  1.
</event>
<event>
 5   0  0.9277261E-09  0.3904090E+04  0.7818609E-02  0.8024179E-01
        2   -1    0    0  501    0  0.00000000000E+00  0.00000000000E+00  0.20036638413E+04  0.20036638413E+04  0.25500000920E-02 0. -1.
       -2   -1    0    0    0  501  0.00000000000E+00  0.00000000000E+00 -0.19017559170E+04  0.19017559170E+04  0.25500000920E-02 0.  1.
    10030    2    1    2    0    0  0.00000000000E+00  0.00000000000E+00  0.10190792433E+03  0.39054197584E+04  0.39040899406E+04 0.  0.
        1    1    3    3  502    0  0.13392311737E+04 -0.82820890754E+03  0.12050407573E+04  0.19828245908E+04  0.50400001928E-02 0. -1.
       -1    1    3    3    0  502 -0.13392311737E+04  0.82820890754E+03 -0.11031328330E+04  0.19225951676E+04  0.50400001928E-02 0.  1.
</event>
<event>
 5   0  0.2904500E-09  0.3901631E+04  0.7818609E-02  0.8024690E-01
        1   -1    0    0  501    0  0.00000000000E+00  0.00000000000E+00  0.14115152048E+04  0.14115152048E+04  0.50400001928E-02 0. -1.
       -1   -1    0    0    0  501  0.00000000000E+00  0.00000000000E+00 -0.26961676350E+04  0.26961676350E+04  0.50400001928E-02 0.  1.
    10030    2    1    2    0    0  0.00000000000E+00  0.00000000000E+00 -0.12846524302E+04  0.41076828398E+04  0.39016312544E+04 0.  0.
        4    1    3    3  502    0  0.31653433701E+02  0.19495862190E+04 -0.57749803287E+03  0.20335668064E+04  0.12699999809E+01 0. -1.
       -4    1    3    3    0  502 -0.31653433701E+02 -0.19495862190E+04 -0.70715439734E+03  0.20741160334E+04  0.12699999809E+01 0.  1.
</event>
<event>
 5   0  0.9277261E-09  0.3900245E+04  0.7818609E-02  0.8024978E-01
        2   -1    0    0  501    0  0.00000000000E+00  0.00000000000E+00  0.20843393602E+04  0.20843393602E+04  0.25500000920E-02 0. -1.
       -2   -1    0    0    0  501  0.00000000000E+00  0.00000000000E+00 -0.18245483874E+04  0.18245483874E+04  0.25500000920E-02 0.  1.
    10030    2    1    2    0    0  0.00000000000E+00  0.00000000000E+00  0.25979097285E+03  0.39088877476E+04  0.39002451299E+04 0.  0.
        1    1    3    3  502    0 -0.18795707926E+04  0.51876918624E+03  0.97109305218E+02  0.19522648514E+04  0.50400001928E-02 0.  1.
       -1    1    3    3    0  502  0.18795707926E+04 -0.51876918624E+03  0.16268166763E+03  0.19566228962E+04  0.50400001928E-02 0. -1.
</event>
<event>
 5   0  0.2929054E-09  0.3895400E+04  0.7818609E-02  0.8025987E-01
       -1   -1    0    0    0  501  0.00000000000E+00  0.00000000000E+00  0.24547378085E+04  0.24547378085E+04  0.50400001928E-02 0. -1.
        1   -1    0    0  501    0  0.00000000000E+00  0.00000000000E+00 -0.15453935351E+04  0.15453935352E+04  0.50400001928E-02 0.  1.
    10030    2    1    2    0    0  0.00000000000E+00  0.00000000000E+00  0.90934427334E+03  0.40001313436E+04  0.38954003336E+04 0.  0.
        1    1    3    3  502    0  0.18805656512E+04 -0.44868865694E+03  0.69699817442E+03  0.20551533116E+04  0.50400001928E-02 0. -1.
       -1    1    3    3    0  502 -0.18805656512E+04  0.44868865694E+03  0.21234609891E+03  0.19449780320E+04  0.50400001928E-02 0.  1.
</event>
<event>
 5   0  0.9434114E-09  0.3900133E+04  0.7818609E-02  0.8025001E-01
        2   -1    0    0  501    0  0.00000000000E+00  0.00000000000E+00  0.14416121740E+04  0.14416121740E+04  0.25500000920E-02 0.  1.
       -2   -1    0    0    0  501  0.00000000000E+00  0.00000000000E+00 -0.26378525115E+04  0.26378525115E+04  0.25500000920E-02 0. -1.
    10030    2    1    2    0    0  0.00000000000E+00  0.00000000000E+00 -0.11962403375E+04  0.40794646854E+04  0.39001334817E+04 0.  0.
        4    1    3    3  502    0  0.66506184045E+03 -0.15801097964E+04  0.37396941202E+03  0.17546820094E+04  0.12699999809E+01 0.  1.
       -4    1    3    3    0  502 -0.66506184045E+03  0.15801097964E+04 -0.15702097495E+04  0.23247826760E+04  0.12699999809E+01 0. -1.
</event>
<event>
 5   0  0.2904500E-09  0.3901305E+04  0.7818609E-02  0.8024758E-01
       -1   -1    0    0    0  501  0.00000000000E+00  0.00000000000E+00  0.22804794783E+04  0.22804794783E+04  0.50400001928E-02 0. -1.
        1   -1    0    0  501    0  0.00000000000E+00  0.00000000000E+00 -0.16685286594E+04  0.16685286594E+04  0.50400001928E-02 0.  1.
    10030    2    1    2    0    0  0.00000000000E+00  0.00000000000E+00  0.61195081898E+03  0.39490081377E+04  0.39013050979E+04 0.  0.
        5    1    3    3  502    0 -0.44861797585E+03 -0.13772995852E+04  0.16283997531E+04  0.21794311371E+04  0.46999998093E+01 0. -1.
       -5    1    3    3    0  502  0.44861797585E+03  0.13772995852E+04 -0.10164489341E+04  0.17695770006E+04  0.46999998093E+01 0.  1.
</event>
<event>
 5   0  0.9078515E-09  0.3887944E+04  0.7818609E-02  0.8027541E-01
       -2   -1    0    0    0  501  0.00000000000E+00  0.00000000000E+00  0.12241534877E+04  0.12241534877E+04  0.25500000920E-02 0. -1.
        2   -1    0    0  501    0  0.00000000000E+00  0.00000000000E+00 -0.30870540077E+04  0.30870540077E+04  0.25500000920E-02 0.  1.
    10030    2    1    2    0    0  0.00000000000E+00  0.00000000000E+00 -0.18629005200E+04  0.43112074955E+04  0.38879444082E+04 0.  0.
        3    1    3    3  502    0 -0.83202729563E+03 -0.19569718131E+02 -0.28795144467E+04  0.29973748270E+04  0.10100000352E+00 0.  1.
       -3    1    3    3    0  502  0.83202729563E+03  0.19569718131E+02  0.10166139267E+04  0.13138326685E+04  0.10100000352E+00 0. -1.
</event>
<event>
 5   0  0.6335942E-09  0.3900214E+04  0.7818609E-02  0.8024985E-01
       -2   -1    0    0    0  501  0.00000000000E+00  0.00000000000E+00  0.16556191810E+04  0.16556191811E+04  0.25500000920E-02 0. -1.
        2   -1    0    0  501    0  0.00000000000E+00  0.00000000000E+00 -0.22969760801E+04  0.22969760801E+04  0.25500000920E-02 0.  1.
    10030    2    1    2    0    0  0.00000000000E+00  0.00000000000E+00 -0.64135689904E+03  0.39525952611E+04  0.39002141770E+04 0.  0.
        2    1    3    3  502    0 -0.18841317122E+04 -0.21807966618E+03 -0.77998336518E+03  0.20508254678E+04  0.25500000920E-02 0.  1.
       -2    1    3    3    0  502  0.18841317122E+04  0.21807966618E+03  0.13862646614E+03  0.19017697933E+04  0.25500000920E-02 0. -1.
</event>
<event>
 5   0  0.9434114E-09  0.3901265E+04  0.7818609E-02  0.8024766E-01
        2   -1    0    0  501    0  0.00000000000E+00  0.00000000000E+00  0.22052847575E+04  0.22052847575E+04  0.25500000920E-02 0.  1.
       -2   -1    0    0    0  501  0.00000000000E+00  0.00000000000E+00 -0.17253856518E+04  0.17253856518E+04  0.25500000920E-02 0. -1.
    10030    2    1    2    0    0  0.00000000000E+00  0.00000000000E+00  0.47989910576E+03  0.39306704093E+04  0.39012647584E+04 0.  0.
        4    1    3    3  502    0 -0.15751079520E+03  0.18642743966E+04  0.79604852773E+03  0.20332298315E+04  0.12699999809E+01 0. -1.
       -4    1    3    3    0  502  0.15751079520E+03 -0.18642743966E+04 -0.31614942197E+03  0.18974405778E+04  0.12699999809E+01 0.  1.
</event>
<event>
 5   0  0.2904500E-09  0.3901892E+04  0.7818609E-02  0.8024636E-01
       -1   -1    0    0    0  501  0.00000000000E+00  0.00000000000E+00  0.13765070943E+04  0.13765070943E+04  0.50400001928E-02 0.  1.
        1   -1    0    0  501    0  0.00000000000E+00  0.00000000000E+00 -0.27651075545E+04  0.27651075545E+04  0.50400001928E-02 0. -1.
    10030    2    1    2    0    0  0.00000000000E+00  0.00000000000E+00 -0.13886004602E+04  0.41416146488E+04  0.39018919336E+04 0.  0.
        2    1    3    3  502    0 -0.56990490198E+03  0.17072453269E+04  0.10475287000E+03  0.18029008202E+04  0.25500000920E-02 0.  1.
       -2    1    3    3    0  502  0.56990490198E+03 -0.17072453269E+04 -0.14933533302E+04  0.23387138287E+04  0.25500000920E-02 0. -1.
</event>
<event>
 5   0  0.6335942E-09  0.3900472E+04  0.7818609E-02  0.8024931E-01
        2   -1    0    0  501    0  0.00000000000E+00  0.00000000000E+00  0.25267138959E+04  0.25267138959E+04  0.25500000920E-02 0. -1.
       -2   -1    0    0    0  501  0.00000000000E+00  0.00000000000E+00 -0.15052834056E+04  0.15052834056E+04  0.25500000920E-02 0.  1.
    10030    2    1    2    0    0  0.00000000000E+00  0.00000000000E+00  0.10214304903E+04  0.40319973015E+04  0.39004720218E+04 0.  0.
        2    1    3    3  502    0  0.39161622442E+03 -0.18385986629E+04  0.10474662005E+04  0.21519743845E+04  0.25500000920E-02 0. -1.
       -2    1    3    3    0  502 -0.39161622442E+03  0.18385986629E+04 -0.26035710219E+02  0.18800229170E+04  0.25500000920E-02 0.  1.
</event>
<event>
 5   0  0.2904500E-09  0.3901780E+04  0.7818609E-02  0.8024659E-01
        1   -1    0    0  501    0  0.00000000000E+00  0.00000000000E+00  0.15867449047E+04  0.15867449047E+04  0.50400001928E-02 0. -1.
       -1   -1    0    0    0  501  0.00000000000E+00  0.00000000000E+00 -0.23986039379E+04  0.23986039379E+04  0.50400001928E-02 0.  1.
    10030    2    1    2    0    0  0.00000000000E+00  0.00000000000E+00 -0.81185903326E+03  0.39853488426E+04  0.39017804022E+04 0.  0.
        3    1    3    3  502    0  0.88402228552E+03  0.16153417437E+04 -0.10640495437E+04  0.21267406499E+04  0.10100000352E+00 0.  1.
       -3    1    3    3    0  502 -0.88402228552E+03 -0.16153417437E+04  0.25219051049E+03  0.18586081927E+04  0.10100000352E+00 0. -1.
</event>
<event>
 5   0  0.2904500E-09  0.3901218E+04  0.7818609E-02  0.8024776E-01
       -1   -1    0    0    0  501  0.00000000000E+00  0.00000000000E+00  0.20341384984E+04  0.20341384984E+04  0.50400001928E-02 0.  1.
        1   -1    0    0  501    0  0.00000000000E+00  0.00000000000E+00 -0.18705096396E+04  0.18705096396E+04  0.50400001928E-02 0. -1.
    10030    2    1    2    0    0  0.00000000000E+00  0.00000000000E+00  0.16362885873E+03  0.39046481380E+04  0.39012181018E+04 0.  0.
        2    1    3    3  502    0 -0.16756935892E+04 -0.46038350976E+03  0.96858081763E+03  0.19894850543E+04  0.25500000920E-02 0.  1.
       -2    1    3    3    0  502  0.16756935892E+04  0.46038350976E+03 -0.80495195890E+03  0.19151630837E+04  0.25500000920E-02 0. -1.
</event>
<event>
 5   0  0.2904500E-09  0.3899997E+04  0.7818609E-02  0.8025030E-01
        1   -1    0    0  501    0  0.00000000000E+00  0.00000000000E+00  0.15411653607E+04  0.15411653607E+04  0.50400001928E-02 0. -1.
       -1   -1    0    0    0  501  0.00000000000E+00  0.00000000000E+00 -0.24672850999E+04  0.24672850999E+04  0.50400001928E-02 0.  1.
    10030    2    1    2    0    0  0.00000000000E+00  0.00000000000E+00 -0.92611973922E+03  0.40084504606E+04  0.38999970927E+04 0.  0.
        2    1    3    3  502    0 -0.12537747642E+04  0.11381096177E+04  0.53091640680E+03  0.17745751301E+04  0.25500000920E-02 0. -1.
       -2    1    3    3    0  502  0.12537747642E+04 -0.11381096177E+04 -0.14570361460E+04  0.22338753305E+04  0.25500000920E-02 0.  1.
</event>
<event>
 5   0  0.2904500E-09  0.3899913E+04  0.7818609E-02  0.8025047E-01
       -1   -1    0    0    0  501  0.00000000000E+00  0.00000000000E+00  0.13857087889E+04  0.13857087889E+04  0.50400001928E-02 0. -1.
        1   -1    0    0  501    0  0.00000000000E+00  0.00000000000E+00 -0.27439609400E+04  0.27439609400E+04  0.50400001928E-02 0.  1.
    10030    2    1    2    0    0  0.00000000000E+00  0.00000000000E+00 -0.13582521511E+04  0.41296697289E+04  0.38999132251E+04 0.  0.
        5    1    3    3  502    0 -0.92651073046E+03 -0.63909463840E+02 -0.24947229557E+04  0.26619863390E+04  0.46999998093E+01 0.  1.
       -5    1    3    3    0  502  0.92651073046E+03  0.63909463840E+02  0.11364708046E+04  0.14676833899E+04  0.46999998093E+01 0. -1.
</event>
<event>
 5   0  0.9277261E-09  0.3899593E+04  0.7818609E-02  0.8025114E-01
        2   -1    0    0  501    0  0.00000000000E+00  0.00000000000E+00  0.19462418451E+04  0.19462418451E+04  0.25500000920E-02 0.  1.
       -2   -1    0    0    0  501  0.00000000000E+00  0.00000000000E+00 -0.19533574726E+04  0.19533574726E+04  0.25500000920E-02 0. -1.
    10030    2    1    2    0    0  0.00000000000E+00  0.00000000000E+00 -0.71156275158E+01  0.38995993176E+04  0.38995928257E+04 0.  0.
        1    1    3    3  502    0 -0.12412614645E+04  0.64956874095E+03 -0.13596708629E+04  0.19522741683E+04  0.50400001928E-02 0. -1.
       -1    1    3    3    0  502  0.12412614645E+04 -0.64956874095E+03  0.13525552354E+04  0.19473251494E+04  0.50400001928E-02 0.  1.
</event>
<event>
 5   0  0.9434114E-09  0.3900045E+04  0.7818609E-02  0.8025020E-01
        2   -1    0    0  501    0  0.00000000000E+00  0.00000000000E+00  0.16453477422E+04  0.16453477422E+04  0.25500000920E-02 0. -1.
       -2   -1    0    0    0  501  0.00000000000E+00  0.00000000000E+00 -0.23111145255E+04  0.23111145255E+04  0.25500000920E-02 0.  1.
    10030    2    1    2    0    0  0.00000000000E+00  0.00000000000E+00 -0.66576678331E+03  0.39564622677E+04  0.39000446492E+04 0.  0.
        4    1    3    3  502    0 -0.25229307724E+03  0.19018099177E+04 -0.68729760787E+03  0.20378695676E+04  0.12699999809E+01 0. -1.
       -4    1    3    3    0  502  0.25229307724E+03 -0.19018099177E+04  0.21530824553E+02  0.19185927001E+04  0.12699999809E+01 0.  1.
</event>
<event>
 5   0  0.9078515E-09  0.3900267E+04  0.7818609E-02  0.8024974E-01
       -2   -1    0    0    0  501  0.00000000000E+00  0.00000000000E+00  0.16279219332E+04  0.16279219332E+04  0.25500000920E-02 0.  1.
        2   -1    0    0  501    0  0.00000000000E+00  0.00000000000E+00 -0.23361199216E+04  0.23361199216E+04  0.25500000920E-02 0. -1.
    10030    2    1    2    0    0  0.00000000000E+00  0.00000000000E+00 -0.70819798837E+03  0.39640418548E+04  0.39002670981E+04 0.  0.
        3    1    3    3  502    0  0.13603596190E+04  0.13051200317E+04  0.15316549194E+03  0.18913953231E+04  0.10100000352E+00 0.  1.
       -3    1    3    3    0  502 -0.13603596190E+04 -0.13051200317E+04 -0.86136348031E+03  0.20726465317E+04  0.10100000352E+00 0. -1.
</event>
<event>
 5   0  0.9368546E-09  0.3918915E+04  0.7818609E-02  0.8021107E-01
       -2   -1    0    0    0  501  0.00000000000E+00  0.00000000000E+00  0.20899435464E+04  0.20899435464E+04  0.25500000920E-02 0.  1.
        2   -1    0    0  501    0  0.00000000000E+00  0.00000000000E+00 -0.18371186912E+04  0.18371186912E+04  0.25500000920E-02 0. -1.
    10030    2    1    2    0    0  0.00000000000E+00  0.00000000000E+00  0.25282485520E+03  0.39270622376E+04  0.39189153360E+04 0.  0.
        5    1    3    3  502    0  0.68147976450E+03 -0.41374996328E+03  0.19200632168E+04  0.20790066253E+04  0.46999998093E+01 0.  1.
       -5    1    3    3    0  502 -0.68147976450E+03  0.41374996328E+03 -0.16672383616E+04  0.18480556123E+04  0.46999998093E+01 0. -1.
</event>
<event>
 5   0  0.9368546E-09  0.3900342E+04  0.7818609E-02  0.8024958E-01
       -2   -1    0    0    0  501  0.00000000000E+00  0.00000000000E+00  0.12742594549E+04  0.12742594549E+04  0.25500000920E-02 0. -1.
        2   -1    0    0  501    0  0.00000000000E+00  0.00000000000E+00 -0.29846101810E+04  0.29846101810E+04  0.25500000920E-02 0.  1.
    10030    2    1    2    0    0  0.00000000000E+00  0.00000000000E+00 -0.17103507261E+04  0.42588696359E+04  0.39003424169E+04 0.  0.
        5    1    3    3  502    0  0.15317509667E+04  0.67028087393E+03  0.24089252028E+03  0.16892568692E+04  0.46999998093E+01 0. -1.
       -5    1    3    3    0  502 -0.15317509667E+04 -0.67028087393E+03 -0.19512432463E+04  0.25696127666E+04  0.46999998093E+01 0.  1.
</event>
<event>
 5   0  0.2904500E-09  0.3899322E+04  0.7818609E-02  0.8025170E-01
        1   -1    0    0  501    0  0.00000000000E+00  0.00000000000E+00  0.28497411443E+04  0.28497411443E+04  0.50400001928E-02 0. -1.
       -1   -1    0    0    0  501  0.00000000000E+00  0.00000000000E+00 -0.13338679996E+04  0.13338679997E+04  0.50400001928E-02 0.  1.
    10030    2    1    2    0    0  0.00000000000E+00  0.00000000000E+00  0.15158731446E+04  0.41836091439E+04  0.38993222589E+04 0.  0.
        5    1    3    3  502    0  0.13866123306E+04 -0.10946079622E+04  0.16428707325E+04  0.24124482750E+04  0.46999998093E+01 0. -1.
       -5    1    3    3    0  502 -0.13866123306E+04  0.10946079622E+04 -0.12699758782E+03  0.17711608689E+04  0.46999998093E+01 0.  1.
</event>
<event>
 5   0  0.2904500E-09  0.3899274E+04  0.7818609E-02  0.8025180E-01
        1   -1    0    0  501    0  0.00000000000E+00  0.00000000000E+00  0.21499252882E+04  0.21499252882E+04  0.50400001928E-02 0.  1.
       -1   -1    0    0    0  501  0.00000000000E+00  0.00000000000E+00 -0.17680080302E+04  0.17680080302E+04  0.50400001928E-02 0. -1.
    10030    2    1    2    0    0  0.00000000000E+00  0.00000000000E+00  0.38191725804E+03  0.39179333184E+04  0.38992743806E+04 0.  0.
        5    1    3    3  502    0 -0.11305869965E+04  0.14831518570E+04 -0.38017732756E+03  0.19032927463E+04  0.46999998093E+01 0. -1.
       -5    1    3    3    0  502  0.11305869965E+04 -0.14831518570E+04  0.76209458559E+03  0.20146405722E+04  0.46999998093E+01 0.  1.
</event>
<event>
 5   0  0.2904500E-09  0.3899946E+04  0.7818609E-02  0.8025040E-01
       -1   -1    0    0    0  501  0.00000000000E+00  0.00000000000E+00  0.21523130493E+04  0.21523130493E+04  0.50400001928E-02 0.  1.
        1   -1    0    0  501    0  0.00000000000E+00  0.00000000000E+00 -0.17666549766E+04  0.17666549766E+04  0.50400001928E-02 0. -1.
    10030    2    1    2    0    0  0.00000000000E+00  0.00000000000E+00  0.38565807270E+03  0.39189680259E+04  0.38999459277E+04 0.  0.
        4    1    3    3  502    0  0.65827442666E+03 -0.18046820392E+04 -0.14375313355E+03  0.19263616118E+04  0.12699999809E+01 0.  1.
       -4    1    3    3    0  502 -0.65827442666E+03  0.18046820392E+04  0.52941120626E+03  0.19926064141E+04  0.12699999809E+01 0. -1.
</event>
<event>
 5   0  0.2929054E-09  0.3900184E+04  0.7818609E-02  0.8024991E-01
       -1   -1    0    0    0  501  0.00000000000E+00  0.00000000000E+00  0.15169087476E+04  0.15169087476E+04  0.50400001928E-02 0.  1.
        1   -1    0    0  501    0  0.00000000000E+00  0.00000000000E+00 -0.25069788073E+04  0.25069788073E+04  0.50400001928E-02 0. -1.
    10030    2    1    2    0    0  0.00000000000E+00  0.00000000000E+00 -0.99007005974E+03  0.40238875549E+04  0.39001836279E+04 0.  0.
        1    1    3    3  502    0  0.46960456512E+03  0.12937883373E+04  0.93024497595E+03  0.16612562790E+04  0.50400001928E-02 0.  1.
       -1    1    3    3    0  502 -0.46960456512E+03 -0.12937883373E+04 -0.19203150357E+04  0.23626312759E+04  0.50400001928E-02 0. -1.
</event>
<event>
 5   0  0.9434114E-09  0.3899450E+04  0.7818609E-02  0.8025144E-01
       -2   -1    0    0    0  501  0.00000000000E+00  0.00000000000E+00  0.15318313507E+04  0.15318313507E+04  0.25500000920E-02 0. -1.
        2   -1    0    0  501    0  0.00000000000E+00  0.00000000000E+00 -0.24816227846E+04  0.24816227847E+04  0.25500000920E-02 0.  1.
    10030    2    1    2    0    0  0.00000000000E+00  0.00000000000E+00 -0.94979143398E+03  0.40134541353E+04  0.38994500033E+04 0.  0.
        4    1    3    3  502    0 -0.29033725263E+03 -0.16995990783E+04  0.46193134531E+03  0.17850251897E+04  0.12699999809E+01 0. -1.
       -4    1    3    3    0  502  0.29033725263E+03  0.16995990783E+04 -0.14117227793E+04  0.22284289456E+04  0.12699999809E+01 0.  1.
</event>
<event>
 5   0  0.9078515E-09  0.3888757E+04  0.7818609E-02  0.8027372E-01
        2   -1    0    0  501    0  0.00000000000E+00  0.00000000000E+00  0.16585916634E+04  0.16585916634E+04  0.25500000920E-02 0. -1.
       -2   -1    0    0    0  501  0.00000000000E+00  0.00000000000E+00 -0.22794082954E+04  0.22794082954E+04  0.25500000920E-02 0.  1.
    10030    2    1    2    0    0  0.00000000000E+00  0.00000000000E+00 -0.62081663195E+03  0.39379999588E+04  0.38887569203E+04 0.  0.
        3    1    3    3  502    0  0.15043922963E+04 -0.28707488620E+03  0.90267539804E+03  0.17777601233E+04  0.10100000352E+00 0. -1.
       -3    1    3    3    0  502 -0.15043922963E+04  0.28707488620E+03 -0.15234920300E+04  0.21602398356E+04  0.10100000352E+00 0.  1.
</event>
<event>
 5   0  0.2904500E-09  0.3900897E+04  0.7818609E-02  0.8024843E-01
        1   -1    0    0  501    0  0.00000000000E+00  0.00000000000E+00  0.22961457313E+04  0.22961457313E+04  0.50400001928E-02 0. -1.
       -1   -1    0    0    0  501  0.00000000000E+00  0.00000000000E+00 -0.16567980967E+04  0.16567980967E+04  0.50400001928E-02 0.  1.
    10030    2    1    2    0    0  0.00000000000E+00  0.00000000000E+00  0.63934763460E+03  0.39529438279E+04  0.39008972697E+04 0.  0.
        5    1    3    3  502    0  0.15278255473E+04  0.66127982475E+03 -0.71009621394E+03  0.18099172999E+04  0.46999998093E+01 0.  1.
       -5    1    3    3    0  502 -0.15278255473E+04 -0.66127982475E+03  0.13494438485E+04  0.21430265280E+04  0.46999998093E+01 0. -1.
</event>
<event>
 5   0  0.9434114E-09  0.3901272E+04  0.7818609E-02  0.8024765E-01
        2   -1    0    0  501    0  0.00000000000E+00  0.00000000000E+00  0.13097860639E+04  0.13097860639E+04  0.25500000920E-02 0. -1.
       -2   -1    0    0    0  501  0.00000000000E+00  0.00000000000E+00 -0.29050403552E+04  0.29050403552E+04  0.25500000920E-02 0.  1.
    10030    2    1    2    0    0  0.00000000000E+00  0.00000000000E+00 -0.15952542913E+04  0.42148264190E+04  0.39012722910E+04 0.  0.
        4    1    3    3  502    0 -0.90899916146E+03  0.16629399121E+04 -0.29862714094E+03  0.19185485162E+04  0.12699999809E+01 0.  1.
       -4    1    3    3    0  502  0.90899916146E+03 -0.16629399121E+04 -0.12966271504E+04  0.22962779028E+04  0.12699999809E+01 0. -1.
</event>
<event>
 5   0  0.6335942E-09  0.3900304E+04  0.7818609E-02  0.8024966E-01
        2   -1    0    0  501    0  0.00000000000E+00  0.00000000000E+00  0.19042072909E+04  0.19042072909E+04  0.25500000920E-02 0.  1.
       -2   -1    0    0    0  501  0.00000000000E+00  0.00000000000E+00 -0.19972057616E+04  0.19972057616E+04  0.25500000920E-02 0. -1.
    10030    2    1    2    0    0  0.00000000000E+00  0.00000000000E+00 -0.92998470752E+02  0.39014130525E+04  0.39003044869E+04 0.  0.
        2    1    3    3  502    0  0.10580047666E+04  0.16382023938E+04 -0.42948114435E+02  0.19506218777E+04  0.25500000920E-02 0.  1.
       -2    1    3    3    0  502 -0.10580047666E+04 -0.16382023938E+04 -0.50050356316E+02  0.19507911748E+04  0.25500000920E-02 0. -1.
</event>
<event>
 5   0  0.6335942E-09  0.3900487E+04  0.7818609E-02  0.8024928E-01
       -2   -1    0    0    0  501  0.00000000000E+00  0.00000000000E+00  0.26718056904E+04  0.26718056904E+04  0.25500000920E-02 0. -1.
        2   -1    0    0  501    0  0.00000000000E+00  0.00000000000E+00 -0.14235506292E+04  0.14235506292E+04  0.25500000920E-02 0.  1.
    10030    2    1    2    0    0  0.00000000000E+00  0.00000000000E+00  0.12482550612E+04  0.40953563195E+04  0.39004874934E+04 0.  0.
        2    1    3    3  502    0  0.40697864561E+03  0.12922172525E+04  0.20970661455E+04  0.24966264166E+04  0.25500000920E-02 0. -1.
       -2    1    3    3    0  502 -0.40697864561E+03 -0.12922172525E+04 -0.84881108434E+03  0.15987299029E+04  0.25500000920E-02 0.  1.
</event>
<event>
 5   0  0.2904500E-09  0.3900146E+04  0.7818609E-02  0.8024999E-01
        1   -1    0    0  501    0  0.00000000000E+00  0.00000000000E+00  0.17762343843E+04  0.17762343843E+04  0.50400001928E-02 0. -1.
       -1   -1    0    0    0  501  0.00000000000E+00  0.00000000000E+00 -0.21409245602E+04  0.21409245602E+04  0.50400001928E-02 0.  1.
    10030    2    1    2    0    0  0.00000000000E+00  0.00000000000E+00 -0.36469017595E+03  0.39171589445E+04  0.39001455450E+04 0.  0.
        4    1    3    3  502    0  0.10303130086E+03  0.73841785156E+03 -0.19921227626E+04  0.21270710111E+04  0.12699999809E+01 0.  1.
       -4    1    3    3    0  502 -0.10303130086E+03 -0.73841785156E+03  0.16274325866E+04  0.17900879334E+04  0.12699999809E+01 0. -1.
</event>
<event>
 5   0  0.2929054E-09  0.3899608E+04  0.7818609E-02  0.8025111E-01
        1   -1    0    0  501    0  0.00000000000E+00  0.00000000000E+00  0.12948040091E+04  0.12948040091E+04  0.50400001928E-02 0.  1.
       -1   -1    0    0    0  501  0.00000000000E+00  0.00000000000E+00 -0.29361477019E+04  0.29361477019E+04  0.50400001928E-02 0. -1.
    10030    2    1    2    0    0  0.00000000000E+00  0.00000000000E+00 -0.16413436928E+04  0.42309517110E+04  0.38996080909E+04 0.  0.
        1    1    3    3  502    0  0.15033640205E+04 -0.75021065979E+03 -0.18940870081E+04  0.25318935614E+04  0.50400001928E-02 0.  1.
       -1    1    3    3    0  502 -0.15033640205E+04  0.75021065979E+03  0.25274331528E+03  0.16990581495E+04  0.50400001928E-02 0. -1.
</event>
<event>
 5   0  0.9368546E-09  0.3897692E+04  0.7818609E-02  0.8025509E-01
       -2   -1    0    0    0  501  0.00000000000E+00  0.00000000000E+00  0.22113669692E+04  0.22113669692E+04  0.25500000920E-02 0. -1.
        2   -1    0    0  501    0  0.00000000000E+00  0.00000000000E+00 -0.17174900489E+04  0.17174900489E+04  0.25500000920E-02 0.  1.
    10030    2    1    2    0    0  0.00000000000E+00  0.00000000000E+00  0.49387692029E+03  0.39288570181E+04  0.38976920166E+04 0.  0.
        5    1    3    3  502    0  0.15952740855E+04 -0.62983273247E+03 -0.68587434007E+03  0.18471692881E+04  0.46999998093E+01 0.  1.
       -5    1    3    3    0  502 -0.15952740855E+04  0.62983273247E+03  0.11797512604E+04  0.20816877299E+04  0.46999998093E+01 0. -1.
</event>
<event>
 5   0  0.2904500E-09  0.3898835E+04  0.7818609E-02  0.8025272E-01
       -1   -1    0    0    0  501  0.00000000000E+00  0.00000000000E+00  0.19842861838E+04  0.19842861838E+04  0.50400001928E-02 0.  1.
        1   -1    0    0  501    0  0.00000000000E+00  0.00000000000E+00 -0.19151617522E+04  0.19151617522E+04  0.50400001928E-02 0. -1.
    10030    2    1    2    0    0  0.00000000000E+00  0.00000000000E+00  0.69124431579E+02  0.38994479360E+04  0.38988352131E+04 0.  0.
        5    1    3    3  502    0 -0.48496796018E+03  0.12580569730E+04  0.14427272466E+04  0.19746861188E+04  0.46999998093E+01 0.  1.
       -5    1    3    3    0  502  0.48496796018E+03 -0.12580569730E+04 -0.13736028150E+04  0.19247618172E+04  0.46999998093E+01 0. -1.
</event>
<event>
 5   0  0.6335942E-09  0.3901908E+04  0.7818609E-02  0.8024632E-01
       -2   -1    0    0    0  501  0.00000000000E+00  0.00000000000E+00  0.21052398468E+04  0.21052398468E+04  0.25500000920E-02 0. -1.
        2   -1    0    0  501    0  0.00000000000E+00  0.00000000000E+00 -0.18079752233E+04  0.18079752233E+04  0.25500000920E-02 0.  1.
    10030    2    1    2    0    0  0.00000000000E+00  0.00000000000E+00  0.29726462348E+03  0.39132150701E+04  0.39019079857E+04 0.  0.
        2    1    3    3  502    0 -0.65174316020E+03 -0.87198164819E+03 -0.14750404947E+04  0.18332663752E+04  0.25500000920E-02 0.  1.
       -2    1    3    3    0  502  0.65174316020E+03  0.87198164819E+03  0.17723051181E+04  0.20799486949E+04  0.25500000920E-02 0. -1.
</event>
<event>
 5   0  0.9434114E-09  0.3917736E+04  0.7818609E-02  0.8021351E-01
        2   -1    0    0  501    0  0.00000000000E+00  0.00000000000E+00  0.25523463574E+04  0.25523463574E+04  0.25500000920E-02 0.  1.
       -2   -1    0    0    0  501  0.00000000000E+00  0.00000000000E+00 -0.15033864399E+04  0.15033864399E+04  0.25500000920E-02 0. -1.
    10030    2    1    2    0    0  0.00000000000E+00  0.00000000000E+00  0.10489599175E+04  0.40557327972E+04  0.39177355212E+04 0.  0.
        4    1    3    3  502    0  0.14424928446E+02 -0.66588045205E+03  0.24315285481E+04  0.25210984805E+04  0.12699999809E+01 0.  1.
       -4    1    3    3    0  502 -0.14424928446E+02  0.66588045205E+03 -0.13825686306E+04  0.15346343168E+04  0.12699999809E+01 0. -1.
</event>
<event>
 5   0  0.2904500E-09  0.3900348E+04  0.7818609E-02  0.8024957E-01
        1   -1    0    0  501    0  0.00000000000E+00  0.00000000000E+00  0.15998283604E+04  0.15998283604E+04  0.50400001928E-02 0. -1.
       -1   -1    0    0    0  501  0.00000000000E+00  0.00000000000E+00 -0.23772422190E+04  0.23772422190E+04  0.50400001928E-02 0.  1.
    10030    2    1    2    0    0  0.00000000000E+00  0.00000000000E+00 -0.77741385856E+03  0.39770705794E+04  0.39003484570E+04 0.  0.
        4    1    3    3  502    0  0.13588563516E+04  0.12313224083E+04  0.28807513759E+03  0.18562419980E+04  0.12699999809E+01 0. -1.
       -4    1    3    3    0  502 -0.13588563516E+04 -0.12313224083E+04 -0.10654889961E+04  0.21208285813E+04  0.12699999809E+01 0.  1.
</event>
<event>
 5   0  0.9368546E-09  0.3900186E+04  0.7818609E-02  0.8024991E-01
        2   -1    0    0  501    0  0.00000000000E+00  0.00000000000E+00  0.23269830207E+04  0.23269830207E+04  0.25500000920E-02 0.  1.
       -2   -1    0    0    0  501  0.00000000000E+00  0.00000000000E+00 -0.16342458513E+04  0.16342458513E+04  0.25500000920E-02 0. -1.
    10030    2    1    2    0    0  0.00000000000E+00  0.00000000000E+00  0.69273716932E+03  0.39612288720E+04  0.39001858149E+04 0.  0.
        5    1    3    3  502    0  0.18071863577E+04  0.40302631272E+03 -0.27516315357E+03  0.18719213635E+04  0.46999998093E+01 0. -1.
       -5    1    3    3    0  502 -0.18071863577E+04 -0.40302631272E+03  0.96790032289E+03  0.20893075085E+04  0.46999998093E+01 0.  1.
</event>
<event>
 5   0  0.9078515E-09  0.3900974E+04  0.7818609E-02  0.8024827E-01
        2   -1    0    0  501    0  0.00000000000E+00  0.00000000000E+00  0.25806901942E+04  0.25806901942E+04  0.25500000920E-02 0.  1.
       -2   -1    0    0    0  501  0.00000000000E+00  0.00000000000E+00 -0.14741789747E+04  0.14741789747E+04  0.25500000920E-02 0. -1.
    10030    2    1    2    0    0  0.00000000000E+00  0.00000000000E+00  0.11065112195E+04  0.40548691689E+04  0.39009738397E+04 0.  0.
        3    1    3    3  502    0  0.17735718431E+04 -0.37014564950E+02  0.13960904060E+04  0.22574311933E+04  0.10100000352E+00 0.  1.
       -3    1    3    3    0  502 -0.17735718431E+04  0.37014564950E+02 -0.28957918648E+03  0.17974379756E+04  0.10100000352E+00 0. -1.
</event>
<event>
 5   0  0.6335942E-09  0.3901044E+04  0.7818609E-02  0.8024812E-01
        2   -1    0    0  501    0  0.00000000000E+00  0.00000000000E+00  0.29432353173E+04  0.29432353173E+04  0.25500000920E-02 0. -1.
       -2   -1    0    0    0  501  0.00000000000E+00  0.00000000000E+00 -0.12926373441E+04  0.12926373441E+04  0.25500000920E-02 0.  1.
    10030    2    1    2    0    0  0.00000000000E+00  0.00000000000E+00  0.16505979732E+04  0.42358726613E+04  0.39010439031E+04 0.  0.
        2    1    3    3  502    0 -0.15271534159E+04 -0.36834149202E+03 -0.43007463995E+03  0.16287532675E+04  0.25500000920E-02 0.  1.
       -2    1    3    3    0  502  0.15271534159E+04  0.36834149202E+03  0.20806726131E+04  0.26071193938E+04  0.25500000920E-02 0. -1.
</event>
<event>
 5   0  0.2904500E-09  0.3899414E+04  0.7818609E-02  0.8025151E-01
        1   -1    0    0  501    0  0.00000000000E+00  0.00000000000E+00  0.26541324056E+04  0.26541324056E+04  0.50400001928E-02 0.  1.
       -1   -1    0    0    0  501  0.00000000000E+00  0.00000000000E+00 -0.14322407662E+04  0.14322407662E+04  0.50400001928E-02 0. -1.
    10030    2    1    2    0    0  0.00000000000E+00  0.00000000000E+00  0.12218916394E+04  0.40863731718E+04  0.38994136125E+04 0.  0.
        2    1    3    3  502    0 -0.13945370184E+04  0.10196420047E+04  0.15581363361E+04  0.23264118628E+04  0.25500000920E-02 0.  1.
       -2    1    3    3    0  502  0.13945370184E+04 -0.10196420047E+04 -0.33624469673E+03  0.17599613091E+04  0.25500000920E-02 0. -1.
</event>
<event>
 5   0  0.9078515E-09  0.3901422E+04  0.7818609E-02  0.8024734E-01
        2   -1    0    0  501    0  0.00000000000E+00  0.00000000000E+00  0.24932165698E+04  0.24932165698E+04  0.25500000920E-02 0.  1.
       -2   -1    0    0    0  501  0.00000000000E+00  0.00000000000E+00 -0.15262506392E+04  0.15262506392E+04  0.25500000920E-02 0. -1.
    10030    2    1    2    0    0  0.00000000000E+00  0.00000000000E+00  0.96696593057E+03  0.40194672090E+04  0.39014219886E+04 0.  0.
        3    1    3    3  502    0 -0.18930218235E+04 -0.26835943145E+03  0.84832135668E+02  0.19138299062E+04  0.10100000352E+00 0.  1.
       -3    1    3    3    0  502  0.18930218235E+04  0.26835943145E+03  0.88213379491E+03  0.21056373028E+04  0.10100000352E+00 0. -1.
</event>
<event>
 5   0  0.2904500E-09  0.3899286E+04  0.7818609E-02  0.8025178E-01
        1   -1    0    0  501    0  0.00000000000E+00  0.00000000000E+00  0.21841387384E+04  0.21841387384E+04  0.50400001928E-02 0. -1.
       -1   -1    0    0    0  501  0.00000000000E+00  0.00000000000E+00 -0.17403233604E+04  0.17403233604E+04  0.50400001928E-02 0.  1.
    10030    2    1    2    0    0  0.00000000000E+00  0.00000000000E+00  0.44381537798E+03  0.39244620989E+04  0.38992859187E+04 0.  0.
        3    1    3    3  502    0 -0.35056857676E+03 -0.10219523830E+04  0.18552917847E+04  0.21469496074E+04  0.10100000352E+00 0. -1.
       -3    1    3    3    0  502  0.35056857676E+03  0.10219523830E+04 -0.14114764068E+04  0.17775124914E+04  0.10100000352E+00 0.  1.
</event>
<event>
 5   0  0.9434114E-09  0.3900220E+04  0.7818609E-02  0.8024984E-01
       -2   -1    0    0    0  501  0.00000000000E+00  0.00000000000E+00  0.14524554559E+04  0.14524554559E+04  0.25500000920E-02 0. -1.
        2   -1    0    0  501    0  0.00000000000E+00  0.00000000000E+00 -0.26182753875E+04  0.26182753875E+04  0.25500000920E-02 0.  1.
    10030    2    1    2    0    0  0.00000000000E+00  0.00000000000E+00 -0.11658199316E+04  0.40707308433E+04  0.39002196715E+04 0.  0.
        4    1    3    3  502    0  0.10815055858E+04 -0.16051763676E+04 -0.83139660950E+03  0.21065297145E+04  0.12699999809E+01 0. -1.
       -4    1    3    3    0  502 -0.10815055858E+04  0.16051763676E+04 -0.33442332209E+03  0.19642011288E+04  0.12699999809E+01 0.  1.
</event>
<event>
 5   0  0.2929054E-09  0.3899883E+04  0.7818609E-02  0.8025053E-01
       -1   -1    0    0    0  501  0.00000000000E+00  0.00000000000E+00  0.25342694573E+04  0.25342694573E+04  0.50400001928E-02 0.  1.
        1   -1    0    0  501    0  0.00000000000E+00  0.00000000000E+00 -0.15003425436E+04  0.15003425436E+04  0.50400001928E-02 0. -1.
    10030    2    1    2    0    0  0.00000000000E+00  0.00000000000E+00  0.10339269137E+04  0.40346120008E+04  0.38998832206E+04 0.  0.
        1    1    3    3  502    0 -0.78741959359E+03 -0.15061824495E+04  0.15058393487E+04  0.22707195625E+04  0.50400001928E-02 0.  1.
       -1    1    3    3    0  502  0.78741959359E+03  0.15061824495E+04 -0.47191243500E+03  0.17638924383E+04  0.50400001928E-02 0. -1.
</event>
<event>
 5   0  0.9368546E-09  0.3899918E+04  0.7818609E-02  0.8025046E-01
        2   -1    0    0  501    0  0.00000000000E+00  0.00000000000E+00  0.25922423599E+04  0.25922423599E+04  0.25500000920E-02 0. -1.
       -2   -1    0    0    0  501  0.00000000000E+00  0.00000000000E+00 -0.14668153219E+04  0.14668153219E+04  0.25500000920E-02 0.  1.
    10030    2    1    2    0    0  0.00000000000E+00  0.00000000000E+00  0.11254270380E+04  0.40590576818E+04  0.38999183641E+04 0.  0.
        5    1    3    3  502    0  0.11171719916E+04  0.14240670378E+04 -0.19233965106E+03  0.18201804356E+04  0.46999998093E+01 0.  1.
       -5    1    3    3    0  502 -0.11171719916E+04 -0.14240670378E+04  0.13177666890E+04  0.22388772462E+04  0.46999998093E+01 0. -1.
</event>
<event>
 5   0  0.2904500E-09  0.3900116E+04  0.7818609E-02  0.8025005E-01
       -1   -1    0    0    0  501  0.00000000000E+00  0.00000000000E+00  0.25277307802E+04  0.25277307802E+04  0.50400001928E-02 0.  1.
        1   -1    0    0  501    0  0.00000000000E+00  0.00000000000E+00 -0.15044032282E+04  0.15044032282E+04  0.50400001928E-02 0. -1.
    10030    2    1    2    0    0  0.00000000000E+00  0.00000000000E+00  0.10233275520E+04  0.40321340084E+04  0.39001160731E+04 0.  0.
        5    1    3    3  502    0 -0.96889933466E+03  0.72918575162E+03 -0.10671931827E+04  0.16153640953E+04  0.46999998093E+01 0. -1.
       -5    1    3    3    0  502  0.96889933466E+03 -0.72918575162E+03  0.20905207347E+04  0.24167699132E+04  0.46999998093E+01 0.  1.
</event>
<event>
 5   0  0.2904500E-09  0.3897059E+04  0.7818609E-02  0.8025641E-01
        1   -1    0    0  501    0  0.00000000000E+00  0.00000000000E+00  0.22845055231E+04  0.22845055231E+04  0.50400001928E-02 0.  1.
       -1   -1    0    0    0  501  0.00000000000E+00  0.00000000000E+00 -0.16619645715E+04  0.16619645715E+04  0.50400001928E-02 0. -1.
    10030    2    1    2    0    0  0.00000000000E+00  0.00000000000E+00  0.62254095152E+03  0.39464700946E+04  0.38970590156E+04 0.  0.
        5    1    3    3  502    0  0.17168243342E+03 -0.36770961084E+03 -0.16186896527E+04  0.16687910287E+04  0.46999998093E+01 0. -1.
       -5    1    3    3    0  502 -0.17168243342E+03  0.36770961084E+03  0.22412306042E+04  0.22776790659E+04  0.46999998093E+01 0.  1.
</event>
<event>
 5   0  0.9368546E-09  0.3900395E+04  0.7818609E-02  0.8024947E-01
        2   -1    0    0  501    0  0.00000000000E+00  0.00000000000E+00  0.28189981914E+04  0.28189981914E+04  0.25500000920E-02 0.  1.
       -2   -1    0    0    0  501  0.00000000000E+00  0.00000000000E+00 -0.13491569467E+04  0.13491569467E+04  0.25500000920E-02 0. -1.
    10030    2    1    2    0    0  0.00000000000E+00  0.00000000000E+00  0.14698412447E+04  0.41681551381E+04  0.39003953609E+04 0.  0.
        5    1    3    3  502    0  0.14316100821E+04 -0.18540562484E+03 -0.66634168483E+03  0.15899421385E+04  0.46999998093E+01 0. -1.
       -5    1    3    3    0  502 -0.14316100821E+04  0.18540562484E+03  0.21361829295E+04  0.25782129996E+04  0.46999998093E+01 0.  1.
</event>
<event>
 5   0  0.2904500E-09  0.3899594E+04  0.7818609E-02  0.8025114E-01
        1   -1    0    0  501    0  0.00000000000E+00  0.00000000000E+00  0.13279404615E+04  0.13279404615E+04  0.50400001928E-02 0. -1.
       -1   -1    0    0    0  501  0.00000000000E+00  0.00000000000E+00 -0.28628598917E+04  0.28628598917E+04  0.50400001928E-02 0.  1.
    10030    2    1    2    0    0  0.00000000000E+00  0.00000000000E+00 -0.15349194302E+04  0.41908003532E+04  0.38995935613E+04 0.  0.
        4    1    3    3  502    0 -0.17874830618E+04 -0.69597447055E+03 -0.11431811942E+04  0.22330116470E+04  0.12699999809E+01 0. -1.
       -4    1    3    3    0  502  0.17874830618E+04  0.69597447055E+03 -0.39173823606E+03  0.19577887063E+04  0.12699999809E+01 0.  1.
</event>
<event>
 5   0  0.2904500E-09  0.3896856E+04  0.7818609E-02  0.8025683E-01
        1   -1    0    0  501    0  0.00000000000E+00  0.00000000000E+00  0.25116746973E+04  0.25116746973E+04  0.50400001928E-02 0.  1.
       -1   -1    0    0    0  501  0.00000000000E+00  0.00000000000E+00 -0.15114899056E+04  0.15114899056E+04  0.50400001928E-02 0. -1.
    10030    2    1    2    0    0  0.00000000000E+00  0.00000000000E+00  0.10001847917E+04  0.40231646029E+04  0.38968556305E+04 0.  0.
        4    1    3    3  502    0  0.34378080528E+03 -0.23019297418E+03  0.24658012265E+04  0.25002702552E+04  0.12699999809E+01 0.  1.
       -4    1    3    3    0  502 -0.34378080528E+03  0.23019297418E+03 -0.14656164348E+04  0.15228943477E+04  0.12699999809E+01 0. -1.
</event>
<event>
 5   0  0.2904500E-09  0.3900622E+04  0.7818609E-02  0.8024900E-01
       -1   -1    0    0    0  501  0.00000000000E+00  0.00000000000E+00  0.17662137560E+04  0.17662137560E+04  0.50400001928E-02 0. -1.
        1   -1    0    0  501    0  0.00000000000E+00  0.00000000000E+00 -0.21535968606E+04  0.21535968606E+04  0.50400001928E-02 0.  1.
    10030    2    1    2    0    0  0.00000000000E+00  0.00000000000E+00 -0.38738310452E+03  0.39198106166E+04  0.39006216941E+04 0.  0.
        5    1    3    3  502    0  0.17867827597E+04  0.32573845942E+03  0.52043233528E+03  0.18893305904E+04  0.46999998093E+01 0. -1.
       -5    1    3    3    0  502 -0.17867827597E+04 -0.32573845942E+03 -0.90781543981E+03  0.20304800262E+04  0.46999998093E+01 0.  1.
</event>
<event>
 5   0  0.2904500E-09  0.3898401E+04  0.7818609E-02  0.8025362E-01
        1   -1    0    0  501    0  0.00000000000E+00  0.00000000000E+00  0.28601256004E+04  0.28601256004E+04  0.50400001928E-02 0.  1.
       -1   -1    0    0    0  501  0.00000000000E+00  0.00000000000E+00 -0.13283972733E+04  0.13283972733E+04  0.50400001928E-02 0. -1.
    10030    2    1    2    0    0  0.00000000000E+00  0.00000000000E+00  0.15317283271E+04  0.41885228737E+04  0.38984012358E+04 0.  0.
        2    1    3    3  502    0  0.99451557507E+03 -0.75647531028E+03  0.23732157750E+04  0.26820643615E+04  0.25500000920E-02 0.  1.
       -2    1    3    3    0  502 -0.99451557507E+03  0.75647531028E+03 -0.84148744792E+03  0.15064585123E+04  0.25500000920E-02 0. -1.
</event>
<event>
 5   0  0.2904500E-09  0.3901208E+04  0.7818609E-02  0.8024778E-01
       -1   -1    0    0    0  501  0.00000000000E+00  0.00000000000E+00  0.23364698031E+04  0.23364698031E+04  0.50400001928E-02 0. -1.
        1   -1    0    0  501    0  0.00000000000E+00  0.00000000000E+00 -0.16284633009E+04  0.16284633009E+04  0.50400001928E-02 0.  1.
    10030    2    1    2    0    0  0.00000000000E+00  0.00000000000E+00  0.70800650218E+03  0.39649331040E+04  0.39012076736E+04 0.  0.
        2    1    3    3  502    0 -0.25941830380E+03  0.90257994515E+03 -0.13835746595E+04  0.16721923490E+04  0.25500000920E-02 0.  1.
       -2    1    3    3    0  502  0.25941830380E+03 -0.90257994515E+03  0.20915811617E+04  0.22927407550E+04  0.25500000920E-02 0. -1.
</event>
<event>
 5   0  0.2904500E-09  0.3898349E+04  0.7818609E-02  0.8025373E-01
       -1   -1    0    0    0  501  0.00000000000E+00  0.00000000000E+00  0.22284618529E+04  0.22284618529E+04  0.50400001928E-02 0. -1.
        1   -1    0    0  501    0  0.00000000000E+00  0.00000000000E+00 -0.17048898103E+04  0.17048898104E+04  0.50400001928E-02 0.  1.
    10030    2    1    2    0    0  0.00000000000E+00  0.00000000000E+00  0.52357204255E+03  0.39333516633E+04  0.38983493460E+04 0.  0.
        4    1    3    3  502    0 -0.16688071778E+03 -0.15212516043E+04  0.14797803874E+04  0.21288041773E+04  0.12699999809E+01 0. -1.
       -4    1    3    3    0  502  0.16688071778E+03  0.15212516043E+04 -0.95620834482E+03  0.18045474860E+04  0.12699999809E+01 0.  1.
</event>
<event>
 5   0  0.2929054E-09  0.3899621E+04  0.7818609E-02  0.8025108E-01
       -1   -1    0    0    0  501  0.00000000000E+00  0.00000000000E+00  0.22581890723E+04  0.22581890723E+04  0.50400001928E-02 0. -1.
        1   -1    0    0  501    0  0.00000000000E+00  0.00000000000E+00 -0.16835445658E+04  0.16835445658E+04  0.50400001928E-02 0.  1.
    10030    2    1    2    0    0  0.00000000000E+00  0.00000000000E+00  0.57464450653E+03  0.39417336381E+04  0.38996214899E+04 0.  0.
        1    1    3    3  502    0  0.16686617629E+04 -0.40043044219E+03  0.12230543157E+04  0.21072822491E+04  0.50400001928E-02 0. -1.
       -1    1    3    3    0  502 -0.16686617629E+04  0.40043044219E+03 -0.64840980922E+03  0.18344513890E+04  0.50400001928E-02 0.  1.
</event>
<event>
 5   0  0.6335942E-09  0.3901583E+04  0.7818609E-02  0.8024700E-01
        2   -1    0    0  501    0  0.00000000000E+00  0.00000000000E+00  0.18003938651E+04  0.18003938652E+04  0.25500000920E-02 0. -1.
       -2   -1    0    0    0  501  0.00000000000E+00  0.00000000000E+00 -0.21137527821E+04  0.21137527821E+04  0.25500000920E-02 0.  1.
    10030    2    1    2    0    0  0.00000000000E+00  0.00000000000E+00 -0.31335891693E+03  0.39141466472E+04  0.39015830332E+04 0.  0.
        2    1    3    3  502    0  0.28210430706E+03  0.38702963341E+03 -0.20538567312E+04  0.21089576215E+04  0.25500000920E-02 0.  1.
       -2    1    3    3    0  502 -0.28210430706E+03 -0.38702963341E+03  0.17404978142E+04  0.18051890257E+04  0.25500000920E-02 0. -1.
</event>
<event>
 5   0  0.2929054E-09  0.3899637E+04  0.7818609E-02  0.8025105E-01
        1   -1    0    0  501    0  0.00000000000E+00  0.00000000000E+00  0.15856282830E+04  0.15856282830E+04  0.50400001928E-02 0. -1.
       -1   -1    0    0    0  501  0.00000000000E+00  0.00000000000E+00 -0.23976567675E+04  0.23976567675E+04  0.50400001928E-02 0.  1.
    10030    2    1    2    0    0  0.00000000000E+00  0.00000000000E+00 -0.81202848447E+03  0.39832850505E+04  0.38996371028E+04 0.  0.
        1    1    3    3  502    0 -0.25665735246E+03 -0.61171120748E+03 -0.22788449818E+04  0.23734359163E+04  0.50400001928E-02 0.  1.
       -1    1    3    3    0  502  0.25665735246E+03  0.61171120748E+03  0.14668164973E+04  0.16098491342E+04  0.50400001928E-02 0. -1.
</event>
<event>
 5   0  0.2904500E-09  0.3899593E+04  0.7818609E-02  0.8025114E-01
       -1   -1    0    0    0  501  0.00000000000E+00  0.00000000000E+00  0.17285495501E+04  0.17285495501E+04  0.50400001928E-02 0.  1.
        1   -1    0    0  501    0  0.00000000000E+00  0.00000000000E+00 -0.21993620636E+04  0.21993620636E+04  0.50400001928E-02 0. -1.
    10030    2    1    2    0    0  0.00000000000E+00  0.00000000000E+00 -0.47081251352E+03  0.39279116137E+04  0.38995929559E+04 0.  0.
        4    1    3    3  502    0  0.97797287018E+03  0.77096850563E+03  0.12757825497E+04  0.17828197044E+04  0.12699999809E+01 0.  1.
       -4    1    3    3    0  502 -0.97797287018E+03 -0.77096850563E+03 -0.17465950632E+04  0.21450919093E+04  0.12699999809E+01 0. -1.
</event>
<event>
 5   0  0.9368546E-09  0.3898028E+04  0.7818609E-02  0.8025440E-01
       -2   -1    0    0    0  501  0.00000000000E+00  0.00000000000E+00  0.18694481584E+04  0.18694481584E+04  0.25500000920E-02 0.  1.
        2   -1    0    0  501    0  0.00000000000E+00  0.00000000000E+00 -0.20319660125E+04  0.20319660125E+04  0.25500000920E-02 0. -1.
    10030    2    1    2    0    0  0.00000000000E+00  0.00000000000E+00 -0.16251785411E+03  0.39014141708E+04  0.38980277679E+04 0.  0.
        5    1    3    3  502    0 -0.16200829440E+04 -0.59417561506E+03 -0.98809220094E+03  0.19884822591E+04  0.46999998093E+01 0.  1.
       -5    1    3    3    0  502  0.16200829440E+04  0.59417561506E+03  0.82557434682E+03  0.19129319118E+04  0.46999998093E+01 0. -1.
</event>
<event>
 5   0  0.9368546E-09  0.3901297E+04  0.7818609E-02  0.8024760E-01
       -2   -1    0    0    0  501  0.00000000000E+00  0.00000000000E+00  0.20453081226E+04  0.20453081226E+04  0.25500000920E-02 0. -1.
        2   -1    0    0  501    0  0.00000000000E+00  0.00000000000E+00 -0.18603694397E+04  0.18603694397E+04  0.25500000920E-02 0.  1.
    10030    2    1    2    0    0  0.00000000000E+00  0.00000000000E+00  0.18493868293E+03  0.39056775622E+04  0.39012965670E+04 0.  0.
        5    1    3    3  502    0  0.12879940700E+04 -0.13985445867E+04  0.52902203444E+03  0.19735100933E+04  0.46999998093E+01 0.  1.
       -5    1    3    3    0  502 -0.12879940700E+04  0.13985445867E+04 -0.34408335152E+03  0.19321674690E+04  0.46999998093E+01 0. -1.
</event>
<event>
 5   0  0.2904500E-09  0.3898818E+04  0.7818609E-02  0.8025275E-01
        1   -1    0    0  501    0  0.00000000000E+00  0.00000000000E+00  0.24960700874E+04  0.24960700874E+04  0.50400001928E-02 0. -1.
       -1   -1    0    0    0  501  0.00000000000E+00  0.00000000000E+00 -0.15224718122E+04  0.15224718123E+04  0.50400001928E-02 0.  1.
    10030    2    1    2    0    0  0.00000000000E+00  0.00000000000E+00  0.97359827512E+03  0.40185418996E+04  0.38988184618E+04 0.  0.
        3    1    3    3  502    0 -0.87438492162E+03 -0.10113015666E+04 -0.97554088329E+03  0.16549803246E+04  0.10100000352E+00 0.  1.
       -3    1    3    3    0  502  0.87438492162E+03  0.10113015666E+04  0.19491391584E+04  0.23635615750E+04  0.10100000352E+00 0. -1.
</event>
<event>
 5   0  0.2904500E-09  0.3900975E+04  0.7818609E-02  0.8024827E-01
        1   -1    0    0  501    0  0.00000000000E+00  0.00000000000E+00  0.13067350712E+04  0.13067350712E+04  0.50400001928E-02 0.  1.
       -1   -1    0    0    0  501  0.00000000000E+00  0.00000000000E+00 -0.29113789418E+04  0.29113789418E+04  0.50400001928E-02 0. -1.
    10030    2    1    2    0    0  0.00000000000E+00  0.00000000000E+00 -0.16046438706E+04  0.42181140130E+04  0.39009747340E+04 0.  0.
        4    1    3    3  502    0  0.17999260144E+04 -0.73641971052E+03 -0.64066269255E+03  0.20475590213E+04  0.12699999809E+01 0.  1.
       -4    1    3    3    0  502 -0.17999260144E+04  0.73641971052E+03 -0.96398117802E+03  0.21705549916E+04  0.12699999809E+01 0. -1.
</event>
<event>
 5   0  0.2904500E-09  0.3887610E+04  0.7818609E-02  0.8027611E-01
        1   -1    0    0  501    0  0.00000000000E+00  0.00000000000E+00  0.23723028051E+04  0.23723028051E+04  0.50400001928E-02 0. -1.
       -1   -1    0    0    0  501  0.00000000000E+00  0.00000000000E+00 -0.15927046075E+04  0.15927046075E+04  0.50400001928E-02 0.  1.
    10030    2    1    2    0    0  0.00000000000E+00  0.00000000000E+00  0.77959819760E+03  0.39650074126E+04  0.38876098611E+04 0.  0.
        2    1    3    3  502    0  0.10048205167E+04 -0.16489946129E+04  0.61678346634E+03  0.20271332833E+04  0.25500000920E-02 0.  1.
       -2    1    3    3    0  502 -0.10048205167E+04  0.16489946129E+04  0.16281473126E+03  0.19378741292E+04  0.25500000920E-02 0. -1.
</event>
<event>
 5   0  0.6335942E-09  0.3899946E+04  0.7818609E-02  0.8025041E-01
       -2   -1    0    0    0  501  0.00000000000E+00  0.00000000000E+00  0.14649270039E+04  0.14649270039E+04  0.25500000920E-02 0. -1.
        2   -1    0    0  501    0  0.00000000000E+00  0.00000000000E+00 -0.25956199960E+04  0.25956199960E+04  0.25500000920E-02 0.  1.
    10030    2    1    2    0    0  0.00000000000E+00  0.00000000000E+00 -0.11306929921E+04  0.40605469999E+04  0.38999455504E+04 0.  0.
        2    1    3    3  502    0  0.65451398344E+02  0.69218116943E+03  0.13314874276E+04  0.15020843607E+04  0.25500000920E-02 0. -1.
       -2    1    3    3    0  502 -0.65451398344E+02 -0.69218116943E+03 -0.24621804197E+04  0.25584626392E+04  0.25500000920E-02 0.  1.
</event>
<event>
 5   0  0.2904500E-09  0.3898370E+04  0.7818609E-02  0.8025368E-01
        1   -1    0    0  501    0  0.00000000000E+00  0.00000000000E+00  0.13015146908E+04  0.13015146908E+04  0.50400001928E-02 0. -1.
       -1   -1    0    0    0  501  0.00000000000E+00  0.00000000000E+00 -0.29191547453E+04  0.29191547453E+04  0.50400001928E-02 0.  1.
    10030    2    1    2    0    0  0.00000000000E+00  0.00000000000E+00 -0.16176400545E+04  0.42206694361E+04  0.38983703189E+04 0.  0.
        5    1    3    3  502    0  0.24796592852E+03 -0.17672710831E+04 -0.16575757075E+04  0.24356341061E+04  0.46999998093E+01 0.  1.
       -5    1    3    3    0  502 -0.24796592852E+03  0.17672710831E+04  0.39935652968E+02  0.17850353300E+04  0.46999998093E+01 0. -1.
</event>
<event>
 5   0  0.2904500E-09  0.3900073E+04  0.7818609E-02  0.8025014E-01
       -1   -1    0    0    0  501  0.00000000000E+00  0.00000000000E+00  0.28134125179E+04  0.28134125179E+04  0.50400001928E-02 0.  1.
        1   -1    0    0  501    0  0.00000000000E+00  0.00000000000E+00 -0.13516117771E+04  0.13516117771E+04  0.50400001928E-02 0. -1.
    10030    2    1    2    0    0  0.00000000000E+00  0.00000000000E+00  0.14618007408E+04  0.41650242950E+04  0.39000725599E+04 0.  0.
        3    1    3    3  502    0 -0.18815969007E+04 -0.50714754244E+03  0.80668581857E+03  0.21091106056E+04  0.10100000352E+00 0.  1.
       -3    1    3    3    0  502  0.18815969007E+04  0.50714754244E+03  0.65511492227E+03  0.20559136894E+04  0.10100000352E+00 0. -1.
</event>
<event>
 5   0  0.6335942E-09  0.3900638E+04  0.7818609E-02  0.8024897E-01
       -2   -1    0    0    0  501  0.00000000000E+00  0.00000000000E+00  0.25569721570E+04  0.25569721570E+04  0.25500000920E-02 0.  1.
        2   -1    0    0  501    0  0.00000000000E+00  0.00000000000E+00 -0.14875968818E+04  0.14875968818E+04  0.25500000920E-02 0. -1.
    10030    2    1    2    0    0  0.00000000000E+00  0.00000000000E+00  0.10693752751E+04  0.40445690388E+04  0.39006377979E+04 0.  0.
        2    1    3    3  502    0 -0.14345987840E+04 -0.46262755720E+03  0.18179510486E+04  0.23615765800E+04  0.25500000920E-02 0.  1.
       -2    1    3    3    0  502  0.14345987840E+04  0.46262755720E+03 -0.74857577352E+03  0.16829924588E+04  0.25500000920E-02 0. -1.
</event>
<event>
 5   0  0.9078515E-09  0.3898759E+04  0.7818609E-02  0.8025287E-01
        2   -1    0    0  501    0  0.00000000000E+00  0.00000000000E+00  0.13819138548E+04  0.13819138548E+04  0.25500000920E-02 0. -1.
       -2   -1    0    0    0  501  0.00000000000E+00  0.00000000000E+00 -0.27498673751E+04  0.27498673751E+04  0.25500000920E-02 0.  1.
    10030    2    1    2    0    0  0.00000000000E+00  0.00000000000E+00 -0.13679535203E+04  0.41317812300E+04  0.38987586869E+04 0.  0.
        3    1    3    3  502    0 -0.43212332560E+03 -0.11976315226E+04  0.88040364174E+03  0.15479542677E+04  0.10100000352E+00 0. -1.
       -3    1    3    3    0  502  0.43212332560E+03  0.11976315226E+04 -0.22483571621E+04  0.25838269622E+04  0.10100000352E+00 0.  1.
</event>
<event>
 5   0  0.9078515E-09  0.3899868E+04  0.7818609E-02  0.8025057E-01
       -2   -1    0    0    0  501  0.00000000000E+00  0.00000000000E+00  0.18974500599E+04  0.18974500600E+04  0.25500000920E-02 0.  1.
        2   -1    0    0  501    0  0.00000000000E+00  0.00000000000E+00 -0.20038693831E+04  0.20038693831E+04  0.25500000920E-02 0. -1.
    10030    2    1    2    0    0  0.00000000000E+00  0.00000000000E+00 -0.10641932318E+03  0.39013194431E+04  0.38998677317E+04 0.  0.
        3    1    3    3  502    0  0.75264421539E+03  0.44144307348E+03  0.16912561923E+04  0.19030745704E+04  0.10100000352E+00 0.  1.
       -3    1    3    3    0  502 -0.75264421539E+03 -0.44144307348E+03 -0.17976755155E+04  0.19982448727E+04  0.10100000352E+00 0. -1.
</event>
<event>
 5   0  0.9368546E-09  0.3899747E+04  0.7818609E-02  0.8025082E-01
       -2   -1    0    0    0  501  0.00000000000E+00  0.00000000000E+00  0.18464379961E+04  0.18464379961E+04  0.25500000920E-02 0. -1.
        2   -1    0    0  501    0  0.00000000000E+00  0.00000000000E+00 -0.20591038248E+04  0.20591038248E+04  0.25500000920E-02 0.  1.
    10030    2    1    2    0    0  0.00000000000E+00  0.00000000000E+00 -0.21266582869E+03  0.39055418208E+04  0.38997474482E+04 0.  0.
        5    1    3    3  502    0 -0.76159240897E+03 -0.10094058173E+04 -0.15928099498E+04  0.20337130396E+04  0.46999998093E+01 0.  1.
       -5    1    3    3    0  502  0.76159240897E+03  0.10094058173E+04  0.13801441211E+04  0.18718287812E+04  0.46999998093E+01 0. -1.
</event>
<event>
 5   0  0.9277261E-09  0.3903124E+04  0.7818609E-02  0.8024380E-01
        2   -1    0    0  501    0  0.00000000000E+00  0.00000000000E+00  0.29255112367E+04  0.29255112367E+04  0.25500000920E-02 0. -1.
       -2   -1    0    0    0  501  0.00000000000E+00  0.00000000000E+00 -0.13018559868E+04  0.13018559868E+04  0.25500000920E-02 0.  1.
    10030    2    1    2    0    0  0.00000000000E+00  0.00000000000E+00  0.16236552500E+04  0.42273672235E+04  0.39031240400E+04 0.  0.
        1    1    3    3  502    0  0.17826614567E+04  0.63869861155E+02  0.16691897314E+04  0.24429808815E+04  0.50400001928E-02 0. -1.
       -1    1    3    3    0  502 -0.17826614567E+04 -0.63869861155E+02 -0.45534481405E+02  0.17843863419E+04  0.50400001928E-02 0.  1.
</event>
<event>
 5   0  0.2904500E-09  0.3900643E+04  0.7818609E-02  0.8024895E-01
       -1   -1    0    0    0  501  0.00000000000E+00  0.00000000000E+00  0.30244992739E+04  0.30244992739E+04  0.50400001928E-02 0. -1.
        1   -1    0    0  501    0  0.00000000000E+00  0.00000000000E+00 -0.12576475703E+04  0.12576475703E+04  0.50400001928E-02 0.  1.
    10030    2    1    2    0    0  0.00000000000E+00  0.00000000000E+00  0.17668517036E+04  0.42821468442E+04  0.39006431075E+04 0.  0.
        5    1    3    3  502    0 -0.62225722007E+03  0.65721329885E+03  0.27799933915E+04  0.29236139819E+04  0.46999998093E+01 0. -1.
       -5    1    3    3    0  502  0.62225722007E+03 -0.65721329885E+03 -0.10131416879E+04  0.13585328623E+04  0.46999998093E+01 0.  1.
</event>
<event>
 5   0  0.2904500E-09  0.3899555E+04  0.7818609E-02  0.8025122E-01
       -1   -1    0    0    0  501  0.00000000000E+00  0.00000000000E+00  0.16446597471E+04  0.16446597471E+04  0.50400001928E-02 0. -1.
        1   -1    0    0  501    0  0.00000000000E+00  0.00000000000E+00 -0.23115013355E+04  0.23115013355E+04  0.50400001928E-02 0.  1.
    10030    2    1    2    0    0  0.00000000000E+00  0.00000000000E+00 -0.66684158836E+03  0.39561610826E+04  0.38995554628E+04 0.  0.
        3    1    3    3  502    0  0.59853017796E+03 -0.11177076472E+04  0.11693387386E+04  0.17247787841E+04  0.10100000352E+00 0. -1.
       -3    1    3    3    0  502 -0.59853017796E+03  0.11177076472E+04 -0.18361803270E+04  0.22313822984E+04  0.10100000352E+00 0.  1.
</event>
<event>
 5   0  0.2904500E-09  0.3900945E+04  0.7818609E-02  0.8024833E-01
       -1   -1    0    0    0  501  0.00000000000E+00  0.00000000000E+00  0.26901949940E+04  0.26901949940E+04  0.50400001928E-02 0. -1.
        1   -1    0    0  501    0  0.00000000000E+00  0.00000000000E+00 -0.14141511546E+04  0.14141511546E+04  0.50400001928E-02 0.  1.
    10030    2    1    2    0    0  0.00000000000E+00  0.00000000000E+00  0.12760438394E+04  0.41043461486E+04  0.39009446840E+04 0.  0.
        4    1    3    3  502    0 -0.18031816855E+04 -0.73068847252E+03  0.49310527762E+03  0.20071183977E+04  0.12699999809E+01 0.  1.
       -4    1    3    3    0  502  0.18031816855E+04  0.73068847252E+03  0.78293856181E+03  0.20972277509E+04  0.12699999809E+01 0. -1.
</event>
<event>
 5   0  0.9434114E-09  0.3900038E+04  0.7818609E-02  0.8025021E-01
        2   -1    0    0  501    0  0.00000000000E+00  0.00000000000E+00  0.15955959345E+04  0.15955959345E+04  0.25500000920E-02 0.  1.
       -2   -1    0    0    0  501  0.00000000000E+00  0.00000000000E+00 -0.23831680125E+04  0.23831680125E+04  0.25500000920E-02 0. -1.
    10030    2    1    2    0    0  0.00000000000E+00  0.00000000000E+00 -0.78757207801E+03  0.39787639470E+04  0.39000375341E+04 0.  0.
        4    1    3    3  502    0 -0.87325713860E+03  0.13362754324E+04 -0.15363769057E+04  0.22155508730E+04  0.12699999809E+01 0. -1.
       -4    1    3    3    0  502  0.87325713860E+03 -0.13362754324E+04  0.74880482770E+03  0.17632130740E+04  0.12699999809E+01 0.  1.
</event>
<event>
 5   0  0.2904500E-09  0.3923983E+04  0.7818609E-02  0.8020060E-01
       -1   -1    0    0    0  501  0.00000000000E+00  0.00000000000E+00  0.16090379035E+04  0.16090379035E+04  0.50400001928E-02 0.  1.
        1   -1    0    0  501    0  0.00000000000E+00  0.00000000000E+00 -0.23923673420E+04  0.23923673420E+04  0.50400001928E-02 0. -1.
    10030    2    1    2    0    0  0.00000000000E+00  0.00000000000E+00 -0.78332943849E+03  0.40014052455E+04  0.39239825343E+04 0.  0.
        4    1    3    3  502    0 -0.15798761663E+03 -0.47535244437E+03  0.15427318178E+04  0.16220182206E+04  0.12699999809E+01 0.  1.
       -4    1    3    3    0  502  0.15798761663E+03  0.47535244437E+03 -0.23260612563E+04  0.23793870249E+04  0.12699999809E+01 0. -1.
</event>
<event>
 5   0  0.9368546E-09  0.3874310E+04  0.7818609E-02  0.8030394E-01
        2   -1    0    0  501    0  0.00000000000E+00  0.00000000000E+00  0.26987077277E+04  0.26987077277E+04  0.25500000920E-02 0. -1.
       -2   -1    0    0    0  501  0.00000000000E+00  0.00000000000E+00 -0.13905061267E+04  0.13905061267E+04  0.25500000920E-02 0.  1.
    10030    2    1    2    0    0  0.00000000000E+00  0.00000000000E+00  0.13082016010E+04  0.40892138544E+04  0.38743100699E+04 0.  0.
        5    1    3    3  502    0  0.11058567728E+04 -0.52134654626E+03  0.22400551937E+04  0.25519778181E+04  0.46999998093E+01 0. -1.
       -5    1    3    3    0  502 -0.11058567728E+04  0.52134654626E+03 -0.93185359262E+03  0.15372360363E+04  0.46999998093E+01 0.  1.
</event>
<event>
 5   0  0.2904500E-09  0.3905740E+04  0.7818609E-02  0.8023836E-01
        1   -1    0    0  501    0  0.00000000000E+00  0.00000000000E+00  0.14534895959E+04  0.14534895959E+04  0.50400001928E-02 0. -1.
       -1   -1    0    0    0  501  0.00000000000E+00  0.00000000000E+00 -0.26238241379E+04  0.26238241379E+04  0.50400001928E-02 0.  1.
    10030    2    1    2    0    0  0.00000000000E+00  0.00000000000E+00 -0.11703345420E+04  0.40773137339E+04  0.39057399227E+04 0.  0.
        3    1    3    3  502    0 -0.72904033943E+03 -0.16542820335E+04  0.18589414227E+03  0.18173347257E+04  0.10100000352E+00 0.  1.
       -3    1    3    3    0  502  0.72904033943E+03  0.16542820335E+04 -0.13562286843E+04  0.22599790081E+04  0.10100000352E+00 0. -1.
</event>
<event>
 5   0  0.6335942E-09  0.3898022E+04  0.7818609E-02  0.8025441E-01
        2   -1    0    0  501    0  0.00000000000E+00  0.00000000000E+00  0.32043120140E+04  0.32043120140E+04  0.25500000920E-02 0.  1.
       -2   -1    0    0    0  501  0.00000000000E+00  0.00000000000E+00 -0.11854790381E+04  0.11854790381E+04  0.25500000920E-02 0. -1.
    10030    2    1    2    0    0  0.00000000000E+00  0.00000000000E+00  0.20188329759E+04  0.43897910521E+04  0.38980224340E+04 0.  0.
        2    1    3    3  502    0  0.65518892521E+03  0.11903174808E+04  0.25830256300E+04  0.29185869249E+04  0.25500000920E-02 0.  1.
       -2    1    3    3    0  502 -0.65518892521E+03 -0.11903174808E+04 -0.56419265409E+03  0.14712041272E+04  0.25500000920E-02 0. -1.
</event>
<event>
 5   0  0.6335942E-09  0.3902236E+04  0.7818609E-02  0.8024564E-01
       -2   -1    0    0    0  501  0.00000000000E+00  0.00000000000E+00  0.26162848293E+04  0.26162848293E+04  0.25500000920E-02 0.  1.
        2   -1    0    0  501    0  0.00000000000E+00  0.00000000000E+00 -0.14550639731E+04  0.14550639731E+04  0.25500000920E-02 0. -1.
    10030    2    1    2    0    0  0.00000000000E+00  0.00000000000E+00  0.11612208562E+04  0.40713488023E+04  0.39022361786E+04 0.  0.
        2    1    3    3  502    0  0.17505074249E+04  0.86070941319E+03  0.62444127256E+03  0.20481757350E+04  0.25500000920E-02 0.  1.
       -2    1    3    3    0  502 -0.17505074249E+04 -0.86070941319E+03  0.53677958364E+03  0.20231730673E+04  0.25500000920E-02 0. -1.
</event>
<event>
 5   0  0.6335942E-09  0.3896964E+04  0.7818609E-02  0.8025661E-01
        2   -1    0    0  501    0  0.00000000000E+00  0.00000000000E+00  0.17401872931E+04  0.17401872931E+04  0.25500000920E-02 0. -1.
       -2   -1    0    0    0  501  0.00000000000E+00  0.00000000000E+00 -0.21817084123E+04  0.21817084123E+04  0.25500000920E-02 0.  1.
    10030    2    1    2    0    0  0.00000000000E+00  0.00000000000E+00 -0.44152111922E+03  0.39218957054E+04  0.38969635648E+04 0.  0.
        2    1    3    3  502    0 -0.17709952094E+04 -0.76532291858E+03 -0.49533948650E+03  0.19918595353E+04  0.25500000920E-02 0. -1.
       -2    1    3    3    0  502  0.17709952094E+04  0.76532291858E+03  0.53818367280E+02  0.19300361702E+04  0.25500000920E-02 0.  1.
</event>
<event>
 5   0  0.2904500E-09  0.3903428E+04  0.7818609E-02  0.8024317E-01
        1   -1    0    0  501    0  0.00000000000E+00  0.00000000000E+00  0.20016368763E+04  0.20016368764E+04  0.50400001928E-02 0. -1.
       -1   -1    0    0    0  501  0.00000000000E+00  0.00000000000E+00 -0.19030361900E+04  0.19030361900E+04  0.50400001928E-02 0.  1.
    10030    2    1    2    0    0  0.00000000000E+00  0.00000000000E+00  0.98600686354E+02  0.39046730664E+04  0.39034279371E+04 0.  0.
        4    1    3    3  502    0 -0.12079033132E+04 -0.10131925222E+04 -0.11015431938E+04  0.19232754669E+04  0.12699999809E+01 0.  1.
       -4    1    3    3    0  502  0.12079033132E+04  0.10131925222E+04  0.12001438802E+04  0.19813975994E+04  0.12699999809E+01 0. -1.
</event>
<event>
 5   0  0.9368546E-09  0.3900531E+04  0.7818609E-02  0.8024919E-01
        2   -1    0    0  501    0  0.00000000000E+00  0.00000000000E+00  0.24118658664E+04  0.24118658664E+04  0.25500000920E-02 0. -1.
       -2   -1    0    0    0  501  0.00000000000E+00  0.00000000000E+00 -0.15770096176E+04  0.15770096176E+04  0.25500000920E-02 0.  1.
    10030    2    1    2    0    0  0.00000000000E+00  0.00000000000E+00  0.83485624877E+03  0.39888754839E+04  0.39005310754E+04 0.  0.
        5    1    3    3  502    0 -0.16075455264E+04  0.22419976742E+03 -0.68828491267E+03  0.17630162694E+04  0.46999998093E+01 0.  1.
       -5    1    3    3    0  502  0.16075455264E+04 -0.22419976742E+03  0.15231411614E+04  0.22258592145E+04  0.46999998093E+01 0. -1.
</event>
<event>
 5   0  0.9368546E-09  0.3902503E+04  0.7818609E-02  0.8024509E-01
        2   -1    0    0  501    0  0.00000000000E+00  0.00000000000E+00  0.16027975807E+04  0.16027975807E+04  0.25500000920E-02 0.  1.
       -2   -1    0    0    0  501  0.00000000000E+00  0.00000000000E+00 -0.23754599518E+04  0.23754599518E+04  0.25500000920E-02 0. -1.
    10030    2    1    2    0    0  0.00000000000E+00  0.00000000000E+00 -0.77266237114E+03  0.39782575325E+04  0.39025025118E+04 0.  0.
        5    1    3    3  502    0  0.23297393211E+03 -0.79365564481E+03 -0.21878928436E+04  0.23390304232E+04  0.46999998093E+01 0. -1.
       -5    1    3    3    0  502 -0.23297393211E+03  0.79365564481E+03  0.14152304724E+04  0.16392271093E+04  0.46999998093E+01 0.  1.
</event>
<event>
 5   0  0.2904500E-09  0.3898971E+04  0.7818609E-02  0.8025243E-01
       -1   -1    0    0    0  501  0.00000000000E+00  0.00000000000E+00  0.14788697908E+04  0.14788697908E+04  0.50400001928E-02 0.  1.
        1   -1    0    0  501    0  0.00000000000E+00  0.00000000000E+00 -0.25698638016E+04  0.25698638016E+04  0.50400001928E-02 0. -1.
    10030    2    1    2    0    0  0.00000000000E+00  0.00000000000E+00 -0.10909940108E+04  0.40487335924E+04  0.38989711169E+04 0.  0.
        4    1    3    3  502    0 -0.66958100564E+03 -0.10290686896E+04  0.10269913066E+04  0.16006354512E+04  0.12699999809E+01 0.  1.
       -4    1    3    3    0  502  0.66958100564E+03  0.10290686896E+04 -0.21179853174E+04  0.24480981412E+04  0.12699999809E+01 0. -1.
</event>
<event>
 5   0  0.2904500E-09  0.3913520E+04  0.7818609E-02  0.8022223E-01
       -1   -1    0    0    0  501  0.00000000000E+00  0.00000000000E+00  0.15856698501E+04  0.15856698501E+04  0.50400001928E-02 0. -1.
        1   -1    0    0  501    0  0.00000000000E+00  0.00000000000E+00 -0.24146955229E+04  0.24146955229E+04  0.50400001928E-02 0.  1.
    10030    2    1    2    0    0  0.00000000000E+00  0.00000000000E+00 -0.82902567287E+03  0.40003653730E+04  0.39135200972E+04 0.  0.
        5    1    3    3  502    0 -0.26116688592E+03  0.63156962100E+03 -0.22887217246E+04  0.23885890294E+04  0.46999998093E+01 0.  1.
       -5    1    3    3    0  502  0.26116688592E+03 -0.63156962100E+03  0.14596960517E+04  0.16117763436E+04  0.46999998093E+01 0. -1.
</event>
<event>
 5   0  0.2904500E-09  0.3900307E+04  0.7818609E-02  0.8024965E-01
       -1   -1    0    0    0  501  0.00000000000E+00  0.00000000000E+00  0.17651580772E+04  0.17651580772E+04  0.50400001928E-02 0.  1.
        1   -1    0    0  501    0  0.00000000000E+00  0.00000000000E+00 -0.21545375593E+04  0.21545375593E+04  0.50400001928E-02 0. -1.
    10030    2    1    2    0    0  0.00000000000E+00  0.00000000000E+00 -0.38937948210E+03  0.39196956365E+04  0.39003073599E+04 0.  0.
        2    1    3    3  502    0 -0.18532155684E+04  0.67984693356E+02 -0.80107085973E+03  0.20200852417E+04  0.25500000920E-02 0. -1.
       -2    1    3    3    0  502  0.18532155684E+04 -0.67984693356E+02  0.41169137762E+03  0.18996103948E+04  0.25500000920E-02 0.  1.
</event>
<event>
 5   0  0.9277261E-09  0.3901495E+04  0.7818609E-02  0.8024718E-01
       -2   -1    0    0    0  501  0.00000000000E+00  0.00000000000E+00  0.21072731069E+04  0.21072731069E+04  0.25500000920E-02 0.  1.
        2   -1    0    0  501    0  0.00000000000E+00  0.00000000000E+00 -0.18058484022E+04  0.18058484022E+04  0.25500000920E-02 0. -1.
    10030    2    1    2    0    0  0.00000000000E+00  0.00000000000E+00  0.30142470476E+03  0.39131215091E+04  0.39014949817E+04 0.  0.
        1    1    3    3  502    0  0.16033840791E+04  0.30772142131E+02  0.12647104535E+04  0.20423711614E+04  0.50400001928E-02 0.  1.
       -1    1    3    3    0  502 -0.16033840791E+04 -0.30772142131E+02 -0.96328574870E+03  0.18707503477E+04  0.50400001928E-02 0. -1.
</event>
<event>
 5   0  0.2904500E-09  0.3901022E+04  0.7818609E-02  0.8024817E-01
        1   -1    0    0  501    0  0.00000000000E+00  0.00000000000E+00  0.25444042805E+04  0.25444042805E+04  0.50400001928E-02 0. -1.
       -1   -1    0    0    0  501  0.00000000000E+00  0.00000000000E+00 -0.14952395289E+04  0.14952395289E+04  0.50400001928E-02 0.  1.
    10030    2    1    2    0    0  0.00000000000E+00  0.00000000000E+00  0.10491647516E+04  0.40396438094E+04  0.39010223571E+04 0.  0.
        4    1    3    3  502    0  0.38555293918E+03  0.38423517699E+03 -0.14149948902E+04  0.15160804373E+04  0.12699999809E+01 0.  1.
       -4    1    3    3    0  502 -0.38555293918E+03 -0.38423517699E+03  0.24641596417E+04  0.25235633721E+04  0.12699999809E+01 0. -1.
</event>
<event>
 5   0  0.9277261E-09  0.3897547E+04  0.7818609E-02  0.8025539E-01
       -2   -1    0    0    0  501  0.00000000000E+00  0.00000000000E+00  0.18611750457E+04  0.18611750457E+04  0.25500000920E-02 0. -1.
        2   -1    0    0  501    0  0.00000000000E+00  0.00000000000E+00 -0.20404953854E+04  0.20404953854E+04  0.25500000920E-02 0.  1.
    10030    2    1    2    0    0  0.00000000000E+00  0.00000000000E+00 -0.17932033965E+03  0.39016704311E+04  0.38975474812E+04 0.  0.
        1    1    3    3  502    0 -0.28375386490E+03  0.56749510449E+03  0.17548828473E+04  0.18660602233E+04  0.50400001928E-02 0. -1.
       -1    1    3    3    0  502  0.28375386490E+03 -0.56749510449E+03 -0.19342031869E+04  0.20356102077E+04  0.50400001928E-02 0.  1.
</event>
<event>
 5   0  0.9277261E-09  0.3901308E+04  0.7818609E-02  0.8024757E-01
       -2   -1    0    0    0  501  0.00000000000E+00  0.00000000000E+00  0.17399847025E+04  0.17399847025E+04  0.25500000920E-02 0. -1.
        2   -1    0    0  501    0  0.00000000000E+00  0.00000000000E+00 -0.21868298499E+04  0.21868298499E+04  0.25500000920E-02 0.  1.
    10030    2    1    2    0    0  0.00000000000E+00  0.00000000000E+00 -0.44684514735E+03  0.39268145524E+04  0.39013077222E+04 0.  0.
        1    1    3    3  502    0  0.11882903514E+04 -0.12931142439E+04  0.63117033871E+03  0.18661603370E+04  0.50400001928E-02 0. -1.
       -1    1    3    3    0  502 -0.11882903514E+04  0.12931142439E+04 -0.10780154861E+04  0.20606542153E+04  0.50400001928E-02 0.  1.
</event>
<event>
 5   0  0.9434114E-09  0.3901826E+04  0.7818609E-02  0.8024649E-01
        2   -1    0    0  501    0  0.00000000000E+00  0.00000000000E+00  0.19861640688E+04  0.19861640688E+04  0.25500000920E-02 0.  1.
       -2   -1    0    0    0  501  0.00000000000E+00  0.00000000000E+00 -0.19162879793E+04  0.19162879793E+04  0.25500000920E-02 0. -1.
    10030    2    1    2    0    0  0.00000000000E+00  0.00000000000E+00  0.69876089547E+02  0.39024520481E+04  0.39018264082E+04 0.  0.
        4    1    3    3  502    0  0.17299673692E+03  0.36824854437E+03  0.19432601959E+04  0.19853958455E+04  0.12699999809E+01 0.  1.
       -4    1    3    3    0  502 -0.17299673692E+03 -0.36824854437E+03 -0.18733841063E+04  0.19170562026E+04  0.12699999809E+01 0. -1.
</event>
<event>
 5   0  0.9078515E-09  0.3894534E+04  0.7818609E-02  0.8026167E-01
       -2   -1    0    0    0  501  0.00000000000E+00  0.00000000000E+00  0.13136968820E+04  0.13136968820E+04  0.25500000920E-02 0.  1.
        2   -1    0    0  501    0  0.00000000000E+00  0.00000000000E+00 -0.28863951940E+04  0.28863951940E+04  0.25500000920E-02 0. -1.
    10030    2    1    2    0    0  0.00000000000E+00  0.00000000000E+00 -0.15726983120E+04  0.42000920760E+04  0.38945337932E+04 0.  0.
        3    1    3    3  502    0 -0.18914157515E+04  0.42727451940E+03 -0.59393788918E+03  0.20279988378E+04  0.10100000352E+00 0. -1.
       -3    1    3    3    0  502  0.18914157515E+04 -0.42727451940E+03 -0.97876042287E+03  0.21720932382E+04  0.10100000352E+00 0.  1.
</event>
<event>
 5   0  0.2904500E-09  0.3898448E+04  0.7818609E-02  0.8025352E-01
       -1   -1    0    0    0  501  0.00000000000E+00  0.00000000000E+00  0.10306537281E+04  0.10306537281E+04  0.50400001928E-02 0. -1.
        1   -1    0    0  501    0  0.00000000000E+00  0.00000000000E+00 -0.36864698151E+04  0.36864698151E+04  0.50400001928E-02 0.  1.
    10030    2    1    2    0    0  0.00000000000E+00  0.00000000000E+00 -0.26558160870E+04  0.47171235432E+04  0.38984478237E+04 0.  0.
        5    1    3    3  502    0 -0.90080311418E+03 -0.50226173744E+03 -0.33292570453E+04  0.34853533059E+04  0.46999998093E+01 0.  1.
       -5    1    3    3    0  502  0.90080311418E+03  0.50226173744E+03  0.67344095825E+03  0.12317702374E+04  0.46999998093E+01 0. -1.
</event>
<event>
 5   0  0.9277261E-09  0.3901264E+04  0.7818609E-02  0.8024766E-01
        2   -1    0    0  501    0  0.00000000000E+00  0.00000000000E+00  0.21759288940E+04  0.21759288940E+04  0.25500000920E-02 0.  1.
       -2   -1    0    0    0  501  0.00000000000E+00  0.00000000000E+00 -0.17486624229E+04  0.17486624229E+04  0.25500000920E-02 0. -1.
    10030    2    1    2    0    0  0.00000000000E+00  0.00000000000E+00  0.42726647113E+03  0.39245913169E+04  0.39012639448E+04 0.  0.
        1    1    3    3  502    0  0.13115578572E+04  0.98226022264E+03 -0.85096963602E+03  0.18463933707E+04  0.50400001928E-02 0. -1.
       -1    1    3    3    0  502 -0.13115578572E+04 -0.98226022264E+03  0.12782361072E+04  0.20781979462E+04  0.50400001928E-02 0.  1.
</event>
<event>
 5   0  0.2904500E-09  0.3899559E+04  0.7818609E-02  0.8025121E-01
       -1   -1    0    0    0  501  0.00000000000E+00  0.00000000000E+00  0.15831890644E+04  0.15831890644E+04  0.50400001928E-02 0.  1.
        1   -1    0    0  501    0  0.00000000000E+00  0.00000000000E+00 -0.24012551924E+04  0.24012551924E+04  0.50400001928E-02 0. -1.
    10030    2    1    2    0    0  0.00000000000E+00  0.00000000000E+00 -0.81806612795E+03  0.39844442568E+04  0.38995594425E+04 0.  0.
        2    1    3    3  502    0 -0.16340978098E+03  0.29068640767E+03 -0.23719018210E+04  0.23952285052E+04  0.25500000920E-02 0. -1.
       -2    1    3    3    0  502  0.16340978098E+03 -0.29068640767E+03  0.15538356930E+04  0.15892157516E+04  0.25500000920E-02 0.  1.
</event>
<event>
 5   0  0.2929054E-09  0.3899181E+04  0.7818609E-02  0.8025200E-01
        1   -1    0    0  501    0  0.00000000000E+00  0.00000000000E+00  0.32065843169E+04  0.32065843169E+04  0.50400001928E-02 0.  1.
       -1   -1    0    0    0  501  0.00000000000E+00  0.00000000000E+00 -0.11853433793E+04  0.11853433793E+04  0.50400001928E-02 0. -1.
    10030    2    1    2    0    0  0.00000000000E+00  0.00000000000E+00  0.20212409376E+04  0.43919276961E+04  0.38991811910E+04 0.  0.
        1    1    3    3  502    0  0.16621518906E+04 -0.55378528270E+03  0.47275270151E+02  0.17526157587E+04  0.50400001928E-02 0. -1.
       -1    1    3    3    0  502 -0.16621518906E+04  0.55378528270E+03  0.19739656674E+04  0.26393119374E+04  0.50400001928E-02 0.  1.
</event>
<event>
 5   0  0.2904500E-09  0.3900084E+04  0.7818609E-02  0.8025012E-01
       -1   -1    0    0    0  501  0.00000000000E+00  0.00000000000E+00  0.14703109490E+04  0.14703109490E+04  0.50400001928E-02 0.  1.
        1   -1    0    0  501    0  0.00000000000E+00  0.00000000000E+00 -0.25862993929E+04  0.25862993929E+04  0.50400001928E-02 0. -1.
    10030    2    1    2    0    0  0.00000000000E+00  0.00000000000E+00 -0.11159884440E+04  0.40566103419E+04  0.39000842631E+04 0.  0.
        3    1    3    3  502    0  0.10292573080E+04  0.16464941927E+04 -0.74507548132E+03  0.20797719143E+04  0.10100000352E+00 0.  1.
       -3    1    3    3    0  502 -0.10292573080E+04 -0.16464941927E+04 -0.37091296264E+03  0.19768384276E+04  0.10100000352E+00 0. -1.
</event>
<event>
 5   0  0.2904500E-09  0.3900075E+04  0.7818609E-02  0.8025014E-01
        1   -1    0    0  501    0  0.00000000000E+00  0.00000000000E+00  0.25019502073E+04  0.25019502073E+04  0.50400001928E-02 0. -1.
       -1   -1    0    0    0  501  0.00000000000E+00  0.00000000000E+00 -0.15198729010E+04  0.15198729010E+04  0.50400001928E-02 0.  1.
    10030    2    1    2    0    0  0.00000000000E+00  0.00000000000E+00  0.98207730634E+03  0.40218231083E+04  0.39000750350E+04 0.  0.
        3    1    3    3  502    0 -0.11970463573E+03  0.73172606628E+03  0.23509188192E+04  0.24650702912E+04  0.10100000352E+00 0. -1.
       -3    1    3    3    0  502  0.11970463573E+03 -0.73172606628E+03 -0.13688415129E+04  0.15567528171E+04  0.10100000352E+00 0.  1.
</event>
<event>
 5   0  0.6335942E-09  0.3898703E+04  0.7818609E-02  0.8025299E-01
       -2   -1    0    0    0  501  0.00000000000E+00  0.00000000000E+00  0.15475196487E+04  0.15475196487E+04  0.25500000920E-02 0. -1.
        2   -1    0    0  501    0  0.00000000000E+00  0.00000000000E+00 -0.24555237735E+04  0.24555237735E+04  0.25500000920E-02 0.  1.
    10030    2    1    2    0    0  0.00000000000E+00  0.00000000000E+00 -0.90800412482E+03  0.40030434222E+04  0.38987030086E+04 0.  0.
        2    1    3    3  502    0 -0.17463286953E+04  0.33859628087E+03  0.36461834512E+03  0.18158353149E+04  0.25500000920E-02 0. -1.
       -2    1    3    3    0  502  0.17463286953E+04 -0.33859628087E+03 -0.12726224699E+04  0.21872081072E+04  0.25500000920E-02 0.  1.
</event>
<event>
 5   0  0.2904500E-09  0.3899345E+04  0.7818609E-02  0.8025165E-01
        1   -1    0    0  501    0  0.00000000000E+00  0.00000000000E+00  0.11456682967E+04  0.11456682967E+04  0.50400001928E-02 0.  1.
       -1   -1    0    0    0  501  0.00000000000E+00  0.00000000000E+00 -0.33179095239E+04  0.33179095239E+04  0.50400001928E-02 0. -1.
    10030    2    1    2    0    0  0.00000000000E+00  0.00000000000E+00 -0.21722412272E+04  0.44635778206E+04  0.38993454594E+04 0.  0.
        5    1    3    3  502    0 -0.10772782044E+04 -0.11152003582E+04  0.26685457796E+03  0.15733510811E+04  0.46999998093E+01 0.  1.
       -5    1    3    3    0  502  0.10772782044E+04  0.11152003582E+04 -0.24390958052E+04  0.28902267395E+04  0.46999998093E+01 0. -1.
</event>
<event>
 5   0  0.9368546E-09  0.3898895E+04  0.7818609E-02  0.8025259E-01
       -2   -1    0    0    0  501  0.00000000000E+00  0.00000000000E+00  0.11517498678E+04  0.11517498678E+04  0.25500000920E-02 0.  1.
        2   -1    0    0  501    0  0.00000000000E+00  0.00000000000E+00 -0.32996271394E+04  0.32996271394E+04  0.25500000920E-02 0. -1.
    10030    2    1    2    0    0  0.00000000000E+00  0.00000000000E+00 -0.21478772716E+04  0.44513770072E+04  0.38988947775E+04 0.  0.
        5    1    3    3  502    0  0.47714417884E+03  0.18761447324E+04 -0.13361262982E+04  0.23521992260E+04  0.46999998093E+01 0. -1.
       -5    1    3    3    0  502 -0.47714417884E+03 -0.18761447324E+04 -0.81175097340E+03  0.20991777812E+04  0.46999998093E+01 0.  1.
</event>
<event>
 5   0  0.9368546E-09  0.3898925E+04  0.7818609E-02  0.8025253E-01
       -2   -1    0    0    0  501  0.00000000000E+00  0.00000000000E+00  0.20100551951E+04  0.20100551951E+04  0.25500000920E-02 0.  1.
        2   -1    0    0  501    0  0.00000000000E+00  0.00000000000E+00 -0.18906961133E+04  0.18906961133E+04  0.25500000920E-02 0. -1.
    10030    2    1    2    0    0  0.00000000000E+00  0.00000000000E+00  0.11935908186E+03  0.39007513084E+04  0.38989247466E+04 0.  0.
        5    1    3    3  502    0  0.73769840009E+03  0.17292401762E+04  0.57558664874E+03  0.19661618948E+04  0.46999998093E+01 0.  1.
       -5    1    3    3    0  502 -0.73769840009E+03 -0.17292401762E+04 -0.45622756688E+03  0.19345894136E+04  0.46999998093E+01 0. -1.
</event>
<event>
 5   0  0.9368546E-09  0.3901359E+04  0.7818609E-02  0.8024747E-01
        2   -1    0    0  501    0  0.00000000000E+00  0.00000000000E+00  0.14040810668E+04  0.14040810668E+04  0.25500000920E-02 0. -1.
       -2   -1    0    0    0  501  0.00000000000E+00  0.00000000000E+00 -0.27100646559E+04  0.27100646559E+04  0.25500000920E-02 0.  1.
    10030    2    1    2    0    0  0.00000000000E+00  0.00000000000E+00 -0.13059835892E+04  0.41141457227E+04  0.39013589802E+04 0.  0.
        5    1    3    3  502    0 -0.14409674875E+04 -0.12844456189E+04 -0.35670398030E+03  0.19630200375E+04  0.46999998093E+01 0. -1.
       -5    1    3    3    0  502  0.14409674875E+04  0.12844456189E+04 -0.94927960886E+03  0.21511256852E+04  0.46999998093E+01 0.  1.
</event>
<event>
 5   0  0.2929054E-09  0.3901898E+04  0.7818609E-02  0.8024635E-01
       -1   -1    0    0    0  501  0.00000000000E+00  0.00000000000E+00  0.27961702421E+04  0.27961702421E+04  0.50400001928E-02 0. -1.
        1   -1    0    0  501    0  0.00000000000E+00  0.00000000000E+00 -0.13612195447E+04  0.13612195447E+04  0.50400001928E-02 0.  1.
    10030    2    1    2    0    0  0.00000000000E+00  0.00000000000E+00  0.14349506974E+04  0.41573897868E+04  0.39018977864E+04 0.  0.
        1    1    3    3  502    0  0.68159105977E+03 -0.12305962068E+04  0.21577522739E+04  0.25758160401E+04  0.50400001928E-02 0. -1.
       -1    1    3    3    0  502 -0.68159105977E+03  0.12305962068E+04 -0.72280157651E+03  0.15815737466E+04  0.50400001928E-02 0.  1.
</event>
<event>
 5   0  0.2904500E-09  0.3903388E+04  0.7818609E-02  0.8024325E-01
       -1   -1    0    0    0  501  0.00000000000E+00  0.00000000000E+00  0.33674468117E+04  0.33674468118E+04  0.50400001928E-02 0. -1.
        1   -1    0    0  501    0  0.00000000000E+00  0.00000000000E+00 -0.11311564901E+04  0.11311564901E+04  0.50400001928E-02 0.  1.
    10030    2    1    2    0    0  0.00000000000E+00  0.00000000000E+00  0.22362903216E+04  0.44986033019E+04  0.39033879214E+04 0.  0.
        2    1    3    3  502    0  0.20018475206E+03  0.84934618388E+03  0.31301002177E+04  0.32494599933E+04  0.25500000920E-02 0. -1.
       -2    1    3    3    0  502 -0.20018475206E+03 -0.84934618388E+03 -0.89380989608E+03  0.12491433086E+04  0.25500000920E-02 0.  1.
</event>
<event>
 5   0  0.9434114E-09  0.3899020E+04  0.7818609E-02  0.8025233E-01
        2   -1    0    0  501    0  0.00000000000E+00  0.00000000000E+00  0.24625909409E+04  0.24625909409E+04  0.25500000920E-02 0. -1.
       -2   -1    0    0    0  501  0.00000000000E+00  0.00000000000E+00 -0.15433298068E+04  0.15433298068E+04  0.25500000920E-02 0.  1.
    10030    2    1    2    0    0  0.00000000000E+00  0.00000000000E+00  0.91926113404E+03  0.40059207477E+04  0.38990203903E+04 0.  0.
        4    1    3    3  502    0 -0.39999792632E+02 -0.16070347259E+04  0.15927873795E+04  0.22629922322E+04  0.12699999809E+01 0. -1.
       -4    1    3    3    0  502  0.39999792632E+02  0.16070347259E+04 -0.67352624550E+03  0.17429285155E+04  0.12699999809E+01 0.  1.
</event>
<event>
 5   0  0.9277261E-09  0.3898567E+04  0.7818609E-02  0.8025327E-01
       -2   -1    0    0    0  501  0.00000000000E+00  0.00000000000E+00  0.26029858544E+04  0.26029858544E+04  0.25500000920E-02 0. -1.
        2   -1    0    0  501    0  0.00000000000E+00  0.00000000000E+00 -0.14597489831E+04  0.14597489831E+04  0.25500000920E-02 0.  1.
    10030    2    1    2    0    0  0.00000000000E+00  0.00000000000E+00  0.11432368713E+04  0.40627348375E+04  0.38985668925E+04 0.  0.
        1    1    3    3  502    0  0.16922017527E+04 -0.94577554837E+03  0.35889578163E+03  0.19715081389E+04  0.50400001928E-02 0.  1.
       -1    1    3    3    0  502 -0.16922017527E+04  0.94577554837E+03  0.78434108970E+03  0.20912266986E+04  0.50400001928E-02 0. -1.
</event>
<event>
 5   0  0.2904500E-09  0.3900050E+04  0.7818609E-02  0.8025019E-01
        1   -1    0    0  501    0  0.00000000000E+00  0.00000000000E+00  0.18571242826E+04  0.18571242826E+04  0.50400001928E-02 0.  1.
       -1   -1    0    0    0  501  0.00000000000E+00  0.00000000000E+00 -0.20475729786E+04  0.20475729786E+04  0.50400001928E-02 0. -1.
    10030    2    1    2    0    0  0.00000000000E+00  0.00000000000E+00 -0.19044869597E+03  0.39046972612E+04  0.39000499991E+04 0.  0.
        5    1    3    3  502    0 -0.98287567131E+03  0.29903524733E+03 -0.17546397576E+04  0.20332853792E+04  0.46999998093E+01 0. -1.
       -5    1    3    3    0  502  0.98287567131E+03 -0.29903524733E+03  0.15641910617E+04  0.18714118819E+04  0.46999998093E+01 0.  1.
</event>
<event>
 5   0  0.2904500E-09  0.3899997E+04  0.7818609E-02  0.8025030E-01
        1   -1    0    0  501    0  0.00000000000E+00  0.00000000000E+00  0.20033019363E+04  0.20033019363E+04  0.50400001928E-02 0. -1.
       -1   -1    0    0    0  501  0.00000000000E+00  0.00000000000E+00 -0.18981135243E+04  0.18981135243E+04  0.50400001928E-02 0.  1.
    10030    2    1    2    0    0  0.00000000000E+00  0.00000000000E+00  0.10518841196E+03  0.39014154607E+04  0.38999971788E+04 0.  0.
        2    1    3    3  502    0 -0.35961432206E+03 -0.19165041740E+04  0.39032395343E+02  0.19503420822E+04  0.25500000920E-02 0.  1.
       -2    1    3    3    0  502  0.35961432206E+03  0.19165041740E+04  0.66156016621E+02  0.19510733785E+04  0.25500000920E-02 0. -1.
</event>
<event>
 5   0  0.9078515E-09  0.3897983E+04  0.7818609E-02  0.8025449E-01
        2   -1    0    0  501    0  0.00000000000E+00  0.00000000000E+00  0.16487238663E+04  0.16487238663E+04  0.25500000920E-02 0.  1.
       -2   -1    0    0    0  501  0.00000000000E+00  0.00000000000E+00 -0.23039437775E+04  0.23039437775E+04  0.25500000920E-02 0. -1.
    10030    2    1    2    0    0  0.00000000000E+00  0.00000000000E+00 -0.65521991120E+03  0.39526676438E+04  0.38979826026E+04 0.  0.
        3    1    3    3  502    0  0.11136784196E+04  0.10827285894E+04  0.86618534502E+03  0.17784425441E+04  0.10100000352E+00 0.  1.
       -3    1    3    3    0  502 -0.11136784196E+04 -0.10827285894E+04 -0.15214052562E+04  0.21742250997E+04  0.10100000352E+00 0. -1.
</event>
<event>
 5   0  0.2904500E-09  0.3898248E+04  0.7818609E-02  0.8025394E-01
       -1   -1    0    0    0  501  0.00000000000E+00  0.00000000000E+00  0.17564828310E+04  0.17564828310E+04  0.50400001928E-02 0. -1.
        1   -1    0    0  501    0  0.00000000000E+00  0.00000000000E+00 -0.21628925580E+04  0.21628925580E+04  0.50400001928E-02 0.  1.
    10030    2    1    2    0    0  0.00000000000E+00  0.00000000000E+00 -0.40640972701E+03  0.39193753890E+04  0.38982476285E+04 0.  0.
        5    1    3    3  502    0  0.11706236881E+04  0.10009932123E+04 -0.14041300370E+04  0.20842145957E+04  0.46999998093E+01 0.  1.
       -5    1    3    3    0  502 -0.11706236881E+04 -0.10009932123E+04  0.99772031002E+03  0.18351607932E+04  0.46999998093E+01 0. -1.
</event>
<event>
 5   0  0.2904500E-09  0.3897845E+04  0.7818609E-02  0.8025477E-01
       -1   -1    0    0    0  501  0.00000000000E+00  0.00000000000E+00  0.18763804415E+04  0.18763804415E+04  0.50400001928E-02 0.  1.
        1   -1    0    0  501    0  0.00000000000E+00  0.00000000000E+00 -0.20242694553E+04  0.20242694553E+04  0.50400001928E-02 0. -1.
    10030    2    1    2    0    0  0.00000000000E+00  0.00000000000E+00 -0.14788901381E+03  0.39006498967E+04  0.38978453608E+04 0.  0.
        2    1    3    3  502    0  0.43299756891E+03 -0.37090469063E+03  0.17910601280E+04  0.18796152709E+04  0.25500000920E-02 0.  1.
       -2    1    3    3    0  502 -0.43299756891E+03  0.37090469063E+03 -0.19389491419E+04  0.20210346259E+04  0.25500000920E-02 0. -1.
</event>
<event>
 5   0  0.9368546E-09  0.3899222E+04  0.7818609E-02  0.8025191E-01
       -2   -1    0    0    0  501  0.00000000000E+00  0.00000000000E+00  0.19311655534E+04  0.19311655534E+04  0.25500000920E-02 0. -1.
        2   -1    0    0  501    0  0.00000000000E+00  0.00000000000E+00 -0.19682321837E+04  0.19682321837E+04  0.25500000920E-02 0.  1.
    10030    2    1    2    0    0  0.00000000000E+00  0.00000000000E+00 -0.37066630242E+02  0.38993977371E+04  0.38992215604E+04 0.  0.
        5    1    3    3  502    0  0.12543284418E+04 -0.11814581720E+04  0.89352590309E+03  0.19410290780E+04  0.46999998093E+01 0. -1.
       -5    1    3    3    0  502 -0.12543284418E+04  0.11814581720E+04 -0.93059253333E+03  0.19583686591E+04  0.46999998093E+01 0.  1.
</event>
<event>
 5   0  0.9277261E-09  0.3897604E+04  0.7818609E-02  0.8025528E-01
       -2   -1    0    0    0  501  0.00000000000E+00  0.00000000000E+00  0.14347667847E+04  0.14347667847E+04  0.25500000920E-02 0. -1.
        2   -1    0    0  501    0  0.00000000000E+00  0.00000000000E+00 -0.26470007020E+04  0.26470007020E+04  0.25500000920E-02 0.  1.
    10030    2    1    2    0    0  0.00000000000E+00  0.00000000000E+00 -0.12122339174E+04  0.40817674867E+04  0.38976037183E+04 0.  0.
        1    1    3    3  502    0 -0.46986922630E+03 -0.18764380699E+04 -0.35822197600E+03  0.19672620324E+04  0.50400001928E-02 0. -1.
       -1    1    3    3    0  502  0.46986922630E+03  0.18764380699E+04 -0.85401194137E+03  0.21145054543E+04  0.50400001928E-02 0.  1.
</event>
<event>
 5   0  0.2904500E-09  0.3899395E+04  0.7818609E-02  0.8025155E-01
        1   -1    0    0  501    0  0.00000000000E+00  0.00000000000E+00  0.24628552319E+04  0.24628552319E+04  0.50400001928E-02 0.  1.
       -1   -1    0    0    0  501  0.00000000000E+00  0.00000000000E+00 -0.15434603867E+04  0.15434603867E+04  0.50400001928E-02 0. -1.
    10030    2    1    2    0    0  0.00000000000E+00  0.00000000000E+00  0.91939484517E+03  0.40063156186E+04  0.38993945625E+04 0.  0.
        2    1    3    3  502    0 -0.49394303296E+03  0.23444801447E+03  0.23824758111E+04  0.24444092500E+04  0.25500000920E-02 0.  1.
       -2    1    3    3    0  502  0.49394303296E+03 -0.23444801447E+03 -0.14630809659E+04  0.15619063685E+04  0.25500000920E-02 0. -1.
</event>
<event>
 5   0  0.2904500E-09  0.3898554E+04  0.7818609E-02  0.8025330E-01
       -1   -1    0    0    0  501  0.00000000000E+00  0.00000000000E+00  0.18018375866E+04  0.18018375866E+04  0.50400001928E-02 0.  1.
        1   -1    0    0  501    0  0.00000000000E+00  0.00000000000E+00 -0.21087805879E+04  0.21087805879E+04  0.50400001928E-02 0. -1.
    10030    2    1    2    0    0  0.00000000000E+00  0.00000000000E+00 -0.30694300128E+03  0.39106181744E+04  0.38985536421E+04 0.  0.
        5    1    3    3  502    0  0.17578919423E+04 -0.55849562220E+03  0.47900061156E+03  0.19056665807E+04  0.46999998093E+01 0. -1.
       -5    1    3    3    0  502 -0.17578919423E+04  0.55849562220E+03 -0.78594361284E+03  0.20049515938E+04  0.46999998093E+01 0.  1.
</event>
<event>
 5   0  0.2904500E-09  0.3896623E+04  0.7818609E-02  0.8025732E-01
        1   -1    0    0  501    0  0.00000000000E+00  0.00000000000E+00  0.23256423316E+04  0.23256423316E+04  0.50400001928E-02 0. -1.
       -1   -1    0    0    0  501  0.00000000000E+00  0.00000000000E+00 -0.16322015633E+04  0.16322015633E+04  0.50400001928E-02 0.  1.
    10030    2    1    2    0    0  0.00000000000E+00  0.00000000000E+00  0.69344076827E+03  0.39578438949E+04  0.38966226655E+04 0.  0.
        3    1    3    3  502    0  0.15446574615E+04  0.38566905160E+03 -0.79395998600E+03  0.17790671040E+04  0.10100000352E+00 0.  1.
       -3    1    3    3    0  502 -0.15446574615E+04 -0.38566905160E+03  0.14874007543E+04  0.21787767910E+04  0.10100000352E+00 0. -1.
</event>
<event>
 5   0  0.2904500E-09  0.3900002E+04  0.7818609E-02  0.8025029E-01
        1   -1    0    0  501    0  0.00000000000E+00  0.00000000000E+00  0.16808645522E+04  0.16808645522E+04  0.50400001928E-02 0. -1.
       -1   -1    0    0    0  501  0.00000000000E+00  0.00000000000E+00 -0.22622312724E+04  0.22622312724E+04  0.50400001928E-02 0.  1.
    10030    2    1    2    0    0  0.00000000000E+00  0.00000000000E+00 -0.58136672015E+03  0.39430958246E+04  0.39000022332E+04 0.  0.
        3    1    3    3  502    0  0.10927887003E+04  0.13836492723E+04  0.55148632591E+03  0.18473791246E+04  0.10100000352E+00 0. -1.
       -3    1    3    3    0  502 -0.10927887003E+04 -0.13836492723E+04 -0.11328530461E+04  0.20957167000E+04  0.10100000352E+00 0.  1.
</event>
<event>
 5   0  0.2904500E-09  0.3899449E+04  0.7818609E-02  0.8025144E-01
       -1   -1    0    0    0  501  0.00000000000E+00  0.00000000000E+00  0.15083981026E+04  0.15083981026E+04  0.50400001928E-02 0.  1.
        1   -1    0    0  501    0  0.00000000000E+00  0.00000000000E+00 -0.25201737117E+04  0.25201737117E+04  0.50400001928E-02 0. -1.
    10030    2    1    2    0    0  0.00000000000E+00  0.00000000000E+00 -0.10117756091E+04  0.40285718143E+04  0.38994488047E+04 0.  0.
        5    1    3    3  502    0 -0.16889914051E+04 -0.58719938129E+03 -0.13087357593E+04  0.22159211307E+04  0.46999998093E+01 0. -1.
       -5    1    3    3    0  502  0.16889914051E+04  0.58719938129E+03  0.29696015021E+03  0.18126506836E+04  0.46999998093E+01 0.  1.
</event>
<event>
 5   0  0.2904500E-09  0.3902189E+04  0.7818609E-02  0.8024574E-01
        1   -1    0    0  501    0  0.00000000000E+00  0.00000000000E+00  0.26403450602E+04  0.26403450602E+04  0.50400001928E-02 0.  1.
       -1   -1    0    0    0  501  0.00000000000E+00  0.00000000000E+00 -0.14417698789E+04  0.14417698789E+04  0.50400001928E-02 0. -1.
    10030    2    1    2    0    0  0.00000000000E+00  0.00000000000E+00  0.11985751813E+04  0.40821149392E+04  0.39021891178E+04 0.  0.
        4    1    3    3  502    0 -0.61369256548E+03  0.56936530056E+03  0.24429260123E+04  0.25823796245E+04  0.12699999809E+01 0.  1.
       -4    1    3    3    0  502  0.61369256548E+03 -0.56936530056E+03 -0.12443508311E+04  0.14997353147E+04  0.12699999809E+01 0. -1.
</event>
<event>
 5   0  0.2904500E-09  0.3899350E+04  0.7818609E-02  0.8025164E-01
       -1   -1    0    0    0  501  0.00000000000E+00  0.00000000000E+00  0.10971996189E+04  0.10971996189E+04  0.50400001928E-02 0.  1.
        1   -1    0    0  501    0  0.00000000000E+00  0.00000000000E+00 -0.34644865320E+04  0.34644865321E+04  0.50400001928E-02 0. -1.
    10030    2    1    2    0    0  0.00000000000E+00  0.00000000000E+00 -0.23672869132E+04  0.45616861510E+04  0.38993503575E+04 0.  0.
        3    1    3    3  502    0 -0.53778273878E+03 -0.17065729744E+04 -0.27775351797E+03  0.18107315146E+04  0.10100000352E+00 0.  1.
       -3    1    3    3    0  502  0.53778273878E+03  0.17065729744E+04 -0.20895333952E+04  0.27509546363E+04  0.10100000352E+00 0. -1.
</event>
<event>
 5   0  0.9434114E-09  0.3901231E+04  0.7818609E-02  0.8024773E-01
        2   -1    0    0  501    0  0.00000000000E+00  0.00000000000E+00  0.22928043842E+04  0.22928043842E+04  0.25500000920E-02 0.  1.
       -2   -1    0    0    0  501  0.00000000000E+00  0.00000000000E+00 -0.16594961815E+04  0.16594961815E+04  0.25500000920E-02 0. -1.
    10030    2    1    2    0    0  0.00000000000E+00  0.00000000000E+00  0.63330820273E+03  0.39523005657E+04  0.39012306369E+04 0.  0.
        4    1    3    3  502    0 -0.13321256368E+04  0.11505507899E+04  0.11682366591E+04  0.21126060534E+04  0.12699999809E+01 0.  1.
       -4    1    3    3    0  502  0.13321256368E+04 -0.11505507899E+04 -0.53492845635E+03  0.18396945123E+04  0.12699999809E+01 0. -1.
</event>
<event>
 5   0  0.2904500E-09  0.3902448E+04  0.7818609E-02  0.8024520E-01
       -1   -1    0    0    0  501  0.00000000000E+00  0.00000000000E+00  0.18324906648E+04  0.18324906648E+04  0.50400001928E-02 0.  1.
        1   -1    0    0  501    0  0.00000000000E+00  0.00000000000E+00 -0.20776507283E+04  0.20776507283E+04  0.50400001928E-02 0. -1.
    10030    2    1    2    0    0  0.00000000000E+00  0.00000000000E+00 -0.24516006349E+03  0.39101413931E+04  0.39024482389E+04 0.  0.
        3    1    3    3  502    0  0.69511657239E+03 -0.16670189020E+04 -0.86236914422E+03  0.20014543762E+04  0.10100000352E+00 0. -1.
       -3    1    3    3    0  502 -0.69511657239E+03  0.16670189020E+04  0.61720908074E+03  0.19086870169E+04  0.10100000352E+00 0.  1.
</event>
<event>
 5   0  0.9078515E-09  0.3899690E+04  0.7818609E-02  0.8025094E-01
        2   -1    0    0  501    0  0.00000000000E+00  0.00000000000E+00  0.15146818434E+04  0.15146818434E+04  0.25500000920E-02 0.  1.
       -2   -1    0    0    0  501  0.00000000000E+00  0.00000000000E+00 -0.25100288822E+04  0.25100288822E+04  0.25500000920E-02 0. -1.
    10030    2    1    2    0    0  0.00000000000E+00  0.00000000000E+00 -0.99534703884E+03  0.40247107256E+04  0.38996898206E+04 0.  0.
        3    1    3    3  502    0  0.95458739988E+03  0.10186432463E+04 -0.19025725991E+04  0.23597994983E+04  0.10100000352E+00 0. -1.
       -3    1    3    3    0  502 -0.95458739988E+03 -0.10186432463E+04  0.90722556024E+03  0.16649112273E+04  0.10100000352E+00 0.  1.
</event>
<event>
 5   0  0.9078515E-09  0.3899234E+04  0.7818609E-02  0.8025189E-01
        2   -1    0    0  501    0  0.00000000000E+00  0.00000000000E+00  0.19631981959E+04  0.19631981959E+04  0.25500000920E-02 0.  1.
       -2   -1    0    0    0  501  0.00000000000E+00  0.00000000000E+00 -0.19361293940E+04  0.19361293940E+04  0.25500000920E-02 0. -1.
    10030    2    1    2    0    0  0.00000000000E+00  0.00000000000E+00  0.27068801882E+02  0.38993275898E+04  0.38992336340E+04 0.  0.
        3    1    3    3  502    0  0.38770264776E+03 -0.76725447743E+03 -0.17363686000E+04  0.19375161165E+04  0.10100000352E+00 0. -1.
       -3    1    3    3    0  502 -0.38770264776E+03  0.76725447743E+03  0.17634374019E+04  0.19618114733E+04  0.10100000352E+00 0.  1.
</event>
<event>
 5   0  0.9368546E-09  0.3899348E+04  0.7818609E-02  0.8025165E-01
        2   -1    0    0  501    0  0.00000000000E+00  0.00000000000E+00  0.14055384433E+04  0.14055384433E+04  0.25500000920E-02 0.  1.
       -2   -1    0    0    0  501  0.00000000000E+00  0.00000000000E+00 -0.27044644002E+04  0.27044644002E+04  0.25500000920E-02 0. -1.
    10030    2    1    2    0    0  0.00000000000E+00  0.00000000000E+00 -0.12989259569E+04  0.41100028435E+04  0.38993479881E+04 0.  0.
        5    1    3    3  502    0  0.58960462162E+03 -0.17736590538E+04 -0.12341433229E+04  0.22397838914E+04  0.46999998093E+01 0.  1.
       -5    1    3    3    0  502 -0.58960462162E+03  0.17736590538E+04 -0.64782634001E+02  0.18702189521E+04  0.46999998093E+01 0. -1.
</event>
<event>
 5   0  0.9368546E-09  0.3901874E+04  0.7818609E-02  0.8024639E-01
       -2   -1    0    0    0  501  0.00000000000E+00  0.00000000000E+00  0.34398017155E+04  0.34398017155E+04  0.25500000920E-02 0.  1.
        2   -1    0    0  501    0  0.00000000000E+00  0.00000000000E+00 -0.11065044722E+04  0.11065044722E+04  0.25500000920E-02 0. -1.
    10030    2    1    2    0    0  0.00000000000E+00  0.00000000000E+00  0.23332972433E+04  0.45463061877E+04  0.39018744120E+04 0.  0.
        5    1    3    3  502    0  0.58274626429E+02 -0.17689333270E+04  0.21229407358E+04  0.27639501633E+04  0.46999998093E+01 0.  1.
       -5    1    3    3    0  502 -0.58274626429E+02  0.17689333270E+04  0.21035650752E+03  0.17823560244E+04  0.46999998093E+01 0. -1.
</event>
<event>
 5   0  0.2904500E-09  0.3907133E+04  0.7818609E-02  0.8023547E-01
        1   -1    0    0  501    0  0.00000000000E+00  0.00000000000E+00  0.20773632647E+04  0.20773632647E+04  0.50400001928E-02 0.  1.
       -1   -1    0    0    0  501  0.00000000000E+00  0.00000000000E+00 -0.18371470990E+04  0.18371470990E+04  0.50400001928E-02 0. -1.
    10030    2    1    2    0    0  0.00000000000E+00  0.00000000000E+00  0.24021616575E+03  0.39145103637E+04  0.39071329106E+04 0.  0.
        5    1    3    3  502    0 -0.15112894000E+04  0.14283319815E+03  0.13520651252E+04  0.20328549299E+04  0.46999998093E+01 0.  1.
       -5    1    3    3    0  502  0.15112894000E+04 -0.14283319815E+03 -0.11118489595E+04  0.18816554338E+04  0.46999998093E+01 0. -1.
</event>
<event>
 5   0  0.2904500E-09  0.3899708E+04  0.7818609E-02  0.8025090E-01
        1   -1    0    0  501    0  0.00000000000E+00  0.00000000000E+00  0.11764019751E+04  0.11764019751E+04  0.50400001928E-02 0.  1.
       -1   -1    0    0    0  501  0.00000000000E+00  0.00000000000E+00 -0.32318300316E+04  0.32318300316E+04  0.50400001928E-02 0. -1.
    10030    2    1    2    0    0  0.00000000000E+00  0.00000000000E+00 -0.20554280565E+04  0.44082320068E+04  0.38997083135E+04 0.  0.
        2    1    3    3  502    0 -0.14541112155E+04 -0.36030536434E+03  0.38310173971E+03  0.15462943852E+04  0.25500000920E-02 0.  1.
       -2    1    3    3    0  502  0.14541112155E+04  0.36030536434E+03 -0.24385297962E+04  0.28619376216E+04  0.25500000920E-02 0. -1.
</event>
<event>
 5   0  0.9368546E-09  0.3900446E+04  0.7818609E-02  0.8024936E-01
        2   -1    0    0  501    0  0.00000000000E+00  0.00000000000E+00  0.15729580538E+04  0.15729580538E+04  0.25500000920E-02 0.  1.
       -2   -1    0    0    0  501  0.00000000000E+00  0.00000000000E+00 -0.24179728167E+04  0.24179728167E+04  0.25500000920E-02 0. -1.
    10030    2    1    2    0    0  0.00000000000E+00  0.00000000000E+00 -0.84501476292E+03  0.39909308705E+04  0.39004460339E+04 0.  0.
        5    1    3    3  502    0 -0.12107622633E+04  0.14941390732E+04 -0.75398408428E+03  0.20656502409E+04  0.46999998093E+01 0. -1.
       -5    1    3    3    0  502  0.12107622633E+04 -0.14941390732E+04 -0.91030678642E+02  0.19252806296E+04  0.46999998093E+01 0.  1.
</event>
<event>
 5   0  0.9434114E-09  0.3900352E+04  0.7818609E-02  0.8024956E-01
       -2   -1    0    0    0  501  0.00000000000E+00  0.00000000000E+00  0.14789370272E+04  0.14789370272E+04  0.25500000920E-02 0. -1.
        2   -1    0    0  501    0  0.00000000000E+00  0.00000000000E+00 -0.25715669579E+04  0.25715669579E+04  0.25500000920E-02 0.  1.
    10030    2    1    2    0    0  0.00000000000E+00  0.00000000000E+00 -0.10926299307E+04  0.40505039851E+04  0.39003515698E+04 0.  0.
        4    1    3    3  502    0  0.96094353667E+03 -0.11484687235E+04  0.75109639716E+03  0.16752732017E+04  0.12699999809E+01 0. -1.
       -4    1    3    3    0  502 -0.96094353667E+03  0.11484687235E+04 -0.18437263279E+04  0.23752307834E+04  0.12699999809E+01 0.  1.
</event>
<event>
 5   0  0.2904500E-09  0.3899870E+04  0.7818609E-02  0.8025056E-01
       -1   -1    0    0    0  501  0.00000000000E+00  0.00000000000E+00  0.18647191445E+04  0.18647191445E+04  0.50400001928E-02 0.  1.
        1   -1    0    0  501    0  0.00000000000E+00  0.00000000000E+00 -0.20390451074E+04  0.20390451074E+04  0.50400001928E-02 0. -1.
    10030    2    1    2    0    0  0.00000000000E+00  0.00000000000E+00 -0.17432596286E+03  0.39037642519E+04  0.38998699713E+04 0.  0.
        2    1    3    3  502    0  0.15023545894E+04  0.16239770802E+03 -0.13207913248E+04  0.20069708646E+04  0.25500000920E-02 0. -1.
       -2    1    3    3    0  502 -0.15023545894E+04 -0.16239770802E+03  0.11464653619E+04  0.18967933873E+04  0.25500000920E-02 0.  1.
</event>
<event>
 5   0  0.9277261E-09  0.3900205E+04  0.7818609E-02  0.8024987E-01
       -2   -1    0    0    0  501  0.00000000000E+00  0.00000000000E+00  0.18988557942E+04  0.18988557942E+04  0.25500000920E-02 0.  1.
        2   -1    0    0  501    0  0.00000000000E+00  0.00000000000E+00 -0.20027317747E+04  0.20027317747E+04  0.25500000920E-02 0. -1.
    10030    2    1    2    0    0  0.00000000000E+00  0.00000000000E+00 -0.10387598055E+03  0.39015875689E+04  0.39002045252E+04 0.  0.
        1    1    3    3  502    0 -0.66563358002E+02  0.19239759660E+04 -0.36315060186E+03  0.19590795181E+04  0.50400001928E-02 0. -1.
       -1    1    3    3    0  502  0.66563358002E+02 -0.19239759660E+04  0.25927462131E+03  0.19425080509E+04  0.50400001928E-02 0.  1.
</event>
<event>
 5   0  0.2904500E-09  0.3901166E+04  0.7818609E-02  0.8024787E-01
       -1   -1    0    0    0  501  0.00000000000E+00  0.00000000000E+00  0.15874406271E+04  0.15874406272E+04  0.50400001928E-02 0. -1.
        1   -1    0    0  501    0  0.00000000000E+00  0.00000000000E+00 -0.23967976347E+04  0.23967976347E+04  0.50400001928E-02 0.  1.
    10030    2    1    2    0    0  0.00000000000E+00  0.00000000000E+00 -0.80935700753E+03  0.39842382618E+04  0.39011659490E+04 0.  0.
        4    1    3    3  502    0 -0.11440896408E+04 -0.15525510459E+04 -0.70316293888E+03  0.20527531727E+04  0.12699999809E+01 0.  1.
       -4    1    3    3    0  502  0.11440896408E+04  0.15525510459E+04 -0.10619406864E+03  0.19314850891E+04  0.12699999809E+01 0. -1.
</event>
<event>
 5   0  0.9078515E-09  0.3900218E+04  0.7818609E-02  0.8024984E-01
        2   -1    0    0  501    0  0.00000000000E+00  0.00000000000E+00  0.22525762954E+04  0.22525762954E+04  0.25500000920E-02 0.  1.
       -2   -1    0    0    0  501  0.00000000000E+00  0.00000000000E+00 -0.16882561905E+04  0.16882561905E+04  0.25500000920E-02 0. -1.
    10030    2    1    2    0    0  0.00000000000E+00  0.00000000000E+00  0.56432010490E+03  0.39408324859E+04  0.39002183915E+04 0.  0.
        3    1    3    3  502    0  0.87959547231E+02 -0.41540831238E+03  0.22052993115E+04  0.22458063166E+04  0.10100000352E+00 0.  1.
       -3    1    3    3    0  502 -0.87959547231E+02  0.41540831238E+03 -0.16409792066E+04  0.16950261693E+04  0.10100000352E+00 0. -1.
</event>
<event>
 5   0  0.2904500E-09  0.3902123E+04  0.7818609E-02  0.8024588E-01
       -1   -1    0    0    0  501  0.00000000000E+00  0.00000000000E+00  0.17204074808E+04  0.17204074808E+04  0.50400001928E-02 0.  1.
        1   -1    0    0  501    0  0.00000000000E+00  0.00000000000E+00 -0.22126389479E+04  0.22126389479E+04  0.50400001928E-02 0. -1.
    10030    2    1    2    0    0  0.00000000000E+00  0.00000000000E+00 -0.49223146709E+03  0.39330464287E+04  0.39021228060E+04 0.  0.
        4    1    3    3  502    0 -0.69681108907E+03  0.14122009086E+04  0.91487273642E+03  0.18212223469E+04  0.12699999809E+01 0.  1.
       -4    1    3    3    0  502  0.69681108907E+03 -0.14122009086E+04 -0.14071042035E+04  0.21118240818E+04  0.12699999809E+01 0. -1.
</event>
<event>
 5   0  0.9078515E-09  0.3900008E+04  0.7818609E-02  0.8025027E-01
        2   -1    0    0  501    0  0.00000000000E+00  0.00000000000E+00  0.28524620221E+04  0.28524620221E+04  0.25500000920E-02 0.  1.
       -2   -1    0    0    0  501  0.00000000000E+00  0.00000000000E+00 -0.13330645825E+04  0.13330645825E+04  0.25500000920E-02 0. -1.
    10030    2    1    2    0    0  0.00000000000E+00  0.00000000000E+00  0.15193974396E+04  0.41855266047E+04  0.39000082537E+04 0.  0.
        3    1    3    3  502    0 -0.17542170736E+04 -0.61772421607E+03  0.13888370228E+04  0.23211482147E+04  0.10100000352E+00 0.  1.
       -3    1    3    3    0  502  0.17542170736E+04  0.61772421607E+03  0.13056041682E+03  0.18643783900E+04  0.10100000352E+00 0. -1.
</event>
<event>
 5   0  0.6335942E-09  0.3904387E+04  0.7818609E-02  0.8024117E-01
        2   -1    0    0  501    0  0.00000000000E+00  0.00000000000E+00  0.15915279422E+04  0.15915279422E+04  0.25500000920E-02 0.  1.
       -2   -1    0    0    0  501  0.00000000000E+00  0.00000000000E+00 -0.23945918261E+04  0.23945918261E+04  0.25500000920E-02 0. -1.
    10030    2    1    2    0    0  0.00000000000E+00  0.00000000000E+00 -0.80306388391E+03  0.39861197682E+04  0.39043871741E+04 0.  0.
        2    1    3    3  502    0  0.11133747998E+04 -0.10293651165E+04  0.85378619092E+03  0.17401571331E+04  0.25500000920E-02 0.  1.
       -2    1    3    3    0  502 -0.11133747998E+04  0.10293651165E+04 -0.16568500748E+04  0.22459626351E+04  0.25500000920E-02 0. -1.
</event>
<event>
 5   0  0.6335942E-09  0.3906804E+04  0.7818609E-02  0.8023616E-01
       -2   -1    0    0    0  501  0.00000000000E+00  0.00000000000E+00  0.10676411331E+04  0.10676411331E+04  0.25500000920E-02 0.  1.
        2   -1    0    0  501    0  0.00000000000E+00  0.00000000000E+00 -0.35740272083E+04  0.35740272083E+04  0.25500000920E-02 0. -1.
    10030    2    1    2    0    0  0.00000000000E+00  0.00000000000E+00 -0.25063860752E+04  0.46416683414E+04  0.39068035314E+04 0.  0.
        2    1    3    3  502    0 -0.99210346343E+03 -0.91088512434E+03  0.42778717726E+03  0.14131464400E+04  0.25500000920E-02 0.  1.
       -2    1    3    3    0  502  0.99210346343E+03  0.91088512434E+03 -0.29341732525E+04  0.32285219013E+04  0.25500000920E-02 0. -1.
</event>
<event>
 5   0  0.6335942E-09  0.3896239E+04  0.7818609E-02  0.8025812E-01
        2   -1    0    0  501    0  0.00000000000E+00  0.00000000000E+00  0.11738489246E+04  0.11738489246E+04  0.25500000920E-02 0.  1.
       -2   -1    0    0    0  501  0.00000000000E+00  0.00000000000E+00 -0.32330990409E+04  0.32330990409E+04  0.25500000920E-02 0. -1.
    10030    2    1    2    0    0  0.00000000000E+00  0.00000000000E+00 -0.20592501163E+04  0.44069479655E+04  0.38962391262E+04 0.  0.
        2    1    3    3  502    0 -0.48876745005E+03  0.15911383408E+04 -0.21745050255E+04  0.27384460823E+04  0.25500000920E-02 0. -1.
       -2    1    3    3    0  502  0.48876745005E+03 -0.15911383408E+04  0.11525490922E+03  0.16685018831E+04  0.25500000920E-02 0.  1.
</event>
<event>
 5   0  0.2904500E-09  0.3899190E+04  0.7818609E-02  0.8025198E-01
        1   -1    0    0  501    0  0.00000000000E+00  0.00000000000E+00  0.18022964425E+04  0.18022964425E+04  0.50400001928E-02 0.  1.
       -1   -1    0    0    0  501  0.00000000000E+00  0.00000000000E+00 -0.21089320764E+04  0.21089320764E+04  0.50400001928E-02 0. -1.
    10030    2    1    2    0    0  0.00000000000E+00  0.00000000000E+00 -0.30663563384E+03  0.39112285189E+04  0.38991900588E+04 0.  0.
        2    1    3    3  502    0 -0.36709366983E+03 -0.28516268215E+03  0.17458965786E+04  0.18067181243E+04  0.25500000920E-02 0.  1.
       -2    1    3    3    0  502  0.36709366983E+03  0.28516268215E+03 -0.20525322124E+04  0.21045103945E+04  0.25500000920E-02 0. -1.
</event>
<event>
 5   0  0.6335942E-09  0.3897538E+04  0.7818609E-02  0.8025541E-01
       -2   -1    0    0    0  501  0.00000000000E+00  0.00000000000E+00  0.18648968912E+04  0.18648968912E+04  0.25500000920E-02 0.  1.
        2   -1    0    0  501    0  0.00000000000E+00  0.00000000000E+00 -0.20364131052E+04  0.20364131052E+04  0.25500000920E-02 0. -1.
    10030    2    1    2    0    0  0.00000000000E+00  0.00000000000E+00 -0.17151621398E+03  0.39013099965E+04  0.38975379250E+04 0.  0.
        2    1    3    3  502    0  0.20702401077E+03  0.19332607961E+04 -0.21758302982E+03  0.19564505161E+04  0.25500000920E-02 0.  1.
       -2    1    3    3    0  502 -0.20702401077E+03 -0.19332607961E+04  0.46066815843E+02  0.19448594804E+04  0.25500000920E-02 0. -1.
</event>
<event>
 5   0  0.9368546E-09  0.3900480E+04  0.7818609E-02  0.8024929E-01
       -2   -1    0    0    0  501  0.00000000000E+00  0.00000000000E+00  0.22871296353E+04  0.22871296353E+04  0.25500000920E-02 0. -1.
        2   -1    0    0  501    0  0.00000000000E+00  0.00000000000E+00 -0.16629737556E+04  0.16629737556E+04  0.25500000920E-02 0.  1.
    10030    2    1    2    0    0  0.00000000000E+00  0.00000000000E+00  0.62415587965E+03  0.39501033909E+04  0.39004802572E+04 0.  0.
        5    1    3    3  502    0 -0.75610197763E+03 -0.45432762699E+03 -0.14493925390E+04  0.16967217260E+04  0.46999998093E+01 0.  1.
       -5    1    3    3    0  502  0.75610197763E+03  0.45432762699E+03  0.20735484187E+04  0.22533816649E+04  0.46999998093E+01 0. -1.
</event>
<event>
 5   0  0.9078515E-09  0.3898488E+04  0.7818609E-02  0.8025344E-01
       -2   -1    0    0    0  501  0.00000000000E+00  0.00000000000E+00  0.15219374305E+04  0.15219374305E+04  0.25500000920E-02 0.  1.
        2   -1    0    0  501    0  0.00000000000E+00  0.00000000000E+00 -0.24965235312E+04  0.24965235312E+04  0.25500000920E-02 0. -1.
    10030    2    1    2    0    0  0.00000000000E+00  0.00000000000E+00 -0.97458610070E+03  0.40184609618E+04  0.38984882241E+04 0.  0.
        3    1    3    3  502    0  0.12323800608E+04  0.21836857423E+03 -0.20276391313E+04  0.23828063088E+04  0.10100000352E+00 0. -1.
       -3    1    3    3    0  502 -0.12323800608E+04 -0.21836857423E+03  0.10530530306E+04  0.16356546530E+04  0.10100000352E+00 0.  1.
</event>
<event>
 5   0  0.9277261E-09  0.3899219E+04  0.7818609E-02  0.8025192E-01
       -2   -1    0    0    0  501  0.00000000000E+00  0.00000000000E+00  0.24786428668E+04  0.24786428668E+04  0.25500000920E-02 0.  1.
        2   -1    0    0  501    0  0.00000000000E+00  0.00000000000E+00 -0.15334909886E+04  0.15334909886E+04  0.25500000920E-02 0. -1.
    10030    2    1    2    0    0  0.00000000000E+00  0.00000000000E+00  0.94515187825E+03  0.40121338554E+04  0.38992186397E+04 0.  0.
        1    1    3    3  502    0 -0.22001485065E+03  0.18211904590E+04  0.11518718745E+04  0.21660909579E+04  0.50400001928E-02 0. -1.
       -1    1    3    3    0  502  0.22001485065E+03 -0.18211904590E+04 -0.20671999622E+03  0.18460428975E+04  0.50400001928E-02 0.  1.
</event>
<event>
 5   0  0.2904500E-09  0.3900205E+04  0.7818609E-02  0.8024987E-01
        1   -1    0    0  501    0  0.00000000000E+00  0.00000000000E+00  0.27468093754E+04  0.27468093754E+04  0.50400001928E-02 0.  1.
       -1   -1    0    0    0  501  0.00000000000E+00  0.00000000000E+00 -0.13844786172E+04  0.13844786172E+04  0.50400001928E-02 0. -1.
    10030    2    1    2    0    0  0.00000000000E+00  0.00000000000E+00  0.13623307582E+04  0.41312879925E+04  0.39002045309E+04 0.  0.
        5    1    3    3  502    0 -0.77637935692E+03 -0.10750005640E+04  0.21957380644E+04  0.25650884694E+04  0.46999998093E+01 0.  1.
       -5    1    3    3    0  502  0.77637935692E+03  0.10750005640E+04 -0.83340730617E+03  0.15661995232E+04  0.46999998093E+01 0. -1.
</event>
<event>
 5   0  0.2929054E-09  0.3897374E+04  0.7818609E-02  0.8025576E-01
        1   -1    0    0  501    0  0.00000000000E+00  0.00000000000E+00  0.17713500436E+04  0.17713500436E+04  0.50400001928E-02 0. -1.
       -1   -1    0    0    0  501  0.00000000000E+00  0.00000000000E+00 -0.21437778758E+04  0.21437778758E+04  0.50400001928E-02 0.  1.
    10030    2    1    2    0    0  0.00000000000E+00  0.00000000000E+00 -0.37242783218E+03  0.39151279195E+04  0.38973740051E+04 0.  0.
        1    1    3    3  502    0 -0.29218860984E+03  0.84440537891E+03  0.15534330373E+04  0.17920794706E+04  0.50400001928E-02 0. -1.
       -1    1    3    3    0  502  0.29218860984E+03 -0.84440537891E+03 -0.19258608695E+04  0.21230484489E+04  0.50400001928E-02 0.  1.
</event>
<event>
 5   0  0.9277261E-09  0.3894245E+04  0.7818609E-02  0.8026227E-01
       -2   -1    0    0    0  501  0.00000000000E+00  0.00000000000E+00  0.22547513334E+04  0.22547513334E+04  0.25500000920E-02 0.  1.
        2   -1    0    0  501    0  0.00000000000E+00  0.00000000000E+00 -0.16814651757E+04  0.16814651757E+04  0.25500000920E-02 0. -1.
    10030    2    1    2    0    0  0.00000000000E+00  0.00000000000E+00  0.57328615768E+03  0.39362165091E+04  0.38942449060E+04 0.  0.
        1    1    3    3  502    0 -0.94237056497E+03  0.12498755363E+04 -0.88386853542E+03  0.17976303084E+04  0.50400001928E-02 0. -1.
       -1    1    3    3    0  502  0.94237056497E+03 -0.12498755363E+04  0.14571546931E+04  0.21385862006E+04  0.50400001928E-02 0.  1.
</event>
<event>
 5   0  0.9368546E-09  0.3912098E+04  0.7818609E-02  0.8022518E-01
       -2   -1    0    0    0  501  0.00000000000E+00  0.00000000000E+00  0.23249388973E+04  0.23249388973E+04  0.25500000920E-02 0. -1.
        2   -1    0    0  501    0  0.00000000000E+00  0.00000000000E+00 -0.16456893085E+04  0.16456893086E+04  0.25500000920E-02 0.  1.
    10030    2    1    2    0    0  0.00000000000E+00  0.00000000000E+00  0.67924958871E+03  0.39706282058E+04  0.39120976911E+04 0.  0.
        5    1    3    3  502    0 -0.14914720527E+04  0.67347535186E+03 -0.74787548697E+03  0.17992770124E+04  0.46999998093E+01 0.  1.
       -5    1    3    3    0  502  0.14914720527E+04 -0.67347535186E+03  0.14271250757E+04  0.21713511934E+04  0.46999998093E+01 0. -1.
</event>
<event>
 5   0  0.6335942E-09  0.3895849E+04  0.7818609E-02  0.8025893E-01
       -2   -1    0    0    0  501  0.00000000000E+00  0.00000000000E+00  0.16301825601E+04  0.16301825601E+04  0.25500000920E-02 0. -1.
        2   -1    0    0  501    0  0.00000000000E+00  0.00000000000E+00 -0.23275983978E+04  0.23275983978E+04  0.25500000920E-02 0.  1.
    10030    2    1    2    0    0  0.00000000000E+00  0.00000000000E+00 -0.69741583769E+03  0.39577809579E+04  0.38958492347E+04 0.  0.
        2    1    3    3  502    0 -0.72593068684E+03  0.76062022248E+03 -0.20145593974E+04  0.22724365889E+04  0.25500000920E-02 0.  1.
       -2    1    3    3    0  502  0.72593068684E+03 -0.76062022248E+03  0.13171435597E+04  0.16853443689E+04  0.25500000920E-02 0. -1.
</event>
<event>
 5   0  0.2904500E-09  0.3904251E+04  0.7818609E-02  0.8024146E-01
        3   -1    0    0  501    0  0.00000000000E+00  0.00000000000E+00  0.14966243927E+04  0.14966243961E+04  0.10100000352E+00 0. -1.
       -3   -1    0    0    0  501  0.00000000000E+00  0.00000000000E+00 -0.25462597742E+04  0.25462597762E+04  0.10100000352E+00 0.  1.
    10030    2    1    2    0    0  0.00000000000E+00  0.00000000000E+00 -0.10496353816E+04  0.40428841723E+04  0.39042512722E+04 0.  0.
        3    1    3    3  502    0 -0.27990794261E+03 -0.14976417281E+04  0.73897552876E+03  0.16933292782E+04  0.10100000352E+00 0. -1.
       -3    1    3    3    0  502  0.27990794261E+03  0.14976417281E+04 -0.17886109103E+04  0.23495548942E+04  0.10100000352E+00 0.  1.
</event>
<event>
 5   0  0.2904500E-09  0.3896825E+04  0.7818609E-02  0.8025690E-01
        1   -1    0    0  501    0  0.00000000000E+00  0.00000000000E+00  0.11332824704E+04  0.11332824704E+04  0.50400001928E-02 0.  1.
       -1   -1    0    0    0  501  0.00000000000E+00  0.00000000000E+00 -0.33498365465E+04  0.33498365465E+04  0.50400001928E-02 0. -1.
    10030    2    1    2    0    0  0.00000000000E+00  0.00000000000E+00 -0.22165540761E+04  0.44831190169E+04  0.38968248802E+04 0.  0.
        4    1    3    3  502    0 -0.61837561140E+03 -0.10404267383E+04  0.64835528668E+03  0.13730412904E+04  0.12699999809E+01 0.  1.
       -4    1    3    3    0  502  0.61837561140E+03  0.10404267383E+04 -0.28649093628E+04  0.31100777265E+04  0.12699999809E+01 0. -1.
</event>
<event>
 5   0  0.9434114E-09  0.3895495E+04  0.7818609E-02  0.8025967E-01
        2   -1    0    0  501    0  0.00000000000E+00  0.00000000000E+00  0.12874480036E+04  0.12874480036E+04  0.25500000920E-02 0. -1.
       -2   -1    0    0    0  501  0.00000000000E+00  0.00000000000E+00 -0.29466972479E+04  0.29466972479E+04  0.25500000920E-02 0.  1.
    10030    2    1    2    0    0  0.00000000000E+00  0.00000000000E+00 -0.16592492444E+04  0.42341452515E+04  0.38954945714E+04 0.  0.
        4    1    3    3  502    0  0.16242031847E+04 -0.37282431665E+03  0.26633896764E+03  0.16875935573E+04  0.12699999809E+01 0. -1.
       -4    1    3    3    0  502 -0.16242031847E+04  0.37282431665E+03 -0.19255882120E+04  0.25465516942E+04  0.12699999809E+01 0.  1.
</event>
<event>
 5   0  0.9434114E-09  0.3901267E+04  0.7818609E-02  0.8024766E-01
        2   -1    0    0  501    0  0.00000000000E+00  0.00000000000E+00  0.29626037142E+04  0.29626037142E+04  0.25500000920E-02 0. -1.
       -2   -1    0    0    0  501  0.00000000000E+00  0.00000000000E+00 -0.12843333255E+04  0.12843333255E+04  0.25500000920E-02 0.  1.
    10030    2    1    2    0    0  0.00000000000E+00  0.00000000000E+00  0.16782703886E+04  0.42469370397E+04  0.39012668099E+04 0.  0.
        4    1    3    3  502    0  0.16949950637E+03 -0.68604510604E+03  0.28183552264E+04  0.29056007581E+04  0.12699999809E+01 0. -1.
       -4    1    3    3    0  502 -0.16949950637E+03  0.68604510604E+03 -0.11400848378E+04  0.13413362816E+04  0.12699999809E+01 0.  1.
</event>
<event>
 5   0  0.6335942E-09  0.3899827E+04  0.7818609E-02  0.8025065E-01
        2   -1    0    0  501    0  0.00000000000E+00  0.00000000000E+00  0.16288902666E+04  0.16288902666E+04  0.25500000920E-02 0.  1.
       -2   -1    0    0    0  501  0.00000000000E+00  0.00000000000E+00 -0.23342039972E+04  0.23342039972E+04  0.25500000920E-02 0. -1.
    10030    2    1    2    0    0  0.00000000000E+00  0.00000000000E+00 -0.70531373053E+03  0.39630942638E+04  0.38998267507E+04 0.  0.
        2    1    3    3  502    0 -0.93410780422E+03  0.14363438008E+04  0.59331604873E+03  0.18131918922E+04  0.25500000920E-02 0.  1.
       -2    1    3    3    0  502  0.93410780422E+03 -0.14363438008E+04 -0.12986297793E+04  0.21499023717E+04  0.25500000920E-02 0. -1.
</event>
<event>
 5   0  0.2904500E-09  0.3900258E+04  0.7818609E-02  0.8024976E-01
       -1   -1    0    0    0  501  0.00000000000E+00  0.00000000000E+00  0.15984601909E+04  0.15984601909E+04  0.50400001928E-02 0. -1.
        1   -1    0    0  501    0  0.00000000000E+00  0.00000000000E+00 -0.23791667883E+04  0.23791667883E+04  0.50400001928E-02 0.  1.
    10030    2    1    2    0    0  0.00000000000E+00  0.00000000000E+00 -0.78070659742E+03  0.39776269792E+04  0.39002581446E+04 0.  0.
        3    1    3    3  502    0 -0.13356085401E+03  0.11254273943E+04  0.12281306950E+04  0.16711464137E+04  0.10100000352E+00 0. -1.
       -3    1    3    3    0  502  0.13356085401E+03 -0.11254273943E+04 -0.20088372925E+04  0.23064805656E+04  0.10100000352E+00 0.  1.
</event>
<event>
 5   0  0.2904500E-09  0.3898191E+04  0.7818609E-02  0.8025406E-01
        3   -1    0    0  501    0  0.00000000000E+00  0.00000000000E+00  0.15628783145E+04  0.15628783178E+04  0.10100000352E+00 0.  1.
       -3   -1    0    0    0  501  0.00000000000E+00  0.00000000000E+00 -0.24307545204E+04  0.24307545225E+04  0.10100000352E+00 0. -1.
    10030    2    1    2    0    0  0.00000000000E+00  0.00000000000E+00 -0.86787620588E+03  0.39936328403E+04  0.38981911388E+04 0.  0.
        1    1    3    3  502    0 -0.15298710099E+03  0.12085558277E+04 -0.19926895595E+04  0.23355564481E+04  0.50400001928E-02 0. -1.
       -1    1    3    3    0  502  0.15298710099E+03 -0.12085558277E+04  0.11248133536E+04  0.16580763922E+04  0.50400001928E-02 0.  1.
</event>
<event>
 5   0  0.2904500E-09  0.3899160E+04  0.7818609E-02  0.8025204E-01
       -1   -1    0    0    0  501  0.00000000000E+00  0.00000000000E+00  0.18336219596E+04  0.18336219596E+04  0.50400001928E-02 0. -1.
        1   -1    0    0  501    0  0.00000000000E+00  0.00000000000E+00 -0.20728709626E+04  0.20728709626E+04  0.50400001928E-02 0.  1.
    10030    2    1    2    0    0  0.00000000000E+00  0.00000000000E+00 -0.23924900298E+03  0.39064929222E+04  0.38991597641E+04 0.  0.
        4    1    3    3  502    0  0.13995685864E+04  0.11669109196E+04  0.57477841419E+03  0.19107184933E+04  0.12699999809E+01 0. -1.
       -4    1    3    3    0  502 -0.13995685864E+04 -0.11669109196E+04 -0.81402741717E+03  0.19957744289E+04  0.12699999809E+01 0.  1.
</event>
<event>
 5   0  0.2904500E-09  0.3899876E+04  0.7818609E-02  0.8025055E-01
       -1   -1    0    0    0  501  0.00000000000E+00  0.00000000000E+00  0.17853480254E+04  0.17853480254E+04  0.50400001928E-02 0. -1.
        1   -1    0    0  501    0  0.00000000000E+00  0.00000000000E+00 -0.21297014693E+04  0.21297014693E+04  0.50400001928E-02 0.  1.
    10030    2    1    2    0    0  0.00000000000E+00  0.00000000000E+00 -0.34435344390E+03  0.39150494948E+04  0.38998760560E+04 0.  0.
        2    1    3    3  502    0  0.20300843430E+03 -0.18270990258E+04 -0.82490262585E+03  0.20149361321E+04  0.25500000920E-02 0.  1.
       -2    1    3    3    0  502 -0.20300843430E+03  0.18270990258E+04  0.48054918195E+03  0.19001133626E+04  0.25500000920E-02 0. -1.
</event>
<event>
 5   0  0.6335942E-09  0.3901856E+04  0.7818609E-02  0.8024643E-01
        2   -1    0    0  501    0  0.00000000000E+00  0.00000000000E+00  0.22165962710E+04  0.22165962710E+04  0.25500000920E-02 0.  1.
       -2   -1    0    0    0  501  0.00000000000E+00  0.00000000000E+00 -0.17171008217E+04  0.17171008217E+04  0.25500000920E-02 0. -1.
    10030    2    1    2    0    0  0.00000000000E+00  0.00000000000E+00  0.49949544925E+03  0.39336970927E+04  0.39018555987E+04 0.  0.
        2    1    3    3  502    0 -0.18621901447E+03  0.18633496476E+04 -0.30186433223E+03  0.18968056057E+04  0.25500000920E-02 0. -1.
       -2    1    3    3    0  502  0.18621901447E+03 -0.18633496476E+04  0.80135978148E+03  0.20368914870E+04  0.25500000920E-02 0.  1.
</event>
<event>
 5   0  0.9368546E-09  0.3901296E+04  0.7818609E-02  0.8024760E-01
        2   -1    0    0  501    0  0.00000000000E+00  0.00000000000E+00  0.22769972387E+04  0.22769972387E+04  0.25500000920E-02 0.  1.
       -2   -1    0    0    0  501  0.00000000000E+00  0.00000000000E+00 -0.16710726299E+04  0.16710726299E+04  0.25500000920E-02 0. -1.
    10030    2    1    2    0    0  0.00000000000E+00  0.00000000000E+00  0.60592460882E+03  0.39480698685E+04  0.39012960738E+04 0.  0.
        5    1    3    3  502    0  0.64886589134E+03 -0.18276712513E+04  0.91661154582E+02  0.19416057801E+04  0.46999998093E+01 0. -1.
       -5    1    3    3    0  502 -0.64886589134E+03  0.18276712513E+04  0.51426345424E+03  0.20064640885E+04  0.46999998093E+01 0.  1.
</event>
<event>
 5   0  0.2929054E-09  0.3919380E+04  0.7818609E-02  0.8021010E-01
        1   -1    0    0  501    0  0.00000000000E+00  0.00000000000E+00  0.16061246501E+04  0.16061246501E+04  0.50400001928E-02 0.  1.
       -1   -1    0    0    0  501  0.00000000000E+00  0.00000000000E+00 -0.23910882168E+04  0.23910882168E+04  0.50400001928E-02 0. -1.
    10030    2    1    2    0    0  0.00000000000E+00  0.00000000000E+00 -0.78496356667E+03  0.39972128669E+04  0.39193804233E+04 0.  0.
        1    1    3    3  502    0  0.16662567682E+04  0.10238371929E+04 -0.26456572478E+03  0.19734865690E+04  0.50400001928E-02 0. -1.
       -1    1    3    3    0  502 -0.16662567682E+04 -0.10238371929E+04 -0.52039784189E+03  0.20237262980E+04  0.50400001928E-02 0.  1.
</event>
<event>
 5   0  0.9434114E-09  0.3890655E+04  0.7818609E-02  0.8026976E-01
       -2   -1    0    0    0  501  0.00000000000E+00  0.00000000000E+00  0.15405676766E+04  0.15405676766E+04  0.25500000920E-02 0.  1.
        2   -1    0    0  501    0  0.00000000000E+00  0.00000000000E+00 -0.24564316180E+04  0.24564316180E+04  0.25500000920E-02 0. -1.
    10030    2    1    2    0    0  0.00000000000E+00  0.00000000000E+00 -0.91586394140E+03  0.39969992945E+04  0.38906550350E+04 0.  0.
        4    1    3    3  502    0 -0.29058177094E+02 -0.32914417313E+03  0.15115270415E+04  0.15472219861E+04  0.12699999809E+01 0.  1.
       -4    1    3    3    0  502  0.29058177094E+02  0.32914417313E+03 -0.24273909829E+04  0.24497773084E+04  0.12699999809E+01 0. -1.
</event>
<event>
 5   0  0.2904500E-09  0.3901075E+04  0.7818609E-02  0.8024806E-01
        1   -1    0    0  501    0  0.00000000000E+00  0.00000000000E+00  0.14223400318E+04  0.14223400318E+04  0.50400001928E-02 0. -1.
       -1   -1    0    0    0  501  0.00000000000E+00  0.00000000000E+00 -0.26748851441E+04  0.26748851441E+04  0.50400001928E-02 0.  1.
    10030    2    1    2    0    0  0.00000000000E+00  0.00000000000E+00 -0.12525451123E+04  0.40972251760E+04  0.39010748370E+04 0.  0.
        4    1    3    3  502    0 -0.77272874135E+03 -0.73365505351E+03 -0.23422001948E+04  0.25731814570E+04  0.12699999809E+01 0.  1.
       -4    1    3    3    0  502  0.77272874135E+03  0.73365505351E+03  0.10896550826E+04  0.15240437189E+04  0.12699999809E+01 0. -1.
</event>
<event>
 5   0  0.9078515E-09  0.3901014E+04  0.7818609E-02  0.8024818E-01
       -2   -1    0    0    0  501  0.00000000000E+00  0.00000000000E+00  0.19715316980E+04  0.19715316980E+04  0.25500000920E-02 0. -1.
        2   -1    0    0  501    0  0.00000000000E+00  0.00000000000E+00 -0.19297066802E+04  0.19297066802E+04  0.25500000920E-02 0.  1.
    10030    2    1    2    0    0  0.00000000000E+00  0.00000000000E+00  0.41825017819E+02  0.39012383782E+04  0.39010141696E+04 0.  0.
        3    1    3    3  502    0 -0.70117907508E+03 -0.11983744508E+04 -0.13491021594E+04  0.19359313176E+04  0.10100000352E+00 0.  1.
       -3    1    3    3    0  502  0.70117907508E+03  0.11983744508E+04  0.13909271773E+04  0.19653070606E+04  0.10100000352E+00 0. -1.
</event>
<event>
 5   0  0.9434114E-09  0.3897995E+04  0.7818609E-02  0.8025446E-01
       -2   -1    0    0    0  501  0.00000000000E+00  0.00000000000E+00  0.16745507460E+04  0.16745507460E+04  0.25500000920E-02 0.  1.
        2   -1    0    0  501    0  0.00000000000E+00  0.00000000000E+00 -0.22684242228E+04  0.22684242228E+04  0.25500000920E-02 0. -1.
    10030    2    1    2    0    0  0.00000000000E+00  0.00000000000E+00 -0.59387347677E+03  0.39429749687E+04  0.38979951126E+04 0.  0.
        4    1    3    3  502    0  0.97906391789E+03 -0.14459126135E+04  0.57870832819E+03  0.18396016915E+04  0.12699999809E+01 0.  1.
       -4    1    3    3    0  502 -0.97906391789E+03  0.14459126135E+04 -0.11725818050E+04  0.21033732773E+04  0.12699999809E+01 0. -1.
</event>
<event>
 5   0  0.9078515E-09  0.3899011E+04  0.7818609E-02  0.8025235E-01
       -2   -1    0    0    0  501  0.00000000000E+00  0.00000000000E+00  0.18817056647E+04  0.18817056647E+04  0.25500000920E-02 0.  1.
        2   -1    0    0  501    0  0.00000000000E+00  0.00000000000E+00 -0.20197484768E+04  0.20197484768E+04  0.25500000920E-02 0. -1.
    10030    2    1    2    0    0  0.00000000000E+00  0.00000000000E+00 -0.13804281209E+03  0.39014541415E+04  0.38990112337E+04 0.  0.
        3    1    3    3  502    0 -0.65211680324E+03  0.13542529934E+03  0.17643317288E+04  0.18858586363E+04  0.10100000352E+00 0.  1.
       -3    1    3    3    0  502  0.65211680324E+03 -0.13542529934E+03 -0.19023745409E+04  0.20155955052E+04  0.10100000352E+00 0. -1.
</event>
<event>
 5   0  0.9368546E-09  0.3900158E+04  0.7818609E-02  0.8024996E-01
       -2   -1    0    0    0  501  0.00000000000E+00  0.00000000000E+00  0.15989859893E+04  0.15989859893E+04  0.25500000920E-02 0.  1.
        2   -1    0    0  501    0  0.00000000000E+00  0.00000000000E+00 -0.23782622016E+04  0.23782622016E+04  0.25500000920E-02 0. -1.
    10030    2    1    2    0    0  0.00000000000E+00  0.00000000000E+00 -0.77927621226E+03  0.39772481909E+04  0.39001579143E+04 0.  0.
        5    1    3    3  502    0  0.18592662649E+04  0.42421880025E+03 -0.80506378312E+03  0.20700199079E+04  0.46999998093E+01 0.  1.
       -5    1    3    3    0  502 -0.18592662649E+04 -0.42421880025E+03  0.25787570865E+02  0.19072282829E+04  0.46999998093E+01 0. -1.
</event>
<event>
 5   0  0.9368546E-09  0.3890549E+04  0.7818609E-02  0.8026998E-01
       -2   -1    0    0    0  501  0.00000000000E+00  0.00000000000E+00  0.20756538034E+04  0.20756538034E+04  0.25500000920E-02 0. -1.
        2   -1    0    0  501    0  0.00000000000E+00  0.00000000000E+00 -0.18230851779E+04  0.18230851779E+04  0.25500000920E-02 0.  1.
    10030    2    1    2    0    0  0.00000000000E+00  0.00000000000E+00  0.25256862552E+03  0.38987389812E+04  0.38905494128E+04 0.  0.
        5    1    3    3  502    0 -0.18757783286E+04  0.49399768455E+03  0.27319968124E+03  0.19588869815E+04  0.46999998093E+01 0. -1.
       -5    1    3    3    0  502  0.18757783286E+04 -0.49399768455E+03 -0.20631055719E+02  0.19398519997E+04  0.46999998093E+01 0.  1.
</event>
<event>
 5   0  0.9277261E-09  0.3900044E+04  0.7818609E-02  0.8025020E-01
       -2   -1    0    0    0  501  0.00000000000E+00  0.00000000000E+00  0.16081030005E+04  0.16081030005E+04  0.25500000920E-02 0.  1.
        2   -1    0    0  501    0  0.00000000000E+00  0.00000000000E+00 -0.23646401966E+04  0.23646401966E+04  0.25500000920E-02 0. -1.
    10030    2    1    2    0    0  0.00000000000E+00  0.00000000000E+00 -0.75653719609E+03  0.39727431971E+04  0.39000435871E+04 0.  0.
        1    1    3    3  502    0  0.46798617160E+03  0.24119427233E+03 -0.22908731563E+04  0.23505925960E+04  0.50400001928E-02 0. -1.
       -1    1    3    3    0  502 -0.46798617160E+03 -0.24119427233E+03  0.15343359602E+04  0.16221506011E+04  0.50400001928E-02 0.  1.
</event>
<event>
 5   0  0.2904500E-09  0.3897120E+04  0.7818609E-02  0.8025628E-01
        1   -1    0    0  501    0  0.00000000000E+00  0.00000000000E+00  0.23028823837E+04  0.23028823837E+04  0.50400001928E-02 0.  1.
       -1   -1    0    0    0  501  0.00000000000E+00  0.00000000000E+00 -0.16487539932E+04  0.16487539932E+04  0.50400001928E-02 0. -1.
    10030    2    1    2    0    0  0.00000000000E+00  0.00000000000E+00  0.65412839054E+03  0.39516363769E+04  0.38971202322E+04 0.  0.
        2    1    3    3  502    0  0.39668336757E+03  0.18894216642E+04  0.59527500675E+02  0.19315318901E+04  0.25500000920E-02 0. -1.
       -2    1    3    3    0  502 -0.39668336757E+03 -0.18894216642E+04  0.59460088987E+03  0.20201044868E+04  0.25500000920E-02 0.  1.
</event>
<event>
 5   0  0.9434114E-09  0.3899223E+04  0.7818609E-02  0.8025191E-01
        2   -1    0    0  501    0  0.00000000000E+00  0.00000000000E+00  0.14186848592E+04  0.14186848592E+04  0.25500000920E-02 0. -1.
       -2   -1    0    0    0  501  0.00000000000E+00  0.00000000000E+00 -0.26792314639E+04  0.26792314639E+04  0.25500000920E-02 0.  1.
    10030    2    1    2    0    0  0.00000000000E+00  0.00000000000E+00 -0.12605466047E+04  0.40979163231E+04  0.38992230571E+04 0.  0.
        4    1    3    3  502    0 -0.24327285734E+03 -0.13942440022E+04 -0.20394518349E+04  0.24824309498E+04  0.12699999809E+01 0.  1.
       -4    1    3    3    0  502  0.24327285734E+03  0.13942440022E+04  0.77890523026E+03  0.16154853733E+04  0.12699999809E+01 0. -1.
</event>
<event>
 5   0  0.2904500E-09  0.3899267E+04  0.7818609E-02  0.8025182E-01
       -1   -1    0    0    0  501  0.00000000000E+00  0.00000000000E+00  0.31889183134E+04  0.31889183134E+04  0.50400001928E-02 0. -1.
        1   -1    0    0  501    0  0.00000000000E+00  0.00000000000E+00 -0.11919625729E+04  0.11919625729E+04  0.50400001928E-02 0.  1.
    10030    2    1    2    0    0  0.00000000000E+00  0.00000000000E+00  0.19969557405E+04  0.43808808863E+04  0.38992672530E+04 0.  0.
        3    1    3    3  502    0  0.55362831186E+03  0.17729848267E+04  0.33276222500E+03  0.18869844228E+04  0.10100000352E+00 0.  1.
       -3    1    3    3    0  502 -0.55362831186E+03 -0.17729848267E+04  0.16641935155E+04  0.24938964635E+04  0.10100000352E+00 0. -1.
</event>
<event>
 5   0  0.9078515E-09  0.3897110E+04  0.7818609E-02  0.8025631E-01
       -2   -1    0    0    0  501  0.00000000000E+00  0.00000000000E+00  0.13036336509E+04  0.13036336509E+04  0.25500000920E-02 0. -1.
        2   -1    0    0  501    0  0.00000000000E+00  0.00000000000E+00 -0.29125260176E+04  0.29125260176E+04  0.25500000920E-02 0.  1.
    10030    2    1    2    0    0  0.00000000000E+00  0.00000000000E+00 -0.16088923667E+04  0.42161596685E+04  0.38971101733E+04 0.  0.
        3    1    3    3  502    0 -0.19150490952E+04  0.11898441835E+03 -0.43709402925E+03  0.19678977437E+04  0.10100000352E+00 0. -1.
       -3    1    3    3    0  502  0.19150490952E+04 -0.11898441835E+03 -0.11717983375E+04  0.22482619249E+04  0.10100000352E+00 0.  1.
</event>
<event>
 5   0  0.2904500E-09  0.3897393E+04  0.7818609E-02  0.8025572E-01
        1   -1    0    0  501    0  0.00000000000E+00  0.00000000000E+00  0.29649384981E+04  0.29649384981E+04  0.50400001928E-02 0. -1.
       -1   -1    0    0    0  501  0.00000000000E+00  0.00000000000E+00 -0.12807743540E+04  0.12807743540E+04  0.50400001928E-02 0.  1.
    10030    2    1    2    0    0  0.00000000000E+00  0.00000000000E+00  0.16841641440E+04  0.42457128521E+04  0.38973925589E+04 0.  0.
        4    1    3    3  502    0  0.86178282308E+03  0.12363991840E+04 -0.50366269044E+03  0.15890343908E+04  0.12699999809E+01 0.  1.
       -4    1    3    3    0  502 -0.86178282308E+03 -0.12363991840E+04  0.21878268345E+04  0.26566784613E+04  0.12699999809E+01 0. -1.
</event>
<event>
 5   0  0.9277261E-09  0.3900730E+04  0.7818609E-02  0.8024877E-01
       -2   -1    0    0    0  501  0.00000000000E+00  0.00000000000E+00  0.17587832233E+04  0.17587832233E+04  0.25500000920E-02 0. -1.
        2   -1    0    0  501    0  0.00000000000E+00  0.00000000000E+00 -0.21628155471E+04  0.21628155471E+04  0.25500000920E-02 0.  1.
    10030    2    1    2    0    0  0.00000000000E+00  0.00000000000E+00 -0.40403232379E+03  0.39215987703E+04  0.39007300338E+04 0.  0.
        1    1    3    3  502    0  0.13412730271E+04 -0.82346681861E+03 -0.13600522244E+04  0.20801088885E+04  0.50400001928E-02 0.  1.
       -1    1    3    3    0  502 -0.13412730271E+04  0.82346681861E+03  0.95601990064E+03  0.18414898819E+04  0.50400001928E-02 0. -1.
</event>
<event>
 5   0  0.2904500E-09  0.3898920E+04  0.7818609E-02  0.8025254E-01
       -1   -1    0    0    0  501  0.00000000000E+00  0.00000000000E+00  0.18821473069E+04  0.18821473069E+04  0.50400001928E-02 0. -1.
        1   -1    0    0  501    0  0.00000000000E+00  0.00000000000E+00 -0.20191803849E+04  0.20191803849E+04  0.50400001928E-02 0.  1.
    10030    2    1    2    0    0  0.00000000000E+00  0.00000000000E+00 -0.13703307796E+03  0.39013276918E+04  0.38989203242E+04 0.  0.
        5    1    3    3  502    0  0.18203310016E+04 -0.69483883053E+03 -0.54944946784E+01  0.19484502137E+04  0.46999998093E+01 0. -1.
       -5    1    3    3    0  502 -0.18203310016E+04  0.69483883053E+03 -0.13153858328E+03  0.19528774781E+04  0.46999998093E+01 0.  1.
</event>
<event>
 5   0  0.2904500E-09  0.3899713E+04  0.7818609E-02  0.8025089E-01
        1   -1    0    0  501    0  0.00000000000E+00  0.00000000000E+00  0.25607152712E+04  0.25607152712E+04  0.50400001928E-02 0. -1.
       -1   -1    0    0    0  501  0.00000000000E+00  0.00000000000E+00 -0.14847183597E+04  0.14847183598E+04  0.50400001928E-02 0.  1.
    10030    2    1    2    0    0  0.00000000000E+00  0.00000000000E+00  0.10759969115E+04  0.40454336310E+04  0.38997133111E+04 0.  0.
        4    1    3    3  502    0  0.49752199517E+03 -0.18544096750E+04  0.89066657618E+03  0.21165188261E+04  0.12699999809E+01 0.  1.
       -4    1    3    3    0  502 -0.49752199517E+03  0.18544096750E+04  0.18533033528E+03  0.19289148049E+04  0.12699999809E+01 0. -1.
</event>
<event>
 5   0  0.9078515E-09  0.3899040E+04  0.7818609E-02  0.8025229E-01
        2   -1    0    0  501    0  0.00000000000E+00  0.00000000000E+00  0.18135300584E+04  0.18135300584E+04  0.25500000920E-02 0.  1.
       -2   -1    0    0    0  501  0.00000000000E+00  0.00000000000E+00 -0.20957077573E+04  0.20957077573E+04  0.25500000920E-02 0. -1.
    10030    2    1    2    0    0  0.00000000000E+00  0.00000000000E+00 -0.28217769888E+03  0.39092378157E+04  0.38990404006E+04 0.  0.
        3    1    3    3  502    0  0.10384383608E+04  0.80147990650E+03  0.13048704791E+04  0.18502462666E+04  0.10100000352E+00 0.  1.
       -3    1    3    3    0  502 -0.10384383608E+04 -0.80147990650E+03 -0.15870481780E+04  0.20589915491E+04  0.10100000352E+00 0. -1.
</event>
<event>
 5   0  0.2904500E-09  0.3900691E+04  0.7818609E-02  0.8024886E-01
        1   -1    0    0  501    0  0.00000000000E+00  0.00000000000E+00  0.13151370404E+04  0.13151370404E+04  0.50400001928E-02 0. -1.
       -1   -1    0    0    0  501  0.00000000000E+00  0.00000000000E+00 -0.28923577995E+04  0.28923577996E+04  0.50400001928E-02 0.  1.
    10030    2    1    2    0    0  0.00000000000E+00  0.00000000000E+00 -0.15772207592E+04  0.42074948399E+04  0.39006906446E+04 0.  0.
        5    1    3    3  502    0 -0.46433849620E+03  0.17619615125E+04 -0.15388031928E+04  0.23849645630E+04  0.46999998093E+01 0.  1.
       -5    1    3    3    0  502  0.46433849620E+03 -0.17619615125E+04 -0.38417566396E+02  0.18225302769E+04  0.46999998093E+01 0. -1.
</event>
<event>
 5   0  0.2904500E-09  0.3896428E+04  0.7818609E-02  0.8025772E-01
        1   -1    0    0  501    0  0.00000000000E+00  0.00000000000E+00  0.15514436984E+04  0.15514436985E+04  0.50400001928E-02 0.  1.
       -1   -1    0    0    0  501  0.00000000000E+00  0.00000000000E+00 -0.24464559645E+04  0.24464559645E+04  0.50400001928E-02 0. -1.
    10030    2    1    2    0    0  0.00000000000E+00  0.00000000000E+00 -0.89501226602E+03  0.39978996629E+04  0.38964284619E+04 0.  0.
        3    1    3    3  502    0 -0.87889707633E+03 -0.15067341634E+04  0.44274772374E+03  0.17996481509E+04  0.10100000352E+00 0.  1.
       -3    1    3    3    0  502  0.87889707633E+03  0.15067341634E+04 -0.13377599898E+04  0.21982515121E+04  0.10100000352E+00 0. -1.
</event>
<event>
 5   0  0.2904500E-09  0.3906700E+04  0.7818609E-02  0.8023637E-01
        1   -1    0    0  501    0  0.00000000000E+00  0.00000000000E+00  0.22398360337E+04  0.22398360337E+04  0.50400001928E-02 0. -1.
       -1   -1    0    0    0  501  0.00000000000E+00  0.00000000000E+00 -0.17035072191E+04  0.17035072191E+04  0.50400001928E-02 0.  1.
    10030    2    1    2    0    0  0.00000000000E+00  0.00000000000E+00  0.53632881456E+03  0.39433432528E+04  0.39067003228E+04 0.  0.
        2    1    3    3  502    0  0.10990710052E+04 -0.15872069211E+04  0.56826427156E+03  0.20124878055E+04  0.25500000920E-02 0.  1.
       -2    1    3    3    0  502 -0.10990710052E+04  0.15872069211E+04 -0.31935457000E+02  0.19308554473E+04  0.25500000920E-02 0. -1.
</event>
<event>
 5   0  0.6335942E-09  0.3899200E+04  0.7818609E-02  0.8025196E-01
        2   -1    0    0  501    0  0.00000000000E+00  0.00000000000E+00  0.30674327155E+04  0.30674327155E+04  0.25500000920E-02 0.  1.
       -2   -1    0    0    0  501  0.00000000000E+00  0.00000000000E+00 -0.12391271697E+04  0.12391271697E+04  0.25500000920E-02 0. -1.
    10030    2    1    2    0    0  0.00000000000E+00  0.00000000000E+00  0.18283055458E+04  0.43065598852E+04  0.38991995173E+04 0.  0.
        2    1    3    3  502    0  0.10682695693E+04 -0.14964822804E+04  0.16301716333E+04  0.24572583588E+04  0.25500000920E-02 0. -1.
       -2    1    3    3    0  502 -0.10682695693E+04  0.14964822804E+04  0.19813391249E+03  0.18493015263E+04  0.25500000920E-02 0.  1.
</event>
<event>
 5   0  0.2904500E-09  0.3898865E+04  0.7818609E-02  0.8025265E-01
        1   -1    0    0  501    0  0.00000000000E+00  0.00000000000E+00  0.21750980385E+04  0.21750980385E+04  0.50400001928E-02 0. -1.
       -1   -1    0    0    0  501  0.00000000000E+00  0.00000000000E+00 -0.17471800397E+04  0.17471800397E+04  0.50400001928E-02 0.  1.
    10030    2    1    2    0    0  0.00000000000E+00  0.00000000000E+00  0.42791799882E+03  0.39222780782E+04  0.38988654130E+04 0.  0.
        2    1    3    3  502    0  0.19109948563E+04 -0.30827178883E+03 -0.18415177277E+02  0.19357871669E+04  0.25500000920E-02 0. -1.
       -2    1    3    3    0  502 -0.19109948563E+04  0.30827178883E+03  0.44633317610E+03  0.19864909113E+04  0.25500000920E-02 0.  1.
</event>
<event>
 5   0  0.2904500E-09  0.3891726E+04  0.7818609E-02  0.8026752E-01
       -1   -1    0    0    0  501  0.00000000000E+00  0.00000000000E+00  0.21669277886E+04  0.21669277886E+04  0.50400001928E-02 0.  1.
        1   -1    0    0  501    0  0.00000000000E+00  0.00000000000E+00 -0.17473507009E+04  0.17473507009E+04  0.50400001928E-02 0. -1.
    10030    2    1    2    0    0  0.00000000000E+00  0.00000000000E+00  0.41957708766E+03  0.39142784895E+04  0.38917259874E+04 0.  0.
        2    1    3    3  502    0 -0.14577682898E+04  0.11621512201E+04 -0.35084535782E+03  0.18970440981E+04  0.25500000920E-02 0. -1.
       -2    1    3    3    0  502  0.14577682898E+04 -0.11621512201E+04  0.77042244548E+03  0.20172343914E+04  0.25500000920E-02 0.  1.
</event>
<event>
 5   0  0.2904500E-09  0.3900047E+04  0.7818609E-02  0.8025019E-01
       -1   -1    0    0    0  501  0.00000000000E+00  0.00000000000E+00  0.18373200293E+04  0.18373200293E+04  0.50400001928E-02 0.  1.
        1   -1    0    0  501    0  0.00000000000E+00  0.00000000000E+00 -0.20696407675E+04  0.20696407675E+04  0.50400001928E-02 0. -1.
    10030    2    1    2    0    0  0.00000000000E+00  0.00000000000E+00 -0.23232073817E+03  0.39069607968E+04  0.39000474026E+04 0.  0.
        3    1    3    3  502    0  0.15033334081E+04 -0.12016634980E+04 -0.43070091074E+03  0.19721840135E+04  0.10100000352E+00 0.  1.
       -3    1    3    3    0  502 -0.15033334081E+04  0.12016634980E+04  0.19838017256E+03  0.19347767834E+04  0.10100000352E+00 0. -1.
</event>
<event>
 5   0  0.9277261E-09  0.3899290E+04  0.7818609E-02  0.8025177E-01
        2   -1    0    0  501    0  0.00000000000E+00  0.00000000000E+00  0.25533765347E+04  0.25533765347E+04  0.25500000920E-02 0.  1.
       -2   -1    0    0    0  501  0.00000000000E+00  0.00000000000E+00 -0.14886625903E+04  0.14886625903E+04  0.25500000920E-02 0. -1.
    10030    2    1    2    0    0  0.00000000000E+00  0.00000000000E+00  0.10647139445E+04  0.40420391250E+04  0.38992902565E+04 0.  0.
        1    1    3    3  502    0 -0.34297357515E+02  0.96433595792E+03  0.22884826473E+04  0.24836008084E+04  0.50400001928E-02 0.  1.
       -1    1    3    3    0  502  0.34297357515E+02 -0.96433595792E+03 -0.12237687029E+04  0.15584383166E+04  0.50400001928E-02 0. -1.
</event>
<event>
 5   0  0.9434114E-09  0.3891235E+04  0.7818609E-02  0.8026855E-01
       -2   -1    0    0    0  501  0.00000000000E+00  0.00000000000E+00  0.28000760342E+04  0.28000760342E+04  0.25500000920E-02 0. -1.
        2   -1    0    0  501    0  0.00000000000E+00  0.00000000000E+00 -0.13519016535E+04  0.13519016536E+04  0.25500000920E-02 0.  1.
    10030    2    1    2    0    0  0.00000000000E+00  0.00000000000E+00  0.14481743807E+04  0.41519776878E+04  0.38912349817E+04 0.  0.
        4    1    3    3  502    0  0.12935118590E+04  0.10879837494E+04 -0.30409210359E+03  0.17173686816E+04  0.12699999809E+01 0.  1.
       -4    1    3    3    0  502 -0.12935118590E+04 -0.10879837494E+04  0.17522664843E+04  0.24346090062E+04  0.12699999809E+01 0. -1.
</event>
<event>
 5   0  0.2929054E-09  0.3901004E+04  0.7818609E-02  0.8024820E-01
        1   -1    0    0  501    0  0.00000000000E+00  0.00000000000E+00  0.22464067579E+04  0.22464067579E+04  0.50400001928E-02 0. -1.
       -1   -1    0    0    0  501  0.00000000000E+00  0.00000000000E+00 -0.16935748414E+04  0.16935748414E+04  0.50400001928E-02 0.  1.
    10030    2    1    2    0    0  0.00000000000E+00  0.00000000000E+00  0.55283191649E+03  0.39399815993E+04  0.39010039573E+04 0.  0.
        1    1    3    3  502    0  0.17356386911E+04  0.87457786684E+03  0.44277314103E+03  0.19933329290E+04  0.50400001928E-02 0. -1.
       -1    1    3    3    0  502 -0.17356386911E+04 -0.87457786684E+03  0.11005877546E+03  0.19466486703E+04  0.50400001928E-02 0.  1.
</event>
<event>
 5   0  0.9434114E-09  0.3903828E+04  0.7818609E-02  0.8024234E-01
        2   -1    0    0  501    0  0.00000000000E+00  0.00000000000E+00  0.14274632898E+04  0.14274632898E+04  0.25500000920E-02 0.  1.
       -2   -1    0    0    0  501  0.00000000000E+00  0.00000000000E+00 -0.26690481164E+04  0.26690481164E+04  0.25500000920E-02 0. -1.
    10030    2    1    2    0    0  0.00000000000E+00  0.00000000000E+00 -0.12415848266E+04  0.40965114061E+04  0.39038279699E+04 0.  0.
        4    1    3    3  502    0  0.77887663148E+03 -0.17843156631E+04 -0.76746016704E+03  0.20927082725E+04  0.12699999809E+01 0. -1.
       -4    1    3    3    0  502 -0.77887663148E+03  0.17843156631E+04 -0.47412465958E+03  0.20038031337E+04  0.12699999809E+01 0.  1.
</event>
<event>
 5   0  0.9434114E-09  0.3899402E+04  0.7818609E-02  0.8025154E-01
        2   -1    0    0  501    0  0.00000000000E+00  0.00000000000E+00  0.29323765690E+04  0.29323765690E+04  0.25500000920E-02 0.  1.
       -2   -1    0    0    0  501  0.00000000000E+00  0.00000000000E+00 -0.12963321332E+04  0.12963321332E+04  0.25500000920E-02 0. -1.
    10030    2    1    2    0    0  0.00000000000E+00  0.00000000000E+00  0.16360444358E+04  0.42287087023E+04  0.38994019917E+04 0.  0.
        4    1    3    3  502    0 -0.54684960091E+03  0.83002505902E+03 -0.10009302701E+04  0.14106201130E+04  0.12699999809E+01 0. -1.
       -4    1    3    3    0  502  0.54684960091E+03 -0.83002505902E+03  0.26369747059E+04  0.28180885893E+04  0.12699999809E+01 0.  1.
</event>
<event>
 5   0  0.9368546E-09  0.3897838E+04  0.7818609E-02  0.8025479E-01
        2   -1    0    0  501    0  0.00000000000E+00  0.00000000000E+00  0.27521457293E+04  0.27521457293E+04  0.25500000920E-02 0. -1.
       -2   -1    0    0    0  501  0.00000000000E+00  0.00000000000E+00 -0.13801176894E+04  0.13801176894E+04  0.25500000920E-02 0.  1.
    10030    2    1    2    0    0  0.00000000000E+00  0.00000000000E+00  0.13720280399E+04  0.41322634187E+04  0.38978378647E+04 0.  0.
        5    1    3    3  502    0 -0.17170646911E+04 -0.57844130033E+03 -0.75045278733E+02  0.18134385502E+04  0.46999998093E+01 0. -1.
       -5    1    3    3    0  502  0.17170646911E+04  0.57844130033E+03  0.14470733186E+04  0.23188248685E+04  0.46999998093E+01 0.  1.
</event>
<event>
 5   0  0.9277261E-09  0.3900413E+04  0.7818609E-02  0.8024943E-01
       -2   -1    0    0    0  501  0.00000000000E+00  0.00000000000E+00  0.19538384265E+04  0.19538384265E+04  0.25500000920E-02 0. -1.
        2   -1    0    0  501    0  0.00000000000E+00  0.00000000000E+00 -0.19465816050E+04  0.19465816050E+04  0.25500000920E-02 0.  1.
    10030    2    1    2    0    0  0.00000000000E+00  0.00000000000E+00  0.72568214360E+01  0.39004200315E+04  0.39004132807E+04 0.  0.
        1    1    3    3  502    0  0.54115787883E+03 -0.17814962852E+04  0.58390958529E+03  0.19512896422E+04  0.50400001928E-02 0. -1.
       -1    1    3    3    0  502 -0.54115787883E+03  0.17814962852E+04 -0.57665276385E+03  0.19491303892E+04  0.50400001928E-02 0.  1.
</event>
<event>
 5   0  0.9368546E-09  0.3899464E+04  0.7818609E-02  0.8025141E-01
        2   -1    0    0  501    0  0.00000000000E+00  0.00000000000E+00  0.27723092463E+04  0.27723092463E+04  0.25500000920E-02 0.  1.
       -2   -1    0    0    0  501  0.00000000000E+00  0.00000000000E+00 -0.13712230298E+04  0.13712230298E+04  0.25500000920E-02 0. -1.
    10030    2    1    2    0    0  0.00000000000E+00  0.00000000000E+00  0.14010862165E+04  0.41435322761E+04  0.38994636986E+04 0.  0.
        5    1    3    3  502    0  0.18691677636E+04  0.32563725190E+03  0.22343598892E+03  0.19104380334E+04  0.46999998093E+01 0.  1.
       -5    1    3    3    0  502 -0.18691677636E+04 -0.32563725190E+03  0.11776502275E+04  0.22330942427E+04  0.46999998093E+01 0. -1.
</event>
<event>
 5   0  0.9277261E-09  0.3899939E+04  0.7818609E-02  0.8025042E-01
        2   -1    0    0  501    0  0.00000000000E+00  0.00000000000E+00  0.23731832732E+04  0.23731832732E+04  0.25500000920E-02 0. -1.
       -2   -1    0    0    0  501  0.00000000000E+00  0.00000000000E+00 -0.16022282410E+04  0.16022282410E+04  0.25500000920E-02 0.  1.
    10030    2    1    2    0    0  0.00000000000E+00  0.00000000000E+00  0.77095503218E+03  0.39754115142E+04  0.38999391080E+04 0.  0.
        1    1    3    3  502    0 -0.90677630772E+02  0.74718563572E+03  0.22191423773E+04  0.23433099875E+04  0.50400001928E-02 0. -1.
       -1    1    3    3    0  502  0.90677630772E+02 -0.74718563572E+03 -0.14481873451E+04  0.16321015267E+04  0.50400001928E-02 0.  1.
</event>
<event>
 5   0  0.2904500E-09  0.3898995E+04  0.7818609E-02  0.8025238E-01
       -1   -1    0    0    0  501  0.00000000000E+00  0.00000000000E+00  0.13682415285E+04  0.13682415285E+04  0.50400001928E-02 0. -1.
        1   -1    0    0  501    0  0.00000000000E+00  0.00000000000E+00 -0.27776822753E+04  0.27776822753E+04  0.50400001928E-02 0.  1.
    10030    2    1    2    0    0  0.00000000000E+00  0.00000000000E+00 -0.14094407468E+04  0.41459238038E+04  0.38989948664E+04 0.  0.
        4    1    3    3  502    0 -0.13227729474E+04 -0.31787826582E+03 -0.21894919683E+04  0.25777221639E+04  0.12699999809E+01 0.  1.
       -4    1    3    3    0  502  0.13227729474E+04  0.31787826582E+03  0.78005122149E+03  0.15682016399E+04  0.12699999809E+01 0. -1.
</event>
<event>
 5   0  0.2904500E-09  0.3899200E+04  0.7818609E-02  0.8025196E-01
       -1   -1    0    0    0  501  0.00000000000E+00  0.00000000000E+00  0.12715670016E+04  0.12715670016E+04  0.50400001928E-02 0.  1.
        1   -1    0    0  501    0  0.00000000000E+00  0.00000000000E+00 -0.29891787699E+04  0.29891787699E+04  0.50400001928E-02 0. -1.
    10030    2    1    2    0    0  0.00000000000E+00  0.00000000000E+00 -0.17176117683E+04  0.42607457715E+04  0.38992004748E+04 0.  0.
        3    1    3    3  502    0  0.44320781781E+03 -0.17118948566E+04  0.38241714439E+02  0.17687508612E+04  0.10100000352E+00 0.  1.
       -3    1    3    3    0  502 -0.44320781781E+03  0.17118948566E+04 -0.17558534828E+04  0.24919949103E+04  0.10100000352E+00 0. -1.
</event>
<event>
 5   0  0.9277261E-09  0.3894234E+04  0.7818609E-02  0.8026229E-01
        2   -1    0    0  501    0  0.00000000000E+00  0.00000000000E+00  0.17727096598E+04  0.17727096598E+04  0.25500000920E-02 0.  1.
       -2   -1    0    0    0  501  0.00000000000E+00  0.00000000000E+00 -0.21386834692E+04  0.21386834692E+04  0.25500000920E-02 0. -1.
    10030    2    1    2    0    0  0.00000000000E+00  0.00000000000E+00 -0.36597380945E+03  0.39113931290E+04  0.38942341199E+04 0.  0.
        1    1    3    3  502    0 -0.60298492794E+03 -0.13574271442E+04  0.10815544221E+04  0.18373783614E+04  0.50400001928E-02 0.  1.
       -1    1    3    3    0  502  0.60298492794E+03  0.13574271442E+04 -0.14475282315E+04  0.20740147676E+04  0.50400001928E-02 0. -1.
</event>
<event>
 5   0  0.2904500E-09  0.3902170E+04  0.7818609E-02  0.8024578E-01
        1   -1    0    0  501    0  0.00000000000E+00  0.00000000000E+00  0.25831570240E+04  0.25831570240E+04  0.50400001928E-02 0. -1.
       -1   -1    0    0    0  501  0.00000000000E+00  0.00000000000E+00 -0.14736742042E+04  0.14736742042E+04  0.50400001928E-02 0.  1.
    10030    2    1    2    0    0  0.00000000000E+00  0.00000000000E+00  0.11094828199E+04  0.40568312282E+04  0.39021695871E+04 0.  0.
        2    1    3    3  502    0 -0.13203616977E+04 -0.14131141704E+04  0.28667444883E+03  0.19551032993E+04  0.25500000920E-02 0. -1.
       -2    1    3    3    0  502  0.13203616977E+04  0.14131141704E+04  0.82280837105E+03  0.21017279289E+04  0.25500000920E-02 0.  1.
</event>
<event>
 5   0  0.6335942E-09  0.3900313E+04  0.7818609E-02  0.8024964E-01
       -2   -1    0    0    0  501  0.00000000000E+00  0.00000000000E+00  0.17716122147E+04  0.17716122147E+04  0.25500000920E-02 0.  1.
        2   -1    0    0  501    0  0.00000000000E+00  0.00000000000E+00 -0.21466950049E+04  0.21466950049E+04  0.25500000920E-02 0. -1.
    10030    2    1    2    0    0  0.00000000000E+00  0.00000000000E+00 -0.37508279021E+03  0.39183072196E+04  0.39003133679E+04 0.  0.
        2    1    3    3  502    0  0.63978531461E+03  0.80182716665E+03  0.14786817048E+04  0.17996531994E+04  0.25500000920E-02 0.  1.
       -2    1    3    3    0  502 -0.63978531461E+03 -0.80182716665E+03 -0.18537644950E+04  0.21186540201E+04  0.25500000920E-02 0. -1.
</event>
<event>
 5   0  0.2904500E-09  0.3901231E+04  0.7818609E-02  0.8024773E-01
       -1   -1    0    0    0  501  0.00000000000E+00  0.00000000000E+00  0.17283945805E+04  0.17283945805E+04  0.50400001928E-02 0. -1.
        1   -1    0    0  501    0  0.00000000000E+00  0.00000000000E+00 -0.22014078908E+04  0.22014078908E+04  0.50400001928E-02 0.  1.
    10030    2    1    2    0    0  0.00000000000E+00  0.00000000000E+00 -0.47301331029E+03  0.39298024713E+04  0.39012313277E+04 0.  0.
        4    1    3    3  502    0  0.25088211660E+03 -0.19315029839E+04 -0.34336960008E+03  0.19777638657E+04  0.12699999809E+01 0. -1.
       -4    1    3    3    0  502 -0.25088211660E+03  0.19315029839E+04 -0.12964371021E+03  0.19520386056E+04  0.12699999809E+01 0.  1.
</event>
<event>
 5   0  0.9078515E-09  0.3900838E+04  0.7818609E-02  0.8024855E-01
        2   -1    0    0  501    0  0.00000000000E+00  0.00000000000E+00  0.15006873024E+04  0.15006873024E+04  0.25500000920E-02 0.  1.
       -2   -1    0    0    0  501  0.00000000000E+00  0.00000000000E+00 -0.25349277567E+04  0.25349277567E+04  0.25500000920E-02 0. -1.
    10030    2    1    2    0    0  0.00000000000E+00  0.00000000000E+00 -0.10342404543E+04  0.40356150591E+04  0.39008378059E+04 0.  0.
        3    1    3    3  502    0 -0.11082041955E+04 -0.15778578918E+04 -0.21305761747E+03  0.19398828893E+04  0.10100000352E+00 0.  1.
       -3    1    3    3    0  502  0.11082041955E+04  0.15778578918E+04 -0.82118283684E+03  0.20957321698E+04  0.10100000352E+00 0. -1.
</event>
<event>
 5   0  0.2904500E-09  0.3901663E+04  0.7818609E-02  0.8024683E-01
       -1   -1    0    0    0  501  0.00000000000E+00  0.00000000000E+00  0.30402123395E+04  0.30402123396E+04  0.50400001928E-02 0.  1.
        1   -1    0    0  501    0  0.00000000000E+00  0.00000000000E+00 -0.12518020019E+04  0.12518020019E+04  0.50400001928E-02 0. -1.
    10030    2    1    2    0    0  0.00000000000E+00  0.00000000000E+00  0.17884103376E+04  0.42920143415E+04  0.39016631802E+04 0.  0.
        4    1    3    3  502    0 -0.44540949847E+03 -0.14478277348E+04 -0.45806920805E+03  0.15825371349E+04  0.12699999809E+01 0. -1.
       -4    1    3    3    0  502  0.44540949847E+03  0.14478277348E+04  0.22464795457E+04  0.27094772066E+04  0.12699999809E+01 0.  1.
</event>
<event>
 5   0  0.9277261E-09  0.3899789E+04  0.7818609E-02  0.8025073E-01
        2   -1    0    0  501    0  0.00000000000E+00  0.00000000000E+00  0.22800526892E+04  0.22800526892E+04  0.25500000920E-02 0.  1.
       -2   -1    0    0    0  501  0.00000000000E+00  0.00000000000E+00 -0.16675439677E+04  0.16675439677E+04  0.25500000920E-02 0. -1.
    10030    2    1    2    0    0  0.00000000000E+00  0.00000000000E+00  0.61250872144E+03  0.39475966569E+04  0.38997887676E+04 0.  0.
        1    1    3    3  502    0  0.88489824439E+02 -0.19283669905E+04  0.58468709369E+03  0.20169999248E+04  0.50400001928E-02 0.  1.
       -1    1    3    3    0  502 -0.88489824439E+02  0.19283669905E+04  0.27821627755E+02  0.19305967321E+04  0.50400001928E-02 0. -1.
</event>
<event>
 5   0  0.2904500E-09  0.3897428E+04  0.7818609E-02  0.8025564E-01
       -1   -1    0    0    0  501  0.00000000000E+00  0.00000000000E+00  0.13321094514E+04  0.13321094514E+04  0.50400001928E-02 0. -1.
        1   -1    0    0  501    0  0.00000000000E+00  0.00000000000E+00 -0.28507308500E+04  0.28507308500E+04  0.50400001928E-02 0.  1.
    10030    2    1    2    0    0  0.00000000000E+00  0.00000000000E+00 -0.15186213987E+04  0.41828403014E+04  0.38974276176E+04 0.  0.
        2    1    3    3  502    0  0.12581543360E+04 -0.34254799152E+03  0.79490944587E+03  0.15271452082E+04  0.25500000920E-02 0. -1.
       -2    1    3    3    0  502 -0.12581543360E+04  0.34254799152E+03 -0.23135308445E+04  0.26556950933E+04  0.25500000920E-02 0.  1.
</event>
<event>
 5   0  0.9368546E-09  0.3901750E+04  0.7818609E-02  0.8024665E-01
       -2   -1    0    0    0  501  0.00000000000E+00  0.00000000000E+00  0.24220415577E+04  0.24220415577E+04  0.25500000920E-02 0.  1.
        2   -1    0    0  501    0  0.00000000000E+00  0.00000000000E+00 -0.15713656668E+04  0.15713656668E+04  0.25500000920E-02 0. -1.
    10030    2    1    2    0    0  0.00000000000E+00  0.00000000000E+00  0.85067589093E+03  0.39934072245E+04  0.39017498369E+04 0.  0.
        5    1    3    3  502    0  0.35237283235E+03 -0.18377844044E+04  0.98990520912E+03  0.21169677709E+04  0.46999998093E+01 0.  1.
       -5    1    3    3    0  502 -0.35237283235E+03  0.18377844044E+04 -0.13922931820E+03  0.18764394536E+04  0.46999998093E+01 0. -1.
</event>
<event>
 5   0  0.2904500E-09  0.3900567E+04  0.7818609E-02  0.8024911E-01
        1   -1    0    0  501    0  0.00000000000E+00  0.00000000000E+00  0.27980211648E+04  0.27980211648E+04  0.50400001928E-02 0.  1.
       -1   -1    0    0    0  501  0.00000000000E+00  0.00000000000E+00 -0.13593910305E+04  0.13593910305E+04  0.50400001928E-02 0. -1.
    10030    2    1    2    0    0  0.00000000000E+00  0.00000000000E+00  0.14386301343E+04  0.41574121953E+04  0.39005665612E+04 0.  0.
        3    1    3    3  502    0  0.48570748839E+03 -0.95984760406E+03 -0.10145766063E+04  0.14787105490E+04  0.10100000352E+00 0. -1.
       -3    1    3    3    0  502 -0.48570748839E+03  0.95984760406E+03  0.24532067407E+04  0.26787016463E+04  0.10100000352E+00 0.  1.
</event>
<event>
 5   0  0.2904500E-09  0.3901770E+04  0.7818609E-02  0.8024661E-01
       -1   -1    0    0    0  501  0.00000000000E+00  0.00000000000E+00  0.15251744800E+04  0.15251744800E+04  0.50400001928E-02 0.  1.
        1   -1    0    0  501    0  0.00000000000E+00  0.00000000000E+00 -0.24954213125E+04  0.24954213125E+04  0.50400001928E-02 0. -1.
    10030    2    1    2    0    0  0.00000000000E+00  0.00000000000E+00 -0.97024683253E+03  0.40205957926E+04  0.39017703176E+04 0.  0.
        5    1    3    3  502    0  0.55479472734E+03  0.71946490791E+02  0.14407394227E+04  0.15455502778E+04  0.46999998093E+01 0.  1.
       -5    1    3    3    0  502 -0.55479472734E+03 -0.71946490791E+02 -0.24109862553E+04  0.24750455148E+04  0.46999998093E+01 0. -1.
</event>
<event>
 5   0  0.2904500E-09  0.3908916E+04  0.7818609E-02  0.8023177E-01
       -1   -1    0    0    0  501  0.00000000000E+00  0.00000000000E+00  0.16021258198E+04  0.16021258198E+04  0.50400001928E-02 0. -1.
        1   -1    0    0  501    0  0.00000000000E+00  0.00000000000E+00 -0.23842737001E+04  0.23842737001E+04  0.50400001928E-02 0.  1.
    10030    2    1    2    0    0  0.00000000000E+00  0.00000000000E+00 -0.78214788030E+03  0.39863995200E+04  0.39089161958E+04 0.  0.
        2    1    3    3  502    0  0.10254228965E+04 -0.14990385374E+04 -0.11273953180E+04  0.21376690240E+04  0.25500000920E-02 0. -1.
       -2    1    3    3    0  502 -0.10254228965E+04  0.14990385374E+04  0.34524743769E+03  0.18487304959E+04  0.25500000920E-02 0.  1.
</event>
<event>
 5   0  0.6335942E-09  0.3899399E+04  0.7818609E-02  0.8025154E-01
        2   -1    0    0  501    0  0.00000000000E+00  0.00000000000E+00  0.24897519869E+04  0.24897519869E+04  0.25500000920E-02 0. -1.
       -2   -1    0    0    0  501  0.00000000000E+00  0.00000000000E+00 -0.15267901039E+04  0.15267901039E+04  0.25500000920E-02 0.  1.
    10030    2    1    2    0    0  0.00000000000E+00  0.00000000000E+00  0.96296188293E+03  0.40165420908E+04  0.38993992844E+04 0.  0.
        2    1    3    3  502    0  0.75634424642E+03  0.17845760859E+04  0.69891547329E+03  0.20604007534E+04  0.25500000920E-02 0.  1.
       -2    1    3    3    0  502 -0.75634424642E+03 -0.17845760859E+04  0.26404640964E+03  0.19561413374E+04  0.25500000920E-02 0. -1.
</event>
<event>
 5   0  0.9434114E-09  0.3905647E+04  0.7818609E-02  0.8023856E-01
        2   -1    0    0  501    0  0.00000000000E+00  0.00000000000E+00  0.21274645821E+04  0.21274645821E+04  0.25500000920E-02 0.  1.
       -2   -1    0    0    0  501  0.00000000000E+00  0.00000000000E+00 -0.17925180582E+04  0.17925180582E+04  0.25500000920E-02 0. -1.
    10030    2    1    2    0    0  0.00000000000E+00  0.00000000000E+00  0.33494652388E+03  0.39199826403E+04  0.39056465184E+04 0.  0.
        4    1    3    3  502    0  0.64376410043E+03 -0.14669817385E+04  0.12882859616E+04  0.20557601926E+04  0.12699999809E+01 0.  1.
       -4    1    3    3    0  502 -0.64376410043E+03  0.14669817385E+04 -0.95333943768E+03  0.18642224477E+04  0.12699999809E+01 0. -1.
</event>
<event>
 5   0  0.9078515E-09  0.3899262E+04  0.7818609E-02  0.8025183E-01
       -2   -1    0    0    0  501  0.00000000000E+00  0.00000000000E+00  0.15428788310E+04  0.15428788310E+04  0.25500000920E-02 0.  1.
        2   -1    0    0  501    0  0.00000000000E+00  0.00000000000E+00 -0.24636160766E+04  0.24636160766E+04  0.25500000920E-02 0. -1.
    10030    2    1    2    0    0  0.00000000000E+00  0.00000000000E+00 -0.92073724560E+03  0.40064949076E+04  0.38992620288E+04 0.  0.
        3    1    3    3  502    0 -0.25432545556E+03 -0.93030934191E+03  0.12806023203E+04  0.16031529004E+04  0.10100000352E+00 0.  1.
       -3    1    3    3    0  502  0.25432545556E+03  0.93030934191E+03 -0.22013395659E+04  0.24033420072E+04  0.10100000352E+00 0. -1.
</event>
<event>
 5   0  0.6335942E-09  0.3900695E+04  0.7818609E-02  0.8024885E-01
       -2   -1    0    0    0  501  0.00000000000E+00  0.00000000000E+00  0.18950517786E+04  0.18950517786E+04  0.25500000920E-02 0.  1.
        2   -1    0    0  501    0  0.00000000000E+00  0.00000000000E+00 -0.20072570711E+04  0.20072570711E+04  0.25500000920E-02 0. -1.
    10030    2    1    2    0    0  0.00000000000E+00  0.00000000000E+00 -0.11220529251E+03  0.39023088497E+04  0.39006953651E+04 0.  0.
        2    1    3    3  502    0  0.80432822329E+03  0.90688652020E+03 -0.15846315768E+04  0.19951050813E+04  0.25500000920E-02 0. -1.
       -2    1    3    3    0  502 -0.80432822329E+03 -0.90688652020E+03  0.14724262843E+04  0.19072037684E+04  0.25500000920E-02 0.  1.
</event>
<event>
 5   0  0.9368546E-09  0.3902068E+04  0.7818609E-02  0.8024599E-01
        2   -1    0    0  501    0  0.00000000000E+00  0.00000000000E+00  0.19358955648E+04  0.19358955648E+04  0.25500000920E-02 0. -1.
       -2   -1    0    0    0  501  0.00000000000E+00  0.00000000000E+00 -0.19662908045E+04  0.19662908046E+04  0.25500000920E-02 0.  1.
    10030    2    1    2    0    0  0.00000000000E+00  0.00000000000E+00 -0.30395239710E+02  0.39021863694E+04  0.39020679890E+04 0.  0.
        5    1    3    3  502    0 -0.16075163882E+04 -0.10821941925E+04 -0.24160755622E+03  0.19528567561E+04  0.46999998093E+01 0.  1.
       -5    1    3    3    0  502  0.16075163882E+04  0.10821941925E+04  0.21121231651E+03  0.19493296133E+04  0.46999998093E+01 0. -1.
</event>
<event>
 5   0  0.2929054E-09  0.3900021E+04  0.7818609E-02  0.8025025E-01
        1   -1    0    0  501    0  0.00000000000E+00  0.00000000000E+00  0.25611815084E+04  0.25611815084E+04  0.50400001928E-02 0.  1.
       -1   -1    0    0    0  501  0.00000000000E+00  0.00000000000E+00 -0.14846826398E+04  0.14846826398E+04  0.50400001928E-02 0. -1.
    10030    2    1    2    0    0  0.00000000000E+00  0.00000000000E+00  0.10764988686E+04  0.40458641482E+04  0.39000213963E+04 0.  0.
        1    1    3    3  502    0 -0.15075440306E+04  0.12281193491E+04  0.69062859487E+03  0.20634761922E+04  0.50400001928E-02 0. -1.
       -1    1    3    3    0  502  0.15075440306E+04 -0.12281193491E+04  0.38587027372E+03  0.19823879560E+04  0.50400001928E-02 0.  1.
</event>
<event>
 5   0  0.9078515E-09  0.3899083E+04  0.7818609E-02  0.8025220E-01
       -2   -1    0    0    0  501  0.00000000000E+00  0.00000000000E+00  0.19647156365E+04  0.19647156365E+04  0.25500000920E-02 0. -1.
        2   -1    0    0  501    0  0.00000000000E+00  0.00000000000E+00 -0.19344843621E+04  0.19344843621E+04  0.25500000920E-02 0.  1.
    10030    2    1    2    0    0  0.00000000000E+00  0.00000000000E+00  0.30231274373E+02  0.38991999985E+04  0.38990828022E+04 0.  0.
        3    1    3    3  502    0 -0.64337653801E+03 -0.10604312219E+04  0.15192432634E+04  0.19612618004E+04  0.10100000352E+00 0. -1.
       -3    1    3    3    0  502  0.64337653801E+03  0.10604312219E+04 -0.14890119891E+04  0.19379381981E+04  0.10100000352E+00 0.  1.
</event>
<event>
 5   0  0.9277261E-09  0.3900376E+04  0.7818609E-02  0.8024951E-01
       -2   -1    0    0    0  501  0.00000000000E+00  0.00000000000E+00  0.20904049386E+04  0.20904049386E+04  0.25500000920E-02 0.  1.
        2   -1    0    0  501    0  0.00000000000E+00  0.00000000000E+00 -0.18193767544E+04  0.18193767544E+04  0.25500000920E-02 0. -1.
    10030    2    1    2    0    0  0.00000000000E+00  0.00000000000E+00  0.27102818427E+03  0.39097816930E+04  0.39003764703E+04 0.  0.
        1    1    3    3  502    0  0.17216961416E+04  0.90743286293E+03  0.10464940652E+02  0.19462223716E+04  0.50400001928E-02 0.  1.
       -1    1    3    3    0  502 -0.17216961416E+04 -0.90743286293E+03  0.26056324362E+03  0.19635593214E+04  0.50400001928E-02 0. -1.
</event>
<event>
 5   0  0.2904500E-09  0.3899575E+04  0.7818609E-02  0.8025118E-01
        1   -1    0    0  501    0  0.00000000000E+00  0.00000000000E+00  0.21144169643E+04  0.21144169643E+04  0.50400001928E-02 0. -1.
       -1   -1    0    0    0  501  0.00000000000E+00  0.00000000000E+00 -0.17979759360E+04  0.17979759360E+04  0.50400001928E-02 0.  1.
    10030    2    1    2    0    0  0.00000000000E+00  0.00000000000E+00  0.31644102829E+03  0.39123929003E+04  0.38995747566E+04 0.  0.
        5    1    3    3  502    0  0.13536177299E+04 -0.12059326810E+04  0.87828023317E+03  0.20144361116E+04  0.46999998093E+01 0. -1.
       -5    1    3    3    0  502 -0.13536177299E+04  0.12059326810E+04 -0.56183920488E+03  0.18979567887E+04  0.46999998093E+01 0.  1.
</event>
<event>
 5   0  0.2929054E-09  0.3899295E+04  0.7818609E-02  0.8025176E-01
       -1   -1    0    0    0  501  0.00000000000E+00  0.00000000000E+00  0.15654656227E+04  0.15654656227E+04  0.50400001928E-02 0. -1.
        1   -1    0    0  501    0  0.00000000000E+00  0.00000000000E+00 -0.24281121291E+04  0.24281121291E+04  0.50400001928E-02 0.  1.
    10030    2    1    2    0    0  0.00000000000E+00  0.00000000000E+00 -0.86264650639E+03  0.39935777519E+04  0.38992953550E+04 0.  0.
        1    1    3    3  502    0  0.30633779016E+02 -0.18124547416E+04  0.30380314802E+03  0.18379953677E+04  0.50400001928E-02 0. -1.
       -1    1    3    3    0  502 -0.30633779016E+02  0.18124547416E+04 -0.11664496544E+04  0.21555823842E+04  0.50400001928E-02 0.  1.
</event>
<event>
 5   0  0.9368546E-09  0.3899528E+04  0.7818609E-02  0.8025127E-01
       -2   -1    0    0    0  501  0.00000000000E+00  0.00000000000E+00  0.14154956541E+04  0.14154956541E+04  0.25500000920E-02 0.  1.
        2   -1    0    0  501    0  0.00000000000E+00  0.00000000000E+00 -0.26856884315E+04  0.26856884315E+04  0.25500000920E-02 0. -1.
    10030    2    1    2    0    0  0.00000000000E+00  0.00000000000E+00 -0.12701927774E+04  0.41011840856E+04  0.38995283320E+04 0.  0.
        5    1    3    3  502    0  0.17326078442E+04 -0.77959305509E+03 -0.17442341888E+03  0.19079153263E+04  0.46999998093E+01 0.  1.
       -5    1    3    3    0  502 -0.17326078442E+04  0.77959305509E+03 -0.10957693585E+04  0.21932687593E+04  0.46999998093E+01 0. -1.
</event>
<event>
 5   0  0.2904500E-09  0.3900556E+04  0.7818609E-02  0.8024914E-01
        1   -1    0    0  501    0  0.00000000000E+00  0.00000000000E+00  0.19912316767E+04  0.19912316767E+04  0.50400001928E-02 0. -1.
       -1   -1    0    0    0  501  0.00000000000E+00  0.00000000000E+00 -0.19101664300E+04  0.19101664300E+04  0.50400001928E-02 0.  1.
    10030    2    1    2    0    0  0.00000000000E+00  0.00000000000E+00  0.81065246748E+02  0.39013981067E+04  0.39005558082E+04 0.  0.
        3    1    3    3  502    0 -0.16425460571E+04  0.33476376306E+03 -0.95645720472E+03  0.19299830884E+04  0.10100000352E+00 0. -1.
       -3    1    3    3    0  502  0.16425460571E+04 -0.33476376306E+03  0.10375224515E+04  0.19714150183E+04  0.10100000352E+00 0.  1.
</event>
<event>
 5   0  0.9078515E-09  0.3899903E+04  0.7818609E-02  0.8025049E-01
        2   -1    0    0  501    0  0.00000000000E+00  0.00000000000E+00  0.17304878372E+04  0.17304878372E+04  0.25500000920E-02 0. -1.
       -2   -1    0    0    0  501  0.00000000000E+00  0.00000000000E+00 -0.21972479368E+04  0.21972479368E+04  0.25500000920E-02 0.  1.
    10030    2    1    2    0    0  0.00000000000E+00  0.00000000000E+00 -0.46676009960E+03  0.39277357741E+04  0.38999029886E+04 0.  0.
        3    1    3    3  502    0  0.47387468958E+03  0.28028203370E+03  0.16505838165E+04  0.17399833865E+04  0.10100000352E+00 0. -1.
       -3    1    3    3    0  502 -0.47387468958E+03 -0.28028203370E+03 -0.21173439161E+04  0.21877523875E+04  0.10100000352E+00 0.  1.
</event>
<event>
 5   0  0.9368546E-09  0.3902790E+04  0.7818609E-02  0.8024449E-01
       -2   -1    0    0    0  501  0.00000000000E+00  0.00000000000E+00  0.31529685698E+04  0.31529685698E+04  0.25500000920E-02 0. -1.
        2   -1    0    0  501    0  0.00000000000E+00  0.00000000000E+00 -0.12077324320E+04  0.12077324320E+04  0.25500000920E-02 0.  1.
    10030    2    1    2    0    0  0.00000000000E+00  0.00000000000E+00  0.19452361378E+04  0.43607010019E+04  0.39027899759E+04 0.  0.
        5    1    3    3  502    0 -0.17308752252E+03 -0.24503458967E+03  0.31270416535E+04  0.31414030040E+04  0.46999998093E+01 0. -1.
       -5    1    3    3    0  502  0.17308752252E+03  0.24503458967E+03 -0.11818055157E+04  0.12192979979E+04  0.46999998093E+01 0.  1.
</event>
<event>
 5   0  0.9434114E-09  0.3899239E+04  0.7818609E-02  0.8025188E-01
        2   -1    0    0  501    0  0.00000000000E+00  0.00000000000E+00  0.28604825356E+04  0.28604825356E+04  0.25500000920E-02 0. -1.
       -2   -1    0    0    0  501  0.00000000000E+00  0.00000000000E+00 -0.13288021206E+04  0.13288021206E+04  0.25500000920E-02 0.  1.
    10030    2    1    2    0    0  0.00000000000E+00  0.00000000000E+00  0.15316804150E+04  0.41892846562E+04  0.38992385201E+04 0.  0.
        4    1    3    3  502    0 -0.15569493469E+04 -0.10869991306E+04  0.12407079090E+04  0.22682627950E+04  0.12699999809E+01 0.  1.
       -4    1    3    3    0  502  0.15569493469E+04  0.10869991306E+04  0.29097250605E+03  0.19210218612E+04  0.12699999809E+01 0. -1.
</event>
<event>
 5   0  0.9368546E-09  0.3900690E+04  0.7818609E-02  0.8024886E-01
       -2   -1    0    0    0  501  0.00000000000E+00  0.00000000000E+00  0.22515933229E+04  0.22515933229E+04  0.25500000920E-02 0.  1.
        2   -1    0    0  501    0  0.00000000000E+00  0.00000000000E+00 -0.16894019013E+04  0.16894019013E+04  0.25500000920E-02 0. -1.
    10030    2    1    2    0    0  0.00000000000E+00  0.00000000000E+00  0.56219142158E+03  0.39409952241E+04  0.39006902161E+04 0.  0.
        5    1    3    3  502    0  0.13947780913E+04  0.19616609625E+03  0.16440855289E+04  0.21649310330E+04  0.46999998093E+01 0.  1.
       -5    1    3    3    0  502 -0.13947780913E+04 -0.19616609625E+03 -0.10818941073E+04  0.17760641911E+04  0.46999998093E+01 0. -1.
</event>
<event>
 5   0  0.6335942E-09  0.3900637E+04  0.7818609E-02  0.8024897E-01
       -2   -1    0    0    0  501  0.00000000000E+00  0.00000000000E+00  0.33531311112E+04  0.33531311112E+04  0.25500000920E-02 0.  1.
        2   -1    0    0  501    0  0.00000000000E+00  0.00000000000E+00 -0.11343851247E+04  0.11343851247E+04  0.25500000920E-02 0. -1.
    10030    2    1    2    0    0  0.00000000000E+00  0.00000000000E+00  0.22187459866E+04  0.44875162359E+04  0.39006368986E+04 0.  0.
        2    1    3    3  502    0 -0.13748671165E+04  0.13509278642E+04  0.76716972031E+03  0.20745638246E+04  0.25500000920E-02 0.  1.
       -2    1    3    3    0  502  0.13748671165E+04 -0.13509278642E+04  0.14515762662E+04  0.24129524113E+04  0.25500000920E-02 0. -1.
</event>
<event>
 5   0  0.2904500E-09  0.3897277E+04  0.7818609E-02  0.8025596E-01
       -1   -1    0    0    0  501  0.00000000000E+00  0.00000000000E+00  0.27998248219E+04  0.27998248219E+04  0.50400001928E-02 0.  1.
        1   -1    0    0  501    0  0.00000000000E+00  0.00000000000E+00 -0.13562245371E+04  0.13562245371E+04  0.50400001928E-02 0. -1.
    10030    2    1    2    0    0  0.00000000000E+00  0.00000000000E+00  0.14436002848E+04  0.41560493590E+04  0.38972765481E+04 0.  0.
        2    1    3    3  502    0 -0.14932935931E+04 -0.46167785805E+03  0.19627318349E+04  0.25090612698E+04  0.25500000920E-02 0.  1.
       -2    1    3    3    0  502  0.14932935931E+04  0.46167785805E+03 -0.51913155014E+03  0.16469880892E+04  0.25500000920E-02 0. -1.
</event>
<event>
 5   0  0.9368546E-09  0.3900773E+04  0.7818609E-02  0.8024868E-01
       -2   -1    0    0    0  501  0.00000000000E+00  0.00000000000E+00  0.13039101200E+04  0.13039101200E+04  0.25500000920E-02 0.  1.
        2   -1    0    0  501    0  0.00000000000E+00  0.00000000000E+00 -0.29173846446E+04  0.29173846446E+04  0.25500000920E-02 0. -1.
    10030    2    1    2    0    0  0.00000000000E+00  0.00000000000E+00 -0.16134745245E+04  0.42212947646E+04  0.39007729296E+04 0.  0.
        5    1    3    3  502    0  0.11350808173E+03 -0.35650298996E+03 -0.28781810140E+04  0.29024001285E+04  0.46999998093E+01 0. -1.
       -5    1    3    3    0  502 -0.11350808173E+03  0.35650298996E+03  0.12647064895E+04  0.13188946361E+04  0.46999998093E+01 0.  1.
</event>
<event>
 5   0  0.2904500E-09  0.3900126E+04  0.7818609E-02  0.8025003E-01
       -1   -1    0    0    0  501  0.00000000000E+00  0.00000000000E+00  0.27208737619E+04  0.27208737619E+04  0.50400001928E-02 0.  1.
        1   -1    0    0  501    0  0.00000000000E+00  0.00000000000E+00 -0.13976192105E+04  0.13976192105E+04  0.50400001928E-02 0. -1.
    10030    2    1    2    0    0  0.00000000000E+00  0.00000000000E+00  0.13232545514E+04  0.41184929725E+04  0.39001258642E+04 0.  0.
        3    1    3    3  502    0 -0.81367999682E+03 -0.23627372715E+03  0.25163388472E+04  0.26551575501E+04  0.10100000352E+00 0.  1.
       -3    1    3    3    0  502  0.81367999682E+03  0.23627372715E+03 -0.11930842958E+04  0.14633354224E+04  0.10100000352E+00 0. -1.
</event>
<event>
 5   0  0.2904500E-09  0.3900535E+04  0.7818609E-02  0.8024918E-01
        1   -1    0    0  501    0  0.00000000000E+00  0.00000000000E+00  0.15448895428E+04  0.15448895428E+04  0.50400001928E-02 0.  1.
       -1   -1    0    0    0  501  0.00000000000E+00  0.00000000000E+00 -0.24620165954E+04  0.24620165954E+04  0.50400001928E-02 0. -1.
    10030    2    1    2    0    0  0.00000000000E+00  0.00000000000E+00 -0.91712705263E+03  0.40069061382E+04  0.39005351901E+04 0.  0.
        2    1    3    3  502    0 -0.85981931580E+03  0.10599684835E+04  0.97252516365E+03  0.16758960695E+04  0.25500000920E-02 0.  1.
       -2    1    3    3    0  502  0.85981931580E+03 -0.10599684835E+04 -0.18896522163E+04  0.23310100687E+04  0.25500000920E-02 0. -1.
</event>
<event>
 5   0  0.2929054E-09  0.3900835E+04  0.7818609E-02  0.8024856E-01
       -1   -1    0    0    0  501  0.00000000000E+00  0.00000000000E+00  0.20906821517E+04  0.20906821517E+04  0.50400001928E-02 0. -1.
        1   -1    0    0  501    0  0.00000000000E+00  0.00000000000E+00 -0.18195629293E+04  0.18195629293E+04  0.50400001928E-02 0.  1.
    10030    2    1    2    0    0  0.00000000000E+00  0.00000000000E+00  0.27111922239E+03  0.39102450809E+04  0.39008346492E+04 0.  0.
        1    1    3    3  502    0  0.93390378767E+03 -0.74252974819E+03  0.16822014178E+04  0.20623598914E+04  0.50400001928E-02 0. -1.
       -1    1    3    3    0  502 -0.93390378767E+03  0.74252974819E+03 -0.14110821954E+04  0.18478851895E+04  0.50400001928E-02 0.  1.
</event>
<event>
 5   0  0.2904500E-09  0.3904241E+04  0.7818609E-02  0.8024148E-01
       -1   -1    0    0    0  501  0.00000000000E+00  0.00000000000E+00  0.14845596387E+04  0.14845596387E+04  0.50400001928E-02 0. -1.
        1   -1    0    0  501    0  0.00000000000E+00  0.00000000000E+00 -0.25669389167E+04  0.25669389167E+04  0.50400001928E-02 0.  1.
    10030    2    1    2    0    0  0.00000000000E+00  0.00000000000E+00 -0.10823792779E+04  0.40514985554E+04  0.39042407256E+04 0.  0.
        3    1    3    3  502    0  0.14490929015E+04 -0.23757177910E+03  0.79358415607E+03  0.16691573953E+04  0.10100000352E+00 0. -1.
       -3    1    3    3    0  502 -0.14490929015E+04  0.23757177910E+03 -0.18759634340E+04  0.23823411601E+04  0.10100000352E+00 0.  1.
</event>
<event>
 5   0  0.2904500E-09  0.3901840E+04  0.7818609E-02  0.8024647E-01
        1   -1    0    0  501    0  0.00000000000E+00  0.00000000000E+00  0.17771386476E+04  0.17771386476E+04  0.50400001928E-02 0.  1.
       -1   -1    0    0    0  501  0.00000000000E+00  0.00000000000E+00 -0.21416946642E+04  0.21416946642E+04  0.50400001928E-02 0. -1.
    10030    2    1    2    0    0  0.00000000000E+00  0.00000000000E+00 -0.36455601659E+03  0.39188333118E+04  0.39018397503E+04 0.  0.
        5    1    3    3  502    0  0.77759396457E+03 -0.16609901087E+04 -0.85040133948E+03  0.20215699451E+04  0.46999998093E+01 0. -1.
       -5    1    3    3    0  502 -0.77759396457E+03  0.16609901087E+04  0.48584532290E+03  0.18972633667E+04  0.46999998093E+01 0.  1.
</event>
<event>
 5   0  0.2904500E-09  0.3900739E+04  0.7818609E-02  0.8024875E-01
       -1   -1    0    0    0  501  0.00000000000E+00  0.00000000000E+00  0.29632901200E+04  0.29632901200E+04  0.50400001928E-02 0.  1.
        1   -1    0    0  501    0  0.00000000000E+00  0.00000000000E+00 -0.12836886230E+04  0.12836886230E+04  0.50400001928E-02 0. -1.
    10030    2    1    2    0    0  0.00000000000E+00  0.00000000000E+00  0.16796014970E+04  0.42469787430E+04  0.39007393216E+04 0.  0.
        5    1    3    3  502    0  0.13917948659E+04 -0.13635392885E+04  0.93463804861E+03  0.21609957686E+04  0.46999998093E+01 0. -1.
       -5    1    3    3    0  502 -0.13917948659E+04  0.13635392885E+04  0.74496344844E+03  0.20859829744E+04  0.46999998093E+01 0.  1.
</event>
<event>
 5   0  0.9434114E-09  0.3899149E+04  0.7818609E-02  0.8025206E-01
       -2   -1    0    0    0  501  0.00000000000E+00  0.00000000000E+00  0.22914159473E+04  0.22914159473E+04  0.25500000920E-02 0. -1.
        2   -1    0    0  501    0  0.00000000000E+00  0.00000000000E+00 -0.16587302751E+04  0.16587302751E+04  0.25500000920E-02 0.  1.
    10030    2    1    2    0    0  0.00000000000E+00  0.00000000000E+00  0.63268567220E+03  0.39501462224E+04  0.38991491403E+04 0.  0.
        4    1    3    3  502    0  0.99154211015E+03  0.16707389623E+04  0.48068335124E+03  0.20013951467E+04  0.12699999809E+01 0. -1.
       -4    1    3    3    0  502 -0.99154211015E+03 -0.16707389623E+04  0.15200232096E+03  0.19487510756E+04  0.12699999809E+01 0.  1.
</event>
<event>
 5   0  0.2904500E-09  0.3900875E+04  0.7818609E-02  0.8024847E-01
       -1   -1    0    0    0  501  0.00000000000E+00  0.00000000000E+00  0.33577272930E+04  0.33577272930E+04  0.50400001928E-02 0. -1.
        1   -1    0    0  501    0  0.00000000000E+00  0.00000000000E+00 -0.11329706596E+04  0.11329706596E+04  0.50400001928E-02 0.  1.
    10030    2    1    2    0    0  0.00000000000E+00  0.00000000000E+00  0.22247566334E+04  0.44906979525E+04  0.39008750330E+04 0.  0.
        4    1    3    3  502    0 -0.83639656668E+03  0.14585065836E+04 -0.25743930540E+02  0.16815067749E+04  0.12699999809E+01 0.  1.
       -4    1    3    3    0  502  0.83639656668E+03 -0.14585065836E+04  0.22505005639E+04  0.28091911776E+04  0.12699999809E+01 0. -1.
</event>
<event>
 5   0  0.9277261E-09  0.3899212E+04  0.7818609E-02  0.8025193E-01
       -2   -1    0    0    0  501  0.00000000000E+00  0.00000000000E+00  0.17958585477E+04  0.17958585477E+04  0.25500000920E-02 0. -1.
        2   -1    0    0  501    0  0.00000000000E+00  0.00000000000E+00 -0.21165156260E+04  0.21165156260E+04  0.25500000920E-02 0.  1.
    10030    2    1    2    0    0  0.00000000000E+00  0.00000000000E+00 -0.32065707834E+03  0.39123741737E+04  0.38992115502E+04 0.  0.
        1    1    3    3  502    0  0.78504602239E+03  0.13589405939E+04 -0.13209293213E+04  0.20513095980E+04  0.50400001928E-02 0.  1.
       -1    1    3    3    0  502 -0.78504602239E+03 -0.13589405939E+04  0.10002722430E+04  0.18610645757E+04  0.50400001928E-02 0. -1.
</event>
<event>
 5   0  0.9277261E-09  0.3899485E+04  0.7818609E-02  0.8025136E-01
        2   -1    0    0  501    0  0.00000000000E+00  0.00000000000E+00  0.17962591893E+04  0.17962591893E+04  0.25500000920E-02 0.  1.
       -2   -1    0    0    0  501  0.00000000000E+00  0.00000000000E+00 -0.21163408690E+04  0.21163408690E+04  0.25500000920E-02 0. -1.
    10030    2    1    2    0    0  0.00000000000E+00  0.00000000000E+00 -0.32008167967E+03  0.39126000582E+04  0.38994854704E+04 0.  0.
        1    1    3    3  502    0 -0.16932182976E+04 -0.85177441438E+03 -0.61873133094E+03  0.19938245450E+04  0.50400001928E-02 0. -1.
       -1    1    3    3    0  502  0.16932182976E+04  0.85177441438E+03  0.29864965128E+03  0.19187755133E+04  0.50400001928E-02 0.  1.
</event>
<event>
 5   0  0.2904500E-09  0.3899354E+04  0.7818609E-02  0.8025164E-01
       -1   -1    0    0    0  501  0.00000000000E+00  0.00000000000E+00  0.26171654168E+04  0.26171654168E+04  0.50400001928E-02 0.  1.
        1   -1    0    0  501    0  0.00000000000E+00  0.00000000000E+00 -0.14524266635E+04  0.14524266635E+04  0.50400001928E-02 0. -1.
    10030    2    1    2    0    0  0.00000000000E+00  0.00000000000E+00  0.11647387533E+04  0.40695920803E+04  0.38993542204E+04 0.  0.
        2    1    3    3  502    0 -0.24951956829E+03 -0.18685708002E+04  0.11015029164E+04  0.21833748018E+04  0.25500000920E-02 0.  1.
       -2    1    3    3    0  502  0.24951956829E+03  0.18685708002E+04  0.63235836970E+02  0.18862172785E+04  0.25500000920E-02 0. -1.
</event>
<event>
 5   0  0.9434114E-09  0.3900167E+04  0.7818609E-02  0.8024994E-01
        2   -1    0    0  501    0  0.00000000000E+00  0.00000000000E+00  0.21268427196E+04  0.21268427196E+04  0.25500000920E-02 0.  1.
       -2   -1    0    0    0  501  0.00000000000E+00  0.00000000000E+00 -0.17880147136E+04  0.17880147136E+04  0.25500000920E-02 0. -1.
    10030    2    1    2    0    0  0.00000000000E+00  0.00000000000E+00  0.33882800607E+03  0.39148574332E+04  0.39001672150E+04 0.  0.
        4    1    3    3  502    0 -0.18897042165E+04  0.18576952923E+03 -0.27647998212E+03  0.19188369230E+04  0.12699999809E+01 0.  1.
       -4    1    3    3    0  502  0.18897042165E+04 -0.18576952923E+03  0.61530798819E+03  0.19960205102E+04  0.12699999809E+01 0. -1.
</event>
<event>
 5   0  0.9277261E-09  0.3896743E+04  0.7818609E-02  0.8025707E-01
       -2   -1    0    0    0  501  0.00000000000E+00  0.00000000000E+00  0.14652519141E+04  0.14652519141E+04  0.25500000920E-02 0.  1.
        2   -1    0    0  501    0  0.00000000000E+00  0.00000000000E+00 -0.25907845144E+04  0.25907845144E+04  0.25500000920E-02 0. -1.
    10030    2    1    2    0    0  0.00000000000E+00  0.00000000000E+00 -0.11255326003E+04  0.40560364284E+04  0.38967432395E+04 0.  0.
        1    1    3    3  502    0  0.72245709820E+03 -0.16315911444E+04 -0.13771285778E+04  0.22540002309E+04  0.50400001928E-02 0. -1.
       -1    1    3    3    0  502 -0.72245709820E+03  0.16315911444E+04  0.25159597755E+03  0.18020361975E+04  0.50400001928E-02 0.  1.
</event>
<event>
 5   0  0.2904500E-09  0.3900034E+04  0.7818609E-02  0.8025022E-01
        1   -1    0    0  501    0  0.00000000000E+00  0.00000000000E+00  0.21462964045E+04  0.21462964046E+04  0.50400001928E-02 0. -1.
       -1   -1    0    0    0  501  0.00000000000E+00  0.00000000000E+00 -0.17716877086E+04  0.17716877086E+04  0.50400001928E-02 0.  1.
    10030    2    1    2    0    0  0.00000000000E+00  0.00000000000E+00  0.37460869599E+03  0.39179841131E+04  0.39000343377E+04 0.  0.
        2    1    3    3  502    0  0.45656035808E+03 -0.28854374085E+03  0.20696575891E+04  0.21389687672E+04  0.25500000920E-02 0. -1.
       -2    1    3    3    0  502 -0.45656035808E+03  0.28854374085E+03 -0.16950488931E+04  0.17790153459E+04  0.25500000920E-02 0.  1.
</event>
<event>
 5   0  0.9277261E-09  0.3900205E+04  0.7818609E-02  0.8024987E-01
        2   -1    0    0  501    0  0.00000000000E+00  0.00000000000E+00  0.23096952007E+04  0.23096952007E+04  0.25500000920E-02 0. -1.
       -2   -1    0    0    0  501  0.00000000000E+00  0.00000000000E+00 -0.16464942834E+04  0.16464942834E+04  0.25500000920E-02 0.  1.
    10030    2    1    2    0    0  0.00000000000E+00  0.00000000000E+00  0.66320091732E+03  0.39561894840E+04  0.39002050942E+04 0.  0.
        1    1    3    3  502    0 -0.10436449105E+04  0.16421733785E+04  0.19945443356E+03  0.19559422730E+04  0.50400001928E-02 0. -1.
       -1    1    3    3    0  502  0.10436449105E+04 -0.16421733785E+04  0.46374648376E+03  0.20002472111E+04  0.50400001928E-02 0.  1.
</event>
<event>
 5   0  0.2904500E-09  0.3897899E+04  0.7818609E-02  0.8025466E-01
        1   -1    0    0  501    0  0.00000000000E+00  0.00000000000E+00  0.18657745355E+04  0.18657745355E+04  0.50400001928E-02 0.  1.
       -1   -1    0    0    0  501  0.00000000000E+00  0.00000000000E+00 -0.20358325022E+04  0.20358325022E+04  0.50400001928E-02 0. -1.
    10030    2    1    2    0    0  0.00000000000E+00  0.00000000000E+00 -0.17005796674E+03  0.39016070377E+04  0.38978991476E+04 0.  0.
        4    1    3    3  502    0  0.52349120907E+03  0.16503529343E+04 -0.98069578900E+03  0.19898426313E+04  0.12699999809E+01 0. -1.
       -4    1    3    3    0  502 -0.52349120907E+03 -0.16503529343E+04  0.81063782226E+03  0.19117644064E+04  0.12699999809E+01 0.  1.
</event>
<event>
 5   0  0.9368546E-09  0.3899267E+04  0.7818609E-02  0.8025182E-01
       -2   -1    0    0    0  501  0.00000000000E+00  0.00000000000E+00  0.20716035388E+04  0.20716035388E+04  0.25500000920E-02 0. -1.
        2   -1    0    0  501    0  0.00000000000E+00  0.00000000000E+00 -0.18348444200E+04  0.18348444200E+04  0.25500000920E-02 0.  1.
    10030    2    1    2    0    0  0.00000000000E+00  0.00000000000E+00  0.23675911886E+03  0.39064479588E+04  0.38992666970E+04 0.  0.
        5    1    3    3  502    0 -0.16854798851E+03  0.62543223858E+03  0.19606447290E+04  0.20648786290E+04  0.46999998093E+01 0. -1.
       -5    1    3    3    0  502  0.16854798851E+03 -0.62543223858E+03 -0.17238856101E+04  0.18415693297E+04  0.46999998093E+01 0.  1.
</event>
<event>
 5   0  0.2904500E-09  0.3900450E+04  0.7818609E-02  0.8024936E-01
        1   -1    0    0  501    0  0.00000000000E+00  0.00000000000E+00  0.19718757750E+04  0.19718757750E+04  0.50400001928E-02 0.  1.
       -1   -1    0    0    0  501  0.00000000000E+00  0.00000000000E+00 -0.19288116198E+04  0.19288116198E+04  0.50400001928E-02 0. -1.
    10030    2    1    2    0    0  0.00000000000E+00  0.00000000000E+00  0.43064155165E+02  0.39006873948E+04  0.39004496703E+04 0.  0.
        4    1    3    3  502    0  0.88338339791E+03 -0.64338544040E+03  0.16368903308E+04  0.19681774870E+04  0.12699999809E+01 0.  1.
       -4    1    3    3    0  502 -0.88338339791E+03  0.64338544040E+03 -0.15938261756E+04  0.19325099078E+04  0.12699999809E+01 0. -1.
</event>
<event>
 5   0  0.9434114E-09  0.3903015E+04  0.7818609E-02  0.8024403E-01
       -2   -1    0    0    0  501  0.00000000000E+00  0.00000000000E+00  0.13016388516E+04  0.13016388516E+04  0.25500000920E-02 0. -1.
        2   -1    0    0  501    0  0.00000000000E+00  0.00000000000E+00 -0.29258351610E+04  0.29258351610E+04  0.25500000920E-02 0.  1.
    10030    2    1    2    0    0  0.00000000000E+00  0.00000000000E+00 -0.16241963094E+04  0.42274740126E+04  0.39030145882E+04 0.  0.
        4    1    3    3  502    0  0.10034869543E+04  0.15981005857E+04 -0.27328286978E+03  0.19067240727E+04  0.12699999809E+01 0. -1.
       -4    1    3    3    0  502 -0.10034869543E+04 -0.15981005857E+04 -0.13509134396E+04  0.23207499399E+04  0.12699999809E+01 0.  1.
</event>
<event>
 5   0  0.2904500E-09  0.3898720E+04  0.7818609E-02  0.8025296E-01
       -1   -1    0    0    0  501  0.00000000000E+00  0.00000000000E+00  0.14972186345E+04  0.14972186345E+04  0.50400001928E-02 0. -1.
        1   -1    0    0  501    0  0.00000000000E+00  0.00000000000E+00 -0.25380418624E+04  0.25380418624E+04  0.50400001928E-02 0.  1.
    10030    2    1    2    0    0  0.00000000000E+00  0.00000000000E+00 -0.10408232279E+04  0.40352604970E+04  0.38987195701E+04 0.  0.
        4    1    3    3  502    0 -0.83573243450E+03 -0.10401965370E+04  0.95046513522E+03  0.16382439147E+04  0.12699999809E+01 0. -1.
       -4    1    3    3    0  502  0.83573243450E+03  0.10401965370E+04 -0.19912883632E+04  0.23970165823E+04  0.12699999809E+01 0.  1.
</event>
<event>
 5   0  0.2904500E-09  0.3900152E+04  0.7818609E-02  0.8024998E-01
        1   -1    0    0  501    0  0.00000000000E+00  0.00000000000E+00  0.18564803328E+04  0.18564803328E+04  0.50400001928E-02 0. -1.
       -1   -1    0    0    0  501  0.00000000000E+00  0.00000000000E+00 -0.20483899272E+04  0.20483899272E+04  0.50400001928E-02 0.  1.
    10030    2    1    2    0    0  0.00000000000E+00  0.00000000000E+00 -0.19190959446E+03  0.39048702600E+04  0.39001515938E+04 0.  0.
        2    1    3    3  502    0 -0.88734472936E+03 -0.17217672876E+04  0.13000021993E+03  0.19413302961E+04  0.25500000920E-02 0. -1.
       -2    1    3    3    0  502  0.88734472936E+03  0.17217672876E+04 -0.32190981439E+03  0.19635399639E+04  0.25500000920E-02 0.  1.
</event>
<event>
 5   0  0.6335942E-09  0.3900951E+04  0.7818609E-02  0.8024832E-01
       -2   -1    0    0    0  501  0.00000000000E+00  0.00000000000E+00  0.23143021287E+04  0.23143021287E+04  0.25500000920E-02 0. -1.
        2   -1    0    0  501    0  0.00000000000E+00  0.00000000000E+00 -0.16438448955E+04  0.16438448955E+04  0.25500000920E-02 0.  1.
    10030    2    1    2    0    0  0.00000000000E+00  0.00000000000E+00  0.67045723323E+03  0.39581470242E+04  0.39009505205E+04 0.  0.
        2    1    3    3  502    0 -0.70725946129E+03 -0.16879366305E+04  0.10196614984E+04  0.20950072996E+04  0.25500000920E-02 0. -1.
       -2    1    3    3    0  502  0.70725946129E+03  0.16879366305E+04 -0.34920426517E+03  0.18631397245E+04  0.25500000920E-02 0.  1.
</event>
<event>
 5   0  0.6335942E-09  0.3901049E+04  0.7818609E-02  0.8024811E-01
       -2   -1    0    0    0  501  0.00000000000E+00  0.00000000000E+00  0.32439617880E+04  0.32439617880E+04  0.25500000920E-02 0.  1.
        2   -1    0    0  501    0  0.00000000000E+00  0.00000000000E+00 -0.11728082272E+04  0.11728082272E+04  0.25500000920E-02 0. -1.
    10030    2    1    2    0    0  0.00000000000E+00  0.00000000000E+00  0.20711535608E+04  0.44167700152E+04  0.39010486147E+04 0.  0.
        2    1    3    3  502    0 -0.17407326584E+04  0.57652620001E+03  0.28284428884E+03  0.18554065698E+04  0.25500000920E-02 0. -1.
       -2    1    3    3    0  502  0.17407326584E+04 -0.57652620001E+03  0.17883092719E+04  0.25613634454E+04  0.25500000920E-02 0.  1.
</event>
<event>
 5   0  0.9368546E-09  0.3898972E+04  0.7818609E-02  0.8025243E-01
       -2   -1    0    0    0  501  0.00000000000E+00  0.00000000000E+00  0.17702712456E+04  0.17702712456E+04  0.25500000920E-02 0. -1.
        2   -1    0    0  501    0  0.00000000000E+00  0.00000000000E+00 -0.21468440698E+04  0.21468440698E+04  0.25500000920E-02 0.  1.
    10030    2    1    2    0    0  0.00000000000E+00  0.00000000000E+00 -0.37657282424E+03  0.39171153154E+04  0.38989723393E+04 0.  0.
        5    1    3    3  502    0  0.12715328199E+03  0.10641859022E+04  0.14477304856E+04  0.18012787792E+04  0.46999998093E+01 0. -1.
       -5    1    3    3    0  502 -0.12715328199E+03 -0.10641859022E+04 -0.18243033099E+04  0.21158365362E+04  0.46999998093E+01 0.  1.
</event>
<event>
 5   0  0.9434114E-09  0.3895729E+04  0.7818609E-02  0.8025918E-01
       -2   -1    0    0    0  501  0.00000000000E+00  0.00000000000E+00  0.17488780106E+04  0.17488780106E+04  0.25500000920E-02 0. -1.
        2   -1    0    0  501    0  0.00000000000E+00  0.00000000000E+00 -0.21694910317E+04  0.21694910317E+04  0.25500000920E-02 0.  1.
    10030    2    1    2    0    0  0.00000000000E+00  0.00000000000E+00 -0.42061302104E+03  0.39183690423E+04  0.38957285118E+04 0.  0.
        4    1    3    3  502    0 -0.11000760389E+04 -0.27653076113E+03  0.13824167665E+04  0.17882153904E+04  0.12699999809E+01 0. -1.
       -4    1    3    3    0  502  0.11000760389E+04  0.27653076113E+03 -0.18030297875E+04  0.21301536519E+04  0.12699999809E+01 0.  1.
</event>
<event>
 5   0  0.2929054E-09  0.3888459E+04  0.7818609E-02  0.8027434E-01
        1   -1    0    0  501    0  0.00000000000E+00  0.00000000000E+00  0.13310529822E+04  0.13310529822E+04  0.50400001928E-02 0.  1.
       -1   -1    0    0    0  501  0.00000000000E+00  0.00000000000E+00 -0.28398785046E+04  0.28398785046E+04  0.50400001928E-02 0. -1.
    10030    2    1    2    0    0  0.00000000000E+00  0.00000000000E+00 -0.15088255224E+04  0.41709314869E+04  0.38884592078E+04 0.  0.
        1    1    3    3  502    0 -0.38874389029E+03 -0.78394456576E+02 -0.27960348960E+04  0.28240181732E+04  0.50400001928E-02 0. -1.
       -1    1    3    3    0  502  0.38874389029E+03  0.78394456576E+02  0.12872093736E+04  0.13469133136E+04  0.50400001928E-02 0.  1.
</event>
<event>
 5   0  0.6335942E-09  0.3899439E+04  0.7818609E-02  0.8025146E-01
        2   -1    0    0  501    0  0.00000000000E+00  0.00000000000E+00  0.26042419035E+04  0.26042419035E+04  0.25500000920E-02 0. -1.
       -2   -1    0    0    0  501  0.00000000000E+00  0.00000000000E+00 -0.14596976518E+04  0.14596976518E+04  0.25500000920E-02 0.  1.
    10030    2    1    2    0    0  0.00000000000E+00  0.00000000000E+00  0.11445442517E+04  0.40639395553E+04  0.38994388269E+04 0.  0.
        2    1    3    3  502    0  0.13152010432E+03 -0.80973870599E+03 -0.12710806275E+04  0.15128186512E+04  0.25500000920E-02 0.  1.
       -2    1    3    3    0  502 -0.13152010432E+03  0.80973870599E+03  0.24156248792E+04  0.25511209040E+04  0.25500000920E-02 0. -1.
</event>
<event>
 5   0  0.9368546E-09  0.3899703E+04  0.7818609E-02  0.8025091E-01
       -2   -1    0    0    0  501  0.00000000000E+00  0.00000000000E+00  0.26746449305E+04  0.26746449305E+04  0.25500000920E-02 0. -1.
        2   -1    0    0  501    0  0.00000000000E+00  0.00000000000E+00 -0.14214677512E+04  0.14214677512E+04  0.25500000920E-02 0.  1.
    10030    2    1    2    0    0  0.00000000000E+00  0.00000000000E+00  0.12531771793E+04  0.40961126817E+04  0.38997033295E+04 0.  0.
        5    1    3    3  502    0  0.11845148365E+04  0.13307333794E+04  0.14589476437E+04  0.23027108029E+04  0.46999998093E+01 0. -1.
       -5    1    3    3    0  502 -0.11845148365E+04 -0.13307333794E+04 -0.20577046440E+03  0.17934018788E+04  0.46999998093E+01 0.  1.
</event>
<event>
 5   0  0.9277261E-09  0.3902651E+04  0.7818609E-02  0.8024478E-01
        2   -1    0    0  501    0  0.00000000000E+00  0.00000000000E+00  0.23766966972E+04  0.23766966972E+04  0.25500000920E-02 0.  1.
       -2   -1    0    0    0  501  0.00000000000E+00  0.00000000000E+00 -0.16020852453E+04  0.16020852453E+04  0.25500000920E-02 0. -1.
    10030    2    1    2    0    0  0.00000000000E+00  0.00000000000E+00  0.77461145192E+03  0.39787819424E+04  0.39026507458E+04 0.  0.
        1    1    3    3  502    0 -0.19372855853E+04 -0.79684793485E+02  0.16337208945E+03  0.19457943223E+04  0.50400001928E-02 0. -1.
       -1    1    3    3    0  502  0.19372855853E+04  0.79684793485E+02  0.61123936247E+03  0.20329876201E+04  0.50400001928E-02 0.  1.
</event>
<event>
 5   0  0.2929054E-09  0.3893813E+04  0.7818609E-02  0.8026317E-01
        1   -1    0    0  501    0  0.00000000000E+00  0.00000000000E+00  0.25093381831E+04  0.25093381831E+04  0.50400001928E-02 0. -1.
       -1   -1    0    0    0  501  0.00000000000E+00  0.00000000000E+00 -0.15105360668E+04  0.15105360668E+04  0.50400001928E-02 0.  1.
    10030    2    1    2    0    0  0.00000000000E+00  0.00000000000E+00  0.99880211633E+03  0.40198742499E+04  0.38938134672E+04 0.  0.
        1    1    3    3  502    0  0.19460932339E+04 -0.19942393371E+02  0.55372844695E+03  0.20234356345E+04  0.50400001928E-02 0.  1.
       -1    1    3    3    0  502 -0.19460932339E+04  0.19942393371E+02  0.44507366938E+03  0.19964386154E+04  0.50400001928E-02 0. -1.
</event>
<event>
 5   0  0.9368546E-09  0.3899928E+04  0.7818609E-02  0.8025044E-01
       -2   -1    0    0    0  501  0.00000000000E+00  0.00000000000E+00  0.12363588708E+04  0.12363588708E+04  0.25500000920E-02 0.  1.
        2   -1    0    0  501    0  0.00000000000E+00  0.00000000000E+00 -0.30754492174E+04  0.30754492174E+04  0.25500000920E-02 0. -1.
    10030    2    1    2    0    0  0.00000000000E+00  0.00000000000E+00 -0.18390903466E+04  0.43118080882E+04  0.38999276515E+04 0.  0.
        5    1    3    3  502    0  0.13222275232E+04  0.11900700424E+04 -0.18025027824E+04  0.25325068015E+04  0.46999998093E+01 0. -1.
       -5    1    3    3    0  502 -0.13222275232E+04 -0.11900700424E+04 -0.36587564155E+02  0.17793012867E+04  0.46999998093E+01 0.  1.
</event>
<event>
 5   0  0.2904500E-09  0.3895867E+04  0.7818609E-02  0.8025889E-01
        1   -1    0    0  501    0  0.00000000000E+00  0.00000000000E+00  0.22091053061E+04  0.22091053061E+04  0.50400001928E-02 0.  1.
       -1   -1    0    0    0  501  0.00000000000E+00  0.00000000000E+00 -0.17176392012E+04  0.17176392012E+04  0.50400001928E-02 0. -1.
    10030    2    1    2    0    0  0.00000000000E+00  0.00000000000E+00  0.49146610485E+03  0.39267445073E+04  0.38958674892E+04 0.  0.
        2    1    3    3  502    0  0.16991481967E+04 -0.79345270491E+03  0.77695294581E+03  0.20298590269E+04  0.25500000920E-02 0. -1.
       -2    1    3    3    0  502 -0.16991481967E+04  0.79345270491E+03 -0.28548684096E+03  0.18968854803E+04  0.25500000920E-02 0.  1.
</event>
<event>
 5   0  0.6335942E-09  0.3907207E+04  0.7818609E-02  0.8023532E-01
        2   -1    0    0  501    0  0.00000000000E+00  0.00000000000E+00  0.13320346049E+04  0.13320346049E+04  0.25500000920E-02 0.  1.
       -2   -1    0    0    0  501  0.00000000000E+00  0.00000000000E+00 -0.28652154629E+04  0.28652154629E+04  0.25500000920E-02 0. -1.
    10030    2    1    2    0    0  0.00000000000E+00  0.00000000000E+00 -0.15331808581E+04  0.41972500678E+04  0.39072067501E+04 0.  0.
        2    1    3    3  502    0 -0.51151796332E+03 -0.14301854355E+04 -0.20864048619E+04  0.25807297911E+04  0.25500000920E-02 0. -1.
       -2    1    3    3    0  502  0.51151796332E+03  0.14301854355E+04  0.55322400389E+03  0.16165202767E+04  0.25500000920E-02 0.  1.
</event>
<event>
 5   0  0.6335942E-09  0.3899201E+04  0.7818609E-02  0.8025195E-01
        2   -1    0    0  501    0  0.00000000000E+00  0.00000000000E+00  0.22831177518E+04  0.22831177518E+04  0.25500000920E-02 0. -1.
       -2   -1    0    0    0  501  0.00000000000E+00  0.00000000000E+00 -0.16648036454E+04  0.16648036454E+04  0.25500000920E-02 0.  1.
    10030    2    1    2    0    0  0.00000000000E+00  0.00000000000E+00  0.61831410643E+03  0.39479213972E+04  0.38992013316E+04 0.  0.
        2    1    3    3  502    0  0.52966142493E+03  0.16326026465E+04  0.12453782446E+04  0.21205894460E+04  0.25500000920E-02 0.  1.
       -2    1    3    3    0  502 -0.52966142493E+03 -0.16326026465E+04 -0.62706413822E+03  0.18273319512E+04  0.25500000920E-02 0. -1.
</event>
<event>
 5   0  0.9368546E-09  0.3903074E+04  0.7818609E-02  0.8024390E-01
        2   -1    0    0  501    0  0.00000000000E+00  0.00000000000E+00  0.17182706862E+04  0.17182706862E+04  0.25500000920E-02 0. -1.
       -2   -1    0    0    0  501  0.00000000000E+00  0.00000000000E+00 -0.22164709163E+04  0.22164709163E+04  0.25500000920E-02 0.  1.
    10030    2    1    2    0    0  0.00000000000E+00  0.00000000000E+00 -0.49820023012E+03  0.39347416025E+04  0.39030741741E+04 0.  0.
        5    1    3    3  502    0 -0.18666582641E+04  0.30105263270E+03 -0.73616515282E+03  0.20290409027E+04  0.46999998093E+01 0.  1.
       -5    1    3    3    0  502  0.18666582641E+04 -0.30105263270E+03  0.23796492270E+03  0.19057006998E+04  0.46999998093E+01 0. -1.
</event>
<event>
 5   0  0.2904500E-09  0.3898536E+04  0.7818609E-02  0.8025334E-01
        1   -1    0    0  501    0  0.00000000000E+00  0.00000000000E+00  0.19344782773E+04  0.19344782773E+04  0.50400001928E-02 0.  1.
       -1   -1    0    0    0  501  0.00000000000E+00  0.00000000000E+00 -0.19641705029E+04  0.19641705029E+04  0.50400001928E-02 0. -1.
    10030    2    1    2    0    0  0.00000000000E+00  0.00000000000E+00 -0.29692225570E+02  0.38986487802E+04  0.38985357102E+04 0.  0.
        4    1    3    3  502    0  0.25992305132E+03  0.49146692380E+03  0.18535077897E+04  0.19350949510E+04  0.12699999809E+01 0.  1.
       -4    1    3    3    0  502 -0.25992305132E+03 -0.49146692380E+03 -0.18832000153E+04  0.19635538293E+04  0.12699999809E+01 0. -1.
</event>
<event>
 5   0  0.2904500E-09  0.3920576E+04  0.7818609E-02  0.8020763E-01
       -1   -1    0    0    0  501  0.00000000000E+00  0.00000000000E+00  0.23754955125E+04  0.23754955125E+04  0.50400001928E-02 0. -1.
        1   -1    0    0  501    0  0.00000000000E+00  0.00000000000E+00 -0.16176534333E+04  0.16176534333E+04  0.50400001928E-02 0.  1.
    10030    2    1    2    0    0  0.00000000000E+00  0.00000000000E+00  0.75784207921E+03  0.39931489458E+04  0.39205757085E+04 0.  0.
        4    1    3    3  502    0  0.35711253993E+03  0.16562243858E+04 -0.62529052666E+03  0.18059896007E+04  0.12699999809E+01 0. -1.
       -4    1    3    3    0  502 -0.35711253993E+03 -0.16562243858E+04  0.13831326059E+04  0.21871593451E+04  0.12699999809E+01 0.  1.
</event>
<event>
 5   0  0.6335942E-09  0.3901259E+04  0.7818609E-02  0.8024767E-01
        2   -1    0    0  501    0  0.00000000000E+00  0.00000000000E+00  0.17658891257E+04  0.17658891257E+04  0.25500000920E-02 0.  1.
       -2   -1    0    0    0  501  0.00000000000E+00  0.00000000000E+00 -0.21546964983E+04  0.21546964983E+04  0.25500000920E-02 0. -1.
    10030    2    1    2    0    0  0.00000000000E+00  0.00000000000E+00 -0.38880737263E+03  0.39205856239E+04  0.39012588304E+04 0.  0.
        2    1    3    3  502    0  0.87132682111E+03  0.41618597982E+03  0.15088477389E+04  0.17913801099E+04  0.25500000920E-02 0.  1.
       -2    1    3    3    0  502 -0.87132682111E+03 -0.41618597982E+03 -0.18976551115E+04  0.21292055141E+04  0.25500000920E-02 0. -1.
</event>
<event>
 5   0  0.9277261E-09  0.3899245E+04  0.7818609E-02  0.8025186E-01
        2   -1    0    0  501    0  0.00000000000E+00  0.00000000000E+00  0.28452412101E+04  0.28452412101E+04  0.25500000920E-02 0. -1.
       -2   -1    0    0    0  501  0.00000000000E+00  0.00000000000E+00 -0.13359246142E+04  0.13359246142E+04  0.25500000920E-02 0.  1.
    10030    2    1    2    0    0  0.00000000000E+00  0.00000000000E+00  0.15093165959E+04  0.41811658244E+04  0.38992449351E+04 0.  0.
        1    1    3    3  502    0 -0.52654322951E+03  0.10213757544E+03  0.27645722004E+04  0.28161213234E+04  0.50400001928E-02 0. -1.
       -1    1    3    3    0  502  0.52654322951E+03 -0.10213757544E+03 -0.12552556045E+04  0.13650445009E+04  0.50400001928E-02 0.  1.
</event>
<event>
 5   0  0.9434114E-09  0.3900197E+04  0.7818609E-02  0.8024988E-01
        2   -1    0    0  501    0  0.00000000000E+00  0.00000000000E+00  0.20950173374E+04  0.20950173374E+04  0.25500000920E-02 0.  1.
       -2   -1    0    0    0  501  0.00000000000E+00  0.00000000000E+00 -0.18152041693E+04  0.18152041693E+04  0.25500000920E-02 0. -1.
    10030    2    1    2    0    0  0.00000000000E+00  0.00000000000E+00  0.27981316809E+03  0.39102215067E+04  0.39001970235E+04 0.  0.
        4    1    3    3  502    0 -0.75326392931E+03  0.13585492056E+04  0.13218429843E+04  0.20396894321E+04  0.12699999809E+01 0.  1.
       -4    1    3    3    0  502  0.75326392931E+03 -0.13585492056E+04 -0.10420298162E+04  0.18705320746E+04  0.12699999809E+01 0. -1.
</event>
<event>
 5   0  0.9368546E-09  0.3896106E+04  0.7818609E-02  0.8025840E-01
        2   -1    0    0  501    0  0.00000000000E+00  0.00000000000E+00  0.28332711362E+04  0.28332711362E+04  0.25500000920E-02 0. -1.
       -2   -1    0    0    0  501  0.00000000000E+00  0.00000000000E+00 -0.13394094848E+04  0.13394094848E+04  0.25500000920E-02 0.  1.
    10030    2    1    2    0    0  0.00000000000E+00  0.00000000000E+00  0.14938616514E+04  0.41726806210E+04  0.38961058675E+04 0.  0.
        5    1    3    3  502    0 -0.70439154190E+03 -0.18033414672E+03 -0.11886254479E+04  0.13933916873E+04  0.46999998093E+01 0.  1.
       -5    1    3    3    0  502  0.70439154190E+03  0.18033414672E+03  0.26824870993E+04  0.27792889337E+04  0.46999998093E+01 0. -1.
</event>
<event>
 5   0  0.9078515E-09  0.3900693E+04  0.7818609E-02  0.8024885E-01
       -2   -1    0    0    0  501  0.00000000000E+00  0.00000000000E+00  0.13309915641E+04  0.13309915641E+04  0.25500000920E-02 0.  1.
        2   -1    0    0  501    0  0.00000000000E+00  0.00000000000E+00 -0.28579085081E+04  0.28579085081E+04  0.25500000920E-02 0. -1.
    10030    2    1    2    0    0  0.00000000000E+00  0.00000000000E+00 -0.15269169440E+04  0.41889000722E+04  0.39006933308E+04 0.  0.
        3    1    3    3  502    0 -0.90918627174E+03  0.23711587191E+02 -0.26162371811E+04  0.27698156824E+04  0.10100000352E+00 0. -1.
       -3    1    3    3    0  502  0.90918627174E+03 -0.23711587191E+02  0.10893202371E+04  0.14190843898E+04  0.10100000352E+00 0.  1.
</event>
<event>
 5   0  0.2904500E-09  0.3899776E+04  0.7818609E-02  0.8025076E-01
       -1   -1    0    0    0  501  0.00000000000E+00  0.00000000000E+00  0.17397814397E+04  0.17397814397E+04  0.50400001928E-02 0. -1.
        1   -1    0    0  501    0  0.00000000000E+00  0.00000000000E+00 -0.21853688614E+04  0.21853688615E+04  0.50400001928E-02 0.  1.
    10030    2    1    2    0    0  0.00000000000E+00  0.00000000000E+00 -0.44558742177E+03  0.39251503011E+04  0.38997764982E+04 0.  0.
        4    1    3    3  502    0  0.60771141818E+03  0.54302762505E+03  0.15601353957E+04  0.17601750581E+04  0.12699999809E+01 0. -1.
       -4    1    3    3    0  502 -0.60771141818E+03 -0.54302762505E+03 -0.20057228175E+04  0.21649752430E+04  0.12699999809E+01 0.  1.
</event>
<event>
 5   0  0.2929054E-09  0.3913329E+04  0.7818609E-02  0.8022263E-01
       -1   -1    0    0    0  501  0.00000000000E+00  0.00000000000E+00  0.11738524389E+04  0.11738524389E+04  0.50400001928E-02 0.  1.
        1   -1    0    0  501    0  0.00000000000E+00  0.00000000000E+00 -0.32615144787E+04  0.32615144787E+04  0.50400001928E-02 0. -1.
    10030    2    1    2    0    0  0.00000000000E+00  0.00000000000E+00 -0.20876620398E+04  0.44353669176E+04  0.39133293883E+04 0.  0.
        1    1    3    3  502    0  0.17006397003E+04 -0.62493101187E+03 -0.18811846195E+04  0.26118134950E+04  0.50400001928E-02 0. -1.
       -1    1    3    3    0  502 -0.17006397003E+04  0.62493101187E+03 -0.20647742030E+03  0.18235534226E+04  0.50400001928E-02 0.  1.
</event>
<event>
 5   0  0.2929054E-09  0.3899565E+04  0.7818609E-02  0.8025120E-01
       -1   -1    0    0    0  501  0.00000000000E+00  0.00000000000E+00  0.17148674666E+04  0.17148674666E+04  0.50400001928E-02 0.  1.
        1   -1    0    0  501    0  0.00000000000E+00  0.00000000000E+00 -0.22168777083E+04  0.22168777083E+04  0.50400001928E-02 0. -1.
    10030    2    1    2    0    0  0.00000000000E+00  0.00000000000E+00 -0.50201024167E+03  0.39317451749E+04  0.38995648267E+04 0.  0.
        1    1    3    3  502    0  0.11477684547E+04  0.10045060344E+04 -0.14756256572E+04  0.21222337004E+04  0.50400001928E-02 0. -1.
       -1    1    3    3    0  502 -0.11477684547E+04 -0.10045060344E+04  0.97361541555E+03  0.18095114745E+04  0.50400001928E-02 0.  1.
</event>
<event>
 5   0  0.9368546E-09  0.3899823E+04  0.7818609E-02  0.8025066E-01
       -2   -1    0    0    0  501  0.00000000000E+00  0.00000000000E+00  0.20687600139E+04  0.20687600139E+04  0.25500000920E-02 0.  1.
        2   -1    0    0  501    0  0.00000000000E+00  0.00000000000E+00 -0.18378908071E+04  0.18378908071E+04  0.25500000920E-02 0. -1.
    10030    2    1    2    0    0  0.00000000000E+00  0.00000000000E+00  0.23086920681E+03  0.39066508210E+04  0.38998230789E+04 0.  0.
        5    1    3    3  502    0  0.35321584450E+03  0.16323360024E+04  0.11236014205E+04  0.20129044935E+04  0.46999998093E+01 0.  1.
       -5    1    3    3    0  502 -0.35321584450E+03 -0.16323360024E+04 -0.89273221373E+03  0.18937463275E+04  0.46999998093E+01 0. -1.
</event>
<event>
 5   0  0.2929054E-09  0.3900051E+04  0.7818609E-02  0.8025019E-01
        1   -1    0    0  501    0  0.00000000000E+00  0.00000000000E+00  0.15179416129E+04  0.15179416129E+04  0.50400001928E-02 0. -1.
       -1   -1    0    0    0  501  0.00000000000E+00  0.00000000000E+00 -0.25051024163E+04  0.25051024163E+04  0.50400001928E-02 0.  1.
    10030    2    1    2    0    0  0.00000000000E+00  0.00000000000E+00 -0.98716080348E+03  0.40230440292E+04  0.39000508726E+04 0.  0.
        1    1    3    3  502    0 -0.17961312181E+04  0.75577934076E+03 -0.41841659264E+03  0.19930785759E+04  0.50400001928E-02 0. -1.
       -1    1    3    3    0  502  0.17961312181E+04 -0.75577934076E+03 -0.56874421083E+03  0.20299654534E+04  0.50400001928E-02 0.  1.
</event>
<event>
 5   0  0.9277261E-09  0.3902032E+04  0.7818609E-02  0.8024607E-01
       -2   -1    0    0    0  501  0.00000000000E+00  0.00000000000E+00  0.21868925962E+04  0.21868925962E+04  0.25500000920E-02 0.  1.
        2   -1    0    0  501    0  0.00000000000E+00  0.00000000000E+00 -0.17405805804E+04  0.17405805804E+04  0.25500000920E-02 0. -1.
    10030    2    1    2    0    0  0.00000000000E+00  0.00000000000E+00  0.44631201582E+03  0.39274731766E+04  0.39020316680E+04 0.  0.
        1    1    3    3  502    0  0.98410437086E+03 -0.41505746386E+03 -0.14201952805E+04  0.17769886735E+04  0.50400001928E-02 0. -1.
       -1    1    3    3    0  502 -0.98410437086E+03  0.41505746386E+03  0.18665072963E+04  0.21504845031E+04  0.50400001928E-02 0.  1.
</event>
<event>
 5   0  0.2929054E-09  0.3896981E+04  0.7818609E-02  0.8025657E-01
        1   -1    0    0  501    0  0.00000000000E+00  0.00000000000E+00  0.18609774663E+04  0.18609774663E+04  0.50400001928E-02 0. -1.
       -1   -1    0    0    0  501  0.00000000000E+00  0.00000000000E+00 -0.20401190613E+04  0.20401190614E+04  0.50400001928E-02 0.  1.
    10030    2    1    2    0    0  0.00000000000E+00  0.00000000000E+00 -0.17914159502E+03  0.39010965277E+04  0.38969811915E+04 0.  0.
        1    1    3    3  502    0 -0.15718277060E+04 -0.70012095953E+02 -0.12401633541E+04  0.20033844304E+04  0.50400001928E-02 0.  1.
       -1    1    3    3    0  502  0.15718277060E+04  0.70012095953E+02  0.10610217591E+04  0.18977120973E+04  0.50400001928E-02 0. -1.
</event>
<event>
 5   0  0.9434114E-09  0.3900462E+04  0.7818609E-02  0.8024933E-01
        2   -1    0    0  501    0  0.00000000000E+00  0.00000000000E+00  0.30782225775E+04  0.30782225775E+04  0.25500000920E-02 0. -1.
       -2   -1    0    0    0  501  0.00000000000E+00  0.00000000000E+00 -0.12355836375E+04  0.12355836375E+04  0.25500000920E-02 0.  1.
    10030    2    1    2    0    0  0.00000000000E+00  0.00000000000E+00  0.18426389400E+04  0.43138062150E+04  0.39004622544E+04 0.  0.
        4    1    3    3  502    0 -0.58328203600E+03 -0.59235047365E+03  0.28724461852E+04  0.29903253530E+04  0.12699999809E+01 0. -1.
       -4    1    3    3    0  502  0.58328203600E+03  0.59235047365E+03 -0.10298072452E+04  0.13234808621E+04  0.12699999809E+01 0.  1.
</event>
<event>
 5   0  0.9078515E-09  0.3908306E+04  0.7818609E-02  0.8023304E-01
        2   -1    0    0  501    0  0.00000000000E+00  0.00000000000E+00  0.20907900507E+04  0.20907900507E+04  0.25500000920E-02 0.  1.
       -2   -1    0    0    0  501  0.00000000000E+00  0.00000000000E+00 -0.18264454495E+04  0.18264454495E+04  0.25500000920E-02 0. -1.
    10030    2    1    2    0    0  0.00000000000E+00  0.00000000000E+00  0.26434460117E+03  0.39172355003E+04  0.39083060136E+04 0.  0.
        3    1    3    3  502    0 -0.34051794045E+03 -0.33946514668E+02 -0.17961800859E+04  0.18284878301E+04  0.10100000352E+00 0. -1.
       -3    1    3    3    0  502  0.34051794045E+03  0.33946514668E+02  0.20605246870E+04  0.20887476702E+04  0.10100000352E+00 0.  1.
</event>
<event>
 5   0  0.6335942E-09  0.3893812E+04  0.7818609E-02  0.8026317E-01
       -2   -1    0    0    0  501  0.00000000000E+00  0.00000000000E+00  0.17204021659E+04  0.17204021659E+04  0.25500000920E-02 0. -1.
        2   -1    0    0  501    0  0.00000000000E+00  0.00000000000E+00 -0.22032312417E+04  0.22032312417E+04  0.25500000920E-02 0.  1.
    10030    2    1    2    0    0  0.00000000000E+00  0.00000000000E+00 -0.48282907584E+03  0.39236334076E+04  0.38938124249E+04 0.  0.
        2    1    3    3  502    0 -0.36667356087E+03  0.14796765241E+03 -0.21623458082E+04  0.21982000183E+04  0.25500000920E-02 0.  1.
       -2    1    3    3    0  502  0.36667356087E+03 -0.14796765241E+03  0.16795167324E+04  0.17254333892E+04  0.25500000920E-02 0. -1.
</event>
<event>
 5   0  0.2904500E-09  0.3899793E+04  0.7818609E-02  0.8025072E-01
       -1   -1    0    0    0  501  0.00000000000E+00  0.00000000000E+00  0.13525894426E+04  0.13525894426E+04  0.50400001928E-02 0.  1.
        1   -1    0    0  501    0  0.00000000000E+00  0.00000000000E+00 -0.28109759534E+04  0.28109759534E+04  0.50400001928E-02 0. -1.
    10030    2    1    2    0    0  0.00000000000E+00  0.00000000000E+00 -0.14583865108E+04  0.41635653960E+04  0.38997930191E+04 0.  0.
        5    1    3    3  502    0  0.10826810291E+03  0.11449198746E+03  0.13457744785E+04  0.13549765438E+04  0.46999998093E+01 0.  1.
       -5    1    3    3    0  502 -0.10826810291E+03 -0.11449198746E+03 -0.28041609893E+04  0.28085888522E+04  0.46999998093E+01 0. -1.
</event>
<event>
 5   0  0.2929054E-09  0.3903381E+04  0.7818609E-02  0.8024326E-01
        1   -1    0    0  501    0  0.00000000000E+00  0.00000000000E+00  0.20542133486E+04  0.20542133486E+04  0.50400001928E-02 0.  1.
       -1   -1    0    0    0  501  0.00000000000E+00  0.00000000000E+00 -0.18542847454E+04  0.18542847454E+04  0.50400001928E-02 0. -1.
    10030    2    1    2    0    0  0.00000000000E+00  0.00000000000E+00  0.19992860322E+03  0.39084980940E+04  0.39033813424E+04 0.  0.
        1    1    3    3  502    0  0.12229488617E+03 -0.73787869704E+03  0.19050129797E+04  0.20465814090E+04  0.50400001928E-02 0.  1.
       -1    1    3    3    0  502 -0.12229488617E+03  0.73787869704E+03 -0.17050843765E+04  0.18619166850E+04  0.50400001928E-02 0. -1.
</event>
<event>
 5   0  0.9434114E-09  0.3899590E+04  0.7818609E-02  0.8025115E-01
       -2   -1    0    0    0  501  0.00000000000E+00  0.00000000000E+00  0.20974782463E+04  0.20974782463E+04  0.25500000920E-02 0.  1.
        2   -1    0    0  501    0  0.00000000000E+00  0.00000000000E+00 -0.18125100345E+04  0.18125100345E+04  0.25500000920E-02 0. -1.
    10030    2    1    2    0    0  0.00000000000E+00  0.00000000000E+00  0.28496821181E+03  0.39099882808E+04  0.38995899110E+04 0.  0.
        4    1    3    3  502    0  0.19201791800E+04 -0.31330932558E+03  0.27107560474E+03  0.19643661607E+04  0.12699999809E+01 0.  1.
       -4    1    3    3    0  502 -0.19201791800E+04  0.31330932558E+03  0.13892607070E+02  0.19456221201E+04  0.12699999809E+01 0. -1.
</event>
<event>
 5   0  0.6335942E-09  0.3896655E+04  0.7818609E-02  0.8025725E-01
       -2   -1    0    0    0  501  0.00000000000E+00  0.00000000000E+00  0.35100513264E+04  0.35100513264E+04  0.25500000920E-02 0. -1.
        2   -1    0    0  501    0  0.00000000000E+00  0.00000000000E+00 -0.10814601362E+04  0.10814601362E+04  0.25500000920E-02 0.  1.
    10030    2    1    2    0    0  0.00000000000E+00  0.00000000000E+00  0.24285911902E+04  0.45915114627E+04  0.38966552763E+04 0.  0.
        2    1    3    3  502    0  0.11179716313E+04  0.15812497422E+04  0.96220846245E+03  0.21624191178E+04  0.25500000920E-02 0.  1.
       -2    1    3    3    0  502 -0.11179716313E+04 -0.15812497422E+04  0.14663827277E+04  0.24290923449E+04  0.25500000920E-02 0. -1.
</event>
<event>
 5   0  0.9368546E-09  0.3894741E+04  0.7818609E-02  0.8026124E-01
        2   -1    0    0  501    0  0.00000000000E+00  0.00000000000E+00  0.15076498834E+04  0.15076498834E+04  0.25500000920E-02 0.  1.
       -2   -1    0    0    0  501  0.00000000000E+00  0.00000000000E+00 -0.25153404370E+04  0.25153404370E+04  0.25500000920E-02 0. -1.
    10030    2    1    2    0    0  0.00000000000E+00  0.00000000000E+00 -0.10076905536E+04  0.40229903205E+04  0.38947414377E+04 0.  0.
        5    1    3    3  502    0  0.58778537628E+03  0.47453665152E+03  0.13501262517E+04  0.15471068702E+04  0.46999998093E+01 0.  1.
       -5    1    3    3    0  502 -0.58778537628E+03 -0.47453665152E+03 -0.23578168053E+04  0.24758834503E+04  0.46999998093E+01 0. -1.
</event>
<event>
 5   0  0.9277261E-09  0.3899835E+04  0.7818609E-02  0.8025064E-01
       -2   -1    0    0    0  501  0.00000000000E+00  0.00000000000E+00  0.26624571642E+04  0.26624571642E+04  0.25500000920E-02 0. -1.
        2   -1    0    0  501    0  0.00000000000E+00  0.00000000000E+00 -0.14280712030E+04  0.14280712030E+04  0.25500000920E-02 0.  1.
    10030    2    1    2    0    0  0.00000000000E+00  0.00000000000E+00  0.12343859613E+04  0.40905283672E+04  0.38998350762E+04 0.  0.
        1    1    3    3  502    0  0.11079886830E+04 -0.16007116783E+04  0.50104628445E+03  0.20102149581E+04  0.50400001928E-02 0.  1.
       -1    1    3    3    0  502 -0.11079886830E+04  0.16007116783E+04  0.73333967680E+03  0.20803134091E+04  0.50400001928E-02 0. -1.
</event>
<event>
 5   0  0.9434114E-09  0.3900061E+04  0.7818609E-02  0.8025017E-01
       -2   -1    0    0    0  501  0.00000000000E+00  0.00000000000E+00  0.37522417692E+04  0.37522417692E+04  0.25500000920E-02 0. -1.
        2   -1    0    0  501    0  0.00000000000E+00  0.00000000000E+00 -0.10134259039E+04  0.10134259039E+04  0.25500000920E-02 0.  1.
    10030    2    1    2    0    0  0.00000000000E+00  0.00000000000E+00  0.27388158653E+04  0.47656676732E+04  0.39000610287E+04 0.  0.
        4    1    3    3  502    0  0.12456143087E+04 -0.79317457615E+02 -0.46138145035E+03  0.13306843054E+04  0.12699999809E+01 0.  1.
       -4    1    3    3    0  502 -0.12456143087E+04  0.79317457615E+02  0.32001973156E+04  0.34349833678E+04  0.12699999809E+01 0. -1.
</event>
<event>
 5   0  0.2904500E-09  0.3898804E+04  0.7818609E-02  0.8025278E-01
        1   -1    0    0  501    0  0.00000000000E+00  0.00000000000E+00  0.24669063084E+04  0.24669063084E+04  0.50400001928E-02 0.  1.
       -1   -1    0    0    0  501  0.00000000000E+00  0.00000000000E+00 -0.15404594196E+04  0.15404594196E+04  0.50400001928E-02 0. -1.
    10030    2    1    2    0    0  0.00000000000E+00  0.00000000000E+00  0.92644688888E+03  0.40073657280E+04  0.38988044629E+04 0.  0.
        5    1    3    3  502    0  0.72943138064E+03  0.14755781310E+04  0.15366920353E+04  0.22518537832E+04  0.46999998093E+01 0.  1.
       -5    1    3    3    0  502 -0.72943138064E+03 -0.14755781310E+04 -0.61024514641E+03  0.17555119448E+04  0.46999998093E+01 0. -1.
</event>
<event>
 5   0  0.2904500E-09  0.3899541E+04  0.7818609E-02  0.8025125E-01
       -1   -1    0    0    0  501  0.00000000000E+00  0.00000000000E+00  0.20179241621E+04  0.20179241621E+04  0.50400001928E-02 0.  1.
        1   -1    0    0  501    0  0.00000000000E+00  0.00000000000E+00 -0.18839182087E+04  0.18839182087E+04  0.50400001928E-02 0. -1.
    10030    2    1    2    0    0  0.00000000000E+00  0.00000000000E+00  0.13400595334E+03  0.39018423708E+04  0.38995405231E+04 0.  0.
        2    1    3    3  502    0  0.12693923415E+04 -0.10976768478E+04  0.10602382553E+04  0.19850331325E+04  0.25500000920E-02 0.  1.
       -2    1    3    3    0  502 -0.12693923415E+04  0.10976768478E+04 -0.92623230199E+03  0.19168092383E+04  0.25500000920E-02 0. -1.
</event>
<event>
 5   0  0.9434114E-09  0.3900234E+04  0.7818609E-02  0.8024980E-01
       -2   -1    0    0    0  501  0.00000000000E+00  0.00000000000E+00  0.17431323687E+04  0.17431323687E+04  0.25500000920E-02 0. -1.
        2   -1    0    0  501    0  0.00000000000E+00  0.00000000000E+00 -0.21816801120E+04  0.21816801120E+04  0.25500000920E-02 0.  1.
    10030    2    1    2    0    0  0.00000000000E+00  0.00000000000E+00 -0.43854774331E+03  0.39248124808E+04  0.39002344655E+04 0.  0.
        4    1    3    3  502    0  0.15455662904E+04  0.75224862303E+03 -0.11461112910E+04  0.20659685024E+04  0.12699999809E+01 0.  1.
       -4    1    3    3    0  502 -0.15455662904E+04 -0.75224862303E+03  0.70756354768E+03  0.18588439783E+04  0.12699999809E+01 0. -1.
</event>
<event>
 5   0  0.9277261E-09  0.3899117E+04  0.7818609E-02  0.8025213E-01
       -2   -1    0    0    0  501  0.00000000000E+00  0.00000000000E+00  0.22941592913E+04  0.22941592913E+04  0.25500000920E-02 0.  1.
        2   -1    0    0  501    0  0.00000000000E+00  0.00000000000E+00 -0.16567197604E+04  0.16567197604E+04  0.25500000920E-02 0. -1.
    10030    2    1    2    0    0  0.00000000000E+00  0.00000000000E+00  0.63743953097E+03  0.39508790517E+04  0.38991173521E+04 0.  0.
        1    1    3    3  502    0 -0.57632617776E+03  0.12595235780E+03 -0.15641089958E+04  0.16716616914E+04  0.50400001928E-02 0. -1.
       -1    1    3    3    0  502  0.57632617776E+03 -0.12595235780E+03  0.22015485268E+04  0.22792173603E+04  0.50400001928E-02 0.  1.
</event>
<event>
 5   0  0.2904500E-09  0.3900221E+04  0.7818609E-02  0.8024983E-01
       -1   -1    0    0    0  501  0.00000000000E+00  0.00000000000E+00  0.22716361912E+04  0.22716361912E+04  0.50400001928E-02 0.  1.
        1   -1    0    0  501    0  0.00000000000E+00  0.00000000000E+00 -0.16740929026E+04  0.16740929026E+04  0.50400001928E-02 0. -1.
    10030    2    1    2    0    0  0.00000000000E+00  0.00000000000E+00  0.59754328863E+03  0.39457290938E+04  0.39002205194E+04 0.  0.
        5    1    3    3  502    0  0.11097354995E+04  0.13994556231E+04  0.10907980279E+04  0.20928094389E+04  0.46999998093E+01 0.  1.
       -5    1    3    3    0  502 -0.11097354995E+04 -0.13994556231E+04 -0.49325473926E+03  0.18529196549E+04  0.46999998093E+01 0. -1.
</event>
<event>
 5   0  0.6335942E-09  0.3900142E+04  0.7818609E-02  0.8025000E-01
        2   -1    0    0  501    0  0.00000000000E+00  0.00000000000E+00  0.20672880088E+04  0.20672880089E+04  0.25500000920E-02 0.  1.
       -2   -1    0    0    0  501  0.00000000000E+00  0.00000000000E+00 -0.18395000139E+04  0.18395000139E+04  0.25500000920E-02 0. -1.
    10030    2    1    2    0    0  0.00000000000E+00  0.00000000000E+00  0.22778799493E+03  0.39067880228E+04  0.39001417005E+04 0.  0.
        2    1    3    3  502    0 -0.19103741762E+03  0.34110476318E+03 -0.17998403160E+04  0.18418124002E+04  0.25500000920E-02 0. -1.
       -2    1    3    3    0  502  0.19103741762E+03 -0.34110476318E+03  0.20276283109E+04  0.20649756226E+04  0.25500000920E-02 0.  1.
</event>
<event>
 5   0  0.9434114E-09  0.3904508E+04  0.7818609E-02  0.8024092E-01
        2   -1    0    0  501    0  0.00000000000E+00  0.00000000000E+00  0.21064297643E+04  0.21064297643E+04  0.25500000920E-02 0.  1.
       -2   -1    0    0    0  501  0.00000000000E+00  0.00000000000E+00 -0.18093627113E+04  0.18093627113E+04  0.25500000920E-02 0. -1.
    10030    2    1    2    0    0  0.00000000000E+00  0.00000000000E+00  0.29706705299E+03  0.39157924755E+04  0.39045078918E+04 0.  0.
        4    1    3    3  502    0  0.10005317738E+04  0.10701503836E+04  0.14426147881E+04  0.20560702113E+04  0.12699999809E+01 0.  1.
       -4    1    3    3    0  502 -0.10005317738E+04 -0.10701503836E+04 -0.11455477351E+04  0.18597222643E+04  0.12699999809E+01 0. -1.
</event>
<event>
 5   0  0.2929054E-09  0.3904783E+04  0.7818609E-02  0.8024035E-01
       -1   -1    0    0    0  501  0.00000000000E+00  0.00000000000E+00  0.30616692860E+04  0.30616692860E+04  0.50400001928E-02 0. -1.
        1   -1    0    0  501    0  0.00000000000E+00  0.00000000000E+00 -0.12450177897E+04  0.12450177898E+04  0.50400001928E-02 0.  1.
    10030    2    1    2    0    0  0.00000000000E+00  0.00000000000E+00  0.18166514962E+04  0.43066870757E+04  0.39047830810E+04 0.  0.
        1    1    3    3  502    0 -0.76833748784E+03  0.17406317909E+04  0.13912149488E+04  0.23570363935E+04  0.50400001928E-02 0. -1.
       -1    1    3    3    0  502  0.76833748784E+03 -0.17406317909E+04  0.42543654746E+03  0.19496506822E+04  0.50400001928E-02 0.  1.
</event>
<event>
 5   0  0.6335942E-09  0.3900430E+04  0.7818609E-02  0.8024940E-01
       -2   -1    0    0    0  501  0.00000000000E+00  0.00000000000E+00  0.21172605193E+04  0.21172605193E+04  0.25500000920E-02 0.  1.
        2   -1    0    0  501    0  0.00000000000E+00  0.00000000000E+00 -0.17963486089E+04  0.17963486089E+04  0.25500000920E-02 0. -1.
    10030    2    1    2    0    0  0.00000000000E+00  0.00000000000E+00  0.32091191032E+03  0.39136091282E+04  0.39004297140E+04 0.  0.
        2    1    3    3  502    0 -0.65957699260E+03  0.14804111077E+04 -0.92795778992E+03  0.18675557601E+04  0.25500000920E-02 0. -1.
       -2    1    3    3    0  502  0.65957699260E+03 -0.14804111077E+04  0.12488697002E+04  0.20460533681E+04  0.25500000920E-02 0.  1.
</event>
<event>
 5   0  0.2904500E-09  0.3900163E+04  0.7818609E-02  0.8024995E-01
       -1   -1    0    0    0  501  0.00000000000E+00  0.00000000000E+00  0.26521751702E+04  0.26521751702E+04  0.50400001928E-02 0.  1.
        1   -1    0    0  501    0  0.00000000000E+00  0.00000000000E+00 -0.14338487881E+04  0.14338487881E+04  0.50400001928E-02 0. -1.
    10030    2    1    2    0    0  0.00000000000E+00  0.00000000000E+00  0.12183263821E+04  0.40860239583E+04  0.39001631523E+04 0.  0.
        5    1    3    3  502    0  0.22653907431E+03  0.19351454729E+04  0.52348508730E+03  0.20174654099E+04  0.46999998093E+01 0.  1.
       -5    1    3    3    0  502 -0.22653907431E+03 -0.19351454729E+04  0.69484129483E+03  0.20685585484E+04  0.46999998093E+01 0. -1.
</event>
<event>
 5   0  0.2904500E-09  0.3896909E+04  0.7818609E-02  0.8025672E-01
        3   -1    0    0  501    0  0.00000000000E+00  0.00000000000E+00  0.15110751629E+04  0.15110751663E+04  0.10100000352E+00 0. -1.
       -3   -1    0    0    0  501  0.00000000000E+00  0.00000000000E+00 -0.25124325998E+04  0.25124326018E+04  0.10100000352E+00 0.  1.
    10030    2    1    2    0    0  0.00000000000E+00  0.00000000000E+00 -0.10013574369E+04  0.40235077681E+04  0.38969087805E+04 0.  0.
        3    1    3    3  502    0  0.45851714497E+03 -0.13036238862E+04 -0.19189120458E+04  0.23647191500E+04  0.10100000352E+00 0.  1.
       -3    1    3    3    0  502 -0.45851714497E+03  0.13036238862E+04  0.91755460895E+03  0.16587886181E+04  0.10100000352E+00 0. -1.
</event>
<event>
 5   0  0.2929054E-09  0.3887427E+04  0.7818609E-02  0.8027649E-01
       -1   -1    0    0    0  501  0.00000000000E+00  0.00000000000E+00  0.15760613047E+04  0.15760613047E+04  0.50400001928E-02 0. -1.
        1   -1    0    0  501    0  0.00000000000E+00  0.00000000000E+00 -0.23971286971E+04  0.23971286971E+04  0.50400001928E-02 0.  1.
    10030    2    1    2    0    0  0.00000000000E+00  0.00000000000E+00 -0.82106739235E+03  0.39731900018E+04  0.38874268003E+04 0.  0.
        1    1    3    3  502    0  0.11706290556E+04  0.14084856448E+04  0.25484148196E+03  0.18490939345E+04  0.50400001928E-02 0.  1.
       -1    1    3    3    0  502 -0.11706290556E+04 -0.14084856448E+04 -0.10759088743E+04  0.21240960674E+04  0.50400001928E-02 0. -1.
</event>
<event>
 5   0  0.9368546E-09  0.3899339E+04  0.7818609E-02  0.8025167E-01
        2   -1    0    0  501    0  0.00000000000E+00  0.00000000000E+00  0.23274222972E+04  0.23274222972E+04  0.25500000920E-02 0.  1.
       -2   -1    0    0    0  501  0.00000000000E+00  0.00000000000E+00 -0.16332278391E+04  0.16332278391E+04  0.25500000920E-02 0. -1.
    10030    2    1    2    0    0  0.00000000000E+00  0.00000000000E+00  0.69419445809E+03  0.39606501362E+04  0.38993388614E+04 0.  0.
        5    1    3    3  502    0  0.78284190379E+03 -0.17304790943E+04 -0.10003973666E+03  0.19019540954E+04  0.46999998093E+01 0. -1.
       -5    1    3    3    0  502 -0.78284190379E+03  0.17304790943E+04  0.79423419475E+03  0.20586960408E+04  0.46999998093E+01 0.  1.
</event>
<event>
 5   0  0.2904500E-09  0.3916082E+04  0.7818609E-02  0.8021693E-01
       -1   -1    0    0    0  501  0.00000000000E+00  0.00000000000E+00  0.10680778265E+04  0.10680778265E+04  0.50400001928E-02 0.  1.
        1   -1    0    0  501    0  0.00000000000E+00  0.00000000000E+00 -0.35895550410E+04  0.35895550410E+04  0.50400001928E-02 0. -1.
    10030    2    1    2    0    0  0.00000000000E+00  0.00000000000E+00 -0.25214772145E+04  0.46576328675E+04  0.39160817899E+04 0.  0.
        5    1    3    3  502    0 -0.12615715414E+04  0.11864243132E+04 -0.23473849945E+04  0.29170882413E+04  0.46999998093E+01 0. -1.
       -5    1    3    3    0  502  0.12615715414E+04 -0.11864243132E+04 -0.17409221994E+03  0.17405446262E+04  0.46999998093E+01 0.  1.
</event>
<event>
 5   0  0.9277261E-09  0.3900134E+04  0.7818609E-02  0.8025001E-01
        2   -1    0    0  501    0  0.00000000000E+00  0.00000000000E+00  0.28419028081E+04  0.28419028081E+04  0.25500000920E-02 0. -1.
       -2   -1    0    0    0  501  0.00000000000E+00  0.00000000000E+00 -0.13381036699E+04  0.13381036699E+04  0.25500000920E-02 0.  1.
    10030    2    1    2    0    0  0.00000000000E+00  0.00000000000E+00  0.15037991382E+04  0.41800064780E+04  0.39001336270E+04 0.  0.
        1    1    3    3  502    0 -0.91802420144E+03  0.98830949391E+03  0.22612313598E+04  0.26330004468E+04  0.50400001928E-02 0. -1.
       -1    1    3    3    0  502  0.91802420144E+03 -0.98830949391E+03 -0.75743222166E+03  0.15470060312E+04  0.50400001928E-02 0.  1.
</event>
<event>
 5   0  0.2929054E-09  0.3900857E+04  0.7818609E-02  0.8024851E-01
       -1   -1    0    0    0  501  0.00000000000E+00  0.00000000000E+00  0.20192319567E+04  0.20192319568E+04  0.50400001928E-02 0. -1.
        1   -1    0    0  501    0  0.00000000000E+00  0.00000000000E+00 -0.18839696807E+04  0.18839696807E+04  0.50400001928E-02 0.  1.
    10030    2    1    2    0    0  0.00000000000E+00  0.00000000000E+00  0.13526227607E+03  0.39032016374E+04  0.39008572313E+04 0.  0.
        1    1    3    3  502    0  0.57309077331E+03  0.18615765932E+04 -0.33777381293E+02  0.19480865890E+04  0.50400001928E-02 0.  1.
       -1    1    3    3    0  502 -0.57309077331E+03 -0.18615765932E+04  0.16903965736E+03  0.19551150484E+04  0.50400001928E-02 0. -1.
</event>
<event>
 5   0  0.2904500E-09  0.3899958E+04  0.7818609E-02  0.8025038E-01
       -1   -1    0    0    0  501  0.00000000000E+00  0.00000000000E+00  0.18634081895E+04  0.18634081895E+04  0.50400001928E-02 0.  1.
        1   -1    0    0  501    0  0.00000000000E+00  0.00000000000E+00 -0.20405713633E+04  0.20405713633E+04  0.50400001928E-02 0. -1.
    10030    2    1    2    0    0  0.00000000000E+00  0.00000000000E+00 -0.17716317383E+03  0.39039795528E+04  0.38999576355E+04 0.  0.
        3    1    3    3  502    0  0.43495493182E+03  0.18239026631E+04  0.44733082589E+03  0.19276699913E+04  0.10100000352E+00 0. -1.
       -3    1    3    3    0  502 -0.43495493182E+03 -0.18239026631E+04 -0.62449399972E+03  0.19763095616E+04  0.10100000352E+00 0.  1.
</event>
<event>
 5   0  0.9078515E-09  0.3899780E+04  0.7818609E-02  0.8025075E-01
       -2   -1    0    0    0  501  0.00000000000E+00  0.00000000000E+00  0.16784036815E+04  0.16784036815E+04  0.25500000920E-02 0.  1.
        2   -1    0    0  501    0  0.00000000000E+00  0.00000000000E+00 -0.22652897353E+04  0.22652897353E+04  0.25500000920E-02 0. -1.
    10030    2    1    2    0    0  0.00000000000E+00  0.00000000000E+00 -0.58688605378E+03  0.39436934169E+04  0.38997798048E+04 0.  0.
        3    1    3    3  502    0  0.50785256736E+03 -0.17728231106E+04 -0.93402258698E+03  0.20671754195E+04  0.10100000352E+00 0. -1.
       -3    1    3    3    0  502 -0.50785256736E+03  0.17728231106E+04  0.34713653320E+03  0.18765179974E+04  0.10100000352E+00 0.  1.
</event>
<event>
 5   0  0.9078515E-09  0.3898448E+04  0.7818609E-02  0.8025352E-01
        2   -1    0    0  501    0  0.00000000000E+00  0.00000000000E+00  0.18885737209E+04  0.18885737209E+04  0.25500000920E-02 0. -1.
       -2   -1    0    0    0  501  0.00000000000E+00  0.00000000000E+00 -0.20118223990E+04  0.20118223990E+04  0.25500000920E-02 0.  1.
    10030    2    1    2    0    0  0.00000000000E+00  0.00000000000E+00 -0.12324867815E+03  0.39003961199E+04  0.38984483651E+04 0.  0.
        3    1    3    3  502    0  0.12723128856E+04  0.10803961750E+04  0.94557566968E+03  0.19183715311E+04  0.10100000352E+00 0.  1.
       -3    1    3    3    0  502 -0.12723128856E+04 -0.10803961750E+04 -0.10688243478E+04  0.19820245888E+04  0.10100000352E+00 0. -1.
</event>
<event>
 5   0  0.9368546E-09  0.3898729E+04  0.7818609E-02  0.8025294E-01
        2   -1    0    0  501    0  0.00000000000E+00  0.00000000000E+00  0.11378861188E+04  0.11378861188E+04  0.25500000920E-02 0.  1.
       -2   -1    0    0    0  501  0.00000000000E+00  0.00000000000E+00 -0.33395455026E+04  0.33395455026E+04  0.25500000920E-02 0. -1.
    10030    2    1    2    0    0  0.00000000000E+00  0.00000000000E+00 -0.22016593837E+04  0.44774316214E+04  0.38987292650E+04 0.  0.
        5    1    3    3  502    0  0.86405034565E+03 -0.57471643094E+03  0.79430091999E+03  0.13068351148E+04  0.46999998093E+01 0.  1.
       -5    1    3    3    0  502 -0.86405034565E+03  0.57471643094E+03 -0.29959603037E+04  0.31705965066E+04  0.46999998093E+01 0. -1.
</event>
<event>
 5   0  0.2904500E-09  0.3897237E+04  0.7818609E-02  0.8025604E-01
       -1   -1    0    0    0  501  0.00000000000E+00  0.00000000000E+00  0.22864797590E+04  0.22864797590E+04  0.50400001928E-02 0.  1.
        1   -1    0    0  501    0  0.00000000000E+00  0.00000000000E+00 -0.16606813081E+04  0.16606813081E+04  0.50400001928E-02 0. -1.
    10030    2    1    2    0    0  0.00000000000E+00  0.00000000000E+00  0.62579845085E+03  0.39471610671E+04  0.38972370711E+04 0.  0.
        4    1    3    3  502    0 -0.78392284624E+03  0.17135036684E+04 -0.18993088323E+03  0.18938598691E+04  0.12699999809E+01 0.  1.
       -4    1    3    3    0  502  0.78392284624E+03 -0.17135036684E+04  0.81572933408E+03  0.20533011980E+04  0.12699999809E+01 0. -1.
</event>
<event>
 5   0  0.2904500E-09  0.3903508E+04  0.7818609E-02  0.8024300E-01
       -1   -1    0    0    0  501  0.00000000000E+00  0.00000000000E+00  0.14920896216E+04  0.14920896216E+04  0.50400001928E-02 0.  1.
        1   -1    0    0  501    0  0.00000000000E+00  0.00000000000E+00 -0.25530260089E+04  0.25530260090E+04  0.50400001928E-02 0. -1.
    10030    2    1    2    0    0  0.00000000000E+00  0.00000000000E+00 -0.10609363873E+04  0.40451156306E+04  0.39035079668E+04 0.  0.
        5    1    3    3  502    0 -0.17422917838E+04  0.22096778857E+03 -0.14127740127E+04  0.22539653778E+04  0.46999998093E+01 0. -1.
       -5    1    3    3    0  502  0.17422917838E+04 -0.22096778857E+03  0.35183762532E+03  0.17911502528E+04  0.46999998093E+01 0.  1.
</event>
<event>
 5   0  0.2904500E-09  0.3899542E+04  0.7818609E-02  0.8025124E-01
        1   -1    0    0  501    0  0.00000000000E+00  0.00000000000E+00  0.21459459786E+04  0.21459459786E+04  0.50400001928E-02 0.  1.
       -1   -1    0    0    0  501  0.00000000000E+00  0.00000000000E+00 -0.17715298717E+04  0.17715298717E+04  0.50400001928E-02 0. -1.
    10030    2    1    2    0    0  0.00000000000E+00  0.00000000000E+00  0.37441610685E+03  0.39174758503E+04  0.38995422317E+04 0.  0.
        2    1    3    3  502    0 -0.56189855357E+03  0.63696646700E+03 -0.15758991244E+04  0.17902274478E+04  0.25500000920E-02 0. -1.
       -2    1    3    3    0  502  0.56189855357E+03 -0.63696646700E+03  0.19503152313E+04  0.21272484025E+04  0.25500000920E-02 0.  1.
</event>
<event>
 5   0  0.2929054E-09  0.3914488E+04  0.7818609E-02  0.8022023E-01
        1   -1    0    0  501    0  0.00000000000E+00  0.00000000000E+00  0.25392150623E+04  0.25392150623E+04  0.50400001928E-02 0. -1.
       -1   -1    0    0    0  501  0.00000000000E+00  0.00000000000E+00 -0.15086565516E+04  0.15086565516E+04  0.50400001928E-02 0.  1.
    10030    2    1    2    0    0  0.00000000000E+00  0.00000000000E+00  0.10305585108E+04  0.40478716139E+04  0.39144876751E+04 0.  0.
        1    1    3    3  502    0 -0.40216328913E+03  0.15384833050E+04 -0.66471578177E+03  0.17235176998E+04  0.50400001928E-02 0.  1.
       -1    1    3    3    0  502  0.40216328913E+03 -0.15384833050E+04  0.16952742925E+04  0.23243539141E+04  0.50400001928E-02 0. -1.
</event>
<event>
 5   0  0.2904500E-09  0.3899823E+04  0.7818609E-02  0.8025066E-01
       -1   -1    0    0    0  501  0.00000000000E+00  0.00000000000E+00  0.23332238399E+04  0.23332238399E+04  0.50400001928E-02 0. -1.
        1   -1    0    0  501    0  0.00000000000E+00  0.00000000000E+00 -0.16295712759E+04  0.16295712759E+04  0.50400001928E-02 0.  1.
    10030    2    1    2    0    0  0.00000000000E+00  0.00000000000E+00  0.70365256392E+03  0.39627951158E+04  0.38998228420E+04 0.  0.
        4    1    3    3  502    0  0.14131042797E+04 -0.10415008419E+04 -0.51074181399E+03  0.18282359044E+04  0.12699999809E+01 0.  1.
       -4    1    3    3    0  502 -0.14131042797E+04  0.10415008419E+04  0.12143943779E+04  0.21345592114E+04  0.12699999809E+01 0. -1.
</event>
<event>
 5   0  0.9078515E-09  0.3899522E+04  0.7818609E-02  0.8025129E-01
       -2   -1    0    0    0  501  0.00000000000E+00  0.00000000000E+00  0.12588639606E+04  0.12588639606E+04  0.25500000920E-02 0. -1.
        2   -1    0    0  501    0  0.00000000000E+00  0.00000000000E+00 -0.30198397713E+04  0.30198397713E+04  0.25500000920E-02 0.  1.
    10030    2    1    2    0    0  0.00000000000E+00  0.00000000000E+00 -0.17609758107E+04  0.42787037319E+04  0.38995217424E+04 0.  0.
        3    1    3    3  502    0  0.89439824602E+03  0.12789571092E+04  0.40186749225E+03  0.16115759372E+04  0.10100000352E+00 0. -1.
       -3    1    3    3    0  502 -0.89439824602E+03 -0.12789571092E+04 -0.21628433030E+04  0.26671277947E+04  0.10100000352E+00 0.  1.
</event>
<event>
 5   0  0.9368546E-09  0.3898747E+04  0.7818609E-02  0.8025290E-01
        2   -1    0    0  501    0  0.00000000000E+00  0.00000000000E+00  0.20538902862E+04  0.20538902862E+04  0.25500000920E-02 0.  1.
       -2   -1    0    0    0  501  0.00000000000E+00  0.00000000000E+00 -0.18501751951E+04  0.18501751951E+04  0.25500000920E-02 0. -1.
    10030    2    1    2    0    0  0.00000000000E+00  0.00000000000E+00  0.20371509111E+03  0.39040654813E+04  0.38987469069E+04 0.  0.
        5    1    3    3  502    0 -0.14314502316E+04  0.12942831827E+04  0.37758030918E+03  0.19664200219E+04  0.46999998093E+01 0. -1.
       -5    1    3    3    0  502  0.14314502316E+04 -0.12942831827E+04 -0.17386521807E+03  0.19376454595E+04  0.46999998093E+01 0.  1.
</event>
<event>
 5   0  0.9368546E-09  0.3899909E+04  0.7818609E-02  0.8025048E-01
       -2   -1    0    0    0  501  0.00000000000E+00  0.00000000000E+00  0.11400787966E+04  0.11400787966E+04  0.25500000920E-02 0.  1.
        2   -1    0    0  501    0  0.00000000000E+00  0.00000000000E+00 -0.33351407701E+04  0.33351407701E+04  0.25500000920E-02 0. -1.
    10030    2    1    2    0    0  0.00000000000E+00  0.00000000000E+00 -0.21950619735E+04  0.44752195667E+04  0.38999093710E+04 0.  0.
        5    1    3    3  502    0  0.50282837399E+03  0.20234114992E+03 -0.32469544687E+04  0.32918860440E+04  0.46999998093E+01 0. -1.
       -5    1    3    3    0  502 -0.50282837399E+03 -0.20234114992E+03  0.10518924951E+04  0.11833335227E+04  0.46999998093E+01 0.  1.
</event>
<event>
 5   0  0.2929054E-09  0.3899819E+04  0.7818609E-02  0.8025067E-01
       -1   -1    0    0    0  501  0.00000000000E+00  0.00000000000E+00  0.17563923979E+04  0.17563923980E+04  0.50400001928E-02 0.  1.
        1   -1    0    0  501    0  0.00000000000E+00  0.00000000000E+00 -0.21647485860E+04  0.21647485860E+04  0.50400001928E-02 0. -1.
    10030    2    1    2    0    0  0.00000000000E+00  0.00000000000E+00 -0.40835618805E+03  0.39211409840E+04  0.38998194625E+04 0.  0.
        1    1    3    3  502    0 -0.12121672375E+04  0.28165492841E+03  0.13051850950E+04  0.18033821122E+04  0.50400001928E-02 0.  1.
       -1    1    3    3    0  502  0.12121672375E+04 -0.28165492841E+03 -0.17135412830E+04  0.21177588718E+04  0.50400001928E-02 0. -1.
</event>
<event>
 5   0  0.9277261E-09  0.3906500E+04  0.7818609E-02  0.8023679E-01
       -2   -1    0    0    0  501  0.00000000000E+00  0.00000000000E+00  0.21647510797E+04  0.21647510797E+04  0.25500000920E-02 0.  1.
        2   -1    0    0  501    0  0.00000000000E+00  0.00000000000E+00 -0.17624130750E+04  0.17624130750E+04  0.25500000920E-02 0. -1.
    10030    2    1    2    0    0  0.00000000000E+00  0.00000000000E+00  0.40233800478E+03  0.39271641547E+04  0.39065000228E+04 0.  0.
        1    1    3    3  502    0 -0.14747246490E+04  0.10564193214E+04  0.92912023925E+03  0.20381606885E+04  0.50400001928E-02 0.  1.
       -1    1    3    3    0  502  0.14747246490E+04 -0.10564193214E+04 -0.52678223447E+03  0.18890034663E+04  0.50400001928E-02 0. -1.
</event>
<event>
 5   0  0.9277261E-09  0.3899584E+04  0.7818609E-02  0.8025116E-01
       -2   -1    0    0    0  501  0.00000000000E+00  0.00000000000E+00  0.13302564967E+04  0.13302564967E+04  0.25500000920E-02 0. -1.
        2   -1    0    0  501    0  0.00000000000E+00  0.00000000000E+00 -0.28578611282E+04  0.28578611282E+04  0.25500000920E-02 0.  1.
    10030    2    1    2    0    0  0.00000000000E+00  0.00000000000E+00 -0.15276046315E+04  0.41881176249E+04  0.38995837380E+04 0.  0.
        1    1    3    3  502    0  0.77419963234E+03 -0.13390317418E+04  0.51117342976E+03  0.16290148408E+04  0.50400001928E-02 0. -1.
       -1    1    3    3    0  502 -0.77419963234E+03  0.13390317418E+04 -0.20387780612E+04  0.25591027841E+04  0.50400001928E-02 0.  1.
</event>
<event>
 5   0  0.2929054E-09  0.3899291E+04  0.7818609E-02  0.8025177E-01
        1   -1    0    0  501    0  0.00000000000E+00  0.00000000000E+00  0.23181055825E+04  0.23181055825E+04  0.50400001928E-02 0.  1.
       -1   -1    0    0    0  501  0.00000000000E+00  0.00000000000E+00 -0.16397514436E+04  0.16397514436E+04  0.50400001928E-02 0. -1.
    10030    2    1    2    0    0  0.00000000000E+00  0.00000000000E+00  0.67835413886E+03  0.39578570261E+04  0.38992906920E+04 0.  0.
        1    1    3    3  502    0  0.37305780505E+03  0.70865241764E+03 -0.14650919975E+04  0.16696870773E+04  0.50400001928E-02 0. -1.
       -1    1    3    3    0  502 -0.37305780505E+03 -0.70865241764E+03  0.21434461364E+04  0.22881699488E+04  0.50400001928E-02 0.  1.
</event>
<event>
 5   0  0.6335942E-09  0.3903766E+04  0.7818609E-02  0.8024246E-01
        2   -1    0    0  501    0  0.00000000000E+00  0.00000000000E+00  0.22571531562E+04  0.22571531562E+04  0.25500000920E-02 0.  1.
       -2   -1    0    0    0  501  0.00000000000E+00  0.00000000000E+00 -0.16878994981E+04  0.16878994981E+04  0.25500000920E-02 0. -1.
    10030    2    1    2    0    0  0.00000000000E+00  0.00000000000E+00  0.56925365811E+03  0.39450526542E+04  0.39037662222E+04 0.  0.
        2    1    3    3  502    0  0.13229314550E+04 -0.62400880892E+03 -0.10214476380E+04  0.17840655553E+04  0.25500000920E-02 0. -1.
       -2    1    3    3    0  502 -0.13229314550E+04  0.62400880892E+03  0.15907012962E+04  0.21609870989E+04  0.25500000920E-02 0.  1.
</event>
<event>
 5   0  0.2904500E-09  0.3900043E+04  0.7818609E-02  0.8025020E-01
        1   -1    0    0  501    0  0.00000000000E+00  0.00000000000E+00  0.33073366033E+04  0.33073366033E+04  0.50400001928E-02 0. -1.
       -1   -1    0    0    0  501  0.00000000000E+00  0.00000000000E+00 -0.11497419637E+04  0.11497419637E+04  0.50400001928E-02 0.  1.
    10030    2    1    2    0    0  0.00000000000E+00  0.00000000000E+00  0.21575946397E+04  0.44570785670E+04  0.39000429130E+04 0.  0.
        2    1    3    3  502    0 -0.40346050743E+03 -0.15972512917E+03 -0.10938662036E+04  0.11767904526E+04  0.25500000920E-02 0.  1.
       -2    1    3    3    0  502  0.40346050743E+03  0.15972512917E+03  0.32514608433E+04  0.32802881144E+04  0.25500000920E-02 0. -1.
</event>
<event>
 5   0  0.6335942E-09  0.3897546E+04  0.7818609E-02  0.8025540E-01
       -2   -1    0    0    0  501  0.00000000000E+00  0.00000000000E+00  0.14108765604E+04  0.14108765604E+04  0.25500000920E-02 0. -1.
        2   -1    0    0  501    0  0.00000000000E+00  0.00000000000E+00 -0.26917419713E+04  0.26917419713E+04  0.25500000920E-02 0.  1.
    10030    2    1    2    0    0  0.00000000000E+00  0.00000000000E+00 -0.12808654109E+04  0.41026185318E+04  0.38975457170E+04 0.  0.
        2    1    3    3  502    0  0.33798048010E+03 -0.75114790987E+03 -0.24995030512E+04  0.26317236729E+04  0.25500000920E-02 0.  1.
       -2    1    3    3    0  502 -0.33798048010E+03  0.75114790987E+03  0.12186376403E+04  0.14708948589E+04  0.25500000920E-02 0. -1.
</event>
<event>
 5   0  0.2929054E-09  0.3896511E+04  0.7818609E-02  0.8025755E-01
        1   -1    0    0  501    0  0.00000000000E+00  0.00000000000E+00  0.16060702313E+04  0.16060702313E+04  0.50400001928E-02 0. -1.
       -1   -1    0    0    0  501  0.00000000000E+00  0.00000000000E+00 -0.23633455410E+04  0.23633455410E+04  0.50400001928E-02 0.  1.
    10030    2    1    2    0    0  0.00000000000E+00  0.00000000000E+00 -0.75727530973E+03  0.39694157724E+04  0.38965107056E+04 0.  0.
        1    1    3    3  502    0  0.76136493888E+03 -0.24763278836E+03  0.14307422985E+04  0.16395188601E+04  0.50400001928E-02 0. -1.
       -1    1    3    3    0  502 -0.76136493888E+03  0.24763278836E+03 -0.21880176082E+04  0.23298969123E+04  0.50400001928E-02 0.  1.
</event>
<event>
 5   0  0.6335942E-09  0.3900132E+04  0.7818609E-02  0.8025002E-01
       -2   -1    0    0    0  501  0.00000000000E+00  0.00000000000E+00  0.16055102657E+04  0.16055102657E+04  0.25500000920E-02 0.  1.
        2   -1    0    0  501    0  0.00000000000E+00  0.00000000000E+00 -0.23685663274E+04  0.23685663274E+04  0.25500000920E-02 0. -1.
    10030    2    1    2    0    0  0.00000000000E+00  0.00000000000E+00 -0.76305606165E+03  0.39740765931E+04  0.39001320765E+04 0.  0.
        2    1    3    3  502    0  0.55804735953E+03 -0.17014513282E+04  0.40538587503E+03  0.18359442218E+04  0.25500000920E-02 0.  1.
       -2    1    3    3    0  502 -0.55804735953E+03  0.17014513282E+04 -0.11684419367E+04  0.21381323713E+04  0.25500000920E-02 0. -1.
</event>
<event>
 5   0  0.9078515E-09  0.3902589E+04  0.7818609E-02  0.8024491E-01
        2   -1    0    0  501    0  0.00000000000E+00  0.00000000000E+00  0.21462326322E+04  0.21462326322E+04  0.25500000920E-02 0.  1.
       -2   -1    0    0    0  501  0.00000000000E+00  0.00000000000E+00 -0.17740620585E+04  0.17740620585E+04  0.25500000920E-02 0. -1.
    10030    2    1    2    0    0  0.00000000000E+00  0.00000000000E+00  0.37217057374E+03  0.39202946907E+04  0.39025888236E+04 0.  0.
        3    1    3    3  502    0 -0.16042354645E+04  0.25260317437E+02 -0.92951184781E+03  0.18542388720E+04  0.10100000352E+00 0. -1.
       -3    1    3    3    0  502  0.16042354645E+04 -0.25260317437E+02  0.13016824216E+04  0.20660558187E+04  0.10100000352E+00 0.  1.
</event>
<event>
 5   0  0.9078515E-09  0.3899064E+04  0.7818609E-02  0.8025224E-01
        2   -1    0    0  501    0  0.00000000000E+00  0.00000000000E+00  0.16089869243E+04  0.16089869243E+04  0.25500000920E-02 0. -1.
       -2   -1    0    0    0  501  0.00000000000E+00  0.00000000000E+00 -0.23621542180E+04  0.23621542180E+04  0.25500000920E-02 0.  1.
    10030    2    1    2    0    0  0.00000000000E+00  0.00000000000E+00 -0.75316729368E+03  0.39711411423E+04  0.38990641185E+04 0.  0.
        3    1    3    3  502    0 -0.57769929960E+03  0.17875950604E+04  0.15404903723E+03  0.18849306875E+04  0.10100000352E+00 0. -1.
       -3    1    3    3    0  502  0.57769929960E+03 -0.17875950604E+04 -0.90721633090E+03  0.20862104548E+04  0.10100000352E+00 0.  1.
</event>
<event>
 5   0  0.9368546E-09  0.3900214E+04  0.7818609E-02  0.8024985E-01
        2   -1    0    0  501    0  0.00000000000E+00  0.00000000000E+00  0.18736259048E+04  0.18736259048E+04  0.25500000920E-02 0. -1.
       -2   -1    0    0    0  501  0.00000000000E+00  0.00000000000E+00 -0.20297098426E+04  0.20297098426E+04  0.25500000920E-02 0.  1.
    10030    2    1    2    0    0  0.00000000000E+00  0.00000000000E+00 -0.15608393782E+03  0.39033357474E+04  0.39002138096E+04 0.  0.
        5    1    3    3  502    0  0.19391761789E+04  0.11853411834E+03  0.90735424362E+02  0.19449189179E+04  0.46999998093E+01 0.  1.
       -5    1    3    3    0  502 -0.19391761789E+04 -0.11853411834E+03 -0.24681936218E+03  0.19584168294E+04  0.46999998093E+01 0. -1.
</event>
<event>
 5   0  0.2929054E-09  0.3899539E+04  0.7818609E-02  0.8025125E-01
       -1   -1    0    0    0  501  0.00000000000E+00  0.00000000000E+00  0.23074803612E+04  0.23074803612E+04  0.50400001928E-02 0. -1.
        1   -1    0    0  501    0  0.00000000000E+00  0.00000000000E+00 -0.16475114398E+04  0.16475114399E+04  0.50400001928E-02 0.  1.
    10030    2    1    2    0    0  0.00000000000E+00  0.00000000000E+00  0.65996892133E+03  0.39549918010E+04  0.38995385841E+04 0.  0.
        1    1    3    3  502    0 -0.62411242877E+03 -0.17454589647E+03  0.21950522410E+04  0.22887194967E+04  0.50400001928E-02 0. -1.
       -1    1    3    3    0  502  0.62411242877E+03  0.17454589647E+03 -0.15350833197E+04  0.16662723043E+04  0.50400001928E-02 0.  1.
</event>
<event>
 5   0  0.2929054E-09  0.3897435E+04  0.7818609E-02  0.8025563E-01
       -1   -1    0    0    0  501  0.00000000000E+00  0.00000000000E+00  0.11439420538E+04  0.11439420538E+04  0.50400001928E-02 0. -1.
        1   -1    0    0  501    0  0.00000000000E+00  0.00000000000E+00 -0.33196610762E+04  0.33196610762E+04  0.50400001928E-02 0.  1.
    10030    2    1    2    0    0  0.00000000000E+00  0.00000000000E+00 -0.21757190224E+04  0.44636031300E+04  0.38974350076E+04 0.  0.
        1    1    3    3  502    0  0.23189198679E+03  0.17899596957E+04 -0.24644269864E+03  0.18216650651E+04  0.50400001928E-02 0.  1.
       -1    1    3    3    0  502 -0.23189198679E+03 -0.17899596957E+04 -0.19292763237E+04  0.26419380649E+04  0.50400001928E-02 0. -1.
</event>
<event>
 5   0  0.2904500E-09  0.3901791E+04  0.7818609E-02  0.8024657E-01
       -1   -1    0    0    0  501  0.00000000000E+00  0.00000000000E+00  0.25496625096E+04  0.25496625096E+04  0.50400001928E-02 0. -1.
        1   -1    0    0  501    0  0.00000000000E+00  0.00000000000E+00 -0.14927439031E+04  0.14927439031E+04  0.50400001928E-02 0.  1.
    10030    2    1    2    0    0  0.00000000000E+00  0.00000000000E+00  0.10569186065E+04  0.40424064127E+04  0.39017909560E+04 0.  0.
        3    1    3    3  502    0 -0.18714863406E+03  0.12629841481E+04  0.20566917401E+04  0.24207714666E+04  0.10100000352E+00 0. -1.
       -3    1    3    3    0  502  0.18714863406E+03 -0.12629841481E+04 -0.99977313358E+03  0.16216349461E+04  0.10100000352E+00 0.  1.
</event>
<event>
 5   0  0.9277261E-09  0.3930882E+04  0.7818609E-02  0.8018637E-01
       -2   -1    0    0    0  501  0.00000000000E+00  0.00000000000E+00  0.20382392101E+04  0.20382392101E+04  0.25500000920E-02 0.  1.
        2   -1    0    0  501    0  0.00000000000E+00  0.00000000000E+00 -0.18952431948E+04  0.18952431948E+04  0.25500000920E-02 0. -1.
    10030    2    1    2    0    0  0.00000000000E+00  0.00000000000E+00  0.14299601529E+03  0.39334824049E+04  0.39308823398E+04 0.  0.
        1    1    3    3  502    0  0.18740652303E+04 -0.55833246619E+03  0.26937450645E+03  0.19739347139E+04  0.50400001928E-02 0.  1.
       -1    1    3    3    0  502 -0.18740652303E+04  0.55833246619E+03 -0.12637849116E+03  0.19595476910E+04  0.50400001928E-02 0. -1.
</event>
<event>
 5   0  0.2904500E-09  0.3900758E+04  0.7818609E-02  0.8024872E-01
        1   -1    0    0  501    0  0.00000000000E+00  0.00000000000E+00  0.23272817648E+04  0.23272817648E+04  0.50400001928E-02 0.  1.
       -1   -1    0    0    0  501  0.00000000000E+00  0.00000000000E+00 -0.16345152890E+04  0.16345152890E+04  0.50400001928E-02 0. -1.
    10030    2    1    2    0    0  0.00000000000E+00  0.00000000000E+00  0.69276647574E+03  0.39617970538E+04  0.39007576836E+04 0.  0.
        3    1    3    3  502    0 -0.84854411883E+03 -0.12536667946E+04 -0.90260379503E+03  0.17624985601E+04  0.10100000352E+00 0. -1.
       -3    1    3    3    0  502  0.84854411883E+03  0.12536667946E+04  0.15953702708E+04  0.21992984937E+04  0.10100000352E+00 0.  1.
</event>
<event>
 5   0  0.9277261E-09  0.3898726E+04  0.7818609E-02  0.8025294E-01
       -2   -1    0    0    0  501  0.00000000000E+00  0.00000000000E+00  0.18058330773E+04  0.18058330773E+04  0.25500000920E-02 0. -1.
        2   -1    0    0  501    0  0.00000000000E+00  0.00000000000E+00 -0.21043006776E+04  0.21043006776E+04  0.25500000920E-02 0.  1.
    10030    2    1    2    0    0  0.00000000000E+00  0.00000000000E+00 -0.29846760030E+03  0.39101337549E+04  0.38987258268E+04 0.  0.
        1    1    3    3  502    0  0.18234918628E+04  0.18124862809E+03  0.51757412004E+03  0.19041682197E+04  0.50400001928E-02 0. -1.
       -1    1    3    3    0  502 -0.18234918628E+04 -0.18124862809E+03 -0.81604172034E+03  0.20059655352E+04  0.50400001928E-02 0.  1.
</event>
<event>
 5   0  0.9277261E-09  0.3900231E+04  0.7818609E-02  0.8024981E-01
       -2   -1    0    0    0  501  0.00000000000E+00  0.00000000000E+00  0.16785937744E+04  0.16785937744E+04  0.25500000920E-02 0.  1.
        2   -1    0    0  501    0  0.00000000000E+00  0.00000000000E+00 -0.22655578746E+04  0.22655578746E+04  0.25500000920E-02 0. -1.
    10030    2    1    2    0    0  0.00000000000E+00  0.00000000000E+00 -0.58696410023E+03  0.39441516490E+04  0.39002314515E+04 0.  0.
        1    1    3    3  502    0 -0.49159098913E+03  0.16594631370E+04  0.61523126271E+03  0.18368421571E+04  0.50400001928E-02 0.  1.
       -1    1    3    3    0  502  0.49159098913E+03 -0.16594631370E+04 -0.12021953629E+04  0.21073094918E+04  0.50400001928E-02 0. -1.
</event>
<event>
 5   0  0.6335942E-09  0.3901215E+04  0.7818609E-02  0.8024777E-01
        2   -1    0    0  501    0  0.00000000000E+00  0.00000000000E+00  0.13903874784E+04  0.13903874784E+04  0.25500000920E-02 0. -1.
       -2   -1    0    0    0  501  0.00000000000E+00  0.00000000000E+00 -0.27365527570E+04  0.27365527570E+04  0.25500000920E-02 0.  1.
    10030    2    1    2    0    0  0.00000000000E+00  0.00000000000E+00 -0.13461652786E+04  0.41269402354E+04  0.39012145224E+04 0.  0.
        2    1    3    3  502    0  0.93742091844E+03  0.16150335118E+04 -0.76748194403E+02  0.18689519812E+04  0.25500000920E-02 0. -1.
       -2    1    3    3    0  502 -0.93742091844E+03 -0.16150335118E+04 -0.12694170842E+04  0.22579882542E+04  0.25500000920E-02 0.  1.
</event>
<event>
 5   0  0.2904500E-09  0.3895243E+04  0.7818609E-02  0.8026019E-01
       -1   -1    0    0    0  501  0.00000000000E+00  0.00000000000E+00  0.21213226420E+04  0.21213226420E+04  0.50400001928E-02 0.  1.
        1   -1    0    0  501    0  0.00000000000E+00  0.00000000000E+00 -0.17881439560E+04  0.17881439560E+04  0.50400001928E-02 0. -1.
    10030    2    1    2    0    0  0.00000000000E+00  0.00000000000E+00  0.33317868598E+03  0.39094665980E+04  0.38952433870E+04 0.  0.
        2    1    3    3  502    0  0.62249551818E+03  0.47235071099E+03  0.19570917925E+04  0.21073263033E+04  0.25500000920E-02 0.  1.
       -2    1    3    3    0  502 -0.62249551818E+03 -0.47235071099E+03 -0.16239131065E+04  0.18021402947E+04  0.25500000920E-02 0. -1.
</event>
<event>
 5   0  0.9368546E-09  0.3900521E+04  0.7818609E-02  0.8024921E-01
       -2   -1    0    0    0  501  0.00000000000E+00  0.00000000000E+00  0.13485908514E+04  0.13485908514E+04  0.25500000920E-02 0.  1.
        2   -1    0    0  501    0  0.00000000000E+00  0.00000000000E+00 -0.28203629187E+04  0.28203629187E+04  0.25500000920E-02 0. -1.
    10030    2    1    2    0    0  0.00000000000E+00  0.00000000000E+00 -0.14717720673E+04  0.41689537702E+04  0.39005208011E+04 0.  0.
        5    1    3    3  502    0  0.38796130854E+03 -0.26327769780E+03 -0.27592226833E+04  0.27987784888E+04  0.46999998093E+01 0. -1.
       -5    1    3    3    0  502 -0.38796130854E+03  0.26327769780E+03  0.12874506160E+04  0.13701752814E+04  0.46999998093E+01 0.  1.
</event>
<event>
 5   0  0.2904500E-09  0.3900478E+04  0.7818609E-02  0.8024930E-01
       -1   -1    0    0    0  501  0.00000000000E+00  0.00000000000E+00  0.27618331410E+04  0.27618331410E+04  0.50400001928E-02 0.  1.
        1   -1    0    0  501    0  0.00000000000E+00  0.00000000000E+00 -0.13771407670E+04  0.13771407670E+04  0.50400001928E-02 0. -1.
    10030    2    1    2    0    0  0.00000000000E+00  0.00000000000E+00  0.13846923740E+04  0.41389739079E+04  0.39004784373E+04 0.  0.
        5    1    3    3  502    0 -0.18069385468E+04 -0.68734847055E+03  0.96482729483E+03  0.21606454199E+04  0.46999998093E+01 0.  1.
       -5    1    3    3    0  502  0.18069385468E+04  0.68734847055E+03  0.41986507916E+03  0.19783284880E+04  0.46999998093E+01 0. -1.
</event>
<event>
 5   0  0.9078515E-09  0.3900298E+04  0.7818609E-02  0.8024967E-01
       -2   -1    0    0    0  501  0.00000000000E+00  0.00000000000E+00  0.23996292185E+04  0.23996292185E+04  0.25500000920E-02 0.  1.
        2   -1    0    0  501    0  0.00000000000E+00  0.00000000000E+00 -0.15848617190E+04  0.15848617190E+04  0.25500000920E-02 0. -1.
    10030    2    1    2    0    0  0.00000000000E+00  0.00000000000E+00  0.81476749953E+03  0.39844909376E+04  0.39002976749E+04 0.  0.
        3    1    3    3  502    0 -0.15800620393E+04 -0.83681721145E+03 -0.38802564333E+03  0.18295964046E+04  0.10100000352E+00 0.  1.
       -3    1    3    3    0  502  0.15800620393E+04  0.83681721145E+03  0.12027931429E+04  0.21548945330E+04  0.10100000352E+00 0. -1.
</event>
<event>
 5   0  0.9277261E-09  0.3900643E+04  0.7818609E-02  0.8024896E-01
        2   -1    0    0  501    0  0.00000000000E+00  0.00000000000E+00  0.28651099855E+04  0.28651099855E+04  0.25500000920E-02 0. -1.
       -2   -1    0    0    0  501  0.00000000000E+00  0.00000000000E+00 -0.13276117679E+04  0.13276117679E+04  0.25500000920E-02 0.  1.
    10030    2    1    2    0    0  0.00000000000E+00  0.00000000000E+00  0.15374982177E+04  0.41927217534E+04  0.39006428871E+04 0.  0.
        1    1    3    3  502    0  0.12705844671E+04  0.94551540999E+03  0.19921158691E+04  0.25449773898E+04  0.50400001928E-02 0. -1.
       -1    1    3    3    0  502 -0.12705844671E+04 -0.94551540999E+03 -0.45461765148E+03  0.16477443636E+04  0.50400001928E-02 0.  1.
</event>
<event>
 5   0  0.6335942E-09  0.3898016E+04  0.7818609E-02  0.8025442E-01
       -2   -1    0    0    0  501  0.00000000000E+00  0.00000000000E+00  0.16551168302E+04  0.16551168302E+04  0.25500000920E-02 0.  1.
        2   -1    0    0  501    0  0.00000000000E+00  0.00000000000E+00 -0.22950845070E+04  0.22950845070E+04  0.25500000920E-02 0. -1.
    10030    2    1    2    0    0  0.00000000000E+00  0.00000000000E+00 -0.63996767684E+03  0.39502013371E+04  0.38980164156E+04 0.  0.
        2    1    3    3  502    0  0.17076198749E+04  0.25406545148E+03 -0.12365916822E+04  0.21235992747E+04  0.25500000920E-02 0. -1.
       -2    1    3    3    0  502 -0.17076198749E+04 -0.25406545148E+03  0.59662400533E+03  0.18266020625E+04  0.25500000920E-02 0.  1.
</event>
<event>
 5   0  0.2904500E-09  0.3914390E+04  0.7818609E-02  0.8022043E-01
       -1   -1    0    0    0  501  0.00000000000E+00  0.00000000000E+00  0.15553547283E+04  0.15553547283E+04  0.50400001928E-02 0.  1.
        1   -1    0    0  501    0  0.00000000000E+00  0.00000000000E+00 -0.24628542530E+04  0.24628542530E+04  0.50400001928E-02 0. -1.
    10030    2    1    2    0    0  0.00000000000E+00  0.00000000000E+00 -0.90749952473E+03  0.40182089813E+04  0.39143898669E+04 0.  0.
        2    1    3    3  502    0  0.18705005810E+04 -0.57368048807E+03 -0.50738771211E+03  0.20212184484E+04  0.25500000920E-02 0. -1.
       -2    1    3    3    0  502 -0.18705005810E+04  0.57368048807E+03 -0.40011181262E+03  0.19969905329E+04  0.25500000920E-02 0.  1.
</event>
<event>
 5   0  0.2904500E-09  0.3899692E+04  0.7818609E-02  0.8025093E-01
       -1   -1    0    0    0  501  0.00000000000E+00  0.00000000000E+00  0.19316093051E+04  0.19316093051E+04  0.50400001928E-02 0. -1.
        1   -1    0    0  501    0  0.00000000000E+00  0.00000000000E+00 -0.19682544554E+04  0.19682544554E+04  0.50400001928E-02 0.  1.
    10030    2    1    2    0    0  0.00000000000E+00  0.00000000000E+00 -0.36645150314E+02  0.38998637604E+04  0.38996915882E+04 0.  0.
        2    1    3    3  502    0  0.41859651154E+03 -0.13889115586E+03  0.18810729521E+04  0.19320841709E+04  0.25500000920E-02 0. -1.
       -2    1    3    3    0  502 -0.41859651154E+03  0.13889115586E+03 -0.19177181024E+04  0.19677795895E+04  0.25500000920E-02 0.  1.
</event>
<event>
 5   0  0.9368546E-09  0.3899578E+04  0.7818609E-02  0.8025117E-01
       -2   -1    0    0    0  501  0.00000000000E+00  0.00000000000E+00  0.26708912617E+04  0.26708912617E+04  0.25500000920E-02 0.  1.
        2   -1    0    0  501    0  0.00000000000E+00  0.00000000000E+00 -0.14233736577E+04  0.14233736577E+04  0.25500000920E-02 0. -1.
    10030    2    1    2    0    0  0.00000000000E+00  0.00000000000E+00  0.12475176041E+04  0.40942649194E+04  0.38995775486E+04 0.  0.
        5    1    3    3  502    0 -0.80570723740E+02  0.34389936273E+03  0.26370149682E+04  0.26605691958E+04  0.46999998093E+01 0.  1.
       -5    1    3    3    0  502  0.80570723740E+02 -0.34389936273E+03 -0.13894973641E+04  0.14336957236E+04  0.46999998093E+01 0. -1.
</event>
<event>
 5   0  0.9277261E-09  0.3898669E+04  0.7818609E-02  0.8025306E-01
        2   -1    0    0  501    0  0.00000000000E+00  0.00000000000E+00  0.21015576820E+04  0.21015576820E+04  0.25500000920E-02 0. -1.
       -2   -1    0    0    0  501  0.00000000000E+00  0.00000000000E+00 -0.18081375221E+04  0.18081375221E+04  0.25500000920E-02 0.  1.
    10030    2    1    2    0    0  0.00000000000E+00  0.00000000000E+00  0.29342015981E+03  0.39096952041E+04  0.38986691574E+04 0.  0.
        1    1    3    3  502    0  0.77423922840E+03  0.11159285849E+04  0.15489357959E+04  0.20600837579E+04  0.50400001928E-02 0. -1.
       -1    1    3    3    0  502 -0.77423922840E+03 -0.11159285849E+04 -0.12555156361E+04  0.18496114462E+04  0.50400001928E-02 0.  1.
</event>
<event>
 5   0  0.9368546E-09  0.3899706E+04  0.7818609E-02  0.8025090E-01
        2   -1    0    0  501    0  0.00000000000E+00  0.00000000000E+00  0.14187558093E+04  0.14187558093E+04  0.25500000920E-02 0.  1.
       -2   -1    0    0    0  501  0.00000000000E+00  0.00000000000E+00 -0.26797617459E+04  0.26797617459E+04  0.25500000920E-02 0. -1.
    10030    2    1    2    0    0  0.00000000000E+00  0.00000000000E+00 -0.12610059366E+04  0.40985175552E+04  0.38997064221E+04 0.  0.
        5    1    3    3  502    0 -0.16775628802E+04  0.91723134980E+03 -0.22840842923E+03  0.19255448752E+04  0.46999998093E+01 0.  1.
       -5    1    3    3    0  502  0.16775628802E+04 -0.91723134980E+03 -0.10325975073E+04  0.21729726800E+04  0.46999998093E+01 0. -1.
</event>
<event>
 5   0  0.6335942E-09  0.3899298E+04  0.7818609E-02  0.8025175E-01
       -2   -1    0    0    0  501  0.00000000000E+00  0.00000000000E+00  0.13362738630E+04  0.13362738630E+04  0.25500000920E-02 0. -1.
        2   -1    0    0  501    0  0.00000000000E+00  0.00000000000E+00 -0.28445748709E+04  0.28445748709E+04  0.25500000920E-02 0.  1.
    10030    2    1    2    0    0  0.00000000000E+00  0.00000000000E+00 -0.15083010079E+04  0.41808487339E+04  0.38992979119E+04 0.  0.
        2    1    3    3  502    0 -0.12268551841E+04 -0.13652922089E+04 -0.14588225300E+04  0.23446448841E+04  0.25500000920E-02 0.  1.
       -2    1    3    3    0  502  0.12268551841E+04  0.13652922089E+04 -0.49478477946E+02  0.18362038498E+04  0.25500000920E-02 0. -1.
</event>
<event>
 5   0  0.2904500E-09  0.3904876E+04  0.7818609E-02  0.8024016E-01
       -1   -1    0    0    0  501  0.00000000000E+00  0.00000000000E+00  0.14431062521E+04  0.14431062521E+04  0.50400001928E-02 0. -1.
        1   -1    0    0  501    0  0.00000000000E+00  0.00000000000E+00 -0.26415336768E+04  0.26415336768E+04  0.50400001928E-02 0.  1.
    10030    2    1    2    0    0  0.00000000000E+00  0.00000000000E+00 -0.11984274247E+04  0.40846399289E+04  0.39048758056E+04 0.  0.
        2    1    3    3  502    0 -0.71205023353E+03 -0.84119774016E+03  0.10866197991E+04  0.15476988599E+04  0.25500000920E-02 0. -1.
       -2    1    3    3    0  502  0.71205023353E+03  0.84119774016E+03 -0.22850472238E+04  0.25369410691E+04  0.25500000920E-02 0.  1.
</event>
<event>
 5   0  0.2904500E-09  0.3901415E+04  0.7818609E-02  0.8024735E-01
        1   -1    0    0  501    0  0.00000000000E+00  0.00000000000E+00  0.26132688954E+04  0.26132688954E+04  0.50400001928E-02 0. -1.
       -1   -1    0    0    0  501  0.00000000000E+00  0.00000000000E+00 -0.14561301022E+04  0.14561301022E+04  0.50400001928E-02 0.  1.
    10030    2    1    2    0    0  0.00000000000E+00  0.00000000000E+00  0.11571387932E+04  0.40693989976E+04  0.39014148735E+04 0.  0.
        3    1    3    3  502    0 -0.14595179709E+04  0.42781838875E+03 -0.69551474885E+03  0.16724120477E+04  0.10100000352E+00 0.  1.
       -3    1    3    3    0  502  0.14595179709E+04 -0.42781838875E+03  0.18526535420E+04  0.23969869499E+04  0.10100000352E+00 0. -1.
</event>
<event>
 5   0  0.9277261E-09  0.3901964E+04  0.7818609E-02  0.8024621E-01
       -2   -1    0    0    0  501  0.00000000000E+00  0.00000000000E+00  0.16609635760E+04  0.16609635760E+04  0.25500000920E-02 0. -1.
        2   -1    0    0  501    0  0.00000000000E+00  0.00000000000E+00 -0.22916396180E+04  0.22916396180E+04  0.25500000920E-02 0.  1.
    10030    2    1    2    0    0  0.00000000000E+00  0.00000000000E+00 -0.63067604202E+03  0.39526031941E+04  0.39019635749E+04 0.  0.
        1    1    3    3  502    0 -0.47916929535E+03  0.14193112367E+04 -0.15814723013E+04  0.21783255588E+04  0.50400001928E-02 0.  1.
       -1    1    3    3    0  502  0.47916929535E+03 -0.14193112367E+04  0.95079625925E+03  0.17742776353E+04  0.50400001928E-02 0. -1.
</event>
<event>
 5   0  0.2904500E-09  0.3900304E+04  0.7818609E-02  0.8024966E-01
       -1   -1    0    0    0  501  0.00000000000E+00  0.00000000000E+00  0.18977756197E+04  0.18977756197E+04  0.50400001928E-02 0. -1.
        1   -1    0    0  501    0  0.00000000000E+00  0.00000000000E+00 -0.20039740608E+04  0.20039740608E+04  0.50400001928E-02 0.  1.
    10030    2    1    2    0    0  0.00000000000E+00  0.00000000000E+00 -0.10619844102E+03  0.39017496805E+04  0.39003041497E+04 0.  0.
        2    1    3    3  502    0  0.84672934807E+03 -0.52668296235E+03 -0.17296522096E+04  0.19965075252E+04  0.25500000920E-02 0.  1.
       -2    1    3    3    0  502 -0.84672934807E+03  0.52668296235E+03  0.16234537686E+04  0.19052421554E+04  0.25500000920E-02 0. -1.
</event>
<event>
 5   0  0.9277261E-09  0.3899933E+04  0.7818609E-02  0.8025043E-01
       -2   -1    0    0    0  501  0.00000000000E+00  0.00000000000E+00  0.13999101074E+04  0.13999101074E+04  0.25500000920E-02 0.  1.
        2   -1    0    0  501    0  0.00000000000E+00  0.00000000000E+00 -0.27161530564E+04  0.27161530564E+04  0.25500000920E-02 0. -1.
    10030    2    1    2    0    0  0.00000000000E+00  0.00000000000E+00 -0.13162429491E+04  0.41160631638E+04  0.38999333927E+04 0.  0.
        1    1    3    3  502    0  0.11819488028E+04  0.97765471056E+03  0.61257756338E+03  0.16516848903E+04  0.50400001928E-02 0. -1.
       -1    1    3    3    0  502 -0.11819488028E+04 -0.97765471056E+03 -0.19288205124E+04  0.24643782735E+04  0.50400001928E-02 0.  1.
</event>
<event>
 5   0  0.9277261E-09  0.3900258E+04  0.7818609E-02  0.8024976E-01
       -2   -1    0    0    0  501  0.00000000000E+00  0.00000000000E+00  0.24786181736E+04  0.24786181736E+04  0.25500000920E-02 0. -1.
        2   -1    0    0  501    0  0.00000000000E+00  0.00000000000E+00 -0.15343235419E+04  0.15343235419E+04  0.25500000920E-02 0.  1.
    10030    2    1    2    0    0  0.00000000000E+00  0.00000000000E+00  0.94429463174E+03  0.40129417155E+04  0.39002575377E+04 0.  0.
        1    1    3    3  502    0 -0.59368370046E+03 -0.49475297415E+03  0.23143404657E+04  0.24399616048E+04  0.50400001928E-02 0. -1.
       -1    1    3    3    0  502  0.59368370046E+03  0.49475297415E+03 -0.13700458339E+04  0.15729801107E+04  0.50400001928E-02 0.  1.
</event>
<event>
 5   0  0.2929054E-09  0.3900357E+04  0.7818609E-02  0.8024955E-01
        1   -1    0    0  501    0  0.00000000000E+00  0.00000000000E+00  0.21963329612E+04  0.21963329612E+04  0.50400001928E-02 0. -1.
       -1   -1    0    0    0  501  0.00000000000E+00  0.00000000000E+00 -0.17316119397E+04  0.17316119397E+04  0.50400001928E-02 0.  1.
    10030    2    1    2    0    0  0.00000000000E+00  0.00000000000E+00  0.46472102146E+03  0.39279449009E+04  0.39003571012E+04 0.  0.
        1    1    3    3  502    0 -0.17098573534E+04  0.90353186496E+03  0.48556357378E+03  0.19939292826E+04  0.50400001928E-02 0.  1.
       -1    1    3    3    0  502  0.17098573534E+04 -0.90353186496E+03 -0.20842552318E+02  0.19340156183E+04  0.50400001928E-02 0. -1.
</event>
<event>
 5   0  0.2929054E-09  0.3901987E+04  0.7818609E-02  0.8024616E-01
       -1   -1    0    0    0  501  0.00000000000E+00  0.00000000000E+00  0.19886537203E+04  0.19886537203E+04  0.50400001928E-02 0.  1.
        1   -1    0    0  501    0  0.00000000000E+00  0.00000000000E+00 -0.19140464480E+04  0.19140464480E+04  0.50400001928E-02 0. -1.
    10030    2    1    2    0    0  0.00000000000E+00  0.00000000000E+00  0.74607272268E+02  0.39027001683E+04  0.39019869758E+04 0.  0.
        1    1    3    3  502    0 -0.15633514991E+04 -0.11121701141E+04  0.39146624931E+03  0.19581205521E+04  0.50400001928E-02 0.  1.
       -1    1    3    3    0  502  0.15633514991E+04  0.11121701141E+04 -0.31685897704E+03  0.19445796162E+04  0.50400001928E-02 0. -1.
</event>
<event>
 5   0  0.9277261E-09  0.3900604E+04  0.7818609E-02  0.8024904E-01
        2   -1    0    0  501    0  0.00000000000E+00  0.00000000000E+00  0.19579146896E+04  0.19579146896E+04  0.25500000920E-02 0.  1.
       -2   -1    0    0    0  501  0.00000000000E+00  0.00000000000E+00 -0.19427184523E+04  0.19427184523E+04  0.25500000920E-02 0. -1.
    10030    2    1    2    0    0  0.00000000000E+00  0.00000000000E+00  0.15196237298E+02  0.39006331419E+04  0.39006035408E+04 0.  0.
        1    1    3    3  502    0  0.27954162811E+03 -0.18224226135E+04  0.64345614355E+03  0.19527937712E+04  0.50400001928E-02 0.  1.
       -1    1    3    3    0  502 -0.27954162811E+03  0.18224226135E+04 -0.62825990625E+03  0.19478393707E+04  0.50400001928E-02 0. -1.
</event>
<event>
 5   0  0.9368546E-09  0.3899571E+04  0.7818609E-02  0.8025118E-01
       -2   -1    0    0    0  501  0.00000000000E+00  0.00000000000E+00  0.27940996532E+04  0.27940996532E+04  0.25500000920E-02 0.  1.
        2   -1    0    0  501    0  0.00000000000E+00  0.00000000000E+00 -0.13606043730E+04  0.13606043730E+04  0.25500000920E-02 0. -1.
    10030    2    1    2    0    0  0.00000000000E+00  0.00000000000E+00  0.14334952802E+04  0.41547040262E+04  0.38995713645E+04 0.  0.
        5    1    3    3  502    0 -0.10393929944E+04 -0.58595257894E+02 -0.10397098012E+04  0.14713224534E+04  0.46999998093E+01 0. -1.
       -5    1    3    3    0  502  0.10393929944E+04  0.58595257894E+02  0.24732050814E+04  0.26833815729E+04  0.46999998093E+01 0.  1.
</event>
<event>
 5   0  0.2929054E-09  0.3892200E+04  0.7818609E-02  0.8026653E-01
        1   -1    0    0  501    0  0.00000000000E+00  0.00000000000E+00  0.18906204764E+04  0.18906204764E+04  0.50400001928E-02 0. -1.
       -1   -1    0    0    0  501  0.00000000000E+00  0.00000000000E+00 -0.20032071702E+04  0.20032071702E+04  0.50400001928E-02 0.  1.
    10030    2    1    2    0    0  0.00000000000E+00  0.00000000000E+00 -0.11258669380E+03  0.38938276466E+04  0.38921996323E+04 0.  0.
        1    1    3    3  502    0 -0.18260949251E+04 -0.20128839155E+03  0.58597581146E+03  0.19283431603E+04  0.50400001928E-02 0.  1.
       -1    1    3    3    0  502  0.18260949251E+04  0.20128839155E+03 -0.69856250527E+03  0.19654844863E+04  0.50400001928E-02 0. -1.
</event>
<event>
 5   0  0.9277261E-09  0.3900965E+04  0.7818609E-02  0.8024829E-01
        2   -1    0    0  501    0  0.00000000000E+00  0.00000000000E+00  0.18700596707E+04  0.18700596707E+04  0.25500000920E-02 0.  1.
       -2   -1    0    0    0  501  0.00000000000E+00  0.00000000000E+00 -0.20343639244E+04  0.20343639244E+04  0.25500000920E-02 0. -1.
    10030    2    1    2    0    0  0.00000000000E+00  0.00000000000E+00 -0.16430425373E+03  0.39044235951E+04  0.39009649732E+04 0.  0.
        1    1    3    3  502    0 -0.61004255942E+03 -0.12733511248E+04  0.12647032068E+04  0.18955340178E+04  0.50400001928E-02 0.  1.
       -1    1    3    3    0  502  0.61004255942E+03  0.12733511248E+04 -0.14290074605E+04  0.20088895773E+04  0.50400001928E-02 0. -1.
</event>
<event>
 5   0  0.2904500E-09  0.3889823E+04  0.7818609E-02  0.8027149E-01
       -1   -1    0    0    0  501  0.00000000000E+00  0.00000000000E+00  0.32234388649E+04  0.32234388649E+04  0.50400001928E-02 0. -1.
        1   -1    0    0  501    0  0.00000000000E+00  0.00000000000E+00 -0.11734923824E+04  0.11734923824E+04  0.50400001928E-02 0.  1.
    10030    2    1    2    0    0  0.00000000000E+00  0.00000000000E+00  0.20499464825E+04  0.43969312474E+04  0.38898231082E+04 0.  0.
        4    1    3    3  502    0 -0.45921689305E+03 -0.15658950892E+04  0.22211203014E+04  0.27561358078E+04  0.12699999809E+01 0. -1.
       -4    1    3    3    0  502  0.45921689305E+03  0.15658950892E+04 -0.17117381885E+03  0.16407954395E+04  0.12699999809E+01 0.  1.
</event>
<event>
 5   0  0.2904500E-09  0.3898873E+04  0.7818609E-02  0.8025264E-01
       -1   -1    0    0    0  501  0.00000000000E+00  0.00000000000E+00  0.14631265675E+04  0.14631265675E+04  0.50400001928E-02 0. -1.
        1   -1    0    0  501    0  0.00000000000E+00  0.00000000000E+00 -0.25973852161E+04  0.25973852161E+04  0.50400001928E-02 0.  1.
    10030    2    1    2    0    0  0.00000000000E+00  0.00000000000E+00 -0.11342586486E+04  0.40605117836E+04  0.38988733325E+04 0.  0.
        4    1    3    3  502    0 -0.63178153428E+03  0.21940907158E+02 -0.24876723765E+04  0.25667381588E+04  0.12699999809E+01 0.  1.
       -4    1    3    3    0  502  0.63178153428E+03 -0.21940907158E+02  0.13534137278E+04  0.14937736248E+04  0.12699999809E+01 0. -1.
</event>
<event>
 5   0  0.2904500E-09  0.3900733E+04  0.7818609E-02  0.8024877E-01
        1   -1    0    0  501    0  0.00000000000E+00  0.00000000000E+00  0.26690281774E+04  0.26690281774E+04  0.50400001928E-02 0. -1.
       -1   -1    0    0    0  501  0.00000000000E+00  0.00000000000E+00 -0.14252111231E+04  0.14252111231E+04  0.50400001928E-02 0.  1.
    10030    2    1    2    0    0  0.00000000000E+00  0.00000000000E+00  0.12438170543E+04  0.40942393005E+04  0.39007325704E+04 0.  0.
        4    1    3    3  502    0  0.14810651087E+04  0.70879093699E+03  0.17267365704E+04  0.23827629435E+04  0.12699999809E+01 0. -1.
       -4    1    3    3    0  502 -0.14810651087E+04 -0.70879093699E+03 -0.48291951616E+03  0.17114763570E+04  0.12699999809E+01 0.  1.
</event>
<event>
 5   0  0.6335942E-09  0.3900333E+04  0.7818609E-02  0.8024960E-01
        2   -1    0    0  501    0  0.00000000000E+00  0.00000000000E+00  0.35885643650E+04  0.35885643650E+04  0.25500000920E-02 0.  1.
       -2   -1    0    0    0  501  0.00000000000E+00  0.00000000000E+00 -0.10597970300E+04  0.10597970301E+04  0.25500000920E-02 0. -1.
    10030    2    1    2    0    0  0.00000000000E+00  0.00000000000E+00  0.25287673350E+04  0.46483613951E+04  0.39003332453E+04 0.  0.
        2    1    3    3  502    0 -0.17721264638E+03  0.14358666950E+04 -0.29409311371E+03  0.14763496359E+04  0.25500000920E-02 0. -1.
       -2    1    3    3    0  502  0.17721264638E+03 -0.14358666950E+04  0.28228604487E+04  0.31720117592E+04  0.25500000920E-02 0.  1.
</event>
<event>
 5   0  0.6335942E-09  0.3902212E+04  0.7818609E-02  0.8024569E-01
        2   -1    0    0  501    0  0.00000000000E+00  0.00000000000E+00  0.18121924317E+04  0.18121924317E+04  0.25500000920E-02 0. -1.
       -2   -1    0    0    0  501  0.00000000000E+00  0.00000000000E+00 -0.21006677730E+04  0.21006677730E+04  0.25500000920E-02 0.  1.
    10030    2    1    2    0    0  0.00000000000E+00  0.00000000000E+00 -0.28847534134E+03  0.39128602047E+04  0.39022118034E+04 0.  0.
        2    1    3    3  502    0 -0.48020910129E+03 -0.17065927036E+04  0.67269700797E+03  0.18962016510E+04  0.25500000920E-02 0. -1.
       -2    1    3    3    0  502  0.48020910129E+03  0.17065927036E+04 -0.96117234931E+03  0.20166585536E+04  0.25500000920E-02 0.  1.
</event>
<event>
 5   0  0.9078515E-09  0.3899189E+04  0.7818609E-02  0.8025198E-01
        2   -1    0    0  501    0  0.00000000000E+00  0.00000000000E+00  0.20857087532E+04  0.20857087532E+04  0.25500000920E-02 0. -1.
       -2   -1    0    0    0  501  0.00000000000E+00  0.00000000000E+00 -0.18223628885E+04  0.18223628885E+04  0.25500000920E-02 0.  1.
    10030    2    1    2    0    0  0.00000000000E+00  0.00000000000E+00  0.26334586466E+03  0.39080716417E+04  0.38991887505E+04 0.  0.
        3    1    3    3  502    0  0.29037627538E+03 -0.12185583754E+04 -0.13656230360E+04  0.18531403569E+04  0.10100000352E+00 0.  1.
       -3    1    3    3    0  502 -0.29037627538E+03  0.12185583754E+04  0.16289689007E+04  0.20549312848E+04  0.10100000352E+00 0. -1.
</event>
<event>
 5   0  0.2904500E-09  0.3895388E+04  0.7818609E-02  0.8025989E-01
       -1   -1    0    0    0  501  0.00000000000E+00  0.00000000000E+00  0.16829008087E+04  0.16829008087E+04  0.50400001928E-02 0. -1.
        1   -1    0    0  501    0  0.00000000000E+00  0.00000000000E+00 -0.22541504299E+04  0.22541504299E+04  0.50400001928E-02 0.  1.
    10030    2    1    2    0    0  0.00000000000E+00  0.00000000000E+00 -0.57124962121E+03  0.39370512387E+04  0.38953878274E+04 0.  0.
        3    1    3    3  502    0  0.13206383836E+04  0.12282585610E+04  0.45763630227E+03  0.18606815494E+04  0.10100000352E+00 0. -1.
       -3    1    3    3    0  502 -0.13206383836E+04 -0.12282585610E+04 -0.10288859235E+04  0.20763696893E+04  0.10100000352E+00 0.  1.
</event>
<event>
 5   0  0.9078515E-09  0.3899346E+04  0.7818609E-02  0.8025165E-01
       -2   -1    0    0    0  501  0.00000000000E+00  0.00000000000E+00  0.20054443827E+04  0.20054443827E+04  0.25500000920E-02 0.  1.
        2   -1    0    0  501    0  0.00000000000E+00  0.00000000000E+00 -0.18954529638E+04  0.18954529638E+04  0.25500000920E-02 0. -1.
    10030    2    1    2    0    0  0.00000000000E+00  0.00000000000E+00  0.10999141882E+03  0.39008973465E+04  0.38993463550E+04 0.  0.
        3    1    3    3  502    0 -0.10899693838E+04 -0.76520015252E+03 -0.13695302856E+04  0.19102821112E+04  0.10100000352E+00 0. -1.
       -3    1    3    3    0  502  0.10899693838E+04  0.76520015252E+03  0.14795217044E+04  0.19906152353E+04  0.10100000352E+00 0.  1.
</event>
<event>
 5   0  0.6335942E-09  0.3899262E+04  0.7818609E-02  0.8025183E-01
        2   -1    0    0  501    0  0.00000000000E+00  0.00000000000E+00  0.25515405978E+04  0.25515405978E+04  0.25500000920E-02 0.  1.
       -2   -1    0    0    0  501  0.00000000000E+00  0.00000000000E+00 -0.14897119061E+04  0.14897119061E+04  0.25500000920E-02 0. -1.
    10030    2    1    2    0    0  0.00000000000E+00  0.00000000000E+00  0.10618286918E+04  0.40412525039E+04  0.38992616775E+04 0.  0.
        2    1    3    3  502    0 -0.10822278782E+04 -0.10199680373E+04 -0.77575295479E+03  0.16773027825E+04  0.25500000920E-02 0. -1.
       -2    1    3    3    0  502  0.10822278782E+04  0.10199680373E+04  0.18375816466E+04  0.23639497214E+04  0.25500000920E-02 0.  1.
</event>
<event>
 5   0  0.2904500E-09  0.3896236E+04  0.7818609E-02  0.8025812E-01
       -1   -1    0    0    0  501  0.00000000000E+00  0.00000000000E+00  0.17051405968E+04  0.17051405968E+04  0.50400001928E-02 0.  1.
        1   -1    0    0  501    0  0.00000000000E+00  0.00000000000E+00 -0.22257194932E+04  0.22257194932E+04  0.50400001928E-02 0. -1.
    10030    2    1    2    0    0  0.00000000000E+00  0.00000000000E+00 -0.52057889636E+03  0.39308600900E+04  0.38962364738E+04 0.  0.
        3    1    3    3  502    0  0.78509488377E+03  0.13505994662E+04 -0.14345360648E+04  0.21209400336E+04  0.10100000352E+00 0. -1.
       -3    1    3    3    0  502 -0.78509488377E+03 -0.13505994662E+04  0.91395716849E+03  0.18099200564E+04  0.10100000352E+00 0.  1.
</event>
<event>
 5   0  0.9368546E-09  0.3899927E+04  0.7818609E-02  0.8025044E-01
       -2   -1    0    0    0  501  0.00000000000E+00  0.00000000000E+00  0.20595239450E+04  0.20595239450E+04  0.25500000920E-02 0. -1.
        2   -1    0    0  501    0  0.00000000000E+00  0.00000000000E+00 -0.18462316476E+04  0.18462316476E+04  0.25500000920E-02 0.  1.
    10030    2    1    2    0    0  0.00000000000E+00  0.00000000000E+00  0.21329229740E+03  0.39057555925E+04  0.38999273255E+04 0.  0.
        5    1    3    3  502    0 -0.18504226921E+04 -0.43637274222E+03  0.54071155347E+03  0.19765819952E+04  0.46999998093E+01 0.  1.
       -5    1    3    3    0  502  0.18504226921E+04  0.43637274222E+03 -0.32741925607E+03  0.19291735974E+04  0.46999998093E+01 0. -1.
</event>
<event>
 5   0  0.2904500E-09  0.3901386E+04  0.7818609E-02  0.8024741E-01
       -1   -1    0    0    0  501  0.00000000000E+00  0.00000000000E+00  0.21311183916E+04  0.21311183916E+04  0.50400001928E-02 0.  1.
        1   -1    0    0  501    0  0.00000000000E+00  0.00000000000E+00 -0.17855432529E+04  0.17855432529E+04  0.50400001928E-02 0. -1.
    10030    2    1    2    0    0  0.00000000000E+00  0.00000000000E+00  0.34557513872E+03  0.39166616445E+04  0.39013864537E+04 0.  0.
        5    1    3    3  502    0 -0.50531085371E+02 -0.10144593199E+04 -0.14991160455E+04  0.18108153164E+04  0.46999998093E+01 0. -1.
       -5    1    3    3    0  502  0.50531085371E+02  0.10144593199E+04  0.18446911842E+04  0.21058463281E+04  0.46999998093E+01 0.  1.
</event>
<event>
 5   0  0.9078515E-09  0.3900267E+04  0.7818609E-02  0.8024974E-01
        2   -1    0    0  501    0  0.00000000000E+00  0.00000000000E+00  0.16427193868E+04  0.16427193868E+04  0.25500000920E-02 0. -1.
       -2   -1    0    0    0  501  0.00000000000E+00  0.00000000000E+00 -0.23150768577E+04  0.23150768577E+04  0.25500000920E-02 0.  1.
    10030    2    1    2    0    0  0.00000000000E+00  0.00000000000E+00 -0.67235747091E+03  0.39577962446E+04  0.39002674966E+04 0.  0.
        3    1    3    3  502    0  0.28125237185E+03 -0.18080107498E+04  0.34831945535E+03  0.18626143512E+04  0.10100000352E+00 0. -1.
       -3    1    3    3    0  502 -0.28125237185E+03  0.18080107498E+04 -0.10206769263E+04  0.20951818934E+04  0.10100000352E+00 0.  1.
</event>
<event>
 5   0  0.9434114E-09  0.3899312E+04  0.7818609E-02  0.8025172E-01
       -2   -1    0    0    0  501  0.00000000000E+00  0.00000000000E+00  0.15661332725E+04  0.15661332725E+04  0.25500000920E-02 0. -1.
        2   -1    0    0  501    0  0.00000000000E+00  0.00000000000E+00 -0.24270979855E+04  0.24270979855E+04  0.25500000920E-02 0.  1.
    10030    2    1    2    0    0  0.00000000000E+00  0.00000000000E+00 -0.86096471304E+03  0.39932312580E+04  0.38993122012E+04 0.  0.
        4    1    3    3  502    0  0.18344051217E+04  0.51136708896E+03 -0.25432138776E+01  0.19043493721E+04  0.12699999809E+01 0. -1.
       -4    1    3    3    0  502 -0.18344051217E+04 -0.51136708896E+03 -0.85842149916E+03  0.20888818859E+04  0.12699999809E+01 0.  1.
</event>
<event>
 5   0  0.6335942E-09  0.3900865E+04  0.7818609E-02  0.8024849E-01
       -2   -1    0    0    0  501  0.00000000000E+00  0.00000000000E+00  0.16363816281E+04  0.16363816281E+04  0.25500000920E-02 0. -1.
        2   -1    0    0  501    0  0.00000000000E+00  0.00000000000E+00 -0.23247553520E+04  0.23247553520E+04  0.25500000920E-02 0.  1.
    10030    2    1    2    0    0  0.00000000000E+00  0.00000000000E+00 -0.68837372388E+03  0.39611369802E+04  0.39008650056E+04 0.  0.
        2    1    3    3  502    0 -0.11529183387E+04 -0.12600488851E+04 -0.13006764461E+04  0.21467890223E+04  0.25500000920E-02 0.  1.
       -2    1    3    3    0  502  0.11529183387E+04  0.12600488851E+04  0.61230272222E+03  0.18143479579E+04  0.25500000920E-02 0. -1.
</event>
<event>
 5   0  0.2904500E-09  0.3902276E+04  0.7818609E-02  0.8024556E-01
       -1   -1    0    0    0  501  0.00000000000E+00  0.00000000000E+00  0.22747554318E+04  0.22747554318E+04  0.50400001928E-02 0.  1.
        1   -1    0    0  501    0  0.00000000000E+00  0.00000000000E+00 -0.16735596205E+04  0.16735596205E+04  0.50400001928E-02 0. -1.
    10030    2    1    2    0    0  0.00000000000E+00  0.00000000000E+00  0.60119581134E+03  0.39483150523E+04  0.39022756628E+04 0.  0.
        3    1    3    3  502    0  0.13056467459E+04  0.44982079854E+02 -0.11657073442E+04  0.17508884702E+04  0.10100000352E+00 0. -1.
       -3    1    3    3    0  502 -0.13056467459E+04 -0.44982079854E+02  0.17669031555E+04  0.21974265821E+04  0.10100000352E+00 0.  1.
</event>
<event>
 5   0  0.2904500E-09  0.3899736E+04  0.7818609E-02  0.8025084E-01
       -1   -1    0    0    0  501  0.00000000000E+00  0.00000000000E+00  0.14666077521E+04  0.14666077521E+04  0.50400001928E-02 0.  1.
        1   -1    0    0  501    0  0.00000000000E+00  0.00000000000E+00 -0.25923663617E+04  0.25923663617E+04  0.50400001928E-02 0. -1.
    10030    2    1    2    0    0  0.00000000000E+00  0.00000000000E+00 -0.11257586096E+04  0.40589741138E+04  0.38997356845E+04 0.  0.
        4    1    3    3  502    0  0.90763762793E+03  0.15257464947E+04 -0.14022030135E+04  0.22622739298E+04  0.12699999809E+01 0.  1.
       -4    1    3    3    0  502 -0.90763762793E+03 -0.15257464947E+04  0.27644440387E+03  0.17967001839E+04  0.12699999809E+01 0. -1.
</event>
<event>
 5   0  0.9277261E-09  0.3900555E+04  0.7818609E-02  0.8024914E-01
       -2   -1    0    0    0  501  0.00000000000E+00  0.00000000000E+00  0.13570238355E+04  0.13570238355E+04  0.25500000920E-02 0.  1.
        2   -1    0    0  501    0  0.00000000000E+00  0.00000000000E+00 -0.28028860397E+04  0.28028860397E+04  0.25500000920E-02 0. -1.
    10030    2    1    2    0    0  0.00000000000E+00  0.00000000000E+00 -0.14458622042E+04  0.41599098752E+04  0.39005554292E+04 0.  0.
        1    1    3    3  502    0  0.19270835690E+04 -0.28353431906E+03 -0.82710049376E+03  0.21161611514E+04  0.50400001928E-02 0.  1.
       -1    1    3    3    0  502 -0.19270835690E+04  0.28353431906E+03 -0.61876171039E+03  0.20437487238E+04  0.50400001928E-02 0. -1.
</event>
<event>
 5   0  0.2904500E-09  0.3898035E+04  0.7818609E-02  0.8025438E-01
        1   -1    0    0  501    0  0.00000000000E+00  0.00000000000E+00  0.23793636641E+04  0.23793636641E+04  0.50400001928E-02 0. -1.
       -1   -1    0    0    0  501  0.00000000000E+00  0.00000000000E+00 -0.15965067173E+04  0.15965067173E+04  0.50400001928E-02 0.  1.
    10030    2    1    2    0    0  0.00000000000E+00  0.00000000000E+00  0.78285694686E+03  0.39758703814E+04  0.38980354399E+04 0.  0.
        4    1    3    3  502    0 -0.19234456869E+04  0.29130843588E+03  0.51281982356E+03  0.20118373939E+04  0.12699999809E+01 0. -1.
       -4    1    3    3    0  502  0.19234456869E+04 -0.29130843588E+03  0.27003712330E+03  0.19640329875E+04  0.12699999809E+01 0.  1.
</event>
<event>
 5   0  0.9434114E-09  0.3898567E+04  0.7818609E-02  0.8025327E-01
        2   -1    0    0  501    0  0.00000000000E+00  0.00000000000E+00  0.16481584215E+04  0.16481584215E+04  0.25500000920E-02 0. -1.
       -2   -1    0    0    0  501  0.00000000000E+00  0.00000000000E+00 -0.23054249283E+04  0.23054249283E+04  0.25500000920E-02 0.  1.
    10030    2    1    2    0    0  0.00000000000E+00  0.00000000000E+00 -0.65726650677E+03  0.39535833498E+04  0.38985666651E+04 0.  0.
        4    1    3    3  502    0 -0.94966327869E+03 -0.13631674008E+04  0.70537229549E+03  0.18048926266E+04  0.12699999809E+01 0. -1.
       -4    1    3    3    0  502  0.94966327869E+03  0.13631674008E+04 -0.13626388023E+04  0.21486907232E+04  0.12699999809E+01 0.  1.
</event>
<event>
 5   0  0.9078515E-09  0.3898116E+04  0.7818609E-02  0.8025421E-01
       -2   -1    0    0    0  501  0.00000000000E+00  0.00000000000E+00  0.20107723655E+04  0.20107723655E+04  0.25500000920E-02 0.  1.
        2   -1    0    0  501    0  0.00000000000E+00  0.00000000000E+00 -0.18892377777E+04  0.18892377777E+04  0.25500000920E-02 0. -1.
    10030    2    1    2    0    0  0.00000000000E+00  0.00000000000E+00  0.12153458785E+03  0.39000101432E+04  0.38981160143E+04 0.  0.
        3    1    3    3  502    0 -0.50406269235E+03 -0.94132740819E+03 -0.15705619092E+04  0.18991685571E+04  0.10100000352E+00 0. -1.
       -3    1    3    3    0  502  0.50406269235E+03  0.94132740819E+03  0.16920964971E+04  0.20008415862E+04  0.10100000352E+00 0.  1.
</event>
<event>
 5   0  0.9368546E-09  0.3900850E+04  0.7818609E-02  0.8024852E-01
        2   -1    0    0  501    0  0.00000000000E+00  0.00000000000E+00  0.23853309244E+04  0.23853309244E+04  0.25500000920E-02 0.  1.
       -2   -1    0    0    0  501  0.00000000000E+00  0.00000000000E+00 -0.15948137265E+04  0.15948137265E+04  0.25500000920E-02 0. -1.
    10030    2    1    2    0    0  0.00000000000E+00  0.00000000000E+00  0.79051719785E+03  0.39801446509E+04  0.39008504204E+04 0.  0.
        5    1    3    3  502    0  0.27250637198E+03  0.21033551752E+03 -0.15635669462E+04  0.16010198118E+04  0.46999998093E+01 0. -1.
       -5    1    3    3    0  502 -0.27250637198E+03 -0.21033551752E+03  0.23540841440E+04  0.23791248391E+04  0.46999998093E+01 0.  1.
</event>
<event>
 5   0  0.2904500E-09  0.3897610E+04  0.7818609E-02  0.8025527E-01
        1   -1    0    0  501    0  0.00000000000E+00  0.00000000000E+00  0.27118269071E+04  0.27118269071E+04  0.50400001928E-02 0. -1.
       -1   -1    0    0    0  501  0.00000000000E+00  0.00000000000E+00 -0.14004729255E+04  0.14004729255E+04  0.50400001928E-02 0.  1.
    10030    2    1    2    0    0  0.00000000000E+00  0.00000000000E+00  0.13113539816E+04  0.41122998326E+04  0.38976096069E+04 0.  0.
        2    1    3    3  502    0  0.14154756249E+04 -0.42710982449E+03 -0.68383998990E+03  0.16289969854E+04  0.25500000920E-02 0.  1.
       -2    1    3    3    0  502 -0.14154756249E+04  0.42710982449E+03  0.19951939715E+04  0.24833028471E+04  0.25500000920E-02 0. -1.
</event>
<event>
 5   0  0.2904500E-09  0.3898953E+04  0.7818609E-02  0.8025247E-01
       -1   -1    0    0    0  501  0.00000000000E+00  0.00000000000E+00  0.18193991425E+04  0.18193991425E+04  0.50400001928E-02 0. -1.
        1   -1    0    0  501    0  0.00000000000E+00  0.00000000000E+00 -0.20888536731E+04  0.20888536731E+04  0.50400001928E-02 0.  1.
    10030    2    1    2    0    0  0.00000000000E+00  0.00000000000E+00 -0.26945453063E+03  0.39082528156E+04  0.38989529782E+04 0.  0.
        2    1    3    3  502    0 -0.44433183551E+03 -0.18091159812E+04  0.44121013950E+03  0.19144183975E+04  0.25500000920E-02 0. -1.
       -2    1    3    3    0  502  0.44433183551E+03  0.18091159812E+04 -0.71066467013E+03  0.19938344181E+04  0.25500000920E-02 0.  1.
</event>
<event>
 5   0  0.2929054E-09  0.3901387E+04  0.7818609E-02  0.8024741E-01
        1   -1    0    0  501    0  0.00000000000E+00  0.00000000000E+00  0.19326266728E+04  0.19326266729E+04  0.50400001928E-02 0.  1.
       -1   -1    0    0    0  501  0.00000000000E+00  0.00000000000E+00 -0.19689293821E+04  0.19689293821E+04  0.50400001928E-02 0. -1.
    10030    2    1    2    0    0  0.00000000000E+00  0.00000000000E+00 -0.36302709259E+02  0.39015560550E+04  0.39013871589E+04 0.  0.
        1    1    3    3  502    0  0.13211143329E+03  0.15358989912E+04  0.11772105185E+04  0.19396555743E+04  0.50400001928E-02 0.  1.
       -1    1    3    3    0  502 -0.13211143329E+03 -0.15358989912E+04 -0.12135132277E+04  0.19619004807E+04  0.50400001928E-02 0. -1.
</event>
<event>
 5   0  0.9368546E-09  0.3899790E+04  0.7818609E-02  0.8025073E-01
       -2   -1    0    0    0  501  0.00000000000E+00  0.00000000000E+00  0.21519919876E+04  0.21519919876E+04  0.25500000920E-02 0. -1.
        2   -1    0    0  501    0  0.00000000000E+00  0.00000000000E+00 -0.17667776689E+04  0.17667776689E+04  0.25500000920E-02 0.  1.
    10030    2    1    2    0    0  0.00000000000E+00  0.00000000000E+00  0.38521431867E+03  0.39187696565E+04  0.38997904494E+04 0.  0.
        5    1    3    3  502    0  0.13247750956E+04  0.10860684931E+04  0.11285343691E+04  0.20513862966E+04  0.46999998093E+01 0. -1.
       -5    1    3    3    0  502 -0.13247750956E+04 -0.10860684931E+04 -0.74332005047E+03  0.18673833599E+04  0.46999998093E+01 0.  1.
</event>
<event>
 5   0  0.9434114E-09  0.3902412E+04  0.7818609E-02  0.8024528E-01
       -2   -1    0    0    0  501  0.00000000000E+00  0.00000000000E+00  0.14266909594E+04  0.14266909594E+04  0.25500000920E-02 0.  1.
        2   -1    0    0  501    0  0.00000000000E+00  0.00000000000E+00 -0.26685562242E+04  0.26685562242E+04  0.25500000920E-02 0. -1.
    10030    2    1    2    0    0  0.00000000000E+00  0.00000000000E+00 -0.12418652648E+04  0.40952471836E+04  0.39024120950E+04 0.  0.
        4    1    3    3  502    0  0.29263455123E+03 -0.18491164954E+04 -0.43910625104E+02  0.18726442668E+04  0.12699999809E+01 0.  1.
       -4    1    3    3    0  502 -0.29263455123E+03  0.18491164954E+04 -0.11979546397E+04  0.22226029168E+04  0.12699999809E+01 0. -1.
</event>
<event>
 5   0  0.9277261E-09  0.3901620E+04  0.7818609E-02  0.8024692E-01
        2   -1    0    0  501    0  0.00000000000E+00  0.00000000000E+00  0.21060482250E+04  0.21060482250E+04  0.25500000920E-02 0.  1.
       -2   -1    0    0    0  501  0.00000000000E+00  0.00000000000E+00 -0.18070147975E+04  0.18070147975E+04  0.25500000920E-02 0. -1.
    10030    2    1    2    0    0  0.00000000000E+00  0.00000000000E+00  0.29903342748E+03  0.39130630225E+04  0.39016203335E+04 0.  0.
        1    1    3    3  502    0  0.79121476468E+03 -0.14589560021E+04 -0.87871535733E+03  0.18779547649E+04  0.50400001928E-02 0. -1.
       -1    1    3    3    0  502 -0.79121476468E+03  0.14589560021E+04  0.11777487848E+04  0.20351082576E+04  0.50400001928E-02 0.  1.
</event>
<event>
 5   0  0.9277261E-09  0.3901839E+04  0.7818609E-02  0.8024647E-01
       -2   -1    0    0    0  501  0.00000000000E+00  0.00000000000E+00  0.25737217322E+04  0.25737217322E+04  0.25500000920E-02 0.  1.
        2   -1    0    0  501    0  0.00000000000E+00  0.00000000000E+00 -0.14788258129E+04  0.14788258129E+04  0.25500000920E-02 0. -1.
    10030    2    1    2    0    0  0.00000000000E+00  0.00000000000E+00  0.10948959194E+04  0.40525475451E+04  0.39018386090E+04 0.  0.
        1    1    3    3  502    0 -0.18870319747E+04  0.29626782385E+03  0.13535869292E+03  0.19149376681E+04  0.50400001928E-02 0. -1.
       -1    1    3    3    0  502  0.18870319747E+04 -0.29626782385E+03  0.95953722646E+03  0.21376098770E+04  0.50400001928E-02 0.  1.
</event>
<event>
 5   0  0.2904500E-09  0.3899850E+04  0.7818609E-02  0.8025061E-01
        1   -1    0    0  501    0  0.00000000000E+00  0.00000000000E+00  0.22183318303E+04  0.22183318303E+04  0.50400001928E-02 0.  1.
       -1   -1    0    0    0  501  0.00000000000E+00  0.00000000000E+00 -0.17139936109E+04  0.17139936109E+04  0.50400001928E-02 0. -1.
    10030    2    1    2    0    0  0.00000000000E+00  0.00000000000E+00  0.50433821944E+03  0.39323254412E+04  0.38998495273E+04 0.  0.
        2    1    3    3  502    0  0.49655252448E+03  0.11241421348E+04  0.17786938714E+04  0.21619463076E+04  0.25500000920E-02 0.  1.
       -2    1    3    3    0  502 -0.49655252448E+03 -0.11241421348E+04 -0.12743556520E+04  0.17703791336E+04  0.25500000920E-02 0. -1.
</event>
<event>
 5   0  0.2904500E-09  0.3903883E+04  0.7818609E-02  0.8024222E-01
        1   -1    0    0  501    0  0.00000000000E+00  0.00000000000E+00  0.15967416642E+04  0.15967416642E+04  0.50400001928E-02 0. -1.
       -1   -1    0    0    0  501  0.00000000000E+00  0.00000000000E+00 -0.23861562549E+04  0.23861562549E+04  0.50400001928E-02 0.  1.
    10030    2    1    2    0    0  0.00000000000E+00  0.00000000000E+00 -0.78941459066E+03  0.39828979191E+04  0.39038827388E+04 0.  0.
        5    1    3    3  502    0  0.17648852113E+04  0.50374861828E+03  0.28317341408E+03  0.18570922842E+04  0.46999998093E+01 0. -1.
       -5    1    3    3    0  502 -0.17648852113E+04 -0.50374861828E+03 -0.10725880047E+04  0.21258056349E+04  0.46999998093E+01 0.  1.
</event>
<event>
 5   0  0.9078515E-09  0.3900782E+04  0.7818609E-02  0.8024867E-01
        2   -1    0    0  501    0  0.00000000000E+00  0.00000000000E+00  0.27630242264E+04  0.27630242264E+04  0.25500000920E-02 0. -1.
       -2   -1    0    0    0  501  0.00000000000E+00  0.00000000000E+00 -0.13767613735E+04  0.13767613735E+04  0.25500000920E-02 0.  1.
    10030    2    1    2    0    0  0.00000000000E+00  0.00000000000E+00  0.13862628528E+04  0.41397855999E+04  0.39007819878E+04 0.  0.
        3    1    3    3  502    0  0.78770844848E+03  0.47826870778E+02 -0.11997581349E+04  0.14360332872E+04  0.10100000352E+00 0.  1.
       -3    1    3    3    0  502 -0.78770844848E+03 -0.47826870778E+02  0.25860209877E+04  0.27037523127E+04  0.10100000352E+00 0. -1.
</event>
<event>
 5   0  0.2904500E-09  0.3900007E+04  0.7818609E-02  0.8025028E-01
        1   -1    0    0  501    0  0.00000000000E+00  0.00000000000E+00  0.12377087696E+04  0.12377087696E+04  0.50400001928E-02 0. -1.
       -1   -1    0    0    0  501  0.00000000000E+00  0.00000000000E+00 -0.30722201867E+04  0.30722201867E+04  0.50400001928E-02 0.  1.
    10030    2    1    2    0    0  0.00000000000E+00  0.00000000000E+00 -0.18345114171E+04  0.43099289563E+04  0.39000071114E+04 0.  0.
        2    1    3    3  502    0 -0.86643351055E+02  0.80679040460E+03 -0.28767888555E+04  0.29890352869E+04  0.25500000920E-02 0.  1.
       -2    1    3    3    0  502  0.86643351055E+02 -0.80679040460E+03  0.10422774384E+04  0.13208936694E+04  0.25500000920E-02 0. -1.
</event>
<event>
 5   0  0.6335942E-09  0.3900787E+04  0.7818609E-02  0.8024865E-01
        2   -1    0    0  501    0  0.00000000000E+00  0.00000000000E+00  0.25003853995E+04  0.25003853995E+04  0.25500000920E-02 0. -1.
       -2   -1    0    0    0  501  0.00000000000E+00  0.00000000000E+00 -0.15213796393E+04  0.15213796393E+04  0.25500000920E-02 0.  1.
    10030    2    1    2    0    0  0.00000000000E+00  0.00000000000E+00  0.97900576019E+03  0.40217650387E+04  0.39007873242E+04 0.  0.
        2    1    3    3  502    0  0.22157197168E+03 -0.49774474933E+03 -0.14413276599E+04  0.15408664437E+04  0.25500000920E-02 0.  1.
       -2    1    3    3    0  502 -0.22157197168E+03  0.49774474933E+03  0.24203334201E+04  0.24808985950E+04  0.25500000920E-02 0. -1.
</event>
<event>
 5   0  0.2929054E-09  0.3900410E+04  0.7818609E-02  0.8024944E-01
       -1   -1    0    0    0  501  0.00000000000E+00  0.00000000000E+00  0.17308155221E+04  0.17308155221E+04  0.50400001928E-02 0. -1.
        1   -1    0    0  501    0  0.00000000000E+00  0.00000000000E+00 -0.21974026840E+04  0.21974026840E+04  0.50400001928E-02 0.  1.
    10030    2    1    2    0    0  0.00000000000E+00  0.00000000000E+00 -0.46658716186E+03  0.39282182061E+04  0.39004095548E+04 0.  0.
        1    1    3    3  502    0 -0.46236021906E+03  0.97556537793E+03  0.14024145852E+04  0.17698224339E+04  0.50400001928E-02 0. -1.
       -1    1    3    3    0  502  0.46236021906E+03 -0.97556537793E+03 -0.18690017471E+04  0.21583957722E+04  0.50400001928E-02 0.  1.
</event>
<event>
 5   0  0.9078515E-09  0.3905846E+04  0.7818609E-02  0.8023814E-01
        2   -1    0    0  501    0  0.00000000000E+00  0.00000000000E+00  0.21427508293E+04  0.21427508293E+04  0.25500000920E-02 0. -1.
       -2   -1    0    0    0  501  0.00000000000E+00  0.00000000000E+00 -0.17799124822E+04  0.17799124822E+04  0.25500000920E-02 0.  1.
    10030    2    1    2    0    0  0.00000000000E+00  0.00000000000E+00  0.36283834708E+03  0.39226633116E+04  0.39058463602E+04 0.  0.
        3    1    3    3  502    0 -0.59725134266E+02  0.43713119587E+03  0.20920450659E+04  0.21380606497E+04  0.10100000352E+00 0. -1.
       -3    1    3    3    0  502  0.59725134266E+02 -0.43713119587E+03 -0.17292067188E+04  0.17846026618E+04  0.10100000352E+00 0.  1.
</event>
<event>
 5   0  0.9368546E-09  0.3901477E+04  0.7818609E-02  0.8024722E-01
        2   -1    0    0  501    0  0.00000000000E+00  0.00000000000E+00  0.27681040341E+04  0.27681040341E+04  0.25500000920E-02 0.  1.
       -2   -1    0    0    0  501  0.00000000000E+00  0.00000000000E+00 -0.13747243009E+04  0.13747243009E+04  0.25500000920E-02 0. -1.
    10030    2    1    2    0    0  0.00000000000E+00  0.00000000000E+00  0.13933797332E+04  0.41428283351E+04  0.39014765837E+04 0.  0.
        5    1    3    3  502    0 -0.64914564715E+03 -0.16418885936E+04 -0.18418793379E+03  0.17751437998E+04  0.46999998093E+01 0. -1.
       -5    1    3    3    0  502  0.64914564715E+03  0.16418885936E+04  0.15775676670E+04  0.23676845353E+04  0.46999998093E+01 0.  1.
</event>
<event>
 5   0  0.2929054E-09  0.3896573E+04  0.7818609E-02  0.8025742E-01
       -1   -1    0    0    0  501  0.00000000000E+00  0.00000000000E+00  0.26662857821E+04  0.26662857821E+04  0.50400001928E-02 0. -1.
        1   -1    0    0  501    0  0.00000000000E+00  0.00000000000E+00 -0.14236358879E+04  0.14236358879E+04  0.50400001928E-02 0.  1.
    10030    2    1    2    0    0  0.00000000000E+00  0.00000000000E+00  0.12426498941E+04  0.40899216700E+04  0.38965729183E+04 0.  0.
        1    1    3    3  502    0 -0.17016096587E+04 -0.36111191447E+03 -0.29967888393E+03  0.17651302159E+04  0.50400001928E-02 0.  1.
       -1    1    3    3    0  502  0.17016096587E+04  0.36111191447E+03  0.15423287781E+04  0.23247914541E+04  0.50400001928E-02 0. -1.
</event>
<event>
 5   0  0.2904500E-09  0.3893397E+04  0.7818609E-02  0.8026404E-01
       -1   -1    0    0    0  501  0.00000000000E+00  0.00000000000E+00  0.16161432916E+04  0.16161432917E+04  0.50400001928E-02 0. -1.
        1   -1    0    0  501    0  0.00000000000E+00  0.00000000000E+00 -0.23448632490E+04  0.23448632490E+04  0.50400001928E-02 0.  1.
    10030    2    1    2    0    0  0.00000000000E+00  0.00000000000E+00 -0.72871995734E+03  0.39610065407E+04  0.38933969794E+04 0.  0.
        4    1    3    3  502    0  0.60075750415E+03 -0.11323279451E+02  0.15194409374E+04  0.16339339554E+04  0.12699999809E+01 0. -1.
       -4    1    3    3    0  502 -0.60075750415E+03  0.11323279451E+02 -0.22481608947E+04  0.23270725853E+04  0.12699999809E+01 0.  1.
</event>
<event>
 5   0  0.2904500E-09  0.3901650E+04  0.7818609E-02  0.8024686E-01
       -1   -1    0    0    0  501  0.00000000000E+00  0.00000000000E+00  0.13012791325E+04  0.13012791325E+04  0.50400001928E-02 0.  1.
        1   -1    0    0  501    0  0.00000000000E+00  0.00000000000E+00 -0.29245973539E+04  0.29245973539E+04  0.50400001928E-02 0. -1.
    10030    2    1    2    0    0  0.00000000000E+00  0.00000000000E+00 -0.16233182214E+04  0.42258764864E+04  0.39016496550E+04 0.  0.
        5    1    3    3  502    0 -0.69905234521E+03  0.15781081915E+04 -0.17963844634E+04  0.24912083165E+04  0.46999998093E+01 0. -1.
       -5    1    3    3    0  502  0.69905234521E+03 -0.15781081915E+04  0.17306624206E+03  0.17346681699E+04  0.46999998093E+01 0.  1.
</event>
<event>
 5   0  0.2904500E-09  0.3901655E+04  0.7818609E-02  0.8024685E-01
       -1   -1    0    0    0  501  0.00000000000E+00  0.00000000000E+00  0.11843325802E+04  0.11843325802E+04  0.50400001928E-02 0. -1.
        1   -1    0    0  501    0  0.00000000000E+00  0.00000000000E+00 -0.32133952403E+04  0.32133952403E+04  0.50400001928E-02 0.  1.
    10030    2    1    2    0    0  0.00000000000E+00  0.00000000000E+00 -0.20290626601E+04  0.43977278205E+04  0.39016553801E+04 0.  0.
        5    1    3    3  502    0  0.10574649762E+04  0.27618876126E+03  0.80684221545E+03  0.13585024322E+04  0.46999998093E+01 0. -1.
       -5    1    3    3    0  502 -0.10574649762E+04 -0.27618876126E+03 -0.28359048755E+04  0.30392253883E+04  0.46999998093E+01 0.  1.
</event>
<event>
 5   0  0.9368546E-09  0.3897428E+04  0.7818609E-02  0.8025564E-01
        2   -1    0    0  501    0  0.00000000000E+00  0.00000000000E+00  0.26586319422E+04  0.26586319422E+04  0.25500000920E-02 0.  1.
       -2   -1    0    0    0  501  0.00000000000E+00  0.00000000000E+00 -0.14283613664E+04  0.14283613664E+04  0.25500000920E-02 0. -1.
    10030    2    1    2    0    0  0.00000000000E+00  0.00000000000E+00  0.12302705758E+04  0.40869933085E+04  0.38974284617E+04 0.  0.
        5    1    3    3  502    0  0.46842318773E+03 -0.15427290210E+04  0.17629187798E+04  0.23890035223E+04  0.46999998093E+01 0.  1.
       -5    1    3    3    0  502 -0.46842318773E+03  0.15427290210E+04 -0.53264820403E+03  0.16979897863E+04  0.46999998093E+01 0. -1.
</event>
<event>
 5   0  0.9078515E-09  0.3896808E+04  0.7818609E-02  0.8025693E-01
        2   -1    0    0  501    0  0.00000000000E+00  0.00000000000E+00  0.24052510640E+04  0.24052510640E+04  0.25500000920E-02 0.  1.
       -2   -1    0    0    0  501  0.00000000000E+00  0.00000000000E+00 -0.15783291858E+04  0.15783291858E+04  0.25500000920E-02 0. -1.
    10030    2    1    2    0    0  0.00000000000E+00  0.00000000000E+00  0.82692187823E+03  0.39835802498E+04  0.38968079006E+04 0.  0.
        3    1    3    3  502    0 -0.68408266954E+03  0.14783495064E+03 -0.14453952614E+04  0.16059239532E+04  0.10100000352E+00 0. -1.
       -3    1    3    3    0  502  0.68408266954E+03 -0.14783495064E+03  0.22723171397E+04  0.23776562966E+04  0.10100000352E+00 0.  1.
</event>
<event>
 5   0  0.9078515E-09  0.3900357E+04  0.7818609E-02  0.8024955E-01
       -2   -1    0    0    0  501  0.00000000000E+00  0.00000000000E+00  0.17558409676E+04  0.17558409676E+04  0.25500000920E-02 0.  1.
        2   -1    0    0  501    0  0.00000000000E+00  0.00000000000E+00 -0.21660249465E+04  0.21660249465E+04  0.25500000920E-02 0. -1.
    10030    2    1    2    0    0  0.00000000000E+00  0.00000000000E+00 -0.41018397881E+03  0.39218659141E+04  0.39003565673E+04 0.  0.
        3    1    3    3  502    0  0.18124119497E+04  0.37227786875E+03  0.41455920849E+03  0.18961242666E+04  0.10100000352E+00 0.  1.
       -3    1    3    3    0  502 -0.18124119497E+04 -0.37227786875E+03 -0.82474318730E+03  0.20257416475E+04  0.10100000352E+00 0. -1.
</event>
<event>
 5   0  0.9078515E-09  0.3900522E+04  0.7818609E-02  0.8024921E-01
        2   -1    0    0  501    0  0.00000000000E+00  0.00000000000E+00  0.12475670627E+04  0.12475670627E+04  0.25500000920E-02 0.  1.
       -2   -1    0    0    0  501  0.00000000000E+00  0.00000000000E+00 -0.30487485625E+04  0.30487485625E+04  0.25500000920E-02 0. -1.
    10030    2    1    2    0    0  0.00000000000E+00  0.00000000000E+00 -0.18011814998E+04  0.42963156251E+04  0.39005221645E+04 0.  0.
        3    1    3    3  502    0 -0.35158954471E+02  0.92811791436E+03  0.98832255829E+03  0.13562523749E+04  0.10100000352E+00 0.  1.
       -3    1    3    3    0  502  0.35158954471E+02 -0.92811791436E+03 -0.27895040581E+04  0.29400632502E+04  0.10100000352E+00 0. -1.
</event>
<event>
 5   0  0.2904500E-09  0.3899747E+04  0.7818609E-02  0.8025082E-01
        1   -1    0    0  501    0  0.00000000000E+00  0.00000000000E+00  0.27079670760E+04  0.27079670760E+04  0.50400001928E-02 0.  1.
       -1   -1    0    0    0  501  0.00000000000E+00  0.00000000000E+00 -0.14040076732E+04  0.14040076732E+04  0.50400001928E-02 0. -1.
    10030    2    1    2    0    0  0.00000000000E+00  0.00000000000E+00  0.13039594029E+04  0.41119747492E+04  0.38997469423E+04 0.  0.
        2    1    3    3  502    0  0.18970642537E+04  0.40345809230E+03  0.44010841603E+03  0.19888002999E+04  0.25500000920E-02 0.  1.
       -2    1    3    3    0  502 -0.18970642537E+04 -0.40345809230E+03  0.86385098684E+03  0.21231744493E+04  0.25500000920E-02 0. -1.
</event>
<event>
 5   0  0.9078515E-09  0.3900385E+04  0.7818609E-02  0.8024949E-01
       -2   -1    0    0    0  501  0.00000000000E+00  0.00000000000E+00  0.15307125625E+04  0.15307125625E+04  0.25500000920E-02 0. -1.
        2   -1    0    0  501    0  0.00000000000E+00  0.00000000000E+00 -0.24846282929E+04  0.24846282929E+04  0.25500000920E-02 0.  1.
    10030    2    1    2    0    0  0.00000000000E+00  0.00000000000E+00 -0.95391573041E+03  0.40153408554E+04  0.39003854891E+04 0.  0.
        3    1    3    3  502    0  0.24140838478E+03 -0.15516789880E+04 -0.16674424978E+04  0.22904912538E+04  0.10100000352E+00 0.  1.
       -3    1    3    3    0  502 -0.24140838478E+03  0.15516789880E+04  0.71352676736E+03  0.17248496016E+04  0.10100000352E+00 0. -1.
</event>
<event>
 5   0  0.6335942E-09  0.3899721E+04  0.7818609E-02  0.8025087E-01
       -2   -1    0    0    0  501  0.00000000000E+00  0.00000000000E+00  0.16457555264E+04  0.16457555264E+04  0.25500000920E-02 0. -1.
        2   -1    0    0  501    0  0.00000000000E+00  0.00000000000E+00 -0.23101578995E+04  0.23101578995E+04  0.25500000920E-02 0.  1.
    10030    2    1    2    0    0  0.00000000000E+00  0.00000000000E+00 -0.66440237306E+03  0.39559134259E+04  0.38997205695E+04 0.  0.
        2    1    3    3  502    0  0.78120624218E+03 -0.10540587210E+04  0.11310232379E+04  0.17322056878E+04  0.25500000920E-02 0. -1.
       -2    1    3    3    0  502 -0.78120624218E+03  0.10540587210E+04 -0.17954256110E+04  0.22237077381E+04  0.25500000920E-02 0.  1.
</event>
<event>
 5   0  0.9078515E-09  0.3910407E+04  0.7818609E-02  0.8022868E-01
       -2   -1    0    0    0  501  0.00000000000E+00  0.00000000000E+00  0.15076555251E+04  0.15076555252E+04  0.25500000920E-02 0. -1.
        2   -1    0    0  501    0  0.00000000000E+00  0.00000000000E+00 -0.25356056999E+04  0.25356056999E+04  0.25500000920E-02 0.  1.
    10030    2    1    2    0    0  0.00000000000E+00  0.00000000000E+00 -0.10279501747E+04  0.40432612250E+04  0.39104065993E+04 0.  0.
        3    1    3    3  502    0  0.63840620889E+03 -0.64171988654E+03 -0.23059020582E+04  0.24772063323E+04  0.10100000352E+00 0.  1.
       -3    1    3    3    0  502 -0.63840620889E+03  0.64171988654E+03  0.12779518835E+04  0.15660548927E+04  0.10100000352E+00 0. -1.
</event>
<event>
 5   0  0.9368546E-09  0.3899872E+04  0.7818609E-02  0.8025056E-01
       -2   -1    0    0    0  501  0.00000000000E+00  0.00000000000E+00  0.13178680474E+04  0.13178680474E+04  0.25500000920E-02 0. -1.
        2   -1    0    0  501    0  0.00000000000E+00  0.00000000000E+00 -0.28851520553E+04  0.28851520553E+04  0.25500000920E-02 0.  1.
    10030    2    1    2    0    0  0.00000000000E+00  0.00000000000E+00 -0.15672840079E+04  0.42030201027E+04  0.38998716418E+04 0.  0.
        5    1    3    3  502    0 -0.83319086695E+03 -0.84944179284E+03  0.88126152616E+03  0.14806763143E+04  0.46999998093E+01 0. -1.
       -5    1    3    3    0  502  0.83319086695E+03  0.84944179284E+03 -0.24485455341E+04  0.27223437885E+04  0.46999998093E+01 0.  1.
</event>
<event>
 5   0  0.6335942E-09  0.3920430E+04  0.7818609E-02  0.8020794E-01
       -2   -1    0    0    0  501  0.00000000000E+00  0.00000000000E+00  0.16753222192E+04  0.16753222192E+04  0.25500000920E-02 0. -1.
        2   -1    0    0  501    0  0.00000000000E+00  0.00000000000E+00 -0.22935540374E+04  0.22935540374E+04  0.25500000920E-02 0.  1.
    10030    2    1    2    0    0  0.00000000000E+00  0.00000000000E+00 -0.61823181826E+03  0.39688762566E+04  0.39204295886E+04 0.  0.
        2    1    3    3  502    0  0.16526562637E+04 -0.97410416100E+03  0.98715163724E+02  0.19209102858E+04  0.25500000920E-02 0. -1.
       -2    1    3    3    0  502 -0.16526562637E+04  0.97410416100E+03 -0.71694698198E+03  0.20479659708E+04  0.25500000920E-02 0.  1.
</event>
<event>
 5   0  0.2904500E-09  0.3898012E+04  0.7818609E-02  0.8025443E-01
        1   -1    0    0  501    0  0.00000000000E+00  0.00000000000E+00  0.18095528265E+04  0.18095528265E+04  0.50400001928E-02 0.  1.
       -1   -1    0    0    0  501  0.00000000000E+00  0.00000000000E+00 -0.20992066264E+04  0.20992066264E+04  0.50400001928E-02 0. -1.
    10030    2    1    2    0    0  0.00000000000E+00  0.00000000000E+00 -0.28965379982E+03  0.39087594529E+04  0.38980124598E+04 0.  0.
        2    1    3    3  502    0  0.14680170396E+04  0.16797097569E+03 -0.14192900799E+04  0.20488222490E+04  0.25500000920E-02 0. -1.
       -2    1    3    3    0  502 -0.14680170396E+04 -0.16797097569E+03  0.11296362801E+04  0.18599372039E+04  0.25500000920E-02 0.  1.
</event>
<event>
 5   0  0.2904500E-09  0.3902765E+04  0.7818609E-02  0.8024454E-01
        1   -1    0    0  501    0  0.00000000000E+00  0.00000000000E+00  0.18982427510E+04  0.18982427510E+04  0.50400001928E-02 0.  1.
       -1   -1    0    0    0  501  0.00000000000E+00  0.00000000000E+00 -0.20060098545E+04  0.20060098545E+04  0.50400001928E-02 0. -1.
    10030    2    1    2    0    0  0.00000000000E+00  0.00000000000E+00 -0.10776710350E+03  0.39042526055E+04  0.39027650017E+04 0.  0.
        2    1    3    3  502    0 -0.10906571529E+04  0.11406812828E+04  0.10942502351E+04  0.19204349484E+04  0.25500000920E-02 0.  1.
       -2    1    3    3    0  502  0.10906571529E+04 -0.11406812828E+04 -0.12020173386E+04  0.19838176570E+04  0.25500000920E-02 0. -1.
</event>
<event>
 5   0  0.9434114E-09  0.3900466E+04  0.7818609E-02  0.8024932E-01
       -2   -1    0    0    0  501  0.00000000000E+00  0.00000000000E+00  0.26599410898E+04  0.26599410898E+04  0.25500000920E-02 0. -1.
        2   -1    0    0  501    0  0.00000000000E+00  0.00000000000E+00 -0.14298849139E+04  0.14298849139E+04  0.25500000920E-02 0.  1.
    10030    2    1    2    0    0  0.00000000000E+00  0.00000000000E+00  0.12300561759E+04  0.40898260037E+04  0.39004664522E+04 0.  0.
        4    1    3    3  502    0 -0.80036269320E+03 -0.17197060506E+03  0.24710626757E+04  0.26031340130E+04  0.12699999809E+01 0. -1.
       -4    1    3    3    0  502  0.80036269320E+03  0.17197060506E+03 -0.12410064998E+04  0.14866919907E+04  0.12699999809E+01 0.  1.
</event>
<event>
 5   0  0.2904500E-09  0.3901953E+04  0.7818609E-02  0.8024623E-01
        1   -1    0    0  501    0  0.00000000000E+00  0.00000000000E+00  0.16432919587E+04  0.16432919587E+04  0.50400001928E-02 0. -1.
       -1   -1    0    0    0  501  0.00000000000E+00  0.00000000000E+00 -0.23162709467E+04  0.23162709467E+04  0.50400001928E-02 0.  1.
    10030    2    1    2    0    0  0.00000000000E+00  0.00000000000E+00 -0.67297898802E+03  0.39595629054E+04  0.39019530602E+04 0.  0.
        3    1    3    3  502    0 -0.68911903325E+03  0.79851213033E+03  0.13290237943E+04  0.16967059027E+04  0.10100000352E+00 0. -1.
       -3    1    3    3    0  502  0.68911903325E+03 -0.79851213033E+03 -0.20020027823E+04  0.22628570027E+04  0.10100000352E+00 0.  1.
</event>
<event>
 5   0  0.9368546E-09  0.3899506E+04  0.7818609E-02  0.8025132E-01
        2   -1    0    0  501    0  0.00000000000E+00  0.00000000000E+00  0.20985359641E+04  0.20985359641E+04  0.25500000920E-02 0.  1.
       -2   -1    0    0    0  501  0.00000000000E+00  0.00000000000E+00 -0.18115183467E+04  0.18115183467E+04  0.25500000920E-02 0. -1.
    10030    2    1    2    0    0  0.00000000000E+00  0.00000000000E+00  0.28701761740E+03  0.39100543108E+04  0.38995058149E+04 0.  0.
        5    1    3    3  502    0  0.72214857119E+03  0.84242110225E+03  0.17510744333E+04  0.20730305433E+04  0.46999998093E+01 0.  1.
       -5    1    3    3    0  502 -0.72214857119E+03 -0.84242110225E+03 -0.14640568159E+04  0.18370237675E+04  0.46999998093E+01 0. -1.
</event>
<event>
 5   0  0.9277261E-09  0.3899894E+04  0.7818609E-02  0.8025051E-01
       -2   -1    0    0    0  501  0.00000000000E+00  0.00000000000E+00  0.18443808851E+04  0.18443808851E+04  0.25500000920E-02 0. -1.
        2   -1    0    0  501    0  0.00000000000E+00  0.00000000000E+00 -0.20615552289E+04  0.20615552289E+04  0.25500000920E-02 0.  1.
    10030    2    1    2    0    0  0.00000000000E+00  0.00000000000E+00 -0.21717434375E+03  0.39059361140E+04  0.38998938743E+04 0.  0.
        1    1    3    3  502    0  0.36817380657E+03  0.19062703453E+04  0.73006943168E+02  0.19428712245E+04  0.50400001928E-02 0. -1.
       -1    1    3    3    0  502 -0.36817380657E+03 -0.19062703453E+04 -0.29018128692E+03  0.19630648895E+04  0.50400001928E-02 0.  1.
</event>
<event>
 5   0  0.9078515E-09  0.3898881E+04  0.7818609E-02  0.8025262E-01
       -2   -1    0    0    0  501  0.00000000000E+00  0.00000000000E+00  0.14609528547E+04  0.14609528547E+04  0.25500000920E-02 0. -1.
        2   -1    0    0  501    0  0.00000000000E+00  0.00000000000E+00 -0.26012605980E+04  0.26012605980E+04  0.25500000920E-02 0.  1.
    10030    2    1    2    0    0  0.00000000000E+00  0.00000000000E+00 -0.11403077433E+04  0.40622134527E+04  0.38988814275E+04 0.  0.
        3    1    3    3  502    0 -0.14010191894E+04 -0.74293444218E+03 -0.17514557746E+04  0.23627110900E+04  0.10100000352E+00 0.  1.
       -3    1    3    3    0  502  0.14010191894E+04  0.74293444218E+03  0.61114803127E+03  0.16995023627E+04  0.10100000352E+00 0. -1.
</event>
<event>
 5   0  0.6335942E-09  0.3901628E+04  0.7818609E-02  0.8024691E-01
       -2   -1    0    0    0  501  0.00000000000E+00  0.00000000000E+00  0.20875975954E+04  0.20875975954E+04  0.25500000920E-02 0.  1.
        2   -1    0    0  501    0  0.00000000000E+00  0.00000000000E+00 -0.18229923280E+04  0.18229923280E+04  0.25500000920E-02 0. -1.
    10030    2    1    2    0    0  0.00000000000E+00  0.00000000000E+00  0.26460526732E+03  0.39105899234E+04  0.39016275580E+04 0.  0.
        2    1    3    3  502    0 -0.13657121583E+04  0.10079140205E+03  0.15248629778E+04  0.20495208482E+04  0.25500000920E-02 0.  1.
       -2    1    3    3    0  502  0.13657121583E+04 -0.10079140205E+03 -0.12602577104E+04  0.18610690752E+04  0.25500000920E-02 0. -1.
</event>
<event>
 5   0  0.2929054E-09  0.3900536E+04  0.7818609E-02  0.8024918E-01
        1   -1    0    0  501    0  0.00000000000E+00  0.00000000000E+00  0.22799179116E+04  0.22799179116E+04  0.50400001928E-02 0.  1.
       -1   -1    0    0    0  501  0.00000000000E+00  0.00000000000E+00 -0.16682816245E+04  0.16682816245E+04  0.50400001928E-02 0. -1.
    10030    2    1    2    0    0  0.00000000000E+00  0.00000000000E+00  0.61163628705E+03  0.39481995361E+04  0.39005359413E+04 0.  0.
        1    1    3    3  502    0 -0.90036409962E+03 -0.12930128542E+04 -0.85757750491E+03  0.17938720495E+04  0.50400001928E-02 0. -1.
       -1    1    3    3    0  502  0.90036409962E+03  0.12930128542E+04  0.14692137920E+04  0.21543274866E+04  0.50400001928E-02 0.  1.
</event>
<event>
 5   0  0.9434114E-09  0.3905095E+04  0.7818609E-02  0.8023970E-01
       -2   -1    0    0    0  501  0.00000000000E+00  0.00000000000E+00  0.16178727106E+04  0.16178727106E+04  0.25500000920E-02 0. -1.
        2   -1    0    0  501    0  0.00000000000E+00  0.00000000000E+00 -0.23564538966E+04  0.23564538966E+04  0.25500000920E-02 0.  1.
    10030    2    1    2    0    0  0.00000000000E+00  0.00000000000E+00 -0.73858118601E+03  0.39743266072E+04  0.39050953654E+04 0.  0.
        4    1    3    3  502    0 -0.13014257374E+04  0.74568591080E+03 -0.16415262113E+04  0.22235931154E+04  0.12699999809E+01 0.  1.
       -4    1    3    3    0  502  0.13014257374E+04 -0.74568591080E+03  0.90294502531E+03  0.17507334918E+04  0.12699999809E+01 0. -1.
</event>
<event>
 5   0  0.2929054E-09  0.3887588E+04  0.7818609E-02  0.8027616E-01
        1   -1    0    0  501    0  0.00000000000E+00  0.00000000000E+00  0.18455556191E+04  0.18455556191E+04  0.50400001928E-02 0. -1.
       -1   -1    0    0    0  501  0.00000000000E+00  0.00000000000E+00 -0.20472616377E+04  0.20472616377E+04  0.50400001928E-02 0.  1.
    10030    2    1    2    0    0  0.00000000000E+00  0.00000000000E+00 -0.20170601862E+03  0.38928172568E+04  0.38875880539E+04 0.  0.
        1    1    3    3  502    0  0.94318529512E+03  0.44664345269E+03  0.15412449877E+04  0.18613234504E+04  0.50400001928E-02 0. -1.
       -1    1    3    3    0  502 -0.94318529512E+03 -0.44664345269E+03 -0.17429510063E+04  0.20314938064E+04  0.50400001928E-02 0.  1.
</event>
<event>
 5   0  0.9078515E-09  0.3903458E+04  0.7818609E-02  0.8024310E-01
       -2   -1    0    0    0  501  0.00000000000E+00  0.00000000000E+00  0.22712707651E+04  0.22712707651E+04  0.25500000920E-02 0. -1.
        2   -1    0    0  501    0  0.00000000000E+00  0.00000000000E+00 -0.16771427882E+04  0.16771427882E+04  0.25500000920E-02 0.  1.
    10030    2    1    2    0    0  0.00000000000E+00  0.00000000000E+00  0.59412797691E+03  0.39484135533E+04  0.39034576385E+04 0.  0.
        3    1    3    3  502    0  0.77237827449E+03 -0.93849655138E+03  0.18417074655E+04  0.22066332669E+04  0.10100000352E+00 0. -1.
       -3    1    3    3    0  502 -0.77237827449E+03  0.93849655138E+03 -0.12475794886E+04  0.17417802865E+04  0.10100000352E+00 0.  1.
</event>
<event>
 5   0  0.9078515E-09  0.3897397E+04  0.7818609E-02  0.8025571E-01
        2   -1    0    0  501    0  0.00000000000E+00  0.00000000000E+00  0.20582399305E+04  0.20582399305E+04  0.25500000920E-02 0.  1.
       -2   -1    0    0    0  501  0.00000000000E+00  0.00000000000E+00 -0.18449868105E+04  0.18449868105E+04  0.25500000920E-02 0. -1.
    10030    2    1    2    0    0  0.00000000000E+00  0.00000000000E+00  0.21325311996E+03  0.39032267410E+04  0.38973968361E+04 0.  0.
        3    1    3    3  502    0  0.13646775225E+04 -0.30841059343E+03 -0.12518550928E+04  0.18773926116E+04  0.10100000352E+00 0. -1.
       -3    1    3    3    0  502 -0.13646775225E+04  0.30841059343E+03  0.14651082127E+04  0.20258341294E+04  0.10100000352E+00 0.  1.
</event>
<event>
 5   0  0.2904500E-09  0.3899965E+04  0.7818609E-02  0.8025036E-01
        1   -1    0    0  501    0  0.00000000000E+00  0.00000000000E+00  0.28058162646E+04  0.28058162646E+04  0.50400001928E-02 0. -1.
       -1   -1    0    0    0  501  0.00000000000E+00  0.00000000000E+00 -0.13551965238E+04  0.13551965238E+04  0.50400001928E-02 0.  1.
    10030    2    1    2    0    0  0.00000000000E+00  0.00000000000E+00  0.14506197408E+04  0.41610127884E+04  0.38999653579E+04 0.  0.
        4    1    3    3  502    0 -0.12812079632E+04 -0.13333619179E+04  0.64943827202E+02  0.18502883999E+04  0.12699999809E+01 0.  1.
       -4    1    3    3    0  502  0.12812079632E+04  0.13333619179E+04  0.13856759136E+04  0.23107243885E+04  0.12699999809E+01 0. -1.
</event>
<event>
 5   0  0.2929054E-09  0.3899528E+04  0.7818609E-02  0.8025127E-01
        1   -1    0    0  501    0  0.00000000000E+00  0.00000000000E+00  0.19843074918E+04  0.19843074918E+04  0.50400001928E-02 0.  1.
       -1   -1    0    0    0  501  0.00000000000E+00  0.00000000000E+00 -0.19158218396E+04  0.19158218396E+04  0.50400001928E-02 0. -1.
    10030    2    1    2    0    0  0.00000000000E+00  0.00000000000E+00  0.68485652174E+02  0.39001293314E+04  0.38995279864E+04 0.  0.
        1    1    3    3  502    0  0.13005871119E+04  0.11836774760E+03 -0.14137517801E+04  0.19246381102E+04  0.50400001928E-02 0. -1.
       -1    1    3    3    0  502 -0.13005871119E+04 -0.11836774760E+03  0.14822374323E+04  0.19754912212E+04  0.50400001928E-02 0.  1.
</event>
<event>
 5   0  0.9277261E-09  0.3897876E+04  0.7818609E-02  0.8025471E-01
       -2   -1    0    0    0  501  0.00000000000E+00  0.00000000000E+00  0.18983781738E+04  0.18983781738E+04  0.25500000920E-02 0.  1.
        2   -1    0    0  501    0  0.00000000000E+00  0.00000000000E+00 -0.20008443533E+04  0.20008443533E+04  0.25500000920E-02 0. -1.
    10030    2    1    2    0    0  0.00000000000E+00  0.00000000000E+00 -0.10246617951E+03  0.38992225271E+04  0.38978759597E+04 0.  0.
        1    1    3    3  502    0  0.19251580897E+04 -0.42624271410E+02 -0.35185104927E+03  0.19575110881E+04  0.50400001928E-02 0. -1.
       -1    1    3    3    0  502 -0.19251580897E+04  0.42624271410E+02  0.24938486975E+03  0.19417114390E+04  0.50400001928E-02 0.  1.
</event>
<event>
 5   0  0.2904500E-09  0.3896420E+04  0.7818609E-02  0.8025774E-01
       -1   -1    0    0    0  501  0.00000000000E+00  0.00000000000E+00  0.19442452276E+04  0.19442452276E+04  0.50400001928E-02 0. -1.
        1   -1    0    0  501    0  0.00000000000E+00  0.00000000000E+00 -0.19521826716E+04  0.19521826716E+04  0.50400001928E-02 0.  1.
    10030    2    1    2    0    0  0.00000000000E+00  0.00000000000E+00 -0.79374440592E+01  0.38964278992E+04  0.38964198145E+04 0.  0.
        2    1    3    3  502    0 -0.15569364915E+04 -0.11611678798E+04  0.14821490188E+03  0.19479039352E+04  0.25500000920E-02 0. -1.
       -2    1    3    3    0  502  0.15569364915E+04  0.11611678798E+04 -0.15615234594E+03  0.19485239641E+04  0.25500000920E-02 0.  1.
</event>
<event>
 5   0  0.9078515E-09  0.3901036E+04  0.7818609E-02  0.8024814E-01
       -2   -1    0    0    0  501  0.00000000000E+00  0.00000000000E+00  0.17478791929E+04  0.17478791929E+04  0.25500000920E-02 0.  1.
        2   -1    0    0  501    0  0.00000000000E+00  0.00000000000E+00 -0.21766496624E+04  0.21766496624E+04  0.25500000920E-02 0. -1.
    10030    2    1    2    0    0  0.00000000000E+00  0.00000000000E+00 -0.42877046954E+03  0.39245288553E+04  0.39010360958E+04 0.  0.
        3    1    3    3  502    0 -0.18846775477E+04  0.49825573407E+03 -0.14878202088E+03  0.19550970142E+04  0.10100000352E+00 0. -1.
       -3    1    3    3    0  502  0.18846775477E+04 -0.49825573407E+03 -0.27998844866E+03  0.19694318411E+04  0.10100000352E+00 0.  1.
</event>
<event>
 5   0  0.2904500E-09  0.3897840E+04  0.7818609E-02  0.8025479E-01
       -1   -1    0    0    0  501  0.00000000000E+00  0.00000000000E+00  0.23722322552E+04  0.23722322552E+04  0.50400001928E-02 0.  1.
        1   -1    0    0  501    0  0.00000000000E+00  0.00000000000E+00 -0.16011451625E+04  0.16011451626E+04  0.50400001928E-02 0. -1.
    10030    2    1    2    0    0  0.00000000000E+00  0.00000000000E+00  0.77108709264E+03  0.39733774177E+04  0.38978395041E+04 0.  0.
        2    1    3    3  502    0  0.52037480294E+02  0.16516071796E+04  0.14389004411E+04  0.21911067191E+04  0.25500000920E-02 0.  1.
       -2    1    3    3    0  502 -0.52037480294E+02 -0.16516071796E+04 -0.66781334845E+03  0.17822706987E+04  0.25500000920E-02 0. -1.
</event>
<event>
 5   0  0.2904500E-09  0.3906334E+04  0.7818609E-02  0.8023713E-01
        1   -1    0    0  501    0  0.00000000000E+00  0.00000000000E+00  0.15383932014E+04  0.15383932014E+04  0.50400001928E-02 0. -1.
       -1   -1    0    0    0  501  0.00000000000E+00  0.00000000000E+00 -0.24797693811E+04  0.24797693811E+04  0.50400001928E-02 0.  1.
    10030    2    1    2    0    0  0.00000000000E+00  0.00000000000E+00 -0.94137617970E+03  0.40181625825E+04  0.39063335018E+04 0.  0.
        5    1    3    3  502    0 -0.60373475811E+03 -0.15132777079E+03 -0.23750227706E+04  0.24552293178E+04  0.46999998093E+01 0.  1.
       -5    1    3    3    0  502  0.60373475811E+03  0.15132777079E+03  0.14336465909E+04  0.15629332647E+04  0.46999998093E+01 0. -1.
</event>
<event>
 5   0  0.2929054E-09  0.3899659E+04  0.7818609E-02  0.8025100E-01
        1   -1    0    0  501    0  0.00000000000E+00  0.00000000000E+00  0.18408389869E+04  0.18408389870E+04  0.50400001928E-02 0. -1.
       -1   -1    0    0    0  501  0.00000000000E+00  0.00000000000E+00 -0.20652727967E+04  0.20652727967E+04  0.50400001928E-02 0.  1.
    10030    2    1    2    0    0  0.00000000000E+00  0.00000000000E+00 -0.22443380975E+03  0.39061117837E+04  0.38996587968E+04 0.  0.
        1    1    3    3  502    0  0.10423536274E+04  0.20064029282E+03 -0.17504896538E+04  0.20471862739E+04  0.50400001928E-02 0.  1.
       -1    1    3    3    0  502 -0.10423536274E+04 -0.20064029282E+03  0.15260558441E+04  0.18589255098E+04  0.50400001928E-02 0. -1.
</event>
<event>
 5   0  0.9368546E-09  0.3899500E+04  0.7818609E-02  0.8025133E-01
       -2   -1    0    0    0  501  0.00000000000E+00  0.00000000000E+00  0.11330731772E+04  0.11330731772E+04  0.25500000920E-02 0.  1.
        2   -1    0    0  501    0  0.00000000000E+00  0.00000000000E+00 -0.33550573073E+04  0.33550573073E+04  0.25500000920E-02 0. -1.
    10030    2    1    2    0    0  0.00000000000E+00  0.00000000000E+00 -0.22219841301E+04  0.44881304845E+04  0.38995001951E+04 0.  0.
        5    1    3    3  502    0  0.54452938437E+03 -0.81074209332E+03  0.83124732840E+03  0.12825011514E+04  0.46999998093E+01 0.  1.
       -5    1    3    3    0  502 -0.54452938437E+03  0.81074209332E+03 -0.30532314585E+04  0.32056293331E+04  0.46999998093E+01 0. -1.
</event>
<event>
 5   0  0.2904500E-09  0.3900525E+04  0.7818609E-02  0.8024920E-01
        1   -1    0    0  501    0  0.00000000000E+00  0.00000000000E+00  0.23862236695E+04  0.23862236695E+04  0.50400001928E-02 0. -1.
       -1   -1    0    0    0  501  0.00000000000E+00  0.00000000000E+00 -0.15939511267E+04  0.15939511267E+04  0.50400001928E-02 0.  1.
    10030    2    1    2    0    0  0.00000000000E+00  0.00000000000E+00  0.79227254285E+03  0.39801747962E+04  0.39005250450E+04 0.  0.
        2    1    3    3  502    0 -0.98014575689E+03 -0.63941166601E+03  0.19881197327E+04  0.23069792055E+04  0.25500000920E-02 0. -1.
       -2    1    3    3    0  502  0.98014575689E+03  0.63941166601E+03 -0.11958471898E+04  0.16731955907E+04  0.25500000920E-02 0.  1.
</event>
<event>
 5   0  0.2904500E-09  0.3899413E+04  0.7818609E-02  0.8025151E-01
       -1   -1    0    0    0  501  0.00000000000E+00  0.00000000000E+00  0.14449040930E+04  0.14449040930E+04  0.50400001928E-02 0.  1.
        1   -1    0    0  501    0  0.00000000000E+00  0.00000000000E+00 -0.26308704164E+04  0.26308704164E+04  0.50400001928E-02 0. -1.
    10030    2    1    2    0    0  0.00000000000E+00  0.00000000000E+00 -0.11859663234E+04  0.40757745094E+04  0.38994129983E+04 0.  0.
        3    1    3    3  502    0  0.16618337673E+04  0.98362985234E+03 -0.87371246180E+03  0.21195736913E+04  0.10100000352E+00 0. -1.
       -3    1    3    3    0  502 -0.16618337673E+04 -0.98362985234E+03 -0.31225386162E+03  0.19562008181E+04  0.10100000352E+00 0.  1.
</event>
<event>
 5   0  0.9078515E-09  0.3900691E+04  0.7818609E-02  0.8024885E-01
       -2   -1    0    0    0  501  0.00000000000E+00  0.00000000000E+00  0.25778789600E+04  0.25778789600E+04  0.25500000920E-02 0. -1.
        2   -1    0    0  501    0  0.00000000000E+00  0.00000000000E+00 -0.14755727112E+04  0.14755727112E+04  0.25500000920E-02 0.  1.
    10030    2    1    2    0    0  0.00000000000E+00  0.00000000000E+00  0.11023062489E+04  0.40534516712E+04  0.39006911419E+04 0.  0.
        3    1    3    3  502    0 -0.64610937862E+03  0.16775410357E+04  0.13372481324E+04  0.22404985680E+04  0.10100000352E+00 0. -1.
       -3    1    3    3    0  502  0.64610937862E+03 -0.16775410357E+04 -0.23494188351E+03  0.18129531032E+04  0.10100000352E+00 0.  1.
</event>
<event>
 5   0  0.9368546E-09  0.3900943E+04  0.7818609E-02  0.8024833E-01
       -2   -1    0    0    0  501  0.00000000000E+00  0.00000000000E+00  0.18449884115E+04  0.18449884115E+04  0.25500000920E-02 0. -1.
        2   -1    0    0  501    0  0.00000000000E+00  0.00000000000E+00 -0.20619857310E+04  0.20619857310E+04  0.25500000920E-02 0.  1.
    10030    2    1    2    0    0  0.00000000000E+00  0.00000000000E+00 -0.21699731957E+03  0.39069741425E+04  0.39009433620E+04 0.  0.
        5    1    3    3  502    0  0.18878194757E+04 -0.34625586273E+03  0.23925880539E+03  0.19341722677E+04  0.46999998093E+01 0.  1.
       -5    1    3    3    0  502 -0.18878194757E+04  0.34625586273E+03 -0.45625612496E+03  0.19728018747E+04  0.46999998093E+01 0. -1.
</event>
<event>
 5   0  0.9277261E-09  0.3899759E+04  0.7818609E-02  0.8025079E-01
        2   -1    0    0  501    0  0.00000000000E+00  0.00000000000E+00  0.18284809862E+04  0.18284809862E+04  0.25500000920E-02 0.  1.
       -2   -1    0    0    0  501  0.00000000000E+00  0.00000000000E+00 -0.20793384552E+04  0.20793384552E+04  0.25500000920E-02 0. -1.
    10030    2    1    2    0    0  0.00000000000E+00  0.00000000000E+00 -0.25085746898E+03  0.39078194414E+04  0.38997593921E+04 0.  0.
        1    1    3    3  502    0  0.13163033947E+04  0.54135214332E+03 -0.14609676680E+04  0.20396429337E+04  0.50400001928E-02 0. -1.
       -1    1    3    3    0  502 -0.13163033947E+04 -0.54135214332E+03  0.12101101991E+04  0.18681765077E+04  0.50400001928E-02 0.  1.
</event>
<event>
 5   0  0.2904500E-09  0.3900256E+04  0.7818609E-02  0.8024976E-01
       -1   -1    0    0    0  501  0.00000000000E+00  0.00000000000E+00  0.16255798081E+04  0.16255798081E+04  0.50400001928E-02 0. -1.
        1   -1    0    0  501    0  0.00000000000E+00  0.00000000000E+00 -0.23394730162E+04  0.23394730162E+04  0.50400001928E-02 0.  1.
    10030    2    1    2    0    0  0.00000000000E+00  0.00000000000E+00 -0.71389320812E+03  0.39650528243E+04  0.39002564514E+04 0.  0.
        4    1    3    3  502    0  0.10265722888E+04  0.82229240298E+02  0.13265805237E+04  0.16794135318E+04  0.12699999809E+01 0. -1.
       -4    1    3    3    0  502 -0.10265722888E+04 -0.82229240298E+02 -0.20404737318E+04  0.22856392925E+04  0.12699999809E+01 0.  1.
</event>
<event>
 5   0  0.2904500E-09  0.3899953E+04  0.7818609E-02  0.8025039E-01
        1   -1    0    0  501    0  0.00000000000E+00  0.00000000000E+00  0.17664467040E+04  0.17664467040E+04  0.50400001928E-02 0. -1.
       -1   -1    0    0    0  501  0.00000000000E+00  0.00000000000E+00 -0.21525746996E+04  0.21525746996E+04  0.50400001928E-02 0.  1.
    10030    2    1    2    0    0  0.00000000000E+00  0.00000000000E+00 -0.38612799560E+03  0.39190214036E+04  0.38999530680E+04 0.  0.
        3    1    3    3  502    0 -0.97110726628E+03 -0.16818572911E+04 -0.36917843022E+03  0.19768626644E+04  0.10100000352E+00 0.  1.
       -3    1    3    3    0  502  0.97110726628E+03  0.16818572911E+04 -0.16949565383E+02  0.19421587392E+04  0.10100000352E+00 0. -1.
</event>
<event>
 5   0  0.2929054E-09  0.3904522E+04  0.7818609E-02  0.8024089E-01
       -1   -1    0    0    0  501  0.00000000000E+00  0.00000000000E+00  0.31820378700E+04  0.31820378700E+04  0.50400001928E-02 0. -1.
        1   -1    0    0  501    0  0.00000000000E+00  0.00000000000E+00 -0.11977616319E+04  0.11977616319E+04  0.50400001928E-02 0.  1.
    10030    2    1    2    0    0  0.00000000000E+00  0.00000000000E+00  0.19842762381E+04  0.43797995019E+04  0.39045219281E+04 0.  0.
        1    1    3    3  502    0  0.16970582166E+04 -0.59996906738E+03  0.14424956707E+03  0.18057622794E+04  0.50400001928E-02 0. -1.
       -1    1    3    3    0  502 -0.16970582166E+04  0.59996906738E+03  0.18400266710E+04  0.25740372224E+04  0.50400001928E-02 0.  1.
</event>
<event>
 5   0  0.6335942E-09  0.3899321E+04  0.7818609E-02  0.8025170E-01
       -2   -1    0    0    0  501  0.00000000000E+00  0.00000000000E+00  0.17809249345E+04  0.17809249345E+04  0.25500000920E-02 0.  1.
        2   -1    0    0  501    0  0.00000000000E+00  0.00000000000E+00 -0.21343830904E+04  0.21343830904E+04  0.25500000920E-02 0. -1.
    10030    2    1    2    0    0  0.00000000000E+00  0.00000000000E+00 -0.35345815591E+03  0.39153080249E+04  0.38993210001E+04 0.  0.
        2    1    3    3  502    0 -0.31311138745E+02  0.13906337488E+04  0.11950101751E+04  0.18338189467E+04  0.25500000920E-02 0.  1.
       -2    1    3    3    0  502  0.31311138745E+02 -0.13906337488E+04 -0.15484683310E+04  0.20814890782E+04  0.25500000920E-02 0. -1.
</event>
<event>
 5   0  0.2929054E-09  0.3903698E+04  0.7818609E-02  0.8024261E-01
       -1   -1    0    0    0  501  0.00000000000E+00  0.00000000000E+00  0.15122654938E+04  0.15122654938E+04  0.50400001928E-02 0.  1.
        1   -1    0    0  501    0  0.00000000000E+00  0.00000000000E+00 -0.25192103096E+04  0.25192103096E+04  0.50400001928E-02 0. -1.
    10030    2    1    2    0    0  0.00000000000E+00  0.00000000000E+00 -0.10069448158E+04  0.40314758034E+04  0.39036981558E+04 0.  0.
        1    1    3    3  502    0  0.11096147283E+04  0.95918511012E+03  0.82648248516E+03  0.16835540440E+04  0.50400001928E-02 0.  1.
       -1    1    3    3    0  502 -0.11096147283E+04 -0.95918511012E+03 -0.18334273009E+04  0.23479217594E+04  0.50400001928E-02 0. -1.
</event>
<event>
 5   0  0.9368546E-09  0.3899717E+04  0.7818609E-02  0.8025088E-01
       -2   -1    0    0    0  501  0.00000000000E+00  0.00000000000E+00  0.15106134869E+04  0.15106134869E+04  0.25500000920E-02 0. -1.
        2   -1    0    0  501    0  0.00000000000E+00  0.00000000000E+00 -0.25168235679E+04  0.25168235679E+04  0.25500000920E-02 0.  1.
    10030    2    1    2    0    0  0.00000000000E+00  0.00000000000E+00 -0.10062100810E+04  0.40274370547E+04  0.38997167208E+04 0.  0.
        5    1    3    3  502    0 -0.13147127363E+03 -0.43770934628E+03  0.14545105450E+04  0.15246301791E+04  0.46999998093E+01 0. -1.
       -5    1    3    3    0  502  0.13147127363E+03  0.43770934628E+03 -0.24607206260E+04  0.25028068756E+04  0.46999998093E+01 0.  1.
</event>
<event>
 5   0  0.2904500E-09  0.3901342E+04  0.7818609E-02  0.8024750E-01
        1   -1    0    0  501    0  0.00000000000E+00  0.00000000000E+00  0.28397594801E+04  0.28397594801E+04  0.50400001928E-02 0.  1.
       -1   -1    0    0    0  501  0.00000000000E+00  0.00000000000E+00 -0.13399436043E+04  0.13399436043E+04  0.50400001928E-02 0. -1.
    10030    2    1    2    0    0  0.00000000000E+00  0.00000000000E+00  0.14998158758E+04  0.41797030845E+04  0.39013421041E+04 0.  0.
        4    1    3    3  502    0 -0.73015720277E+03  0.16757052587E+04  0.20131924181E+02  0.18279837423E+04  0.12699999809E+01 0. -1.
       -4    1    3    3    0  502  0.73015720277E+03 -0.16757052587E+04  0.14796839516E+04  0.23517193422E+04  0.12699999809E+01 0.  1.
</event>
<event>
 5   0  0.9277261E-09  0.3900624E+04  0.7818609E-02  0.8024899E-01
       -2   -1    0    0    0  501  0.00000000000E+00  0.00000000000E+00  0.13884196444E+04  0.13884196444E+04  0.25500000920E-02 0.  1.
        2   -1    0    0  501    0  0.00000000000E+00  0.00000000000E+00 -0.27396024541E+04  0.27396024541E+04  0.25500000920E-02 0. -1.
    10030    2    1    2    0    0  0.00000000000E+00  0.00000000000E+00 -0.13511828097E+04  0.41280220985E+04  0.39006244962E+04 0.  0.
        1    1    3    3  502    0  0.14775394091E+04  0.65587554747E+03 -0.18302628332E+04  0.24419577142E+04  0.50400001928E-02 0.  1.
       -1    1    3    3    0  502 -0.14775394091E+04 -0.65587554747E+03  0.47908002350E+03  0.16860643843E+04  0.50400001928E-02 0. -1.
</event>
<event>
 5   0  0.9277261E-09  0.3902066E+04  0.7818609E-02  0.8024600E-01
       -2   -1    0    0    0  501  0.00000000000E+00  0.00000000000E+00  0.23562155710E+04  0.23562155710E+04  0.25500000920E-02 0.  1.
        2   -1    0    0  501    0  0.00000000000E+00  0.00000000000E+00 -0.16155269517E+04  0.16155269517E+04  0.25500000920E-02 0. -1.
    10030    2    1    2    0    0  0.00000000000E+00  0.00000000000E+00  0.74068861932E+03  0.39717425226E+04  0.39020659958E+04 0.  0.
        1    1    3    3  502    0  0.14910207745E+04  0.43947892398E+03  0.15704849992E+04  0.22096850018E+04  0.50400001928E-02 0.  1.
       -1    1    3    3    0  502 -0.14910207745E+04 -0.43947892398E+03 -0.82979637986E+03  0.17620575208E+04  0.50400001928E-02 0. -1.
</event>
<event>
 5   0  0.9368546E-09  0.3900170E+04  0.7818609E-02  0.8024994E-01
        2   -1    0    0  501    0  0.00000000000E+00  0.00000000000E+00  0.20874379457E+04  0.20874379457E+04  0.25500000920E-02 0. -1.
       -2   -1    0    0    0  501  0.00000000000E+00  0.00000000000E+00 -0.18217697964E+04  0.18217697964E+04  0.25500000920E-02 0.  1.
    10030    2    1    2    0    0  0.00000000000E+00  0.00000000000E+00  0.26566814936E+03  0.39092077421E+04  0.39001699457E+04 0.  0.
        5    1    3    3  502    0  0.11218206165E+04 -0.13392505247E+04 -0.73562387677E+03  0.18955838261E+04  0.46999998093E+01 0. -1.
       -5    1    3    3    0  502 -0.11218206165E+04  0.13392505247E+04  0.10012920261E+04  0.20136239160E+04  0.46999998093E+01 0.  1.
</event>
<event>
 5   0  0.2904500E-09  0.3901437E+04  0.7818609E-02  0.8024730E-01
       -3   -1    0    0    0  501  0.00000000000E+00  0.00000000000E+00  0.19131989221E+04  0.19131989248E+04  0.10100000352E+00 0. -1.
        3   -1    0    0  501    0  0.00000000000E+00  0.00000000000E+00 -0.19889736548E+04  0.19889736574E+04  0.10100000352E+00 0.  1.
    10030    2    1    2    0    0  0.00000000000E+00  0.00000000000E+00 -0.75774732675E+02  0.39021725821E+04  0.39014367931E+04 0.  0.
        4    1    3    3  502    0  0.85939718764E+03  0.51979873448E+03  0.16347157918E+04  0.19186066776E+04  0.12699999809E+01 0. -1.
       -4    1    3    3    0  502 -0.85939718764E+03 -0.51979873448E+03 -0.17104905245E+04  0.19835659045E+04  0.12699999809E+01 0.  1.
</event>
<event>
 5   0  0.2904500E-09  0.3900052E+04  0.7818609E-02  0.8025018E-01
        1   -1    0    0  501    0  0.00000000000E+00  0.00000000000E+00  0.29178504631E+04  0.29178504631E+04  0.50400001928E-02 0. -1.
       -1   -1    0    0    0  501  0.00000000000E+00  0.00000000000E+00 -0.13032201945E+04  0.13032201945E+04  0.50400001928E-02 0.  1.
    10030    2    1    2    0    0  0.00000000000E+00  0.00000000000E+00  0.16146302686E+04  0.42210706576E+04  0.39000521269E+04 0.  0.
        5    1    3    3  502    0 -0.11757666376E+04  0.80911110308E+03  0.22454017273E+04  0.26606275519E+04  0.46999998093E+01 0. -1.
       -5    1    3    3    0  502  0.11757666376E+04 -0.80911110308E+03 -0.63077145861E+03  0.15604431057E+04  0.46999998093E+01 0.  1.
</event>
<event>
 5   0  0.9368546E-09  0.3899583E+04  0.7818609E-02  0.8025116E-01
       -2   -1    0    0    0  501  0.00000000000E+00  0.00000000000E+00  0.13961388407E+04  0.13961388407E+04  0.25500000920E-02 0.  1.
        2   -1    0    0  501    0  0.00000000000E+00  0.00000000000E+00 -0.27230004953E+04  0.27230004953E+04  0.25500000920E-02 0. -1.
    10030    2    1    2    0    0  0.00000000000E+00  0.00000000000E+00 -0.13268616546E+04  0.41191393360E+04  0.38995829288E+04 0.  0.
        5    1    3    3  502    0  0.11379477052E+04 -0.53099507974E+03 -0.22389810080E+04  0.25670876102E+04  0.46999998093E+01 0. -1.
       -5    1    3    3    0  502 -0.11379477052E+04  0.53099507974E+03  0.91211935340E+03  0.15520517257E+04  0.46999998093E+01 0.  1.
</event>
<event>
 5   0  0.9277261E-09  0.3903584E+04  0.7818609E-02  0.8024284E-01
        2   -1    0    0  501    0  0.00000000000E+00  0.00000000000E+00  0.18515616486E+04  0.18515616486E+04  0.25500000920E-02 0.  1.
       -2   -1    0    0    0  501  0.00000000000E+00  0.00000000000E+00 -0.20574486244E+04  0.20574486244E+04  0.25500000920E-02 0. -1.
    10030    2    1    2    0    0  0.00000000000E+00  0.00000000000E+00 -0.20588697582E+03  0.39090102729E+04  0.39035844896E+04 0.  0.
        1    1    3    3  502    0  0.14284772193E+03 -0.12688022001E+04  0.13753293946E+04  0.18766447289E+04  0.50400001928E-02 0.  1.
       -1    1    3    3    0  502 -0.14284772193E+03  0.12688022001E+04 -0.15812163705E+04  0.20323655441E+04  0.50400001928E-02 0. -1.
</event>
<event>
 5   0  0.2904500E-09  0.3909955E+04  0.7818609E-02  0.8022962E-01
        1   -1    0    0  501    0  0.00000000000E+00  0.00000000000E+00  0.16521469592E+04  0.16521469592E+04  0.50400001928E-02 0. -1.
       -1   -1    0    0    0  501  0.00000000000E+00  0.00000000000E+00 -0.23133149444E+04  0.23133149444E+04  0.50400001928E-02 0.  1.
    10030    2    1    2    0    0  0.00000000000E+00  0.00000000000E+00 -0.66116798522E+03  0.39654619036E+04  0.39099546038E+04 0.  0.
        5    1    3    3  502    0 -0.93064046170E+03  0.80525234610E+03 -0.18711583976E+04  0.22395934561E+04  0.46999998093E+01 0.  1.
       -5    1    3    3    0  502  0.93064046170E+03 -0.80525234610E+03  0.12099904124E+04  0.17258684474E+04  0.46999998093E+01 0. -1.
</event>
<event>
 5   0  0.2904500E-09  0.3900287E+04  0.7818609E-02  0.8024970E-01
       -1   -1    0    0    0  501  0.00000000000E+00  0.00000000000E+00  0.21711283622E+04  0.21711283623E+04  0.50400001928E-02 0.  1.
        1   -1    0    0  501    0  0.00000000000E+00  0.00000000000E+00 -0.17516508692E+04  0.17516508692E+04  0.50400001928E-02 0. -1.
    10030    2    1    2    0    0  0.00000000000E+00  0.00000000000E+00  0.41947749302E+03  0.39227792315E+04  0.39002865961E+04 0.  0.
        2    1    3    3  502    0 -0.50342521835E+03  0.18353881580E+04 -0.21812287234E+03  0.19156367684E+04  0.25500000920E-02 0.  1.
       -2    1    3    3    0  502  0.50342521835E+03 -0.18353881580E+04  0.63760036536E+03  0.20071424631E+04  0.25500000920E-02 0. -1.
</event>
<event>
 5   0  0.6335942E-09  0.3900223E+04  0.7818609E-02  0.8024983E-01
        2   -1    0    0  501    0  0.00000000000E+00  0.00000000000E+00  0.12143085546E+04  0.12143085546E+04  0.25500000920E-02 0. -1.
       -2   -1    0    0    0  501  0.00000000000E+00  0.00000000000E+00 -0.31317698492E+04  0.31317698492E+04  0.25500000920E-02 0.  1.
    10030    2    1    2    0    0  0.00000000000E+00  0.00000000000E+00 -0.19174612947E+04  0.43460784038E+04  0.39002230289E+04 0.  0.
        2    1    3    3  502    0 -0.11236427394E+03 -0.37208595597E+03 -0.30881698620E+04  0.31125338208E+04  0.25500000920E-02 0.  1.
       -2    1    3    3    0  502  0.11236427394E+03  0.37208595597E+03  0.11707085673E+04  0.12335445830E+04  0.25500000920E-02 0. -1.
</event>
<event>
 5   0  0.9277261E-09  0.3900213E+04  0.7818609E-02  0.8024985E-01
       -2   -1    0    0    0  501  0.00000000000E+00  0.00000000000E+00  0.16504886790E+04  0.16504886790E+04  0.25500000920E-02 0.  1.
        2   -1    0    0  501    0  0.00000000000E+00  0.00000000000E+00 -0.23041142322E+04  0.23041142322E+04  0.25500000920E-02 0. -1.
    10030    2    1    2    0    0  0.00000000000E+00  0.00000000000E+00 -0.65362555321E+03  0.39546029111E+04  0.39002125353E+04 0.  0.
        1    1    3    3  502    0  0.10465483666E+04  0.91549650004E+03 -0.17131833523E+04  0.22064438638E+04  0.50400001928E-02 0. -1.
       -1    1    3    3    0  502 -0.10465483666E+04 -0.91549650004E+03  0.10595577991E+04  0.17481590474E+04  0.50400001928E-02 0.  1.
</event>
<event>
 5   0  0.9078515E-09  0.3896499E+04  0.7818609E-02  0.8025758E-01
       -2   -1    0    0    0  501  0.00000000000E+00  0.00000000000E+00  0.23306495530E+04  0.23306495530E+04  0.25500000920E-02 0.  1.
        2   -1    0    0  501    0  0.00000000000E+00  0.00000000000E+00 -0.16285912188E+04  0.16285912188E+04  0.25500000920E-02 0. -1.
    10030    2    1    2    0    0  0.00000000000E+00  0.00000000000E+00  0.70205833418E+03  0.39592407718E+04  0.38964986314E+04 0.  0.
        3    1    3    3  502    0 -0.19432871247E+04  0.13065341020E+03  0.39912229455E+03  0.19881483292E+04  0.10100000352E+00 0.  1.
       -3    1    3    3    0  502  0.19432871247E+04 -0.13065341020E+03  0.30293603963E+03  0.19710924426E+04  0.10100000352E+00 0. -1.
</event>
<event>
 5   0  0.9368546E-09  0.3895073E+04  0.7818609E-02  0.8026055E-01
       -2   -1    0    0    0  501  0.00000000000E+00  0.00000000000E+00  0.18274247243E+04  0.18274247243E+04  0.25500000920E-02 0. -1.
        2   -1    0    0  501    0  0.00000000000E+00  0.00000000000E+00 -0.20755426370E+04  0.20755426370E+04  0.25500000920E-02 0.  1.
    10030    2    1    2    0    0  0.00000000000E+00  0.00000000000E+00 -0.24811791266E+03  0.39029673613E+04  0.38950727497E+04 0.  0.
        5    1    3    3  502    0 -0.83195396264E+03  0.95705348477E+03  0.13570360264E+04  0.18573280904E+04  0.46999998093E+01 0. -1.
       -5    1    3    3    0  502  0.83195396264E+03 -0.95705348477E+03 -0.16051539390E+04  0.20456392709E+04  0.46999998093E+01 0.  1.
</event>
<event>
 5   0  0.9368546E-09  0.3898660E+04  0.7818609E-02  0.8025308E-01
        2   -1    0    0  501    0  0.00000000000E+00  0.00000000000E+00  0.21030354049E+04  0.21030354049E+04  0.25500000920E-02 0.  1.
       -2   -1    0    0    0  501  0.00000000000E+00  0.00000000000E+00 -0.18068584088E+04  0.18068584088E+04  0.25500000920E-02 0. -1.
    10030    2    1    2    0    0  0.00000000000E+00  0.00000000000E+00  0.29617699602E+03  0.39098938137E+04  0.38986598751E+04 0.  0.
        5    1    3    3  502    0 -0.43792108140E+03  0.18973331782E+04  0.23899765959E+03  0.19618333349E+04  0.46999998093E+01 0.  1.
       -5    1    3    3    0  502  0.43792108140E+03 -0.18973331782E+04  0.57179336435E+02  0.19480604788E+04  0.46999998093E+01 0. -1.
</event>
<event>
 5   0  0.2904500E-09  0.3899353E+04  0.7818609E-02  0.8025164E-01
        1   -1    0    0  501    0  0.00000000000E+00  0.00000000000E+00  0.24922113568E+04  0.24922113568E+04  0.50400001928E-02 0.  1.
       -1   -1    0    0    0  501  0.00000000000E+00  0.00000000000E+00 -0.15252470563E+04  0.15252470563E+04  0.50400001928E-02 0. -1.
    10030    2    1    2    0    0  0.00000000000E+00  0.00000000000E+00  0.96696430055E+03  0.40174584131E+04  0.38993527851E+04 0.  0.
        5    1    3    3  502    0 -0.54684305679E+02 -0.17330967407E+04 -0.43492125584E+03  0.17876781798E+04  0.46999998093E+01 0. -1.
       -5    1    3    3    0  502  0.54684305679E+02  0.17330967407E+04  0.14018855564E+04  0.22297802333E+04  0.46999998093E+01 0.  1.
</event>
<event>
 5   0  0.9434114E-09  0.3899640E+04  0.7818609E-02  0.8025104E-01
        2   -1    0    0  501    0  0.00000000000E+00  0.00000000000E+00  0.21383429536E+04  0.21383429536E+04  0.25500000920E-02 0.  1.
       -2   -1    0    0    0  501  0.00000000000E+00  0.00000000000E+00 -0.17779180050E+04  0.17779180050E+04  0.25500000920E-02 0. -1.
    10030    2    1    2    0    0  0.00000000000E+00  0.00000000000E+00  0.36042494853E+03  0.39162609586E+04  0.38996402080E+04 0.  0.
        4    1    3    3  502    0  0.59961627618E+03  0.18398056661E+04  0.42075842614E+03  0.19802686267E+04  0.12699999809E+01 0.  1.
       -4    1    3    3    0  502 -0.59961627618E+03 -0.18398056661E+04 -0.60333477615E+02  0.19359923319E+04  0.12699999809E+01 0. -1.
</event>
<event>
 5   0  0.9368546E-09  0.3904370E+04  0.7818609E-02  0.8024121E-01
       -2   -1    0    0    0  501  0.00000000000E+00  0.00000000000E+00  0.16724235796E+04  0.16724235796E+04  0.25500000920E-02 0.  1.
        2   -1    0    0  501    0  0.00000000000E+00  0.00000000000E+00 -0.22787451889E+04  0.22787451889E+04  0.25500000920E-02 0. -1.
    10030    2    1    2    0    0  0.00000000000E+00  0.00000000000E+00 -0.60632160934E+03  0.39511687685E+04  0.39043704670E+04 0.  0.
        5    1    3    3  502    0  0.23494163985E+01 -0.19351265483E+04 -0.56370511645E+03  0.20155658823E+04  0.46999998093E+01 0.  1.
       -5    1    3    3    0  502 -0.23494163985E+01  0.19351265483E+04 -0.42616492891E+02  0.19356028862E+04  0.46999998093E+01 0. -1.
</event>
<event>
 5   0  0.2904500E-09  0.3903274E+04  0.7818609E-02  0.8024349E-01
       -1   -1    0    0    0  501  0.00000000000E+00  0.00000000000E+00  0.24471941948E+04  0.24471941948E+04  0.50400001928E-02 0. -1.
        1   -1    0    0  501    0  0.00000000000E+00  0.00000000000E+00 -0.15564301761E+04  0.15564301761E+04  0.50400001928E-02 0.  1.
    10030    2    1    2    0    0  0.00000000000E+00  0.00000000000E+00  0.89076401866E+03  0.40036243709E+04  0.39032739548E+04 0.  0.
        2    1    3    3  502    0  0.15043211332E+04 -0.11059231112E+04 -0.13741486576E+03  0.18721460533E+04  0.25500000920E-02 0.  1.
       -2    1    3    3    0  502 -0.15043211332E+04  0.11059231112E+04  0.10281788844E+04  0.21314783175E+04  0.25500000920E-02 0. -1.
</event>
<event>
 5   0  0.2904500E-09  0.3902040E+04  0.7818609E-02  0.8024605E-01
        1   -1    0    0  501    0  0.00000000000E+00  0.00000000000E+00  0.15953984033E+04  0.15953984034E+04  0.50400001928E-02 0. -1.
       -1   -1    0    0    0  501  0.00000000000E+00  0.00000000000E+00 -0.23859112361E+04  0.23859112361E+04  0.50400001928E-02 0.  1.
    10030    2    1    2    0    0  0.00000000000E+00  0.00000000000E+00 -0.79051283275E+03  0.39813096395E+04  0.39020399673E+04 0.  0.
        3    1    3    3  502    0 -0.79315592200E+03  0.54278766147E+03  0.13371061963E+04  0.16466838654E+04  0.10100000352E+00 0. -1.
       -3    1    3    3    0  502  0.79315592200E+03 -0.54278766147E+03 -0.21276190291E+04  0.23346257741E+04  0.10100000352E+00 0.  1.
</event>
<event>
 5   0  0.9277261E-09  0.3900507E+04  0.7818609E-02  0.8024924E-01
       -2   -1    0    0    0  501  0.00000000000E+00  0.00000000000E+00  0.30242773944E+04  0.30242773944E+04  0.25500000920E-02 0. -1.
        2   -1    0    0  501    0  0.00000000000E+00  0.00000000000E+00 -0.12576519619E+04  0.12576519619E+04  0.25500000920E-02 0.  1.
    10030    2    1    2    0    0  0.00000000000E+00  0.00000000000E+00  0.17666254325E+04  0.42819293563E+04  0.39005068381E+04 0.  0.
        1    1    3    3  502    0  0.18500652154E+04 -0.61301743246E+03  0.80602404355E+03  0.21090771519E+04  0.50400001928E-02 0.  1.
       -1    1    3    3    0  502 -0.18500652154E+04  0.61301743246E+03  0.96060138892E+03  0.21728522044E+04  0.50400001928E-02 0. -1.
</event>
<event>
 5   0  0.2904500E-09  0.3897761E+04  0.7818609E-02  0.8025495E-01
        1   -1    0    0  501    0  0.00000000000E+00  0.00000000000E+00  0.23697735913E+04  0.23697735913E+04  0.50400001928E-02 0.  1.
       -1   -1    0    0    0  501  0.00000000000E+00  0.00000000000E+00 -0.16027417803E+04  0.16027417803E+04  0.50400001928E-02 0. -1.
    10030    2    1    2    0    0  0.00000000000E+00  0.00000000000E+00  0.76703181097E+03  0.39725153716E+04  0.38977609699E+04 0.  0.
        4    1    3    3  502    0 -0.21456403600E+03 -0.14973899048E+04  0.16358703145E+04  0.22280681209E+04  0.12699999809E+01 0.  1.
       -4    1    3    3    0  502  0.21456403600E+03  0.14973899048E+04 -0.86883850352E+03  0.17444472507E+04  0.12699999809E+01 0. -1.
</event>
<event>
 5   0  0.2904500E-09  0.3901712E+04  0.7818609E-02  0.8024673E-01
        1   -1    0    0  501    0  0.00000000000E+00  0.00000000000E+00  0.25911156750E+04  0.25911156750E+04  0.50400001928E-02 0.  1.
       -1   -1    0    0    0  501  0.00000000000E+00  0.00000000000E+00 -0.14688032149E+04  0.14688032149E+04  0.50400001928E-02 0. -1.
    10030    2    1    2    0    0  0.00000000000E+00  0.00000000000E+00  0.11223124602E+04  0.40599188899E+04  0.39017119492E+04 0.  0.
        4    1    3    3  502    0 -0.99389599833E+02  0.12887129827E+04 -0.95931845612E+03  0.16096437362E+04  0.12699999809E+01 0. -1.
       -4    1    3    3    0  502  0.99389599833E+02 -0.12887129827E+04  0.20816309163E+04  0.24502751537E+04  0.12699999809E+01 0.  1.
</event>
<event>
 5   0  0.2904500E-09  0.3900540E+04  0.7818609E-02  0.8024917E-01
       -1   -1    0    0    0  501  0.00000000000E+00  0.00000000000E+00  0.22931692903E+04  0.22931692903E+04  0.50400001928E-02 0. -1.
        1   -1    0    0  501    0  0.00000000000E+00  0.00000000000E+00 -0.16586450228E+04  0.16586450228E+04  0.50400001928E-02 0.  1.
    10030    2    1    2    0    0  0.00000000000E+00  0.00000000000E+00  0.63452426745E+03  0.39518143131E+04  0.39005403881E+04 0.  0.
        5    1    3    3  502    0 -0.25926609439E+03  0.19049754342E+04 -0.14736530367E+02  0.19225996900E+04  0.46999998093E+01 0.  1.
       -5    1    3    3    0  502  0.25926609439E+03 -0.19049754342E+04  0.64926079782E+03  0.20292146230E+04  0.46999998093E+01 0. -1.
</event>
<event>
 5   0  0.6335942E-09  0.3874941E+04  0.7818609E-02  0.8030261E-01
        2   -1    0    0  501    0  0.00000000000E+00  0.00000000000E+00  0.20858124780E+04  0.20858124780E+04  0.25500000920E-02 0. -1.
       -2   -1    0    0    0  501  0.00000000000E+00  0.00000000000E+00 -0.17996785558E+04  0.17996785558E+04  0.25500000920E-02 0.  1.
    10030    2    1    2    0    0  0.00000000000E+00  0.00000000000E+00  0.28613392217E+03  0.38854910338E+04  0.38749410256E+04 0.  0.
        2    1    3    3  502    0  0.10525819292E+04 -0.16264424107E+04  0.11958622690E+03  0.19410163572E+04  0.25500000920E-02 0. -1.
       -2    1    3    3    0  502 -0.10525819292E+04  0.16264424107E+04  0.16654769527E+03  0.19444746766E+04  0.25500000920E-02 0.  1.
</event>
<event>
 5   0  0.6335942E-09  0.3900204E+04  0.7818609E-02  0.8024987E-01
        2   -1    0    0  501    0  0.00000000000E+00  0.00000000000E+00  0.24117875936E+04  0.24117875936E+04  0.25500000920E-02 0. -1.
       -2   -1    0    0    0  501  0.00000000000E+00  0.00000000000E+00 -0.15767962856E+04  0.15767962856E+04  0.25500000920E-02 0.  1.
    10030    2    1    2    0    0  0.00000000000E+00  0.00000000000E+00  0.83499130792E+03  0.39885838792E+04  0.39002039533E+04 0.  0.
        2    1    3    3  502    0 -0.55824210409E+03 -0.12473698551E+04  0.18401819262E+04  0.22921246309E+04  0.25500000920E-02 0. -1.
       -2    1    3    3    0  502  0.55824210409E+03  0.12473698551E+04 -0.10051906183E+04  0.16964592483E+04  0.25500000920E-02 0.  1.
</event>
<event>
 5   0  0.9368546E-09  0.3899511E+04  0.7818609E-02  0.8025131E-01
        2   -1    0    0  501    0  0.00000000000E+00  0.00000000000E+00  0.24767495219E+04  0.24767495219E+04  0.25500000920E-02 0.  1.
       -2   -1    0    0    0  501  0.00000000000E+00  0.00000000000E+00 -0.15348934712E+04  0.15348934712E+04  0.25500000920E-02 0. -1.
    10030    2    1    2    0    0  0.00000000000E+00  0.00000000000E+00  0.94185605071E+03  0.40116429931E+04  0.38995110827E+04 0.  0.
        5    1    3    3  502    0  0.21150434600E+03  0.17635018903E+04  0.12983259708E+04  0.22000785036E+04  0.46999998093E+01 0.  1.
       -5    1    3    3    0  502 -0.21150434600E+03 -0.17635018903E+04 -0.35646992011E+03  0.18115644895E+04  0.46999998093E+01 0. -1.
</event>
<event>
 5   0  0.9277261E-09  0.3897500E+04  0.7818609E-02  0.8025549E-01
       -2   -1    0    0    0  501  0.00000000000E+00  0.00000000000E+00  0.12859248251E+04  0.12859248251E+04  0.25500000920E-02 0. -1.
        2   -1    0    0  501    0  0.00000000000E+00  0.00000000000E+00 -0.29532254038E+04  0.29532254038E+04  0.25500000920E-02 0.  1.
    10030    2    1    2    0    0  0.00000000000E+00  0.00000000000E+00 -0.16673005787E+04  0.42391502290E+04  0.38974996400E+04 0.  0.
        1    1    3    3  502    0 -0.17826611586E+03  0.15581952641E+04  0.42440701476E+03  0.16247684769E+04  0.50400001928E-02 0. -1.
       -1    1    3    3    0  502  0.17826611586E+03 -0.15581952641E+04 -0.20917075935E+04  0.26143817521E+04  0.50400001928E-02 0.  1.
</event>
<event>
 5   0  0.9368546E-09  0.3900504E+04  0.7818609E-02  0.8024924E-01
       -2   -1    0    0    0  501  0.00000000000E+00  0.00000000000E+00  0.14083348142E+04  0.14083348142E+04  0.25500000920E-02 0.  1.
        2   -1    0    0  501    0  0.00000000000E+00  0.00000000000E+00 -0.27006947499E+04  0.27006947499E+04  0.25500000920E-02 0. -1.
    10030    2    1    2    0    0  0.00000000000E+00  0.00000000000E+00 -0.12923599357E+04  0.41090295641E+04  0.39005037822E+04 0.  0.
        5    1    3    3  502    0  0.18056523275E+04 -0.25660844184E+03 -0.13739319542E+04  0.22834052039E+04  0.46999998093E+01 0. -1.
       -5    1    3    3    0  502 -0.18056523275E+04  0.25660844184E+03  0.81572018537E+02  0.18256243602E+04  0.46999998093E+01 0.  1.
</event>
<event>
 5   0  0.6335942E-09  0.3901927E+04  0.7818609E-02  0.8024629E-01
       -2   -1    0    0    0  501  0.00000000000E+00  0.00000000000E+00  0.19273817393E+04  0.19273817393E+04  0.25500000920E-02 0. -1.
        2   -1    0    0  501    0  0.00000000000E+00  0.00000000000E+00 -0.19748333615E+04  0.19748333615E+04  0.25500000920E-02 0.  1.
    10030    2    1    2    0    0  0.00000000000E+00  0.00000000000E+00 -0.47451622207E+02  0.39022151009E+04  0.39019265802E+04 0.  0.
        2    1    3    3  502    0 -0.22410816424E+02  0.56762984181E+03  0.18428397693E+04  0.19284097846E+04  0.25500000920E-02 0. -1.
       -2    1    3    3    0  502  0.22410816424E+02 -0.56762984181E+03 -0.18902913915E+04  0.19738053163E+04  0.25500000920E-02 0.  1.
</event>
<event>
 5   0  0.2929054E-09  0.3904778E+04  0.7818609E-02  0.8024036E-01
       -1   -1    0    0    0  501  0.00000000000E+00  0.00000000000E+00  0.17036645268E+04  0.17036645268E+04  0.50400001928E-02 0. -1.
        1   -1    0    0  501    0  0.00000000000E+00  0.00000000000E+00 -0.22374262463E+04  0.22374262464E+04  0.50400001928E-02 0.  1.
    10030    2    1    2    0    0  0.00000000000E+00  0.00000000000E+00 -0.53376171954E+03  0.39410907732E+04  0.39047784712E+04 0.  0.
        1    1    3    3  502    0 -0.38592884689E+03 -0.16546536348E+04 -0.12375960893E+04  0.21020142260E+04  0.50400001928E-02 0.  1.
       -1    1    3    3    0  502  0.38592884689E+03  0.16546536348E+04  0.70383436976E+03  0.18390765471E+04  0.50400001928E-02 0. -1.
</event>
<event>
 5   0  0.2904500E-09  0.3898644E+04  0.7818609E-02  0.8025311E-01
       -1   -1    0    0    0  501  0.00000000000E+00  0.00000000000E+00  0.16996076293E+04  0.16996076293E+04  0.50400001928E-02 0.  1.
        1   -1    0    0  501    0  0.00000000000E+00  0.00000000000E+00 -0.22357260966E+04  0.22357260966E+04  0.50400001928E-02 0. -1.
    10030    2    1    2    0    0  0.00000000000E+00  0.00000000000E+00 -0.53611846731E+03  0.39353337258E+04  0.38986444468E+04 0.  0.
        4    1    3    3  502    0 -0.32889484157E+03  0.59358749843E+02  0.16704721153E+04  0.17035768192E+04  0.12699999809E+01 0.  1.
       -4    1    3    3    0  502  0.32889484157E+03 -0.59358749843E+02 -0.22065905826E+04  0.22317569066E+04  0.12699999809E+01 0. -1.
</event>
<event>
 5   0  0.9434114E-09  0.3898567E+04  0.7818609E-02  0.8025327E-01
       -2   -1    0    0    0  501  0.00000000000E+00  0.00000000000E+00  0.24686510082E+04  0.24686510082E+04  0.25500000920E-02 0. -1.
        2   -1    0    0  501    0  0.00000000000E+00  0.00000000000E+00 -0.15391832441E+04  0.15391832441E+04  0.25500000920E-02 0.  1.
    10030    2    1    2    0    0  0.00000000000E+00  0.00000000000E+00  0.92946776411E+03  0.40078342523E+04  0.38985670533E+04 0.  0.
        4    1    3    3  502    0 -0.77854109990E+02 -0.15777566768E+04 -0.70934703675E+03  0.17316328205E+04  0.12699999809E+01 0.  1.
       -4    1    3    3    0  502  0.77854109990E+02  0.15777566768E+04  0.16388148009E+04  0.22762014318E+04  0.12699999809E+01 0. -1.
</event>
<event>
 5   0  0.9434114E-09  0.3900597E+04  0.7818609E-02  0.8024905E-01
        2   -1    0    0  501    0  0.00000000000E+00  0.00000000000E+00  0.21182264349E+04  0.21182264349E+04  0.25500000920E-02 0.  1.
       -2   -1    0    0    0  501  0.00000000000E+00  0.00000000000E+00 -0.17956831749E+04  0.17956831749E+04  0.25500000920E-02 0. -1.
    10030    2    1    2    0    0  0.00000000000E+00  0.00000000000E+00  0.32254326003E+03  0.39139096098E+04  0.39005966568E+04 0.  0.
        4    1    3    3  502    0 -0.45011066467E+03 -0.17838652920E+04 -0.48815212615E+03  0.19034361302E+04  0.12699999809E+01 0. -1.
       -4    1    3    3    0  502  0.45011066467E+03  0.17838652920E+04  0.81069538618E+03  0.20104734797E+04  0.12699999809E+01 0.  1.
</event>
<event>
 5   0  0.2904500E-09  0.3910169E+04  0.7818609E-02  0.8022918E-01
        1   -1    0    0  501    0  0.00000000000E+00  0.00000000000E+00  0.17794406727E+04  0.17794406727E+04  0.50400001928E-02 0. -1.
       -1   -1    0    0    0  501  0.00000000000E+00  0.00000000000E+00 -0.21480652801E+04  0.21480652802E+04  0.50400001928E-02 0.  1.
    10030    2    1    2    0    0  0.00000000000E+00  0.00000000000E+00 -0.36862460745E+03  0.39275059529E+04  0.39101686547E+04 0.  0.
        2    1    3    3  502    0 -0.12712981059E+04 -0.18668568889E+03 -0.16643804397E+04  0.21026679882E+04  0.25500000920E-02 0.  1.
       -2    1    3    3    0  502  0.12712981059E+04  0.18668568889E+03  0.12957558323E+04  0.18248379647E+04  0.25500000920E-02 0. -1.
</event>
<event>
 5   0  0.9368546E-09  0.3900958E+04  0.7818609E-02  0.8024830E-01
       -2   -1    0    0    0  501  0.00000000000E+00  0.00000000000E+00  0.13449276003E+04  0.13449276004E+04  0.25500000920E-02 0.  1.
        2   -1    0    0  501    0  0.00000000000E+00  0.00000000000E+00 -0.28286786903E+04  0.28286786903E+04  0.25500000920E-02 0. -1.
    10030    2    1    2    0    0  0.00000000000E+00  0.00000000000E+00 -0.14837510899E+04  0.41736062906E+04  0.39009578532E+04 0.  0.
        5    1    3    3  502    0  0.10970196252E+04  0.68381267286E+03 -0.23045394785E+04  0.26423429239E+04  0.46999998093E+01 0. -1.
       -5    1    3    3    0  502 -0.10970196252E+04 -0.68381267286E+03  0.82078838851E+03  0.15312633668E+04  0.46999998093E+01 0.  1.
</event>
<event>
 5   0  0.6335942E-09  0.3900113E+04  0.7818609E-02  0.8025006E-01
        2   -1    0    0  501    0  0.00000000000E+00  0.00000000000E+00  0.20303496885E+04  0.20303496885E+04  0.25500000920E-02 0. -1.
       -2   -1    0    0    0  501  0.00000000000E+00  0.00000000000E+00 -0.18729386171E+04  0.18729386171E+04  0.25500000920E-02 0.  1.
    10030    2    1    2    0    0  0.00000000000E+00  0.00000000000E+00  0.15741107145E+03  0.39032883056E+04  0.39001129921E+04 0.  0.
        2    1    3    3  502    0  0.13252704823E+04  0.86701897642E+03 -0.10600506070E+04  0.19057206108E+04  0.25500000920E-02 0.  1.
       -2    1    3    3    0  502 -0.13252704823E+04 -0.86701897642E+03  0.12174616785E+04  0.19975676948E+04  0.25500000920E-02 0. -1.
</event>
<event>
 5   0  0.9277261E-09  0.3900342E+04  0.7818609E-02  0.8024958E-01
        2   -1    0    0  501    0  0.00000000000E+00  0.00000000000E+00  0.16487761842E+04  0.16487761842E+04  0.25500000920E-02 0. -1.
       -2   -1    0    0    0  501  0.00000000000E+00  0.00000000000E+00 -0.23066610840E+04  0.23066610840E+04  0.25500000920E-02 0.  1.
    10030    2    1    2    0    0  0.00000000000E+00  0.00000000000E+00 -0.65788489984E+03  0.39554372683E+04  0.39003424775E+04 0.  0.
        1    1    3    3  502    0 -0.92110470198E+03 -0.14565701278E+04 -0.12545994442E+04  0.21316777839E+04  0.50400001928E-02 0.  1.
       -1    1    3    3    0  502  0.92110470198E+03  0.14565701278E+04  0.59671454439E+03  0.18237594843E+04  0.50400001928E-02 0. -1.
</event>
<event>
 5   0  0.6335942E-09  0.3897229E+04  0.7818609E-02  0.8025606E-01
        2   -1    0    0  501    0  0.00000000000E+00  0.00000000000E+00  0.26165894171E+04  0.26165894171E+04  0.25500000920E-02 0.  1.
       -2   -1    0    0    0  501  0.00000000000E+00  0.00000000000E+00 -0.14511633915E+04  0.14511633915E+04  0.25500000920E-02 0. -1.
    10030    2    1    2    0    0  0.00000000000E+00  0.00000000000E+00  0.11654260255E+04  0.40677528086E+04  0.38972291556E+04 0.  0.
        2    1    3    3  502    0 -0.12083364507E+04 -0.55336349054E+03  0.20701320169E+04  0.24600273776E+04  0.25500000920E-02 0.  1.
       -2    1    3    3    0  502  0.12083364507E+04  0.55336349054E+03 -0.90470599140E+03  0.16077254311E+04  0.25500000920E-02 0. -1.
</event>
<event>
 5   0  0.9277261E-09  0.3898911E+04  0.7818609E-02  0.8025256E-01
       -2   -1    0    0    0  501  0.00000000000E+00  0.00000000000E+00  0.17005528913E+04  0.17005528913E+04  0.25500000920E-02 0.  1.
        2   -1    0    0  501    0  0.00000000000E+00  0.00000000000E+00 -0.22347889060E+04  0.22347889060E+04  0.25500000920E-02 0. -1.
    10030    2    1    2    0    0  0.00000000000E+00  0.00000000000E+00 -0.53423601470E+03  0.39353417972E+04  0.38989109943E+04 0.  0.
        1    1    3    3  502    0 -0.12854286666E+04 -0.18543160968E+03  0.12003113889E+04  0.17684623742E+04  0.50400001928E-02 0.  1.
       -1    1    3    3    0  502  0.12854286666E+04  0.18543160968E+03 -0.17345474036E+04  0.21668794230E+04  0.50400001928E-02 0. -1.
</event>
<event>
 5   0  0.2904500E-09  0.3901260E+04  0.7818609E-02  0.8024767E-01
       -1   -1    0    0    0  501  0.00000000000E+00  0.00000000000E+00  0.30038936691E+04  0.30038936691E+04  0.50400001928E-02 0. -1.
        1   -1    0    0  501    0  0.00000000000E+00  0.00000000000E+00 -0.12666749006E+04  0.12666749006E+04  0.50400001928E-02 0.  1.
    10030    2    1    2    0    0  0.00000000000E+00  0.00000000000E+00  0.17372187685E+04  0.42705685697E+04  0.39012596503E+04 0.  0.
        3    1    3    3  502    0  0.90029070034E+03 -0.16878861965E+04  0.45109363934E+03  0.19654436240E+04  0.10100000352E+00 0.  1.
       -3    1    3    3    0  502 -0.90029070034E+03  0.16878861965E+04  0.12861251292E+04  0.23051249457E+04  0.10100000352E+00 0. -1.
</event>
<event>
 5   0  0.9368546E-09  0.3900784E+04  0.7818609E-02  0.8024866E-01
       -2   -1    0    0    0  501  0.00000000000E+00  0.00000000000E+00  0.15847969436E+04  0.15847969436E+04  0.25500000920E-02 0.  1.
        2   -1    0    0  501    0  0.00000000000E+00  0.00000000000E+00 -0.24003259332E+04  0.24003259332E+04  0.25500000920E-02 0. -1.
    10030    2    1    2    0    0  0.00000000000E+00  0.00000000000E+00 -0.81552898963E+03  0.39851228768E+04  0.39007841277E+04 0.  0.
        5    1    3    3  502    0 -0.34393110432E+03  0.12141026323E+04  0.11115591206E+04  0.16816419282E+04  0.46999998093E+01 0.  1.
       -5    1    3    3    0  502  0.34393110432E+03 -0.12141026323E+04 -0.19270881102E+04  0.23034809486E+04  0.46999998093E+01 0. -1.
</event>
<event>
 5   0  0.6335942E-09  0.3902825E+04  0.7818609E-02  0.8024442E-01
       -2   -1    0    0    0  501  0.00000000000E+00  0.00000000000E+00  0.24150020083E+04  0.24150020083E+04  0.25500000920E-02 0.  1.
        2   -1    0    0  501    0  0.00000000000E+00  0.00000000000E+00 -0.15768148291E+04  0.15768148291E+04  0.25500000920E-02 0. -1.
    10030    2    1    2    0    0  0.00000000000E+00  0.00000000000E+00  0.83818717917E+03  0.39918168374E+04  0.39028251199E+04 0.  0.
        2    1    3    3  502    0  0.70009051083E+01 -0.56483327501E+03 -0.14913637835E+04  0.15947575289E+04  0.25500000920E-02 0. -1.
       -2    1    3    3    0  502 -0.70009051083E+01  0.56483327501E+03  0.23295509626E+04  0.23970593086E+04  0.25500000920E-02 0.  1.
</event>
<event>
 5   0  0.6335942E-09  0.3900141E+04  0.7818609E-02  0.8025000E-01
       -2   -1    0    0    0  501  0.00000000000E+00  0.00000000000E+00  0.20797606511E+04  0.20797606511E+04  0.25500000920E-02 0. -1.
        2   -1    0    0  501    0  0.00000000000E+00  0.00000000000E+00 -0.18284675542E+04  0.18284675542E+04  0.25500000920E-02 0.  1.
    10030    2    1    2    0    0  0.00000000000E+00  0.00000000000E+00  0.25129309689E+03  0.39082282053E+04  0.39001409569E+04 0.  0.
        2    1    3    3  502    0 -0.12777576845E+04 -0.88662856948E+02  0.15991544554E+04  0.20488584077E+04  0.25500000920E-02 0. -1.
       -2    1    3    3    0  502  0.12777576845E+04  0.88662856948E+02 -0.13478613585E+04  0.18593697976E+04  0.25500000920E-02 0.  1.
</event>
<event>
 5   0  0.2904500E-09  0.3899836E+04  0.7818609E-02  0.8025063E-01
       -1   -1    0    0    0  501  0.00000000000E+00  0.00000000000E+00  0.14884576233E+04  0.14884576233E+04  0.50400001928E-02 0. -1.
        1   -1    0    0  501    0  0.00000000000E+00  0.00000000000E+00 -0.25544425279E+04  0.25544425279E+04  0.50400001928E-02 0.  1.
    10030    2    1    2    0    0  0.00000000000E+00  0.00000000000E+00 -0.10659849046E+04  0.40429001512E+04  0.38998356140E+04 0.  0.
        3    1    3    3  502    0  0.57836819259E+03  0.28141032297E+02 -0.24632531988E+04  0.25303987859E+04  0.10100000352E+00 0.  1.
       -3    1    3    3    0  502 -0.57836819259E+03 -0.28141032297E+02  0.13972682942E+04  0.15125013654E+04  0.10100000352E+00 0. -1.
</event>
<event>
 5   0  0.2904500E-09  0.3898829E+04  0.7818609E-02  0.8025273E-01
        1   -1    0    0  501    0  0.00000000000E+00  0.00000000000E+00  0.27319073263E+04  0.27319073263E+04  0.50400001928E-02 0. -1.
       -1   -1    0    0    0  501  0.00000000000E+00  0.00000000000E+00 -0.13910488174E+04  0.13910488174E+04  0.50400001928E-02 0.  1.
    10030    2    1    2    0    0  0.00000000000E+00  0.00000000000E+00  0.13408585089E+04  0.41229561438E+04  0.38988287757E+04 0.  0.
        5    1    3    3  502    0 -0.10890825766E+04 -0.77467220723E+03  0.21711564387E+04  0.25495411859E+04  0.46999998093E+01 0. -1.
       -5    1    3    3    0  502  0.10890825766E+04  0.77467220723E+03 -0.83029792977E+03  0.15734149578E+04  0.46999998093E+01 0.  1.
</event>
<event>
 5   0  0.9434114E-09  0.3894516E+04  0.7818609E-02  0.8026171E-01
        2   -1    0    0  501    0  0.00000000000E+00  0.00000000000E+00  0.21160296501E+04  0.21160296501E+04  0.25500000920E-02 0. -1.
       -2   -1    0    0    0  501  0.00000000000E+00  0.00000000000E+00 -0.17919474811E+04  0.17919474811E+04  0.25500000920E-02 0.  1.
    10030    2    1    2    0    0  0.00000000000E+00  0.00000000000E+00  0.32408216904E+03  0.39079771312E+04  0.38945161452E+04 0.  0.
        4    1    3    3  502    0  0.18056558415E+04 -0.21906776587E+03  0.85973464234E+03  0.20118471543E+04  0.12699999809E+01 0. -1.
       -4    1    3    3    0  502 -0.18056558415E+04  0.21906776587E+03 -0.53565247330E+03  0.18961299769E+04  0.12699999809E+01 0.  1.
</event>
<event>
 5   0  0.9368546E-09  0.3901006E+04  0.7818609E-02  0.8024820E-01
       -2   -1    0    0    0  501  0.00000000000E+00  0.00000000000E+00  0.18852765310E+04  0.18852765310E+04  0.25500000920E-02 0. -1.
        2   -1    0    0  501    0  0.00000000000E+00  0.00000000000E+00 -0.20179866680E+04  0.20179866680E+04  0.25500000920E-02 0.  1.
    10030    2    1    2    0    0  0.00000000000E+00  0.00000000000E+00 -0.13271013700E+03  0.39032631991E+04  0.39010064882E+04 0.  0.
        5    1    3    3  502    0  0.15598223934E+03 -0.91981411329E+03  0.16475434120E+04  0.18933594076E+04  0.46999998093E+01 0. -1.
       -5    1    3    3    0  502 -0.15598223934E+03  0.91981411329E+03 -0.17802535490E+04  0.20099037914E+04  0.46999998093E+01 0.  1.
</event>
<event>
 5   0  0.9078515E-09  0.3917651E+04  0.7818609E-02  0.8021368E-01
       -2   -1    0    0    0  501  0.00000000000E+00  0.00000000000E+00  0.26287480556E+04  0.26287480556E+04  0.25500000920E-02 0. -1.
        2   -1    0    0  501    0  0.00000000000E+00  0.00000000000E+00 -0.14596294754E+04  0.14596294754E+04  0.25500000920E-02 0.  1.
    10030    2    1    2    0    0  0.00000000000E+00  0.00000000000E+00  0.11691185801E+04  0.40883775310E+04  0.39176514114E+04 0.  0.
        3    1    3    3  502    0 -0.11618089081E+03 -0.11675650281E+04  0.22214456635E+04  0.25122752517E+04  0.10100000352E+00 0. -1.
       -3    1    3    3    0  502  0.11618089081E+03  0.11675650281E+04 -0.10523270834E+04  0.15761022793E+04  0.10100000352E+00 0.  1.
</event>
<event>
 5   0  0.2904500E-09  0.3901480E+04  0.7818609E-02  0.8024722E-01
       -1   -1    0    0    0  501  0.00000000000E+00  0.00000000000E+00  0.36671562016E+04  0.36671562016E+04  0.50400001928E-02 0. -1.
        1   -1    0    0  501    0  0.00000000000E+00  0.00000000000E+00 -0.10376940122E+04  0.10376940122E+04  0.50400001928E-02 0.  1.
    10030    2    1    2    0    0  0.00000000000E+00  0.00000000000E+00  0.26294621894E+04  0.47048502139E+04  0.39014797359E+04 0.  0.
        2    1    3    3  502    0 -0.14323206583E+04 -0.54729283520E+03 -0.13954061534E+03  0.15396569420E+04  0.25500000920E-02 0.  1.
       -2    1    3    3    0  502  0.14323206583E+04  0.54729283520E+03  0.27690028047E+04  0.31651932719E+04  0.25500000920E-02 0. -1.
</event>
<event>
 5   0  0.2904500E-09  0.3900823E+04  0.7818609E-02  0.8024858E-01
        1   -1    0    0  501    0  0.00000000000E+00  0.00000000000E+00  0.22958805030E+04  0.22958805030E+04  0.50400001928E-02 0.  1.
       -1   -1    0    0    0  501  0.00000000000E+00  0.00000000000E+00 -0.16569260197E+04  0.16569260197E+04  0.50400001928E-02 0. -1.
    10030    2    1    2    0    0  0.00000000000E+00  0.00000000000E+00  0.63895448329E+03  0.39528065227E+04  0.39008225510E+04 0.  0.
        4    1    3    3  502    0 -0.12270375183E+04 -0.91814472377E+03  0.15419923452E+04  0.21740176657E+04  0.12699999809E+01 0.  1.
       -4    1    3    3    0  502  0.12270375183E+04  0.91814472377E+03 -0.90303786192E+03  0.17787888571E+04  0.12699999809E+01 0. -1.
</event>
<event>
 5   0  0.2904500E-09  0.3902961E+04  0.7818609E-02  0.8024414E-01
        1   -1    0    0  501    0  0.00000000000E+00  0.00000000000E+00  0.28756122179E+04  0.28756122179E+04  0.50400001928E-02 0. -1.
       -1   -1    0    0    0  501  0.00000000000E+00  0.00000000000E+00 -0.13243356958E+04  0.13243356958E+04  0.50400001928E-02 0.  1.
    10030    2    1    2    0    0  0.00000000000E+00  0.00000000000E+00  0.15512765220E+04  0.41999479137E+04  0.39029608799E+04 0.  0.
        2    1    3    3  502    0 -0.47724470007E+03 -0.17243367066E+04 -0.62869566540E+02  0.17902659478E+04  0.25500000920E-02 0.  1.
       -2    1    3    3    0  502  0.47724470007E+03  0.17243367066E+04  0.16141460886E+04  0.24096819659E+04  0.25500000920E-02 0. -1.
</event>
<event>
 5   0  0.9434114E-09  0.3899456E+04  0.7818609E-02  0.8025142E-01
       -2   -1    0    0    0  501  0.00000000000E+00  0.00000000000E+00  0.13295235661E+04  0.13295235661E+04  0.25500000920E-02 0.  1.
        2   -1    0    0  501    0  0.00000000000E+00  0.00000000000E+00 -0.28592498419E+04  0.28592498419E+04  0.25500000920E-02 0. -1.
    10030    2    1    2    0    0  0.00000000000E+00  0.00000000000E+00 -0.15297262758E+04  0.41887734081E+04  0.38994563961E+04 0.  0.
        4    1    3    3  502    0  0.40459997973E+03  0.16882092122E+04 -0.17182290584E+04  0.24425528035E+04  0.12699999809E+01 0. -1.
       -4    1    3    3    0  502 -0.40459997973E+03 -0.16882092122E+04  0.18850278255E+03  0.17462206046E+04  0.12699999809E+01 0.  1.
</event>
<event>
 5   0  0.9368546E-09  0.3897149E+04  0.7818609E-02  0.8025622E-01
        2   -1    0    0  501    0  0.00000000000E+00  0.00000000000E+00  0.16696119102E+04  0.16696119102E+04  0.25500000920E-02 0.  1.
       -2   -1    0    0    0  501  0.00000000000E+00  0.00000000000E+00 -0.22741468451E+04  0.22741468451E+04  0.25500000920E-02 0. -1.
    10030    2    1    2    0    0  0.00000000000E+00  0.00000000000E+00 -0.60453493497E+03  0.39437587553E+04  0.38971490390E+04 0.  0.
        5    1    3    3  502    0 -0.18529197994E+03 -0.19357051879E+04 -0.17574059741E+03  0.19524841971E+04  0.46999998093E+01 0. -1.
       -5    1    3    3    0  502  0.18529197994E+03  0.19357051879E+04 -0.42879433756E+03  0.19912745582E+04  0.46999998093E+01 0.  1.
</event>
<event>
 5   0  0.9277261E-09  0.3899428E+04  0.7818609E-02  0.8025148E-01
        2   -1    0    0  501    0  0.00000000000E+00  0.00000000000E+00  0.20886518889E+04  0.20886518889E+04  0.25500000920E-02 0.  1.
       -2   -1    0    0    0  501  0.00000000000E+00  0.00000000000E+00 -0.18200184121E+04  0.18200184121E+04  0.25500000920E-02 0. -1.
    10030    2    1    2    0    0  0.00000000000E+00  0.00000000000E+00  0.26863347675E+03  0.39086703010E+04  0.38994281090E+04 0.  0.
        1    1    3    3  502    0  0.17138090121E+03  0.17800267102E+04 -0.64438900122E+03  0.19008165843E+04  0.50400001928E-02 0. -1.
       -1    1    3    3    0  502 -0.17138090121E+03 -0.17800267102E+04  0.91302247797E+03  0.20078537167E+04  0.50400001928E-02 0.  1.
</event>
<event>
 5   0  0.2904500E-09  0.3900171E+04  0.7818609E-02  0.8024994E-01
        1   -1    0    0  501    0  0.00000000000E+00  0.00000000000E+00  0.22129806089E+04  0.22129806089E+04  0.50400001928E-02 0. -1.
       -1   -1    0    0    0  501  0.00000000000E+00  0.00000000000E+00 -0.17184218218E+04  0.17184218218E+04  0.50400001928E-02 0.  1.
    10030    2    1    2    0    0  0.00000000000E+00  0.00000000000E+00  0.49455878714E+03  0.39314024307E+04  0.39001713652E+04 0.  0.
        4    1    3    3  502    0 -0.50191212527E+03  0.18714781150E+04  0.46923900851E+03  0.19936230778E+04  0.12699999809E+01 0. -1.
       -4    1    3    3    0  502  0.50191212527E+03 -0.18714781150E+04  0.25319778633E+02  0.19377793529E+04  0.12699999809E+01 0.  1.
</event>
<event>
 5   0  0.9434114E-09  0.3900218E+04  0.7818609E-02  0.8024984E-01
       -2   -1    0    0    0  501  0.00000000000E+00  0.00000000000E+00  0.20214177229E+04  0.20214177229E+04  0.25500000920E-02 0.  1.
        2   -1    0    0  501    0  0.00000000000E+00  0.00000000000E+00 -0.18813162165E+04  0.18813162165E+04  0.25500000920E-02 0. -1.
    10030    2    1    2    0    0  0.00000000000E+00  0.00000000000E+00  0.14010150637E+03  0.39027339394E+04  0.39002184259E+04 0.  0.
        4    1    3    3  502    0 -0.12629434130E+04  0.53516582987E+03 -0.13170235790E+04  0.19015733618E+04  0.12699999809E+01 0. -1.
       -4    1    3    3    0  502  0.12629434130E+04 -0.53516582987E+03  0.14571250854E+04  0.20011605776E+04  0.12699999809E+01 0.  1.
</event>
<event>
 5   0  0.2904500E-09  0.3904479E+04  0.7818609E-02  0.8024098E-01
       -1   -1    0    0    0  501  0.00000000000E+00  0.00000000000E+00  0.18056566823E+04  0.18056566823E+04  0.50400001928E-02 0. -1.
        1   -1    0    0  501    0  0.00000000000E+00  0.00000000000E+00 -0.21107223486E+04  0.21107223486E+04  0.50400001928E-02 0.  1.
    10030    2    1    2    0    0  0.00000000000E+00  0.00000000000E+00 -0.30506566629E+03  0.39163790310E+04  0.39044794344E+04 0.  0.
        4    1    3    3  502    0 -0.61241903282E+03 -0.93661054329E+03  0.14520117595E+04  0.18332037924E+04  0.12699999809E+01 0. -1.
       -4    1    3    3    0  502  0.61241903282E+03  0.93661054329E+03 -0.17570774258E+04  0.20831752386E+04  0.12699999809E+01 0.  1.
</event>
<event>
 5   0  0.9277261E-09  0.3899590E+04  0.7818609E-02  0.8025114E-01
       -2   -1    0    0    0  501  0.00000000000E+00  0.00000000000E+00  0.16375351749E+04  0.16375351749E+04  0.25500000920E-02 0.  1.
        2   -1    0    0  501    0  0.00000000000E+00  0.00000000000E+00 -0.23215998256E+04  0.23215998256E+04  0.25500000920E-02 0. -1.
    10030    2    1    2    0    0  0.00000000000E+00  0.00000000000E+00 -0.68406465073E+03  0.39591350005E+04  0.38995904279E+04 0.  0.
        1    1    3    3  502    0  0.18492432970E+04  0.26462160238E+03  0.22504452241E+03  0.18815872026E+04  0.50400001928E-02 0.  1.
       -1    1    3    3    0  502 -0.18492432970E+04 -0.26462160238E+03 -0.90910917314E+03  0.20775477979E+04  0.50400001928E-02 0. -1.
</event>
<event>
 5   0  0.6335942E-09  0.3906726E+04  0.7818609E-02  0.8023632E-01
       -2   -1    0    0    0  501  0.00000000000E+00  0.00000000000E+00  0.14435923222E+04  0.14435923222E+04  0.25500000920E-02 0. -1.
        2   -1    0    0  501    0  0.00000000000E+00  0.00000000000E+00 -0.26431477048E+04  0.26431477048E+04  0.25500000920E-02 0.  1.
    10030    2    1    2    0    0  0.00000000000E+00  0.00000000000E+00 -0.11995553827E+04  0.40867400270E+04  0.39067263703E+04 0.  0.
        2    1    3    3  502    0  0.14662892408E+04 -0.76519567651E+03 -0.16869436218E+04  0.23624790674E+04  0.25500000920E-02 0.  1.
       -2    1    3    3    0  502 -0.14662892408E+04  0.76519567651E+03  0.48738823910E+03  0.17242609596E+04  0.25500000920E-02 0. -1.
</event>
<event>
 5   0  0.2929054E-09  0.3900375E+04  0.7818609E-02  0.8024951E-01
       -1   -1    0    0    0  501  0.00000000000E+00  0.00000000000E+00  0.15578925737E+04  0.15578925737E+04  0.50400001928E-02 0.  1.
        1   -1    0    0  501    0  0.00000000000E+00  0.00000000000E+00 -0.24412671067E+04  0.24412671067E+04  0.50400001928E-02 0. -1.
    10030    2    1    2    0    0  0.00000000000E+00  0.00000000000E+00 -0.88337453296E+03  0.39991596804E+04  0.39003753132E+04 0.  0.
        1    1    3    3  502    0 -0.81849889110E+03  0.17272897201E+04 -0.83847908014E+03  0.20872271989E+04  0.50400001928E-02 0. -1.
       -1    1    3    3    0  502  0.81849889110E+03 -0.17272897201E+04 -0.44895452820E+02  0.19119324815E+04  0.50400001928E-02 0.  1.
</event>
<event>
 5   0  0.9277261E-09  0.3900414E+04  0.7818609E-02  0.8024943E-01
        2   -1    0    0  501    0  0.00000000000E+00  0.00000000000E+00  0.31071519553E+04  0.31071519553E+04  0.25500000920E-02 0. -1.
       -2   -1    0    0    0  501  0.00000000000E+00  0.00000000000E+00 -0.12240492116E+04  0.12240492116E+04  0.25500000920E-02 0.  1.
    10030    2    1    2    0    0  0.00000000000E+00  0.00000000000E+00  0.18831027437E+04  0.43312011669E+04  0.39004137735E+04 0.  0.
        1    1    3    3  502    0  0.37381347141E+03 -0.15228643466E+04  0.22291210485E+04  0.27254051036E+04  0.50400001928E-02 0. -1.
       -1    1    3    3    0  502 -0.37381347141E+03  0.15228643466E+04 -0.34601830486E+03  0.16057960633E+04  0.50400001928E-02 0.  1.
</event>
<event>
 5   0  0.2904500E-09  0.3903153E+04  0.7818609E-02  0.8024374E-01
        1   -1    0    0  501    0  0.00000000000E+00  0.00000000000E+00  0.21033072374E+04  0.21033072375E+04  0.50400001928E-02 0. -1.
       -1   -1    0    0    0  501  0.00000000000E+00  0.00000000000E+00 -0.18107917968E+04  0.18107917968E+04  0.50400001928E-02 0.  1.
    10030    2    1    2    0    0  0.00000000000E+00  0.00000000000E+00  0.29251544063E+03  0.39140990343E+04  0.39031533364E+04 0.  0.
        3    1    3    3  502    0  0.10828956525E+04 -0.67107371773E+03 -0.13362820818E+04  0.18462537044E+04  0.10100000352E+00 0.  1.
       -3    1    3    3    0  502 -0.10828956525E+04  0.67107371773E+03  0.16287975224E+04  0.20678453298E+04  0.10100000352E+00 0. -1.
</event>
<event>
 5   0  0.2904500E-09  0.3900354E+04  0.7818609E-02  0.8024956E-01
        1   -1    0    0  501    0  0.00000000000E+00  0.00000000000E+00  0.24839081926E+04  0.24839081926E+04  0.50400001928E-02 0. -1.
       -1   -1    0    0    0  501  0.00000000000E+00  0.00000000000E+00 -0.15311316532E+04  0.15311316533E+04  0.50400001928E-02 0.  1.
    10030    2    1    2    0    0  0.00000000000E+00  0.00000000000E+00  0.95277653931E+03  0.40150398458E+04  0.39003540647E+04 0.  0.
        5    1    3    3  502    0  0.80017951614E+03 -0.10366286444E+04  0.19639685619E+04  0.23605255361E+04  0.46999998093E+01 0. -1.
       -5    1    3    3    0  502 -0.80017951614E+03  0.10366286444E+04 -0.10111920226E+04  0.16545143097E+04  0.46999998093E+01 0.  1.
</event>
<event>
 5   0  0.2904500E-09  0.3899884E+04  0.7818609E-02  0.8025053E-01
        1   -1    0    0  501    0  0.00000000000E+00  0.00000000000E+00  0.16839373068E+04  0.16839373068E+04  0.50400001928E-02 0. -1.
       -1   -1    0    0    0  501  0.00000000000E+00  0.00000000000E+00 -0.22579665499E+04  0.22579665499E+04  0.50400001928E-02 0.  1.
    10030    2    1    2    0    0  0.00000000000E+00  0.00000000000E+00 -0.57402924310E+03  0.39419038568E+04  0.38998841578E+04 0.  0.
        4    1    3    3  502    0  0.14153987911E+03  0.18020939821E+04  0.45209334943E+03  0.18633213000E+04  0.12699999809E+01 0. -1.
       -4    1    3    3    0  502 -0.14153987911E+03 -0.18020939821E+04 -0.10261225925E+04  0.20785825568E+04  0.12699999809E+01 0.  1.
</event>
<event>
 5   0  0.2904500E-09  0.3900943E+04  0.7818609E-02  0.8024833E-01
       -1   -1    0    0    0  501  0.00000000000E+00  0.00000000000E+00  0.16014096748E+04  0.16014096748E+04  0.50400001928E-02 0. -1.
        1   -1    0    0  501    0  0.00000000000E+00  0.00000000000E+00 -0.23756193584E+04  0.23756193584E+04  0.50400001928E-02 0.  1.
    10030    2    1    2    0    0  0.00000000000E+00  0.00000000000E+00 -0.77420968357E+03  0.39770290332E+04  0.39009433855E+04 0.  0.
        3    1    3    3  502    0  0.17760280908E+03 -0.14235685973E+04 -0.17343364454E+04  0.22507805812E+04  0.10100000352E+00 0.  1.
       -3    1    3    3    0  502 -0.17760280908E+03  0.14235685973E+04  0.96012676178E+03  0.17262484519E+04  0.10100000352E+00 0. -1.
</event>
<event>
 5   0  0.2904500E-09  0.3899967E+04  0.7818609E-02  0.8025036E-01
       -1   -1    0    0    0  501  0.00000000000E+00  0.00000000000E+00  0.22774961957E+04  0.22774961957E+04  0.50400001928E-02 0.  1.
        1   -1    0    0  501    0  0.00000000000E+00  0.00000000000E+00 -0.16695686572E+04  0.16695686572E+04  0.50400001928E-02 0. -1.
    10030    2    1    2    0    0  0.00000000000E+00  0.00000000000E+00  0.60792753844E+03  0.39470648529E+04  0.38999673153E+04 0.  0.
        3    1    3    3  502    0 -0.15728799184E+04  0.39004683927E+03  0.14016577754E+04  0.21425994269E+04  0.10100000352E+00 0.  1.
       -3    1    3    3    0  502  0.15728799184E+04 -0.39004683927E+03 -0.79373023697E+03  0.18044654260E+04  0.10100000352E+00 0. -1.
</event>
<event>
 5   0  0.2904500E-09  0.3901932E+04  0.7818609E-02  0.8024628E-01
       -1   -1    0    0    0  501  0.00000000000E+00  0.00000000000E+00  0.18195140154E+04  0.18195140154E+04  0.50400001928E-02 0.  1.
        1   -1    0    0  501    0  0.00000000000E+00  0.00000000000E+00 -0.20919148236E+04  0.20919148236E+04  0.50400001928E-02 0. -1.
    10030    2    1    2    0    0  0.00000000000E+00  0.00000000000E+00 -0.27240080821E+03  0.39114288390E+04  0.39019320038E+04 0.  0.
        4    1    3    3  502    0  0.25254251206E+03 -0.16718696257E+04 -0.11118837557E+04  0.20236632291E+04  0.12699999809E+01 0. -1.
       -4    1    3    3    0  502 -0.25254251206E+03  0.16718696257E+04  0.83948294748E+03  0.18877656099E+04  0.12699999809E+01 0.  1.
</event>
<event>
 5   0  0.2904500E-09  0.3901191E+04  0.7818609E-02  0.8024782E-01
        1   -1    0    0  501    0  0.00000000000E+00  0.00000000000E+00  0.17436605800E+04  0.17436605800E+04  0.50400001928E-02 0.  1.
       -1   -1    0    0    0  501  0.00000000000E+00  0.00000000000E+00 -0.21820890294E+04  0.21820890294E+04  0.50400001928E-02 0. -1.
    10030    2    1    2    0    0  0.00000000000E+00  0.00000000000E+00 -0.43842844938E+03  0.39257496095E+04  0.39011909068E+04 0.  0.
        3    1    3    3  502    0 -0.17644321087E+04 -0.13230988659E+03  0.60698784953E+03  0.18706044028E+04  0.10100000352E+00 0.  1.
       -3    1    3    3    0  502  0.17644321087E+04  0.13230988659E+03 -0.10454162989E+04  0.20551452066E+04  0.10100000352E+00 0. -1.
</event>
<event>
 5   0  0.2929054E-09  0.3900868E+04  0.7818609E-02  0.8024849E-01
        1   -1    0    0  501    0  0.00000000000E+00  0.00000000000E+00  0.27558100014E+04  0.27558100014E+04  0.50400001928E-02 0.  1.
       -1   -1    0    0    0  501  0.00000000000E+00  0.00000000000E+00 -0.13804260890E+04  0.13804260890E+04  0.50400001928E-02 0. -1.
    10030    2    1    2    0    0  0.00000000000E+00  0.00000000000E+00  0.13753839124E+04  0.41362360904E+04  0.39008676072E+04 0.  0.
        1    1    3    3  502    0  0.79263611125E+02 -0.80496179365E+03  0.25695880909E+04  0.26938873707E+04  0.50400001928E-02 0.  1.
       -1    1    3    3    0  502 -0.79263611125E+02  0.80496179365E+03 -0.11942041785E+04  0.14423487197E+04  0.50400001928E-02 0. -1.
</event>
<event>
 5   0  0.2904500E-09  0.3901697E+04  0.7818609E-02  0.8024676E-01
        1   -1    0    0  501    0  0.00000000000E+00  0.00000000000E+00  0.25487865051E+04  0.25487865051E+04  0.50400001928E-02 0. -1.
       -1   -1    0    0    0  501  0.00000000000E+00  0.00000000000E+00 -0.14931853631E+04  0.14931853631E+04  0.50400001928E-02 0.  1.
    10030    2    1    2    0    0  0.00000000000E+00  0.00000000000E+00  0.10556011420E+04  0.40419718682E+04  0.39016974271E+04 0.  0.
        5    1    3    3  502    0 -0.28204761369E+03 -0.18165357897E+04 -0.14869719341E+03  0.18443118166E+04  0.46999998093E+01 0.  1.
       -5    1    3    3    0  502  0.28204761369E+03  0.18165357897E+04  0.12042983354E+04  0.21976600516E+04  0.46999998093E+01 0. -1.
</event>
<event>
 5   0  0.9277261E-09  0.3899763E+04  0.7818609E-02  0.8025078E-01
        2   -1    0    0  501    0  0.00000000000E+00  0.00000000000E+00  0.23489341062E+04  0.23489341062E+04  0.25500000920E-02 0. -1.
       -2   -1    0    0    0  501  0.00000000000E+00  0.00000000000E+00 -0.16186226660E+04  0.16186226660E+04  0.25500000920E-02 0.  1.
    10030    2    1    2    0    0  0.00000000000E+00  0.00000000000E+00  0.73031144021E+03  0.39675567722E+04  0.38997630622E+04 0.  0.
        1    1    3    3  502    0 -0.56995561803E+03  0.63551732654E+03 -0.14184048062E+04  0.16554769322E+04  0.50400001928E-02 0.  1.
       -1    1    3    3    0  502  0.56995561803E+03 -0.63551732654E+03  0.21487162464E+04  0.23120798400E+04  0.50400001928E-02 0. -1.
</event>
<event>
 5   0  0.6335942E-09  0.3899669E+04  0.7818609E-02  0.8025098E-01
       -2   -1    0    0    0  501  0.00000000000E+00  0.00000000000E+00  0.27897044765E+04  0.27897044765E+04  0.25500000920E-02 0.  1.
        2   -1    0    0  501    0  0.00000000000E+00  0.00000000000E+00 -0.13628163623E+04  0.13628163623E+04  0.25500000920E-02 0. -1.
    10030    2    1    2    0    0  0.00000000000E+00  0.00000000000E+00  0.14268881142E+04  0.41525208389E+04  0.38996691689E+04 0.  0.
        2    1    3    3  502    0 -0.61256955374E+03  0.11420113257E+04 -0.83787128192E+03  0.15431978523E+04  0.25500000920E-02 0. -1.
       -2    1    3    3    0  502  0.61256955374E+03 -0.11420113257E+04  0.22647593961E+04  0.26093229866E+04  0.25500000920E-02 0.  1.
</event>
<event>
 5   0  0.2904500E-09  0.3899177E+04  0.7818609E-02  0.8025200E-01
       -1   -1    0    0    0  501  0.00000000000E+00  0.00000000000E+00  0.21802194530E+04  0.21802194530E+04  0.50400001928E-02 0.  1.
        1   -1    0    0  501    0  0.00000000000E+00  0.00000000000E+00 -0.17433544984E+04  0.17433544984E+04  0.50400001928E-02 0. -1.
    10030    2    1    2    0    0  0.00000000000E+00  0.00000000000E+00  0.43686495459E+03  0.39235739514E+04  0.38991770367E+04 0.  0.
        5    1    3    3  502    0 -0.21992592958E+03 -0.17154799708E+04  0.11238592933E+04  0.20626004814E+04  0.46999998093E+01 0.  1.
       -5    1    3    3    0  502  0.21992592958E+03  0.17154799708E+04 -0.68699433868E+03  0.18609734700E+04  0.46999998093E+01 0. -1.
</event>
<event>
 5   0  0.9277261E-09  0.3900736E+04  0.7818609E-02  0.8024876E-01
        2   -1    0    0  501    0  0.00000000000E+00  0.00000000000E+00  0.19842702956E+04  0.19842702956E+04  0.25500000920E-02 0. -1.
       -2   -1    0    0    0  501  0.00000000000E+00  0.00000000000E+00 -0.19170447749E+04  0.19170447749E+04  0.25500000920E-02 0.  1.
    10030    2    1    2    0    0  0.00000000000E+00  0.00000000000E+00  0.67225520736E+02  0.39013150705E+04  0.39007358292E+04 0.  0.
        1    1    3    3  502    0  0.10105454757E+03  0.13814189126E+03  0.19767444891E+04  0.19841406147E+04  0.50400001928E-02 0. -1.
       -1    1    3    3    0  502 -0.10105454757E+03 -0.13814189126E+03 -0.19095189683E+04  0.19171744559E+04  0.50400001928E-02 0.  1.
</event>
<event>
 5   0  0.9277261E-09  0.3898882E+04  0.7818609E-02  0.8025262E-01
       -2   -1    0    0    0  501  0.00000000000E+00  0.00000000000E+00  0.18602958819E+04  0.18602958819E+04  0.25500000920E-02 0. -1.
        2   -1    0    0  501    0  0.00000000000E+00  0.00000000000E+00 -0.20428581207E+04  0.20428581207E+04  0.25500000920E-02 0.  1.
    10030    2    1    2    0    0  0.00000000000E+00  0.00000000000E+00 -0.18256223874E+03  0.39031540026E+04  0.38988821728E+04 0.  0.
        1    1    3    3  502    0  0.51555199451E+03 -0.12292139076E+03 -0.19693475135E+04  0.20394198087E+04  0.50400001928E-02 0.  1.
       -1    1    3    3    0  502 -0.51555199451E+03  0.12292139076E+03  0.17867852747E+04  0.18637341939E+04  0.50400001928E-02 0. -1.
</event>
<event>
 5   0  0.6335942E-09  0.3899291E+04  0.7818609E-02  0.8025177E-01
        2   -1    0    0  501    0  0.00000000000E+00  0.00000000000E+00  0.20054461060E+04  0.20054461060E+04  0.25500000920E-02 0. -1.
       -2   -1    0    0    0  501  0.00000000000E+00  0.00000000000E+00 -0.18953975112E+04  0.18953975112E+04  0.25500000920E-02 0.  1.
    10030    2    1    2    0    0  0.00000000000E+00  0.00000000000E+00  0.11004859479E+03  0.39008436172E+04  0.38992909911E+04 0.  0.
        2    1    3    3  502    0 -0.56209526875E+03  0.79262136790E+03  0.17459392662E+04  0.19981250325E+04  0.25500000920E-02 0. -1.
       -2    1    3    3    0  502  0.56209526875E+03 -0.79262136790E+03 -0.16358906714E+04  0.19027185848E+04  0.25500000920E-02 0.  1.
</event>
<event>
 5   0  0.6335942E-09  0.3894892E+04  0.7818609E-02  0.8026092E-01
       -2   -1    0    0    0  501  0.00000000000E+00  0.00000000000E+00  0.32280771854E+04  0.32280771854E+04  0.25500000920E-02 0. -1.
        2   -1    0    0  501    0  0.00000000000E+00  0.00000000000E+00 -0.11748620529E+04  0.11748620529E+04  0.25500000920E-02 0.  1.
    10030    2    1    2    0    0  0.00000000000E+00  0.00000000000E+00  0.20532151325E+04  0.44029392383E+04  0.38948917259E+04 0.  0.
        2    1    3    3  502    0  0.20221929311E+02  0.61756469694E+03 -0.10611125044E+04  0.12279066855E+04  0.25500000920E-02 0.  1.
       -2    1    3    3    0  502 -0.20221929311E+02 -0.61756469694E+03  0.31143276369E+04  0.31750325528E+04  0.25500000920E-02 0. -1.
</event>
<event>
 5   0  0.2904500E-09  0.3898093E+04  0.7818609E-02  0.8025426E-01
        1   -1    0    0  501    0  0.00000000000E+00  0.00000000000E+00  0.11905870195E+04  0.11905870195E+04  0.50400001928E-02 0. -1.
       -1   -1    0    0    0  501  0.00000000000E+00  0.00000000000E+00 -0.31906806953E+04  0.31906806953E+04  0.50400001928E-02 0.  1.
    10030    2    1    2    0    0  0.00000000000E+00  0.00000000000E+00 -0.20000936758E+04  0.43812677148E+04  0.38980933899E+04 0.  0.
        5    1    3    3  502    0 -0.11142042465E+04  0.60982649862E+03 -0.26616034923E+04  0.29491515223E+04  0.46999998093E+01 0.  1.
       -5    1    3    3    0  502  0.11142042465E+04 -0.60982649862E+03  0.66150981652E+03  0.14321161924E+04  0.46999998093E+01 0. -1.
</event>
<event>
 5   0  0.6335942E-09  0.3899379E+04  0.7818609E-02  0.8025158E-01
       -2   -1    0    0    0  501  0.00000000000E+00  0.00000000000E+00  0.22903586305E+04  0.22903586305E+04  0.25500000920E-02 0. -1.
        2   -1    0    0  501    0  0.00000000000E+00  0.00000000000E+00 -0.16596919282E+04  0.16596919282E+04  0.25500000920E-02 0.  1.
    10030    2    1    2    0    0  0.00000000000E+00  0.00000000000E+00  0.63066670230E+03  0.39500505587E+04  0.38993793002E+04 0.  0.
        2    1    3    3  502    0 -0.19940136739E+03 -0.18989543556E+04 -0.84127312982E+02  0.19112472249E+04  0.25500000920E-02 0.  1.
       -2    1    3    3    0  502  0.19940136739E+03  0.18989543556E+04  0.71479401529E+03  0.20388033338E+04  0.25500000920E-02 0. -1.
</event>
<event>
 5   0  0.2904500E-09  0.3899594E+04  0.7818609E-02  0.8025114E-01
        1   -1    0    0  501    0  0.00000000000E+00  0.00000000000E+00  0.20081858871E+04  0.20081858871E+04  0.50400001928E-02 0. -1.
       -1   -1    0    0    0  501  0.00000000000E+00  0.00000000000E+00 -0.18931059399E+04  0.18931059399E+04  0.50400001928E-02 0.  1.
    10030    2    1    2    0    0  0.00000000000E+00  0.00000000000E+00  0.11507994713E+03  0.39012918270E+04  0.38995941488E+04 0.  0.
        5    1    3    3  502    0 -0.66049204428E+03 -0.47507247144E+03 -0.17151634141E+04  0.18983548722E+04  0.46999998093E+01 0.  1.
       -5    1    3    3    0  502  0.66049204428E+03  0.47507247144E+03  0.18302433612E+04  0.20029369548E+04  0.46999998093E+01 0. -1.
</event>
<event>
 5   0  0.2904500E-09  0.3901230E+04  0.7818609E-02  0.8024773E-01
       -1   -1    0    0    0  501  0.00000000000E+00  0.00000000000E+00  0.16686185419E+04  0.16686185419E+04  0.50400001928E-02 0.  1.
        1   -1    0    0  501    0  0.00000000000E+00  0.00000000000E+00 -0.22802693452E+04  0.22802693452E+04  0.50400001928E-02 0. -1.
    10030    2    1    2    0    0  0.00000000000E+00  0.00000000000E+00 -0.61165080334E+03  0.39488878871E+04  0.39012304263E+04 0.  0.
        2    1    3    3  502    0 -0.58203182110E+03 -0.17790421921E+04  0.24964748661E+03  0.18884056846E+04  0.25500000920E-02 0.  1.
       -2    1    3    3    0  502  0.58203182110E+03  0.17790421921E+04 -0.86129828994E+03  0.20604822024E+04  0.25500000920E-02 0. -1.
</event>
<event>
 5   0  0.9368546E-09  0.3900680E+04  0.7818609E-02  0.8024888E-01
       -2   -1    0    0    0  501  0.00000000000E+00  0.00000000000E+00  0.14981656445E+04  0.14981656445E+04  0.25500000920E-02 0. -1.
        2   -1    0    0  501    0  0.00000000000E+00  0.00000000000E+00 -0.25389891589E+04  0.25389891589E+04  0.25500000920E-02 0.  1.
    10030    2    1    2    0    0  0.00000000000E+00  0.00000000000E+00 -0.10408235144E+04  0.40371548034E+04  0.39006801097E+04 0.  0.
        5    1    3    3  502    0 -0.58984125774E+02 -0.77704210194E+03  0.13300261034E+04  0.15415138926E+04  0.46999998093E+01 0. -1.
       -5    1    3    3    0  502  0.58984125774E+02  0.77704210194E+03 -0.23708496178E+04  0.24956409108E+04  0.46999998093E+01 0.  1.
</event>
<event>
 5   0  0.2904500E-09  0.3900372E+04  0.7818609E-02  0.8024952E-01
        1   -1    0    0  501    0  0.00000000000E+00  0.00000000000E+00  0.22075244698E+04  0.22075244698E+04  0.50400001928E-02 0.  1.
       -1   -1    0    0    0  501  0.00000000000E+00  0.00000000000E+00 -0.17228462674E+04  0.17228462674E+04  0.50400001928E-02 0. -1.
    10030    2    1    2    0    0  0.00000000000E+00  0.00000000000E+00  0.48467820242E+03  0.39303707373E+04  0.39003719274E+04 0.  0.
        2    1    3    3  502    0  0.49620910056E+03  0.54351815037E+03  0.20622166556E+04  0.21896056691E+04  0.25500000920E-02 0.  1.
       -2    1    3    3    0  502 -0.49620910056E+03 -0.54351815037E+03 -0.15775384532E+04  0.17407650682E+04  0.25500000920E-02 0. -1.
</event>
<event>
 5   0  0.9277261E-09  0.3898272E+04  0.7818609E-02  0.8025389E-01
        2   -1    0    0  501    0  0.00000000000E+00  0.00000000000E+00  0.16462788983E+04  0.16462788983E+04  0.25500000920E-02 0. -1.
       -2   -1    0    0    0  501  0.00000000000E+00  0.00000000000E+00 -0.23077076952E+04  0.23077076952E+04  0.25500000920E-02 0.  1.
    10030    2    1    2    0    0  0.00000000000E+00  0.00000000000E+00 -0.66142879695E+03  0.39539865935E+04  0.38982716591E+04 0.  0.
        1    1    3    3  502    0 -0.14589965254E+04  0.12889747412E+04 -0.42695858395E+03  0.19930931682E+04  0.50400001928E-02 0.  1.
       -1    1    3    3    0  502  0.14589965254E+04 -0.12889747412E+04 -0.23447021301E+03  0.19608934253E+04  0.50400001928E-02 0. -1.
</event>
<event>
 5   0  0.6335942E-09  0.3899930E+04  0.7818609E-02  0.8025044E-01
       -2   -1    0    0    0  501  0.00000000000E+00  0.00000000000E+00  0.21156525661E+04  0.21156525661E+04  0.25500000920E-02 0. -1.
        2   -1    0    0  501    0  0.00000000000E+00  0.00000000000E+00 -0.17972535753E+04  0.17972535753E+04  0.25500000920E-02 0.  1.
    10030    2    1    2    0    0  0.00000000000E+00  0.00000000000E+00  0.31839899084E+03  0.39129061414E+04  0.38999303269E+04 0.  0.
        2    1    3    3  502    0  0.43441016381E+02  0.65046463768E+03  0.20030770649E+04  0.21064921302E+04  0.25500000920E-02 0. -1.
       -2    1    3    3    0  502 -0.43441016381E+02 -0.65046463768E+03 -0.16846780740E+04  0.18064140112E+04  0.25500000920E-02 0.  1.
</event>
<event>
 5   0  0.2904500E-09  0.3892592E+04  0.7818609E-02  0.8026572E-01
       -1   -1    0    0    0  501  0.00000000000E+00  0.00000000000E+00  0.14920198214E+04  0.14920198214E+04  0.50400001928E-02 0.  1.
        1   -1    0    0  501    0  0.00000000000E+00  0.00000000000E+00 -0.25388858001E+04  0.25388858001E+04  0.50400001928E-02 0. -1.
    10030    2    1    2    0    0  0.00000000000E+00  0.00000000000E+00 -0.10468659787E+04  0.40309056215E+04  0.38925919067E+04 0.  0.
        3    1    3    3  502    0 -0.15343896123E+04 -0.11558744836E+04 -0.19980525341E+03  0.19314034932E+04  0.10100000352E+00 0.  1.
       -3    1    3    3    0  502  0.15343896123E+04  0.11558744836E+04 -0.84706072531E+03  0.20995021283E+04  0.10100000352E+00 0. -1.
</event>
<event>
 5   0  0.9078515E-09  0.3900210E+04  0.7818609E-02  0.8024986E-01
       -2   -1    0    0    0  501  0.00000000000E+00  0.00000000000E+00  0.27204027624E+04  0.27204027624E+04  0.25500000920E-02 0. -1.
        2   -1    0    0  501    0  0.00000000000E+00  0.00000000000E+00 -0.13979214989E+04  0.13979214989E+04  0.25500000920E-02 0.  1.
    10030    2    1    2    0    0  0.00000000000E+00  0.00000000000E+00  0.13224812635E+04  0.41183242613E+04  0.39002099981E+04 0.  0.
        3    1    3    3  502    0  0.14320062540E+03  0.15700960721E+04 -0.55063663647E+03  0.16700026378E+04  0.10100000352E+00 0.  1.
       -3    1    3    3    0  502 -0.14320062540E+03 -0.15700960721E+04  0.18731179000E+04  0.24483216235E+04  0.10100000352E+00 0. -1.
</event>
<event>
 5   0  0.2904500E-09  0.3899229E+04  0.7818609E-02  0.8025190E-01
        1   -1    0    0  501    0  0.00000000000E+00  0.00000000000E+00  0.22546089333E+04  0.22546089333E+04  0.50400001928E-02 0.  1.
       -1   -1    0    0    0  501  0.00000000000E+00  0.00000000000E+00 -0.16858784579E+04  0.16858784579E+04  0.50400001928E-02 0. -1.
    10030    2    1    2    0    0  0.00000000000E+00  0.00000000000E+00  0.56873047541E+03  0.39404873912E+04  0.38992289657E+04 0.  0.
        3    1    3    3  502    0  0.65105668340E+03  0.55419733520E+03 -0.14863123146E+04  0.17146818358E+04  0.10100000352E+00 0. -1.
       -3    1    3    3    0  502 -0.65105668340E+03 -0.55419733520E+03  0.20550427900E+04  0.22258055554E+04  0.10100000352E+00 0.  1.
</event>
<event>
 5   0  0.2904500E-09  0.3896846E+04  0.7818609E-02  0.8025686E-01
        1   -1    0    0  501    0  0.00000000000E+00  0.00000000000E+00  0.24727225157E+04  0.24727225157E+04  0.50400001928E-02 0.  1.
       -1   -1    0    0    0  501  0.00000000000E+00  0.00000000000E+00 -0.15352920948E+04  0.15352920948E+04  0.50400001928E-02 0. -1.
    10030    2    1    2    0    0  0.00000000000E+00  0.00000000000E+00  0.93743042095E+03  0.40080146105E+04  0.38968455607E+04 0.  0.
        2    1    3    3  502    0  0.45785085787E+03 -0.11027210273E+04 -0.11149273802E+04  0.16336107661E+04  0.25500000920E-02 0. -1.
       -2    1    3    3    0  502 -0.45785085787E+03  0.11027210273E+04  0.20523578011E+04  0.23744038443E+04  0.25500000920E-02 0.  1.
</event>
<event>
 5   0  0.6335942E-09  0.3899620E+04  0.7818609E-02  0.8025108E-01
        2   -1    0    0  501    0  0.00000000000E+00  0.00000000000E+00  0.14787511508E+04  0.14787511508E+04  0.25500000920E-02 0. -1.
       -2   -1    0    0    0  501  0.00000000000E+00  0.00000000000E+00 -0.25709259500E+04  0.25709259500E+04  0.25500000920E-02 0.  1.
    10030    2    1    2    0    0  0.00000000000E+00  0.00000000000E+00 -0.10921747991E+04  0.40496771008E+04  0.38996203442E+04 0.  0.
        2    1    3    3  502    0 -0.19016036324E+04 -0.39113040107E+03 -0.73382072080E+03  0.20754691556E+04  0.25500000920E-02 0.  1.
       -2    1    3    3    0  502  0.19016036324E+04  0.39113040107E+03 -0.35835407834E+03  0.19742079452E+04  0.25500000920E-02 0. -1.
</event>
<event>
 5   0  0.2904500E-09  0.3901243E+04  0.7818609E-02  0.8024771E-01
       -1   -1    0    0    0  501  0.00000000000E+00  0.00000000000E+00  0.18097450064E+04  0.18097450065E+04  0.50400001928E-02 0. -1.
        1   -1    0    0  501    0  0.00000000000E+00  0.00000000000E+00 -0.21024647092E+04  0.21024647092E+04  0.50400001928E-02 0.  1.
    10030    2    1    2    0    0  0.00000000000E+00  0.00000000000E+00 -0.29271970279E+03  0.39122097157E+04  0.39012433960E+04 0.  0.
        5    1    3    3  502    0  0.69617856999E+03  0.65977578567E+03 -0.18496437427E+04  0.20835481164E+04  0.46999998093E+01 0.  1.
       -5    1    3    3    0  502 -0.69617856999E+03 -0.65977578567E+03  0.15569240399E+04  0.18286615993E+04  0.46999998093E+01 0. -1.
</event>
<event>
 5   0  0.2904500E-09  0.3899997E+04  0.7818609E-02  0.8025030E-01
        1   -1    0    0  501    0  0.00000000000E+00  0.00000000000E+00  0.13118759483E+04  0.13118759483E+04  0.50400001928E-02 0.  1.
       -1   -1    0    0    0  501  0.00000000000E+00  0.00000000000E+00 -0.28985162546E+04  0.28985162546E+04  0.50400001928E-02 0. -1.
    10030    2    1    2    0    0  0.00000000000E+00  0.00000000000E+00 -0.15866403063E+04  0.42103922029E+04  0.38999968001E+04 0.  0.
        4    1    3    3  502    0 -0.93682460542E+03  0.69354644452E+03  0.89437942883E+03  0.14692049509E+04  0.12699999809E+01 0.  1.
       -4    1    3    3    0  502  0.93682460542E+03 -0.69354644452E+03 -0.24810197351E+04  0.27411872521E+04  0.12699999809E+01 0. -1.
</event>
<event>
 5   0  0.9434114E-09  0.3899697E+04  0.7818609E-02  0.8025092E-01
       -2   -1    0    0    0  501  0.00000000000E+00  0.00000000000E+00  0.23361414024E+04  0.23361414024E+04  0.25500000920E-02 0. -1.
        2   -1    0    0  501    0  0.00000000000E+00  0.00000000000E+00 -0.16274313341E+04  0.16274313341E+04  0.25500000920E-02 0.  1.
    10030    2    1    2    0    0  0.00000000000E+00  0.00000000000E+00  0.70871006832E+03  0.39635727365E+04  0.38996972801E+04 0.  0.
        4    1    3    3  502    0 -0.14780487140E+04 -0.93972178247E+03 -0.51653643614E+03  0.18260658619E+04  0.12699999809E+01 0.  1.
       -4    1    3    3    0  502  0.14780487140E+04  0.93972178247E+03  0.12252465045E+04  0.21375068746E+04  0.12699999809E+01 0. -1.
</event>
<event>
 5   0  0.2929054E-09  0.3902187E+04  0.7818609E-02  0.8024575E-01
        1   -1    0    0  501    0  0.00000000000E+00  0.00000000000E+00  0.15646998663E+04  0.15646998663E+04  0.50400001928E-02 0.  1.
       -1   -1    0    0    0  501  0.00000000000E+00  0.00000000000E+00 -0.24329046640E+04  0.24329046641E+04  0.50400001928E-02 0. -1.
    10030    2    1    2    0    0  0.00000000000E+00  0.00000000000E+00 -0.86820479779E+03  0.39976045303E+04  0.39021868753E+04 0.  0.
        1    1    3    3  502    0  0.16505412917E+04  0.81943191218E+03 -0.10908797444E+04  0.21414419981E+04  0.50400001928E-02 0. -1.
       -1    1    3    3    0  502 -0.16505412917E+04 -0.81943191218E+03  0.22267494662E+03  0.18561625323E+04  0.50400001928E-02 0.  1.
</event>
<event>
 5   0  0.9434114E-09  0.3900793E+04  0.7818609E-02  0.8024864E-01
       -2   -1    0    0    0  501  0.00000000000E+00  0.00000000000E+00  0.14977710696E+04  0.14977710697E+04  0.25500000920E-02 0.  1.
        2   -1    0    0  501    0  0.00000000000E+00  0.00000000000E+00 -0.25398050170E+04  0.25398050170E+04  0.25500000920E-02 0. -1.
    10030    2    1    2    0    0  0.00000000000E+00  0.00000000000E+00 -0.10420339473E+04  0.40375760866E+04  0.39007929845E+04 0.  0.
        4    1    3    3  502    0 -0.12389957488E+04 -0.56211477957E+03  0.92547038809E+03  0.16454727415E+04  0.12699999809E+01 0.  1.
       -4    1    3    3    0  502  0.12389957488E+04  0.56211477957E+03 -0.19675043354E+04  0.23921033451E+04  0.12699999809E+01 0. -1.
</event>
<event>
 5   0  0.9078515E-09  0.3900314E+04  0.7818609E-02  0.8024964E-01
       -2   -1    0    0    0  501  0.00000000000E+00  0.00000000000E+00  0.13519853475E+04  0.13519853475E+04  0.25500000920E-02 0. -1.
        2   -1    0    0  501    0  0.00000000000E+00  0.00000000000E+00 -0.28129827176E+04  0.28129827176E+04  0.25500000920E-02 0.  1.
    10030    2    1    2    0    0  0.00000000000E+00  0.00000000000E+00 -0.14609973701E+04  0.41649680651E+04  0.39003135346E+04 0.  0.
        3    1    3    3  502    0  0.34185535216E+03 -0.42072264960E+03  0.12699094663E+04  0.13807761196E+04  0.10100000352E+00 0. -1.
       -3    1    3    3    0  502 -0.34185535216E+03  0.42072264960E+03 -0.27309068364E+04  0.27841919455E+04  0.10100000352E+00 0.  1.
</event>
<event>
 5   0  0.2904500E-09  0.3900451E+04  0.7818609E-02  0.8024935E-01
       -1   -1    0    0    0  501  0.00000000000E+00  0.00000000000E+00  0.17241095999E+04  0.17241095999E+04  0.50400001928E-02 0.  1.
        1   -1    0    0  501    0  0.00000000000E+00  0.00000000000E+00 -0.22059962873E+04  0.22059962873E+04  0.50400001928E-02 0. -1.
    10030    2    1    2    0    0  0.00000000000E+00  0.00000000000E+00 -0.48188668739E+03  0.39301058872E+04  0.39004509362E+04 0.  0.
        4    1    3    3  502    0 -0.89961688635E+03  0.51378147117E+03  0.14239191800E+04  0.17609172003E+04  0.12699999809E+01 0.  1.
       -4    1    3    3    0  502  0.89961688635E+03 -0.51378147117E+03 -0.19058058674E+04  0.21691886869E+04  0.12699999809E+01 0. -1.
</event>
<event>
 5   0  0.9368546E-09  0.3900034E+04  0.7818609E-02  0.8025022E-01
       -2   -1    0    0    0  501  0.00000000000E+00  0.00000000000E+00  0.20863539044E+04  0.20863539044E+04  0.25500000920E-02 0.  1.
        2   -1    0    0  501    0  0.00000000000E+00  0.00000000000E+00 -0.18225891526E+04  0.18225891526E+04  0.25500000920E-02 0. -1.
    10030    2    1    2    0    0  0.00000000000E+00  0.00000000000E+00  0.26376475185E+03  0.39089430570E+04  0.39000338432E+04 0.  0.
        5    1    3    3  502    0  0.20761906516E+03 -0.12037603883E+04 -0.13915896246E+04  0.18516718181E+04  0.46999998093E+01 0. -1.
       -5    1    3    3    0  502 -0.20761906516E+03  0.12037603883E+04  0.16553543765E+04  0.20572712389E+04  0.46999998093E+01 0.  1.
</event>
<event>
 5   0  0.9368546E-09  0.3900282E+04  0.7818609E-02  0.8024971E-01
       -2   -1    0    0    0  501  0.00000000000E+00  0.00000000000E+00  0.23982571848E+04  0.23982571848E+04  0.25500000920E-02 0. -1.
        2   -1    0    0  501    0  0.00000000000E+00  0.00000000000E+00 -0.15857556131E+04  0.15857556131E+04  0.25500000920E-02 0.  1.
    10030    2    1    2    0    0  0.00000000000E+00  0.00000000000E+00  0.81250157167E+03  0.39840127979E+04  0.39002819346E+04 0.  0.
        5    1    3    3  502    0 -0.26576899142E+02 -0.15800538534E+04  0.15734767477E+04  0.22300510481E+04  0.46999998093E+01 0. -1.
       -5    1    3    3    0  502  0.26576899142E+02  0.15800538534E+04 -0.76097517606E+03  0.17539617498E+04  0.46999998093E+01 0.  1.
</event>
<event>
 5   0  0.6335942E-09  0.3899068E+04  0.7818609E-02  0.8025223E-01
        2   -1    0    0  501    0  0.00000000000E+00  0.00000000000E+00  0.19764048683E+04  0.19764048683E+04  0.25500000920E-02 0. -1.
       -2   -1    0    0    0  501  0.00000000000E+00  0.00000000000E+00 -0.19230288272E+04  0.19230288272E+04  0.25500000920E-02 0.  1.
    10030    2    1    2    0    0  0.00000000000E+00  0.00000000000E+00  0.53376041078E+02  0.38994336956E+04  0.38990683688E+04 0.  0.
        2    1    3    3  502    0  0.12217446996E+04  0.93282004782E+03 -0.11725365794E+04  0.19333016792E+04  0.25500000920E-02 0.  1.
       -2    1    3    3    0  502 -0.12217446996E+04 -0.93282004782E+03  0.12259126205E+04  0.19661320164E+04  0.25500000920E-02 0. -1.
</event>
<event>
 5   0  0.2904500E-09  0.3900857E+04  0.7818609E-02  0.8024851E-01
        1   -1    0    0  501    0  0.00000000000E+00  0.00000000000E+00  0.25619086265E+04  0.25619086265E+04  0.50400001928E-02 0. -1.
       -1   -1    0    0    0  501  0.00000000000E+00  0.00000000000E+00 -0.14848971674E+04  0.14848971674E+04  0.50400001928E-02 0.  1.
    10030    2    1    2    0    0  0.00000000000E+00  0.00000000000E+00  0.10770114591E+04  0.40468057939E+04  0.39008567585E+04 0.  0.
        3    1    3    3  502    0 -0.97140016031E+02 -0.15076744231E+03 -0.14763243395E+04  0.14871787283E+04  0.10100000352E+00 0.  1.
       -3    1    3    3    0  502  0.97140016031E+02  0.15076744231E+03  0.25533357986E+04  0.25596270656E+04  0.10100000352E+00 0. -1.
</event>
</LesHouchesEvents>
